default_name
 39507
  29.6209012  47.6676865  43.5431694  29.7922336  48.5893148  43.9191314
  30.2463942  47.0130800  43.9907733  28.6255105  47.4965271  43.5443237
  30.0095042  47.6723414  42.1373373  30.8152937  46.9657736  41.9384294
  28.8225877  47.3297205  41.2300908  28.1101760  48.1545770  41.2435261
  29.3041682  47.1019163  39.8119345  30.0163161  46.2768456  39.7976247
  28.4545635  46.8589775  39.1737707  29.7886228  48.0057862  39.4425775
  28.0821591  46.1105801  41.7579385  27.7116138  46.3164940  42.7621286
  27.2427378  45.8821387  41.1012149  28.7607243  45.2581331  41.7893100
  30.5961238  49.0252940  41.7572771  29.8782727  49.9278325  41.3266276
  31.9095301  49.1569495  41.9041947  32.4590456  48.3488401  42.1593246
  32.5888531  50.4360559  41.7611109  31.8641999  51.2480704  41.8211895
  33.6223608  50.6200307  42.8734162  34.4914669  50.0194794  42.6049167
  33.8985851  51.6744145  42.8820729  33.1297453  50.2108773  44.2627432
  32.7854197  49.1779750  44.2112313  33.9687246  50.2795332  44.9552041
  31.9960650  51.0989807  44.7509227  32.3925691  52.0985962  44.9288340
  31.2335026  51.1442209  43.9733936  31.3781432  50.5606620  46.0382562
  32.1824283  50.3948932  46.7550175  30.6958828  51.3166730  46.4269302
  30.6347334  49.2844772  45.8210924  31.2668469  48.5836818  45.4613449
  30.2452556  48.9683931  46.6977326  29.8891516  49.4379656  45.1572792
  33.2496812  50.5142061  40.3912365  34.0798115  49.6658489  40.0490556
  32.8729691  51.5224226  39.6104980  32.0790087  52.0870792  39.8767479
  33.5640641  51.8463815  38.3795876  33.7102853  52.9264790  38.3899744
  34.5321331  51.3486424  38.4361353  32.8837685  51.4542161  37.0868718
  33.5706943  51.3363705  36.0661930  31.5654154  51.2638712  37.0866548
  31.0443466  51.4079546  37.9397824  30.8431082  50.8191347  35.9035214
  31.5133795  50.8380873  35.0441749  30.3057101  49.3909600  36.0752577
  29.5669241  49.4861920  36.8710122  29.8062780  49.1089654  35.1483560
  31.3234589  48.3165583  36.4519399  31.7159276  48.5228270  37.4476921
  30.6592283  46.9636466  36.4444249  30.2668900  46.7564593  35.4488131
  31.3879410  46.1990371  36.7135919  29.8417983  46.9556274  37.1654273
  32.5137425  48.3331300  35.5098352  33.0022506  49.3063485  35.5578467
  33.2209130  47.5573322  35.8033465  32.1739095  48.1476255  34.4909139
  29.6842898  51.7597990  35.6084829  29.1287404  52.3909490  36.5123759
  29.3208064  51.8376360  34.3297233  29.8618883  51.3660533  33.6191323
  28.1707932  52.6225689  33.9125570  28.2240471  53.6188466  34.3515263
  28.1306024  52.7608273  32.3907333  27.3954825  53.5203399  32.1245764
  29.4940336  53.1648580  31.8522552  30.2296399  52.4055458  32.1176377
  29.4438017  53.2578572  30.7673925  29.7874054  54.1212064  32.2851887
  27.7495834  51.5105697  31.8047935  27.7248956  51.5993378  30.8492250
  26.8773149  51.9741957  34.4037872  26.8589999  50.8387953  34.8896158
  25.7788196  52.7189936  34.2655655  25.8346178  53.6791825  33.9573070
  24.4689006  52.1807344  34.6192108  24.4650015  51.8688475  35.6636295
  23.3873062  53.2472131  34.4228698  23.5089516  53.6511298  33.4178062
  22.4138499  52.7636093  34.5041737  23.4782472  54.3780353  35.4383814
  24.0951758  54.1751621  36.5083242  22.9221230  55.4681055  35.1695660
  24.1519182  50.9366886  33.7966622  23.7551200  49.9000949  34.3429448
  24.3258076  51.0238106  32.4747479  24.6202573  51.8897972  32.0464186
  24.0379518  49.8855073  31.6073532  23.0095120  49.5547875  31.7523881
  24.2195971  50.2864175  30.1472693  23.3018111  50.7789768  29.8260941
  25.0465181  50.9951472  30.1025043  24.5095324  49.1148611  29.2334235
  25.4638343  48.6842650  29.5367316  23.7186911  48.3774635  29.3709511
  24.5777715  49.5156050  27.7734572  24.3624530  50.7134541  27.4655374
  24.8456694  48.6265295  26.9345642  24.9212744  48.6877292  31.9391149
  24.4448186  47.5468806  31.9749109  26.2145597  48.9242463  32.1676731
  26.6089145  49.8463937  32.0483930  27.1088724  47.8318244  32.5323635
  27.0853356  47.0579553  31.7651140  28.5426306  48.3493515  32.6608282
  28.5019938  49.2540264  33.2674676  29.1118821  47.5840211  33.1883906
  29.2195885  48.6595029  31.3319204  29.4255269  47.7120416  30.8339172
  28.5276620  49.2448161  30.7263254  30.5149883  49.4306120  31.5070663
  30.8109270  49.8398812  32.6500383  31.2331810  49.6302966  30.5005275
  26.6584703  47.1606457  33.8253017  26.6572872  45.9289487  33.9270021
  26.2436798  47.9550432  34.8150444  26.2476216  48.9602857  34.7172117
  25.8399580  47.3858685  36.0978768  26.6071872  46.7022304  36.4613290
  25.6508050  48.4979983  37.1261926  25.0448000  49.2760337  36.6619534
  25.1110455  48.0747612  37.9733231  26.9565911  49.0955054  37.6075728
  27.5924379  48.2939501  37.9834835  27.4467399  49.5822790  36.7644195
  26.7623935  50.1150923  38.7082998  25.7067909  50.7446967  38.8093513
  27.7828899  50.2826497  39.5459104  27.7088624  50.9504377  40.3000196
  28.6267179  49.7412560  39.4236460  24.5714778  46.5520444  35.9687869
  24.4680773  45.4751787  36.5695944  23.5972029  47.0293044  35.1912008
  23.6641307  47.9413102  34.7624055  22.3688307  46.2642685  35.0020400
  21.9421259  45.9989901  35.9693298  21.3467512  47.0955029  34.2291306
  21.8564520  47.5152075  33.3618634  20.5607517  46.4180827  33.8953543
  20.7304097  48.2232413  35.0514069  21.4844285  48.9960223  35.2009594
  19.8900566  48.6390282  34.4955020  20.2416019  47.7169390  36.4123510
  19.5739790  46.8719456  36.2439325  21.1074451  47.3864938  36.9861287
  19.5029720  48.8006179  37.1871581  20.1828031  49.6411394  37.3266349
  18.6479361  49.1205110  36.5916069  19.0293181  48.3179748  38.5180922
  19.8215017  48.0219094  39.0702608  18.5469990  49.0661014  38.9953498
  18.3990235  47.5394012  38.3890539  22.6431983  44.9444529  34.2912726
  22.0665146  43.9094447  34.6430721  23.5263827  44.9615235  33.2907233
  23.9273445  45.8305071  32.9679284  23.9023533  43.7294383  32.6053577
  23.0232569  43.2003083  32.2375122  24.8124532  44.0506427  31.4175194
  25.6485699  44.6546565  31.7699065  25.3420081  42.7764590  30.7780841
  24.5064295  42.1721009  30.4250127  25.9859607  43.0320961  29.9366129
  25.9137181  42.2106396  31.5136769  24.0891836  44.8119303  30.4425182
  24.6647199  45.0103473  29.7002319  24.6022150  42.7649313  33.5513772
  24.3941856  41.5472713  33.4803218  25.4350062  43.2887260  34.4428651
  25.5326450  44.2908235  34.5226565  26.2837865  42.4465923  35.2667903
  26.4903215  41.5066171  34.7550393  27.6117101  43.1574857  35.5387106
  27.3408412  44.1313789  35.9464622  28.2127782  42.6135222  36.2673537
  28.4206315  43.3500689  34.2516279  27.7875405  43.8558628  33.5226086
  29.6653345  44.1655616  34.4868149  30.2991862  43.6601393  35.2154295
  30.2092264  44.2780648  33.5489314  29.3894367  45.1493443  34.8664891
  28.7690483  42.0049731  33.6380287  27.8524801  41.4639242  33.4029366
  29.3435353  42.1595446  32.7246976  29.3615103  41.4248293  34.3455037
  25.6397588  42.0268222  36.5808205  26.1565627  41.1123684  37.2243808
  24.5309680  42.6486854  36.9868984  24.1705255  43.4460033  36.4824534
  23.8598758  42.2497083  38.2258808  24.4934208  42.4752481  39.0836987
  22.5380261  43.0170347  38.3767737  22.2949043  43.4218431  37.3943679
  21.7815592  42.2874746  38.6659100  22.5693491  44.1438700  39.3946922
  22.7281512  43.6976369  40.3764043  23.4007559  44.8083218  39.1593928
  21.2738283  44.9376389  39.4031190  20.2009840  44.3285805  39.1949030
  21.3255014  46.1727611  39.6029563  23.6188598  40.7477352  38.3234520
  23.9654761  40.1632375  39.3630643  23.0567522  40.0632182  37.3168133
  22.5085697  40.5424111  36.0358839  23.2296564  41.2031764  35.5547151
  21.5817182  41.0868718  36.2164601  22.2862665  39.2745088  35.2662950
  23.1865027  39.0260378  34.7042132  21.4529474  39.4075968  34.5763905
  21.9786781  38.2466645  36.2668552  22.2432879  37.2555553  35.8983675
  20.9305045  38.2546918  36.5657991  22.8670049  38.6126212  37.4631495
  22.3489532  38.4425832  38.4069756  24.1678926  37.8320958  37.4533785
  24.2205372  36.7529358  38.0549989  25.2070227  38.3330772  36.7820908
  25.1001808  39.1423449  36.1873051  26.5109085  37.6810964  36.8351554
  26.4685648  36.6067929  36.6557727  27.4664517  38.3150985  35.8053378
  27.5255949  39.3872723  35.9925400  28.8663413  37.6997718  35.9139518
  28.8080702  36.6276099  35.7264035  29.5248407  38.1615294  35.1782488
  29.2628801  37.8720424  36.9145423  26.9065000  38.1915563  34.3886665
  25.9445564  38.7010142  34.3319287  27.6004522  38.6469129  33.6821395
  26.7745617  37.1385040  34.1401228  27.0792765  37.7671993  38.2453873
  27.6485479  36.8009295  38.7657273  26.9091851  38.9219753  38.8891594
  26.4622179  39.6989714  38.4237599  27.4234995  39.1272051  40.2380561
  28.4474770  38.7752822  40.3634340  27.3462987  40.6177292  40.6028613
  26.3523966  40.9910893  40.3561605  27.6096879  40.8201235  42.0884604
  28.6036579  40.4473995  42.3358486  27.5506292  41.8820402  42.3270933
  26.8636409  40.2760567  42.6676879  28.3148118  41.4097361  39.7189556
  29.3207571  41.2310919  40.0987728  28.2323502  41.0101387  38.7082026
  28.0434574  42.8865695  39.6966872  28.1261984  43.2869899  40.7070917
  28.7691426  43.3801425  39.0502617  27.0377899  43.0660365  39.3165235
  26.6645207  38.2662435  41.2412497  27.2633035  37.6266001  42.1112713
  25.3336982  38.2513766  41.1480545  24.8382232  38.8142871  40.4714928
  24.5555859  37.4602518  42.0896467  24.8727558  37.6787681  43.1093295
  23.0679883  37.7928282  41.9584811  22.7879827  37.6107519  40.9209146
  22.5260884  37.1041821  42.6067180  22.7158669  39.2302058  42.3356986
  23.0111169  39.3978992  43.3714627  23.2734758  39.9045583  41.6857578
  21.2242348  39.4972241  42.1838001  20.8585835  38.9242589  41.3316798
  20.7216853  39.1599527  43.0903272  20.9337114  40.9772127  41.9628370
  21.2466794  41.5223851  42.8533081  21.5178165  41.3148439  41.1067263
  19.4887982  41.2306731  41.7084128  18.9474133  40.9182808  42.5017684
  19.3401624  42.2197325  41.5678106  19.1986962  40.7259344  40.8830773
  24.7906721  35.9669427  41.8925747  24.7591682  35.2034621  42.8647239
  25.0369628  35.5322494  40.6554120  25.0486522  36.1708839  39.8730383
  25.2317857  34.1124008  40.3912250  24.5117263  33.5298752  40.9659228
  25.0228376  33.8179374  38.9025504  25.6459480  34.4966617  38.3201699
  25.3972451  32.3767907  38.5742014  24.7741917  31.6974290  39.1558987
  25.2399528  32.1931208  37.5113639  26.4456235  32.2081295  38.8202845
  23.6445339  34.0185495  38.5726859  23.5086970  33.8350945  37.6402198
  26.6102567  33.6354929  40.8317719  26.7307573  32.5630007  41.4367257
  27.6522174  34.4150418  40.5632362  27.5172675  35.3582424  40.2281833
  29.0137353  33.9199088  40.7007477  28.9969160  32.8811423  41.0305666
  29.7529138  33.9961718  39.3572865  29.7770100  35.0494344  39.0777218
  30.7702266  33.6411530  39.5220179  29.1159440  33.1977069  38.2503355
  29.1822998  31.8106861  38.2370619  29.7092456  31.2997514  39.0428990
  28.5923636  31.0775092  37.2216606  28.6438262  29.9887309  37.2255527
  27.9457100  31.7354109  36.1916108  27.3586607  31.0254940  35.1699136
  27.4561564  30.0755974  35.2688619  27.8705923  33.1104017  36.1823121
  27.3532140  33.6294674  35.3754720  28.4575451  33.8338295  37.2065483
  28.4075483  34.9226760  37.2028520  29.8634481  34.6421738  41.7285597
  30.8155471  34.0446084  42.2262264  29.5878165  35.9074402  42.0359701
  28.7407939  36.3502344  41.7094963  30.5467108  36.7145999  42.7827780
  31.4809860  36.1660888  42.9026305  30.8369631  38.0169112  42.0342997
  29.9014653  38.5122230  41.7742817  31.4396293  38.6816408  42.6531923
  31.5901812  37.8236596  40.7533589  32.9268269  37.4859989  40.7167875
  33.3168423  37.3925840  39.4543788  34.3494393  37.1404350  39.2130011
  32.2825959  37.6467225  38.6747372  32.2837233  37.6448320  37.6647397
  31.1894833  37.9178923  39.4607695  30.2304797  38.1520256  38.9986061
  30.1113564  37.0260803  44.2115381  30.7714870  37.8249533  44.8815893
  29.0450471  36.4078341  44.7058760  28.5071617  35.7554745  44.1534218
  28.5910865  36.7068969  46.0570370  28.8073141  37.7489547  46.2925374
  27.0843866  36.4777408  46.1915945  26.8475800  35.5737534  45.6304985
  26.8798348  36.3122496  47.2493616  26.2206834  37.6383750  45.6793434
  26.4916397  37.8417630  44.6433334  25.1729841  37.3417601  45.7288199
  26.4048655  38.9210839  46.4939383  26.8367068  38.8826931  47.6516435
  26.0748466  40.0626163  45.8873997  26.1763026  40.9394273  46.3783281
  25.7250636  40.0447739  44.9400693  29.3376487  35.8649550  47.0840125
  29.7715010  34.7435264  46.8116152  29.4889008  36.4250160  48.2757039
  29.2520082  37.3984000  48.4041752  30.0502385  35.6985061  49.4013523
  29.9924739  34.6291451  49.1983019  31.5331330  36.0751333  49.6568084
  31.6329974  37.1595545  49.6103661  31.8629587  35.7219212  50.6338224
  32.5101337  35.5021341  48.6324024  32.7010478  34.1243905  48.5189632
  32.1393371  33.4591127  49.1746968  33.5963109  33.5926836  47.5824715
  33.7219930  32.5129927  47.5014021  34.3281722  34.4454279  46.7523418
  35.0297683  34.0430215  46.0216354  34.1542617  35.8209981  46.8653895
  34.7187873  36.4942110  46.2202574  33.2541785  36.3424828  47.8076495
  33.1287359  37.4210601  47.9027023  29.1991086  35.9715993  50.6353507
  28.5982144  37.0408360  50.7777865  29.1243918  34.9820165  51.5120566
  29.5970965  34.1039816  51.3517309  28.3154683  35.1202521  52.7122314
  27.3406746  35.5379881  52.4604912  28.1086844  33.7583566  53.3579490
  29.0741767  33.4006862  53.7157139  27.4314143  33.8812093  54.2031191
  27.5245656  32.7494473  52.3838848  26.5433677  33.1131633  52.0788239
  28.1826733  32.7095201  51.5158991  27.3868038  31.3643946  52.9758559
  27.8064592  31.1682365  54.1404148  26.8562424  30.4748535  52.2705608
  28.9812552  36.0817907  53.6929543  30.2041776  36.0544176  53.8579433
  28.2096350  36.9532169  54.3435138  26.7474877  37.0976281  54.2626587
  26.2669798  36.3623462  54.9080834  26.4174707  36.9486761  53.2345532
  26.5335287  38.5014085  54.7325388  25.5459063  38.5893712  55.1852678
  26.6074059  39.1855992  53.8872420  27.6246755  38.7674804  55.7366739
  27.2579831  38.4368495  56.7084346  27.9375685  39.8095394  55.8023303
  28.8074531  37.8921136  55.2999555  29.5870134  38.4640168  54.7966557
  29.4100308  37.1407930  56.4745190  28.8296290  36.1771564  56.9812419
  30.5844779  37.5896913  56.9016086  30.9799633  38.4167462  56.4777326
  31.3528547  36.9082764  57.9337998  30.6940566  36.5654904  58.7316607
  32.0586604  35.6927929  57.3258433  31.3020417  35.1165209  56.7933604
  32.7991825  36.0622534  56.6164591  32.7428935  34.8024125  58.3565328
  33.0737167  35.2510646  59.4881887  32.9593976  33.6165902  58.0132536
  32.3516819  37.8908549  58.5344036  33.2336771  38.3898837  57.8257820
  32.2634417  38.1845718  59.8349677  31.3646960  37.6059611  60.8427668
  31.3171763  36.5243641  60.7163155  30.3660742  38.0284596  60.7316427
  32.0159848  38.0076418  62.1357345  32.7261351  37.2393094  62.4414321
  31.2549340  38.1258204  62.9070559  32.6954980  39.2937122  61.8626489
  33.5336796  39.4411802  62.5436803  32.0225553  40.1489080  61.9250015
  33.2106416  39.1379306  60.4295847  33.1348510  40.0679986  59.8662662
  34.6405486  38.6564899  60.4141241  35.5480937  39.4801829  60.5861582
  34.8871975  37.3627184  60.2041276  34.1391557  36.6905402  60.1108043
  36.2578250  36.8798933  60.1555758  36.9050008  37.5080086  60.7677309
  36.3428072  35.4476576  60.6683770  37.3901052  35.1482171  60.7084101
  35.7240269  35.3370282  62.0728648  34.6765356  35.6358844  62.0335371
  35.7945103  34.3066576  62.4213869  36.2620834  35.9900666  62.7599867
  35.6481910  34.5778466  59.7628401  35.7001601  33.6745168  60.0836123
  36.8664601  36.9339259  58.7600259  38.0462454  36.6053963  58.6007621
  36.1036518  37.2953081  57.7386526  35.1343373  37.5525901  57.8583803
  36.6558591  37.2974379  56.3950159  37.6853136  36.9419709  56.4393530
  35.8611792  36.3880306  55.4348584  36.3762689  36.3553404  54.4747989
  35.7444745  34.9712221  55.9988980  35.2290433  35.0030546  56.9588027
  35.1802818  34.3485267  55.3046098  36.7408069  34.5509021  56.1358415
  34.5491890  36.9292309  55.2667721  34.0462896  36.3698232  54.6703197
  36.6682696  38.7046999  55.8293662  35.9198710  39.5885600  56.2547366
  37.5142823  38.8731537  54.8260951  38.1870181  38.1409922  54.6487104
  37.5499094  40.0545981  53.9911401  36.8714857  40.8122358  54.3833461
  38.9690513  40.6320054  53.9697625  39.2196629  41.0368057  54.9502877
  39.6830684  39.8517907  53.7060493  39.2313559  41.9527115  52.8096113
  40.5139501  42.1443537  53.1047782  37.0927573  39.6326372  52.6039404
  37.5435325  38.6008254  52.0939795  36.1628987  40.3892426  52.0181963
  35.7715559  41.1744239  52.5186366  35.6714218  40.1123857  50.6692805
  36.3374924  39.3855816  50.2043019  34.2362020  39.5492972  50.6485100
  33.9680329  39.3157435  49.6181516  34.1282319  38.2936858  51.4964936
  34.3958210  38.5265696  52.5271540  33.1052330  37.9189122  51.4630705
  34.8060559  37.5332823  51.1086253  33.3399576  40.5350145  51.1701961
  32.4440421  40.1902965  51.1599421  35.6920848  41.3951296  49.8583144
  35.5405838  42.4939004  50.3994764  35.8590798  41.2494674  48.5483968
  35.9330097  40.3422506  48.1106853  35.9927382  42.4289681  47.7137272
  35.2779381  43.1886830  48.0299443  37.4084816  43.0094160  47.8292517
  37.6497103  43.0989060  48.8884493  38.0983133  42.3093554  47.3579266
  37.5265394  44.2764761  47.2102160  38.4258491  44.5978415  47.3080230
  35.6653102  42.0342787  46.2844095  35.7859828  40.8635344  45.9123906
  35.2225267  43.0164315  45.5016090  35.0348792  43.9212493  45.9092760
  34.9624639  42.8318070  44.0771504  35.3577075  41.8654330  43.7640962
  33.4667613  42.8731865  43.7622686  33.0594261  41.9499950  44.1744517
  33.0063544  43.7268029  44.2597267  33.1691555  42.9364865  42.2581297
  33.7754615  43.7236798  41.8099995  33.4921774  41.6100846  41.5948954
  32.8858805  40.8224231  42.0422124  33.2748523  41.6739477  40.5286909
  34.5481142  41.3799472  41.7367924  31.7177928  43.3170601  42.0013285
  31.5154867  44.2952580  42.4375630  31.5359476  43.3541628  40.9272442
  31.0612225  42.5746557  42.4550356  35.6939050  43.9306717  43.3260496
  35.4922513  45.1135924  43.6152266  36.5559321  43.5383110  42.3895971
  36.6592304  42.5461920  42.2310770  37.3677284  44.4556242  41.5922889
  37.2186274  45.4998371  41.8670388  38.8645212  44.1077827  41.6916045
  39.0296367  43.1310990  41.2367130  39.7239124  45.1668806  40.9635987
  39.5596718  46.1438177  41.4182628  40.7775395  44.9003943  41.0469990
  39.4412824  45.2041875  39.9115400  39.2905100  43.9213812  43.1613218
  38.6619062  43.1341766  43.5775752  40.3288183  43.5898205  43.1522191
  39.1677611  45.1567888  44.0036643  38.1295739  45.4887044  44.0136251
  39.4879165  44.9361533  45.0219569  39.7964847  45.9443494  43.5882672
  36.8999158  44.3471987  40.1471241  36.5930972  43.2438442  39.6822452
  36.8584739  45.4763115  39.4329283  37.1043418  46.3553414  39.8653111
  36.4175921  45.4889298  38.0410095  36.2515145  44.4619276  37.7157650
  35.1039687  46.2820863  37.8617719  34.6754374  46.0362556  36.8901606
  34.1030279  45.9345104  38.9619889  34.5307016  46.1805125  39.9339342
  33.1865602  46.5056735  38.8138036  33.8765381  44.8689615  38.9244591
  35.3743756  47.6826747  37.9279026  34.5561368  48.1721665  37.8161730
  37.4985349  46.0850589  37.1454214  38.3204855  46.8956016  37.5885914
  37.4986130  45.6750177  35.8748427  36.8436984  44.9753279  35.5560632
  38.4682734  46.2001919  34.9205380  38.7087989  47.2303198  35.1833748
  39.7564465  45.3838066  34.9203272  40.1652308  45.4076950  35.9304875
  39.4996093  44.3577399  34.6570368  40.7997101  45.9170433  33.9353701
  41.5986646  45.1848232  33.8186386  40.3082221  46.0739258  32.9751985
  41.4075169  47.2286714  34.3880771  41.7099916  47.4026193  35.5657215
  41.6074501  48.1510833  33.4529338  42.0103520  49.0422865  33.7049818
  41.3556139  47.9568281  32.4943176  37.8524067  46.1932048  33.5317668
  37.4313221  45.1378609  33.0457391  37.8260019  47.3548473  32.8915960
  38.1060861  48.2023901  33.3641670  37.3540957  47.4542363  31.5172644
  36.6178898  46.6746248  31.3215453  36.7013126  48.8139257  31.2751814
  36.0339871  49.0009401  32.1164907  37.5005472  49.5550892  31.2743181
  35.9198146  48.9120612  29.9788519  36.6176916  48.8059451  29.1483051
  35.1965365  48.0970663  29.9513902  35.1877669  50.2454400  29.8603725
  35.9133103  51.0501217  29.9794236  34.7379366  50.3061875  28.8693822
  34.1403728  50.4098913  30.8591980  33.3248802  49.8188918  30.7831013
  34.1974736  51.2838216  31.8540604  35.2301102  52.0980396  31.9969857
  35.9949209  52.0591103  31.3384652  35.2489992  52.7549012  32.7639769
  33.1950734  51.3424746  32.7251860  32.4033201  50.7239911  32.6217217
  33.2298261  52.0052528  33.4865112  38.5450692  47.2355539  30.5931043
  39.6090309  47.8130169  30.8131453  38.3854417  46.3571913  29.5990237
  37.4952756  45.8916276  29.4943620  39.4601561  46.0100229  28.6759414
  40.2858033  46.7144247  28.7770547  39.9773509  44.5772576  28.9035425
  39.1607823  43.8684578  28.7659959  41.0927586  44.2733540  27.8959309
  41.9099392  44.9815054  28.0331829  41.4605273  43.2596770  28.0550092
  40.7017367  44.3625680  26.8824014  40.4776037  44.4012786  30.3454348
  41.3426466  45.0520787  30.4729533  39.6777890  44.7263541  31.0108083
  40.8662470  42.9705815  30.6819957  41.6663898  42.6449411  30.0172930
  41.2098633  42.9203467  31.7151963  40.0015322  42.3192158  30.5551457
  38.9405222  46.1611659  27.2504670  37.9165183  45.5614091  26.8922074
  39.6509549  46.9467338  26.4347302  40.4673212  47.4406004  26.7660023
  39.1859761  47.2091628  25.0666426  38.1025631  47.1019868  25.0134558
  39.5541971  48.6223289  24.6548274  40.5954559  48.7799176  24.9359771
  39.4297644  48.8308043  23.5922106  38.7546787  49.6467882  25.3871891
  37.4616849  49.9661636  25.0355194  36.9948260  50.8785587  25.8699706
  35.9889140  51.2804485  25.7486256  37.9310399  51.1412215  26.7642596
  37.8579643  51.8024774  27.5241942  39.0322099  50.3669483  26.4977888
  39.9063717  50.4209573  27.1466536  39.7210922  46.1444954  24.1084896
  40.5427166  46.3870948  23.2205686  39.1893166  44.9414854  24.3063649
  38.5350953  44.8425621  25.0694560  39.5189134  43.7608443  23.5231117
  39.6178828  44.0066227  22.4658051  40.8370375  43.1261612  24.0065333
  40.7502584  42.8661978  25.0615159  41.0416199  42.2261260  23.4267205
  41.6530524  43.8365216  23.8738421  38.3567324  42.7764455  23.6487153
  37.5874419  42.8432211  24.6170310  38.1772435  41.8845132  22.6744939
  38.9522716  41.7565939  21.4212844  39.8111606  41.1058623  21.5854745
  39.2977789  42.7395987  21.1012449  37.9504641  41.1620615  20.4681223
  38.4513330  40.5995478  19.6802088  37.3318735  41.9403255  20.0211859
  37.0956611  40.2263700  21.3820737  37.6282600  39.2813477  21.4887053
  36.0840070  40.0343600  21.0245998  37.0445808  40.9513157  22.7327767
  36.1268699  41.5220283  22.8748754  37.2106209  39.9648203  23.8802733
  38.3266915  39.6350373  24.2837491  36.0786522  39.4633240  24.3766847
  35.1682256  39.7656642  24.0607526  36.1467309  38.4805130  25.4661900
  36.7149145  38.9123167  26.2900906  34.7404356  38.1403939  25.9669989
  34.1621602  37.6986137  25.1555016  34.8095391  37.4307239  26.7914341
  34.2470086  39.0493605  26.3111046  36.8697933  37.2148379  25.0255447
  37.5124779  36.5480778  25.8379094  36.8191449  36.9063782  23.7311953
  36.2301137  37.4495307  23.1162751  37.5439824  35.7701627  23.1700507
  37.3072602  34.8585160  23.7186508  37.1281292  35.5819779  21.7015050
  37.5880318  34.6711993  21.3180064  36.0432284  35.4898138  21.6505530
  37.5492397  36.6976737  20.9112680  37.2815493  36.5630173  19.9992322
  39.0632768  35.9171618  23.2620537  39.7743597  34.9128374  23.1694863
  39.5842487  37.1345045  23.4144410  39.0038443  37.9579283  23.3423062
  41.0178660  37.3143574  23.6182386  41.6225502  36.4840247  23.2535415
  41.4797711  38.6082822  22.9130384  40.8956520  39.4420667  23.3025350
  42.9728617  38.8745767  23.1510377  43.5576940  38.0413749  22.7613622
  43.2645742  39.7925752  22.6408583  43.1579205  38.9791167  24.2201150
  41.1518304  38.5461163  21.4085955  40.0758675  38.4339684  21.2750713
  41.4835156  39.4652545  20.9256157  41.6638167  37.6950886  20.9594599
  41.3622415  37.3423411  25.1066976  42.4058992  36.8309532  25.5163390
  40.4915072  37.9421031  25.9159265  39.6538358  38.3604163  25.5372180
  40.7511904  38.0845813  27.3484189  41.7687236  38.4301617  27.5309007
  39.7687751  39.1033646  27.9567261  38.7507644  38.8061711  27.7048739
  39.9237987  39.1591690  29.4959287  40.9414974  39.4567645  29.7485692
  39.2212312  39.8844801  29.9063225  39.7179819  38.1756098  29.9182464
  40.0145215  40.4930796  27.3724087  39.8720853  40.4639757  26.2921463
  39.3127371  41.2018934  27.8119327  41.0343603  40.8064871  27.5955800
  40.6638989  36.7304720  28.0576813  41.5338347  36.3684000  28.8646619
  39.6050627  35.9717671  27.7790473  38.9142885  36.2776654  27.1087067
  39.3510687  34.7334276  28.5236595  39.2770165  34.9280225  29.5935886
  38.0115754  34.1527346  28.0354154  37.2230170  34.7965122  28.4250630
  37.9831235  34.1630620  26.9458357  37.6726255  32.7521365  28.4610233
  37.5153307  31.6675929  27.6476910  37.6647918  31.8300635  26.5802808
  37.1873428  30.5568334  28.3911755  37.0291242  29.6294635  28.0236819
  37.1156899  30.9115391  29.7108768  36.8170191  30.1337036  30.8296027
  36.6008748  29.0754919  30.6827411  36.8142797  30.7522441  32.0480858
  36.5812885  30.1753197  32.9430570  37.1064864  32.1234674  32.1767821
  37.1061851  32.6091721  33.1525846  37.4080368  32.9086739  31.0476939
  37.6198260  33.9686511  31.1880305  37.4163575  32.2910003  29.7960582
  40.4873623  33.7066321  28.4463177  40.8345400  33.1382540  29.4974557
  41.1105369  33.4336860  27.2930619  40.8369193  33.9612929  25.9390286
  41.2527870  34.9645874  25.8465375  39.7605057  33.9978477  25.7714086
  41.5172848  32.9753917  25.0513065  41.8335811  33.4745688  24.1354037
  40.8218420  32.1728597  24.8055362  42.6676146  32.4597256  25.8060084
  43.5250311  33.1224700  25.6889372  42.9433132  31.4516390  25.4964096
  42.2108478  32.4510241  27.2725310  41.7920939  31.4901843  27.5717474
  43.3645737  32.8039190  28.1856792  44.0646889  31.9017462  28.6562448
  43.6258844  34.0975565  28.4019190  43.1231579  34.8276374  27.9178246
  44.6916810  34.4840389  29.3224378  45.6296682  34.0068525  29.0385851
  44.8799758  36.0004073  29.2715061  43.8945353  36.4249505  29.4632591
  45.5570377  36.2751528  30.0803337  45.4231003  36.5470558  27.9409407
  44.8261069  36.1488523  27.1204935  45.3506799  38.0654789  27.9294218
  45.9478487  38.4644542  28.7493651  45.7379778  38.4410407  26.9822923
  44.3142120  38.3812218  28.0483382  46.8500666  36.0771962  27.7845751
  46.8758839  34.9875125  27.7798554  47.2563468  36.4538100  26.8458527
  47.4491905  36.4507136  28.6150174  44.3685971  34.0313417  30.7431489
  45.2512199  33.5709429  31.4771510  43.1045143  34.1566283  31.1433985
  42.4271804  34.6206775  30.5552009  42.6747646  33.6962771  32.4719910
  43.3933056  33.8813848  33.2704478  41.3389923  34.3822434  32.8146564
  40.7299152  34.4109681  31.9111629  40.5820642  33.6460530  33.9141201
  41.1903624  33.6173238  34.8181381  39.6467579  34.1655440  34.1225233
  40.3670658  32.6281326  33.5889847  41.5847001  35.8491279  33.1615677
  41.8078312  35.9075612  34.2268840  42.4495674  36.1870263  32.5906661
  40.3993730  36.7294656  32.8470360  39.5341779  36.3924441  33.4179598
  40.6309552  37.7605869  33.1139775  40.1759127  36.6719072  31.7817415
  42.5637825  32.1749638  32.5135787  42.9182374  31.5261020  33.5127705
  42.0636888  31.5780342  31.4331314  41.8651218  32.1076819  30.5963854
  41.7223195  30.1560545  31.4509576  41.1958290  29.9030420  32.3712247
  40.8097658  29.8406733  30.2626754  39.8988661  30.4228762  30.4019620
  41.3275783  30.1856776  29.3677216  40.4519413  28.3683149  30.1060505
  39.8544463  28.2577766  29.2011296  41.3776444  27.8025119  30.0009659
  39.6702316  27.8421614  31.2952437  40.2588666  27.9437316  32.2069954
  38.7353357  28.3919600  31.4038278  39.3609580  26.4275975  31.0924709
  38.4988388  26.2024884  30.6168915  40.1538237  25.4357665  31.4658783
  41.3037146  25.6673656  32.0889272  41.5857848  26.6170817  32.2853340
  41.8907721  24.8927007  32.3634402  39.7719267  24.1779578  31.2387200
  38.8871675  23.9958405  30.7869074  40.3692891  23.4135163  31.5195868
  42.9656038  29.2758557  31.4313861  42.9286709  28.1413305  31.9236650
  44.0846673  29.7912824  30.9076178  44.0514290  30.6797534  30.4284374
  45.3549867  29.0718652  30.9448826  45.2011961  28.0361523  30.6419859
  46.3682057  29.7172564  29.9889892  45.8297835  29.9734441  29.0765372
  46.7248520  30.6291119  30.4679705  47.5510971  28.8305087  29.6459215
  48.1597850  29.3344400  28.8951532  48.1433767  28.6733373  30.5473670
  47.0919431  27.5007095  29.1092672  46.9423427  26.8087728  29.9380871
  46.1524099  27.6325692  28.5726205  48.0743021  26.9309805  28.1972427
  48.7168870  26.2512412  28.5782133  48.1675031  27.2382513  26.9099109
  47.3202569  28.0802224  26.3322835  46.5826261  28.5029909  26.8775061
  47.4168392  28.2945084  25.3500142  49.1415203  26.6980635  26.1842079
  49.7969156  26.0630826  26.6170548  49.2216806  26.9251086  25.2033290
  45.9013414  29.0249605  32.3672955  46.7148433  29.8700120  32.7730253
  45.4818307  27.9952011  33.1126622  44.9413792  27.2536990  32.6905412
  45.7183965  27.9456291  34.5485174  45.3492106  28.8544760  35.0236998
  44.9770111  26.7400971  35.1508224  43.9375851  26.7261028  34.8229549
  45.4701236  25.8214696  34.8329172  44.9540555  26.7178847  36.6651703
  44.3759017  27.7580868  37.3867684  43.9315628  28.5963024  36.8500586
  44.3609557  27.7362552  38.7769040  43.9222536  28.5676606  39.3286342
  44.9082378  26.6486148  39.4680615  44.8780168  26.6181327  40.5572160
  45.4868708  25.6137819  38.7655669  45.9367885  24.7730961  39.2936972
  45.4947677  25.6464373  37.3616779  45.9309356  24.8205376  36.7997640
  47.2062192  27.8917102  34.8742927  47.6386260  28.4512732  35.8839711
  48.0073801  27.2276089  34.0416543  47.6555218  26.7705017  33.2125898
  49.4185430  27.0717068  34.3703774  49.5426983  27.0782249  35.4532634
  49.9713392  25.7487016  33.8210826  50.8908476  25.5383429  34.3672994
  49.2371816  24.9715810  34.0336764  50.2614324  25.7749928  32.3385126
  49.7451533  26.6368403  31.5908979  51.0311223  24.8905789  31.9086284
  50.2995989  28.2197928  33.8951437  51.5171530  28.1397721  34.0809275
  49.7353805  29.2778592  33.2839145  48.7386733  29.2962074  33.1216265
  50.5470129  30.3886882  32.7640457  51.5834524  30.2876725  33.0860524
  50.5056872  30.3649436  31.2365882  50.6598911  29.3400665  30.8990272
  49.5192451  30.7059068  30.9223015  51.5579817  31.2548030  30.5874282
  52.6528439  31.4862485  31.1201896  51.2256025  31.7507531  29.4189182
  51.8717165  32.3504856  28.9260112  50.3252035  31.5304434  29.0178620
  50.1018710  31.7547042  33.3032098  49.9556184  32.7147366  32.5438422
  49.8938976  31.8871321  34.6181892  50.1989300  30.9594549  35.7261943
  51.1557238  30.4725842  35.5375073  49.4149166  30.2051483  35.7928538
  50.2356962  31.8628913  36.9409815  51.2396558  32.2624688  37.0841663
  49.9346079  31.3106687  37.8312048  49.2655732  32.9369071  36.6323628
  49.5143374  33.8307926  37.2043627  48.2262299  32.6654433  36.8172208
  49.4798524  33.1988471  35.1363441  48.5653082  33.4908064  34.6201398
  50.5300506  34.2571855  34.9320464  50.1983071  35.4476383  34.8831643
  51.7983055  33.8548455  34.8384725  52.0506946  32.8771771  34.8622112
  52.8661076  34.8418311  34.7833453  52.7433276  35.5593402  35.5946437
  54.2392902  34.1706797  34.9256986  54.9686987  34.9743979  35.0261951
  54.2077068  33.5918732  35.8487834  54.6378418  33.2695365  33.7798545
  54.1776424  33.6610481  32.8726411  55.7227045  33.3003217  33.6787396
  54.1904499  31.8346142  33.9952526  53.1645063  31.6227838  34.6711030
  54.8735954  30.9203644  33.4920138  52.8163277  35.6684061  33.5168613
  53.5012883  36.6911759  33.4477760  52.0069653  35.2797964  32.5272199
  51.5517473  34.3782069  32.5236889  51.8383404  36.1431713  31.3660243
  52.8036341  36.3198095  30.8915707  50.9057335  35.4853615  30.3469361
  50.7255204  34.4651130  30.6856327  49.9690514  36.0426457  30.3596266
  51.4604470  35.4586004  28.9302718  51.6900420  36.4794415  28.6248697
  52.3737336  34.8636566  28.9231001  50.4617787  34.8587046  27.9695348
  50.0260149  33.9718301  28.4296026  49.6776004  35.5917435  27.7802790
  51.0628012  34.4770903  26.6949962  51.3912845  33.5246135  26.6243846
  51.2113619  35.2774105  25.6470543  50.8667125  36.5624289  25.6927333
  50.4809950  36.9487610  26.5424800  50.9925235  37.1451445  24.8774335
  51.7127675  34.7768225  24.5173871  51.9719550  33.8016994  24.4720331
  51.8310595  35.3750828  23.7122844  51.3299444  37.5260820  31.7640413
  51.6899523  38.5195005  31.1290548  50.5247436  37.6277637  32.8205500
  50.1911967  36.8146467  33.3182313  50.0406843  38.9389622  33.2355993
  50.7077286  39.7197375  32.8701667  48.6309120  39.1810970  32.6520705
  48.3360882  40.2253604  32.7554733  48.7006375  38.9268035  31.5944443
  47.6258416  38.3217924  33.2975825  47.4747504  36.9953532  32.9036414
  48.0865046  36.6158734  32.0851969  46.5855313  36.1795560  33.5193617
  46.4780121  35.1428910  33.2001952  45.8204959  36.6641859  34.5648050
  44.9069457  35.8405463  35.1839156  44.8854942  34.9564475  34.8104070
  45.9552675  37.9658132  34.9853927  45.3542356  38.3466385  35.8111246
  46.8580651  38.7897690  34.3547373  46.9762885  39.8220682  34.6841029
  50.0113591  39.1482613  34.7513091  49.5962584  40.2219552  35.1988743
  50.4202064  38.1822007  35.5519525  50.6972367  37.2901849  35.1676852
  50.4076154  38.3367629  37.0051015  49.8172724  39.2142752  37.2688564
  49.8022717  37.1185159  37.6912693  50.2565672  36.2217240  37.2699867
  50.0270734  37.1729931  38.7564437  48.2870880  37.0633802  37.4926256
  47.8641873  37.9838617  37.8950802  48.0834139  37.0077204  36.4232703
  47.6237090  35.8912157  38.1712234  48.0987142  35.3865529  39.1969542
  46.5099644  35.4351283  37.5980087  46.0200309  34.6517609  38.0059328
  46.1611592  35.8750269  36.7584103  51.8638381  38.5998701  37.3657899
  52.6652201  37.6760161  37.5018545  52.2240175  39.8898340  37.4265258
  51.5280787  40.6217449  37.4178725  53.6314766  40.2732002  37.3951212
  54.1921280  39.5966988  36.7500513  53.7643326  41.6915241  36.8472631
  53.0834953  42.3658322  37.3667518  54.7863125  42.0555204  36.9529223
  53.4261229  41.7798961  35.3893380  53.5872658  42.9268949  34.6439894
  53.2094103  42.6974899  33.3993880  53.2589388  43.4869932  32.6495010
  52.8115272  41.4402718  33.3098745  52.4701659  40.9833110  32.4763524
  52.9354252  40.8439637  34.5401411  52.6533468  39.7991667  34.6702652
  54.3276395  40.1375972  38.7359490  55.5161533  40.4653617  38.8321901
  53.6354846  39.6492559  39.7580549  52.6256259  39.6335307  39.7519324
  54.3243002  39.1882876  40.9512905  55.2624887  39.7304015  41.0696715
  53.4653031  39.4268732  42.1858673  52.4887575  38.9567434  42.0699542
  53.9584175  39.0254870  43.0712075  53.2144071  40.8686037  42.4551521
  54.2684363  41.7302147  42.6995922  55.2834641  41.3331725  42.6863288
  54.0554261  43.0635152  42.9557395  54.8970778  43.7274695  43.1529397
  52.7738862  43.5583935  42.9624446  52.5948388  44.6150400  43.1612915
  51.6973855  42.7017653  42.7130848  50.6779630  43.0875753  42.7184404
  51.9272233  41.3688031  42.4605033  51.0900897  40.6993362  42.2627120
  54.7133543  37.7234620  40.8617527  55.3431148  37.2110928  41.7933752
  54.3911098  37.0470112  39.7555367  53.8935046  37.5145441  39.0112911
  54.6743977  35.6242315  39.6103512  54.8415167  35.1562428  40.5804837
  53.5258112  34.8862805  38.8996267  53.2800501  35.4078100  37.9745820
  53.9426964  33.4769630  38.5842986  54.1881875  32.9546218  39.5089578
  53.1256229  32.9597290  38.0813468  54.8170177  33.4931120  37.9336042
  52.2643685  34.8949828  39.7679438  51.9600161  35.9243781  39.9571976
  51.4624534  34.3689416  39.2499548  52.4715254  34.3978333  40.7155879
  55.9870641  35.4674519  38.8564905  56.1241625  35.9508223  37.7266927
  56.9585082  34.7958822  39.4863886  56.8399644  34.5100894  40.4478298
  58.2285737  34.5045623  38.8296723  58.5287396  35.3535609  38.2155055
  59.3259070  34.2389171  39.8690862  59.4732757  35.1602415  40.4325958
  58.9617927  33.4589310  40.5377734  60.6478214  33.8035356  39.2550665
  60.5264803  32.7817612  38.8954080  60.8555985  34.4626108  38.4121247
  61.8185562  33.8605493  40.2506344  62.6837231  33.3854170  39.7882121
  62.0444801  34.9075466  40.4527596  61.4874132  33.1493195  41.5611551
  60.9922555  33.8732659  42.2083189  60.7960954  32.3399027  41.3265847
  62.6848576  32.5939901  42.2604943  63.3253787  33.3439114  42.4783257
  62.3952087  32.1397719  43.1148299  63.1435836  31.9228268  41.6611535
  58.1078662  33.3112605  37.8898922  58.6146014  33.3447670  36.7623592
  57.4701922  32.2346637  38.3472501  57.1648559  32.1594285  39.3070463
  57.2502628  31.1004315  37.4623500  56.9199648  31.4696630  36.4914378
  58.5144842  30.2650699  37.2628751  58.2597721  29.4503883  36.5849998
  59.2568537  30.9098143  36.7924579  59.0759619  29.7010188  38.5323014
  59.2752562  30.5205443  39.2227799  58.3412259  29.0265960  38.9720956
  60.3600950  28.9430864  38.2646043  60.2092019  28.2376332  37.4474959
  61.1530517  29.6420852  37.9986724  60.7688696  28.2028482  39.4508087
  60.2904048  27.3333350  39.6382054  61.7106076  28.6007828  40.2938529
  62.4149421  29.7035962  40.0752628  62.2359562  30.2582419  39.2503797
  63.1268954  29.9834428  40.7347384  61.9606220  27.8690087  41.3781722
  61.4335617  27.0239175  41.5458877  62.6761341  28.1625098  42.0277861
  56.1350154  30.2499387  38.0374816  55.7537562  30.3896182  39.2036982
  55.5891985  29.3908658  37.1875907  55.9080194  29.2953833  36.2339997
  54.4491581  28.5924279  37.6178996  54.5590009  28.3280062  38.6696196
  53.1491466  29.3800383  37.4450617  53.1257606  30.2149044  38.1454550
  53.0785203  29.7595390  36.4257035  51.6167761  28.4290152  37.7389710
  50.7805076  29.4342073  37.4957798  54.4254908  27.3016973  36.8205864
  54.8031151  27.2799212  35.6491191  53.9925729  26.2184896  37.4693947
  53.8111501  26.2397353  38.4627394  53.8111306  24.9583497  36.7608806
  53.4936206  25.1680979  35.7394637  55.0971649  24.1356548  36.7130293
  54.9138716  23.2593956  36.0911991  55.8731312  24.7493513  36.2554785
  55.5485741  23.6939091  38.0836451  55.6266299  24.5808760  38.7123722
  54.7865000  23.0280580  38.4885988  56.8816585  22.9767067  38.0555828
  56.9384480  22.3270449  37.1821908  57.6954061  23.7011476  38.0224227
  57.0307905  22.1615832  39.2542726  56.9479412  21.1605950  39.1481695
  57.2713540  22.6515223  40.4613381  57.4583193  23.9490487  40.6556317
  57.4181648  24.5848592  39.8719017  57.6401036  24.2961274  41.5865401
  57.3203315  21.8205355  41.5003800  57.1745512  20.8311427  41.3591357
  57.5030403  22.1833414  42.4250898  52.7085939  24.1685614  37.4514349
  52.3892356  24.4064944  38.6202053  52.1158788  23.2324078  36.7090293
  52.3026838  23.1503319  35.7198545  51.1545283  22.3116359  37.3110977
  50.5012550  22.8543332  37.9943347  50.2906622  21.6517754  36.2263704
  51.0184987  21.1887300  35.5600804  49.6978236  20.8762148  36.7112913
  49.3698298  22.5660077  35.4181711  49.9832193  23.2430546  34.8236447
  48.4650674  21.7535096  34.4926896  47.8509989  21.0765129  35.0865702
  47.8204433  22.4284019  33.9295902  49.0774958  21.1752519  33.8008444
  48.5392793  23.4134582  36.3575253  49.1979912  24.0215584  36.9775353
  47.8841968  24.0637785  35.7778256  47.9366091  22.7662684  36.9947324
  51.8998855  21.2447097  38.0992456  52.8402225  20.6306500  37.5877331
  51.4833511  20.9983469  39.3451679  50.8719451  21.6291071  39.8435889
  52.0025999  19.8340240  40.0541841  52.8674060  19.4318653  39.5264739
  52.3964093  20.1664682  41.5065026  52.7944978  19.2712486  41.9842137
  53.4653327  21.2750034  41.5226105  53.0677872  22.1707571  41.0454485
  53.7373585  21.5032035  42.5531577  54.3484871  20.9367625  40.9806415
  51.1781106  20.5934272  42.3098893  50.8932118  21.5925798  41.9803024
  50.3707033  19.8949194  42.0901625  51.4441003  20.6098968  43.8294627
  52.2511305  21.3085759  44.0500294  50.5407440  20.9218506  44.3536110
  51.7286245  19.6109152  44.1598891  51.0330664  18.6603163  40.0345842
  51.4142424  17.5589895  40.4559001  49.8013937  18.8542174  39.5664073
  49.4250104  19.7865646  39.4706804  48.9478661  17.7246768  39.2161476
  49.5460554  16.9825336  38.6874774  48.3199132  17.0607628  40.4483161
  47.7948542  16.1548585  40.1454139  49.1028230  16.8048331  41.1622154
  47.4075314  17.9539442  41.0510128  47.0147246  17.5382326  41.8220423
  47.8535320  18.2079281  38.2815936  47.4982354  19.3876508  38.2680402
  47.2744752  17.2679148  37.5586702  47.5135320  16.2950338  37.6869420
  46.2797908  17.6049220  36.5609056  45.6845752  16.7230716  36.3239301
  45.6280881  18.3904564  36.9434217  46.9556875  18.0967153  35.2988564
  48.1822715  18.1991346  35.1986766  46.1291132  18.3848761  34.2976210
  45.1329707  18.2464076  34.3904964  46.6462376  18.8423869  33.0146420
  47.7082451  19.0697251  33.1071446  46.4682250  17.7639832  31.9417734
  45.4267090  17.4429181  31.9579228  46.6941126  18.2143358  30.9752035
  47.3740622  16.5595352  32.1645506  48.6154270  16.7213118  32.1673477
  46.8424743  15.4464175  32.3389881  45.9840161  20.1379432  32.5679816
  46.0164160  20.4538650  31.3760614  45.3653884  20.8784536  33.4865866
  45.2906441  20.5475424  34.4379070  44.7832700  22.1720988  33.1579086
  45.2532805  22.8994630  33.8198230  45.0652055  22.3846542  32.1266802
  43.2725484  22.2853014  33.2913000  42.7515341  23.3986236  33.1462491
  42.5172614  21.2227218  33.5384397  42.9074499  20.2925042  33.4879673
  41.0926924  21.3599243  33.8014333  40.7428503  22.3284668  33.4441727
  40.3071297  20.2610863  33.0832074  40.7159861  19.2959816  33.3823873
  39.2703182  20.3334407  33.4116685  40.3694484  20.3909273  31.5596597
  40.6256880  21.5062321  31.0208494  40.1695963  19.3585327  30.8945413
  40.8299561  21.3511156  35.3125333  41.7535837  21.2812247  36.1244596
  39.5480020  21.4548238  35.6847473  38.8241828  21.5641653  34.9888813
  39.1637533  21.4847556  37.0953540  39.5177495  22.3877484  37.5927369
  37.6287659  21.4176049  37.2296870  37.2633316  20.5563286  36.6704373
  37.2147226  21.2818479  38.7130501  37.5794312  22.1430494  39.2728899
  36.1280430  21.2362076  38.7847782  37.6443678  20.3704368  39.1287861
  36.9876484  22.6628340  36.6124869  37.2502591  22.7217266  35.5562344
  35.9040741  22.6025448  36.7141314  37.3513836  23.5523038  37.1269196
  39.8409810  20.3381226  37.8446406  39.9178950  19.2041101  37.3503271
  40.3686301  20.6504848  39.0323827  40.2232444  21.5842219  39.3888900
  41.1364771  19.7221843  39.8336124  40.8475088  19.8705153  40.8740904
  40.8621029  18.7146793  39.5209596  42.6408613  19.8851210  39.7106580
  43.3841283  19.4029001  40.5771470  43.1045338  20.5456404  38.6573034
  42.4770667  20.8761024  37.9381515  44.5251204  20.8005938  38.5015330
  45.0726185  19.8586575  38.5347130  44.8131462  21.4922797  37.1484337
  44.2988957  22.4530475  37.1245409  45.8870436  21.6531102  37.0536825
  44.3621349  20.6915546  36.0794870  44.5477917  21.1338053  35.2478947
  45.0106813  21.6895526  39.6284638  44.2776845  22.5372534  40.1444338
  46.2728989  21.5055859  39.9913728  46.8110436  20.7866815  39.5291216
  46.9068828  22.2635727  41.0528747  46.2750742  23.1022068  41.3454663
  47.1735892  21.3910168  42.2950132  47.8149912  20.5553885  42.0149633
  47.8517000  22.2078302  43.3653616  47.2106539  23.0434413  43.6462794
  48.0357398  21.5821412  44.2387132  48.7997029  22.5893350  42.9860910
  45.8612963  20.8247845  42.8285387  45.3880451  20.2156430  42.0584205
  46.0604778  20.2097547  43.7061290  45.1964161  21.6438173  43.1028022
  48.2032451  22.8297577  40.4969391  48.9945537  22.0985410  39.8899187
  48.3945467  24.1346791  40.6571665  47.6933668  24.6908118  41.1253145
  49.5902736  24.8035423  40.1642524  50.1678858  24.1032656  39.5608654
  49.2485774  26.0214438  39.3060605  50.1828037  26.3686435  38.8647298
  48.5815043  25.6743453  38.5169875  48.5846521  27.1724765  40.0651928
  47.7005924  26.8015495  40.5837991  49.2875503  27.5795850  40.7920344
  48.1740732  28.2739604  39.0787039  49.0771892  28.6920879  38.6341255
  47.5595659  27.8254583  38.2981105  47.4185069  29.3538420  39.7060771
  47.4805332  29.4442760  40.7101059  46.6731934  30.2228925  39.0374584
  46.6051474  30.2042292  37.7107774  47.1300125  29.5155085  37.1908924
  46.0288671  30.8788483  37.2281909  45.9673464  31.1243017  39.7141122
  46.0059880  31.1375551  40.7232858  45.3958856  31.7914879  39.2157210
  50.4232489  25.2502230  41.3538518  49.8903717  25.5260124  42.4284545
  51.7355173  25.3169977  41.1449124  52.0950916  24.9836961  40.2618973
  52.6808286  25.8289531  42.1257372  52.1757201  25.9739974  43.0806857
  53.8342700  24.8514447  42.3279338  53.4140309  23.9315086  42.7344014
  54.2666240  24.6507119  41.3476908  54.9063750  25.3654760  43.2536944
  55.8185393  24.7922970  43.0877940  55.0838691  26.4109177  43.0014116
  54.5027304  25.2597368  44.7053274  53.4034848  24.7213440  44.9964053
  55.2900815  25.7005589  45.5628046  53.1873691  27.1608535  41.5927419
  53.8618754  27.1925688  40.5587108  52.8521886  28.2415615  42.2923578
  52.2964029  28.1031217  43.1242447  53.2149710  29.6046768  41.9221760
  53.5291895  29.6987977  40.8827015  52.0461927  30.5726519  42.1718631
  51.6788930  30.4264002  43.1876389  52.4936617  32.0144846  41.9980731
  52.8606878  32.1616333  40.9823270  51.6508099  32.6814135  42.1794765
  53.2909050  32.2360685  42.7075837  50.8480377  30.2421111  41.2688319
  50.5077907  29.2268757  41.4728688  50.0377103  30.9433101  41.4683037
  51.1473309  30.3212970  40.2237223  54.4279578  29.9964790  42.7589346
  54.3798936  29.9224138  43.9917335  55.5180449  30.3756278  42.1010332
  55.5673663  30.2278582  41.1031200  56.6741623  30.9648189  42.7718234
  56.6038024  30.7653180  43.8410980  57.9817872  30.3760025  42.2510159
  58.1028661  30.6491661  41.2027689  59.1722728  30.9170024  43.0625805
  59.0521243  30.6438135  44.1109277  60.0984294  30.4882913  42.6797753
  59.2106172  32.0026090  42.9726436  57.9450538  28.9513282  42.3806263
  58.7671488  28.5789497  42.0533735  56.6461467  32.4722682  42.5557152
  56.5621066  32.9408662  41.4181335  56.6796829  33.2200469  43.6412226
  56.7553681  32.7644946  44.5394670  56.5316760  34.6716257  43.6119126
  55.9335001  34.9897972  42.7580673  55.8171181  35.1133115  44.9067028
  56.4190442  34.7951008  45.7578938  55.6340677  36.5718463  44.9540516
  55.0318039  36.8907717  44.1033661  55.1277793  36.8451473  45.8798373
  56.6067657  37.0621150  44.9140911  54.4400497  34.4364713  44.9778993
  54.5664564  33.3538282  44.9806163  53.9299832  34.7444906  45.8906183
  53.8451441  34.7301203  44.1130534  57.9042372  35.3207826  43.4322434
  58.9356465  34.7368723  43.7814904  57.9419164  36.5162487  42.8358700
  57.1215956  36.9196686  42.4064221  59.2058080  37.2496838  42.7431784
  60.0185451  36.6124082  42.3946999  59.1031851  38.4918323  41.8375202
  60.0527050  39.0255540  41.8781832  58.7911114  38.1096694  40.3771810
  57.8414415  37.5762809  40.3356531  58.7267422  39.0129383  39.7704994
  59.5841576  37.4691634  39.9912679  58.0715282  39.4702992  42.4032732
  57.1034382  38.9696150  42.3885138  58.3540195  39.6835565  43.4342046
  57.9804519  40.7697063  41.6250282  57.6975304  40.5572791  40.5940433
  57.2301973  41.4153729  42.0814622  58.9481130  41.2712196  41.6397322
  59.6558549  37.6608039  44.1425022  58.8871203  37.5781226  45.1038663
  60.8945411  38.1318875  44.2531093  61.4684952  38.2272881  43.4275339
  61.4744189  38.4853913  45.5421457  61.2205895  37.7284190  46.2842123
  62.9949711  38.5692938  45.4311579  63.4116608  38.7896424  46.4139678
  63.3793438  37.6114653  45.0805553  63.3685295  39.5911753  44.5191889
  64.3257792  39.6324957  44.4594767  60.9308007  39.8176414  46.0607111
  60.3996862  40.6458313  45.3128256  61.0807409  40.0163557  47.3725265
  61.4398729  39.2696206  47.9500301  60.7438179  41.2788019  48.0092763
  61.4066450  41.3842965  48.8681304  60.9608216  42.0638545  47.2849137
  59.3080247  41.4197437  48.4740818  58.9119108  42.5234060  48.8723885
  58.5350221  40.3462499  48.4670836  58.9654862  39.4699831  48.2083240
  57.1175164  40.3506306  48.7805794  56.7852048  41.3678544  48.9877604
  56.3100864  39.8023038  47.5916877  56.5799537  38.7514240  47.4871766
  55.2526956  39.8819897  47.8440262  56.5750918  40.5292220  46.2743339
  57.6243011  40.4265314  45.9973586  55.7024183  39.9073468  45.1939130
  54.6529738  40.0100693  45.4699804  55.8796057  40.4153377  44.2459412
  55.9486896  38.8505493  45.0908115  56.2587822  41.9812346  46.4194601
  56.8850984  42.4138507  47.1996336  56.4506319  42.4915212  45.4755838
  55.2093795  42.0998193  46.6892576  56.8358894  39.5060468  50.0164683
  57.6682505  38.6857346  50.4199827  55.6494961  39.6616865  50.6338930
  54.6449758  40.7132401  50.3966273  54.3051748  40.6677722  49.3619446
  55.0859291  41.6909182  50.5910617  53.5520051  40.3674853  51.3824319
  52.8389047  39.6816441  50.9250385  53.0333765  41.2726386  51.6983802
  54.2545505  39.7360310  52.5220018  53.5707955  39.0842067  53.0657878
  54.7008172  40.4511373  53.2130651  55.3496812  38.9009662  51.8556711
  56.2611297  38.8541926  52.4516343  54.8633557  37.4972947  51.5681164
  54.0640114  36.9343327  52.3235180  55.3243829  36.9293500  50.4609585
  55.9193426  37.4552807  49.8368438  54.9753855  35.5674184  50.0951494
  54.9091554  34.9306748  50.9773457  53.6378694  35.4980438  49.3370413
  53.6918004  36.1235601  48.4460189  53.4382109  34.4670462  49.0450128
  52.8349448  35.8543209  49.9823924  56.0992293  35.0324833  49.2345488
  56.7983880  35.8060103  48.5758022  56.2954417  33.7136066  49.2542997
  55.8262817  33.0910398  49.8964825  57.3096257  33.1579259  48.3719200
  57.6728358  33.9353728  47.6997936  58.5044083  32.6049027  49.1778312
  59.2753065  32.2751711  48.4813455  58.9012833  33.4006764  49.8081760
  58.1083189  31.5256059  49.9817083  58.8651567  31.1979004  50.4730387
  56.7778394  32.0868393  47.4361087  57.2640399  31.9976698  46.3071894
  55.7955724  31.2867438  47.8595751  55.4672068  31.3794382  48.8101976
  55.1748555  30.2775531  47.0088944  55.3147130  30.5648201  45.9667731
  55.7383620  28.8662908  47.2077232  55.3118738  28.2097241  46.4493511
  57.2512673  28.8611144  47.0879909  57.6785221  29.5171448  47.8463952
  57.6242932  27.8473000  47.2333567  57.5391285  29.2151776  46.0981042
  55.3633578  28.3841730  48.5010149  55.7155092  27.5000858  48.6274251
  53.6874765  30.2238071  47.3076590  53.2288441  30.6468569  48.3679053
  52.9378545  29.6796629  46.3610187  53.3391190  29.3916176  45.4800442
  51.5010559  29.5327858  46.5460237  51.2775087  29.3450000  47.5961963
  50.7798469  30.8171539  46.1129391  51.1283373  31.6327145  46.7465908
  51.0465396  31.0236108  45.0764302  49.3687275  30.7013244  46.2242920
  48.9572365  31.5224570  45.9449782  51.0282454  28.3280665  45.7461690
  51.3283152  28.2267848  44.5544987  50.3051385  27.4181829  46.4001838
  50.1542699  27.5526132  47.3897627  49.7564474  26.2242943  45.7745497
  50.2192139  26.0933786  44.7963843  50.0603491  24.9917748  46.6279572
  49.4726083  25.0478279  47.5442100  49.7213133  23.7325764  45.8946557
  50.3090443  23.6755887  44.9784547  49.9473972  22.8724207  46.5248282
  48.6601350  23.7310012  45.6456605  51.4575412  24.9656496  46.9244816
  51.6565673  24.1943604  47.4603005  48.2527380  26.4311182  45.6085169
  47.5655342  26.7422778  46.5835593  47.7525178  26.2707826  44.3773056
  48.3206934  25.8265238  43.6702624  46.4277579  26.7635996  43.9947502
  45.8211127  26.9178926  44.8870923  46.5427369  28.1075625  43.2365546
  47.1464865  27.9544169  42.3420535  45.5433744  28.4335915  42.9483192
  47.1926432  29.1746104  44.1117000  46.4955652  29.3897928  44.9215640
  48.0923209  28.7142798  44.5200810  47.5601655  30.4613662  43.4083700
  47.2877971  30.6263158  42.1933478  48.1216323  31.3213348  44.1130877
  45.7042990  25.7293311  43.1377298  46.2925893  25.1460943  42.2250977
  44.4334853  25.5046151  43.4313217  43.9846914  26.0497330  44.1534919
  43.6607033  24.4682224  42.7708127  44.2996873  23.9135281  42.0837080
  43.0830612  23.4925397  43.7962564  43.9137828  23.1606542  44.4190347
  42.3759485  24.0561983  44.4048456  42.3866035  22.2871307  43.1999194
  41.4860560  22.6239169  42.6864119  43.0586637  21.8161531  42.4825511
  42.0019057  21.2608103  44.2989317  42.8962767  21.0110870  44.8697537
  41.2658001  21.7186048  44.9597435  41.4353130  20.0250623  43.7488511
  42.0880825  19.2979311  43.4933682  40.1389511  19.8064005  43.5634058
  39.2434102  20.7625277  43.7435587  39.5432592  21.6838222  44.0288781
  38.2636975  20.5670923  43.5950074  39.7246565  18.5905156  43.1906941
  40.3985138  17.8507586  43.0536686  38.7398448  18.4176708  43.0479732
  42.5387556  25.0974936  41.9616926  41.8066403  25.9490225  42.4742613
  42.3799769  24.6383307  40.7207882  43.0558836  23.9887672  40.3448669
  41.2924142  25.0855811  39.8536070  41.1488187  26.1619226  39.9483093
  41.6422046  24.7653107  38.3998358  42.6173621  25.2318999  38.2603308
  41.7473468  23.6817543  38.3455164  40.6880494  25.2404985  37.3020187
  39.7144743  24.7672912  37.4297969  40.5343676  26.7497924  37.4005827
  41.5075259  27.2237536  37.2724323  39.8558272  27.0980578  36.6218690
  40.1294088  27.0112170  38.3782156  41.2473869  24.8293054  35.9572203
  41.3423670  23.7441223  35.9190656  40.5754956  25.1627328  35.1663413
  42.2277209  25.2844874  35.8163176  39.9791209  24.4173645  40.2815000
  39.8234480  23.1936209  40.1810033  39.0305987  25.2210684  40.7614830
  39.1579334  26.2219892  40.7162869  37.8174886  24.7049464  41.3909289
  37.9696493  23.6769949  41.7199607  37.4721517  25.5620827  42.6095231
  37.3474202  26.5901666  42.2695456  36.5291214  25.1977664  43.0170369
  38.5442035  25.5115218  43.6889445  39.5120961  25.7511923  43.2486686
  38.2909695  26.2612097  44.4385709  38.6113881  24.1455020  44.3433956
  37.6121093  23.7444742  44.9466969  39.6467465  23.4647679  44.2395294
  36.6092751  24.6688851  40.4647968  35.7543276  23.7936637  40.6103211
  36.5125157  25.5916678  39.5152165  37.2626700  26.2459321  39.3440259
  35.3001383  25.7056408  38.7145292  34.9197699  24.7145621  38.4671788
  34.2240957  26.4605069  39.5031130  33.8991077  25.8751273  40.3632367
  34.6348589  27.4104775  39.8450624  32.9862330  26.7866033  38.7117054
  31.9705835  25.8616700  38.5776432  32.0757510  24.8822124  39.0442290
  30.8203021  26.1689583  37.8553859  30.0220090  25.4344502  37.7489588
  30.6948760  27.4158972  37.2711466  29.7964973  27.6617611  36.7049607
  31.7108747  28.3547356  37.4044850  31.6132778  29.3383577  36.9450693
  32.8417344  28.0391071  38.1187902  33.6403461  28.7729647  38.2272900
  35.6375804  26.4330869  37.4215400  36.3762797  27.4211988  37.4420370
  35.1316899  25.9167193  36.2985466  34.6538528  25.0277351  36.3369938
  35.2592810  26.5813912  34.9984186  35.4964153  27.6346296  35.1486030
  36.3437870  25.9552683  34.0926147  36.1463468  24.8880999  33.9912830
  36.3346046  26.6185498  32.6887367  36.5324466  27.6857248  32.7892206
  37.1052427  26.1637060  32.0663747  35.3596666  26.4725059  32.2236897
  37.7066263  26.0926553  34.6815748  37.7375987  25.5900237  35.6482724
  38.4390899  25.6396353  34.0134658  37.9409156  27.1488890  34.8141634
  33.9142736  26.4948423  34.2963634  33.3069729  25.4193260  34.2406538
  33.4460783  27.6187991  33.7580110  33.8637943  28.5043894  34.0056850
  32.3014406  27.6223550  32.8444324  32.0401708  26.5938153  32.5955480
  31.0793393  28.3004566  33.4652542  30.9052234  27.8543813  34.4444374
  31.3149628  29.3579247  33.5850158  29.8252887  28.1530668  32.6095134
  29.8946892  28.4526716  31.4038196  28.7754335  27.7333085  33.1380538
  32.7935319  28.3435879  31.5951129  32.9620493  29.5680155  31.6085661
  33.0819167  27.5805543  30.5376433  33.0006365  26.5740740  30.5597870
  33.6011927  28.2071605  29.3238171  34.3920056  28.9109725  29.5833603
  34.1768459  27.1527912  28.3730596  33.3931568  26.4187552  28.1856516
  34.4376149  27.6514732  27.4395630  35.4088257  26.4489053  28.9347315
  36.3566746  27.1195057  29.4235499  35.4316497  25.2009461  28.8820519
  32.5266331  29.0251619  28.6209057  32.8455146  30.0053700  27.9333444
  31.2563100  28.6494655  28.7829200  31.0157237  27.8342261  29.3284495
  30.1786977  29.3833019  28.1209103  30.4248130  29.5274670  27.0688918
  28.8620348  28.6111223  28.2133569  28.7679240  28.2465783  29.2362694
  28.0443998  29.2985437  27.9965048  28.8055086  27.4445152  27.2564547
  29.5105988  27.4986024  26.2234822  28.0505355  26.4801762  27.5286880
  30.0102720  30.7713539  28.7195434  29.8814795  31.7595897  27.9923271
  30.0005267  30.8643123  30.0405906  30.0380388  30.0300962  30.6087241
  29.8646529  32.1479636  30.7092084  29.3351098  32.8503697  30.0655399
  29.0673008  31.9796712  32.0139859  29.5401553  31.2325816  32.6514536
  29.0183398  32.9306360  32.5444280  27.6495833  31.5308311  31.8049868
  26.6145088  32.4157978  31.5869369  25.4863257  31.7447412  31.4292565
  24.5501023  32.2686903  31.2367419  25.7494016  30.4557569  31.5484898
  25.0794415  29.7030994  31.4794965  27.0952406  30.2950791  31.7843474
  27.5104865  29.2955116  31.9129440  31.2075587  32.8034291  30.9970119
  31.2311673  33.9431662  31.4729562  32.3155601  32.1143520  30.7126537
  32.2105399  31.1593522  30.4011327  33.6752224  32.6340336  30.9213628
  34.3996761  31.8433702  30.7261259  33.9690926  33.8083512  29.9856666
  33.2501929  34.5971531  30.2071935  34.9761365  34.1632784  30.2047309
  33.8716833  33.4293005  28.4980238  34.4838654  32.5471580  28.3105179
  32.8332858  33.2097533  28.2497665  34.3593462  34.5661758  27.6480272
  33.7365567  35.4375885  27.8501959  35.3904115  34.7847751  27.9259089
  34.3113564  34.2786761  26.2174295  35.0806624  33.7549674  25.8250049
  33.3360721  34.6669960  25.4121009  32.2735121  35.3096164  25.8717499
  32.1973318  35.5122695  26.8582732  31.5441015  35.5941704  25.2337147
  33.4218469  34.3963940  24.1136868  34.2256515  33.9000402  23.7564316
  32.6828319  34.6883566  23.4902180  33.8977898  33.0178967  32.3877621
  34.1943377  34.1604249  32.7229570  33.7528336  32.0181518  33.2536441
  33.5018686  31.1134908  32.8812137  33.9217106  32.1492380  34.6956472
  34.3179782  33.1294768  34.9606060  32.5919230  31.9332112  35.4523812
  32.2224633  30.9307744  35.2362352  32.7983130  32.0893024  36.9825235
  33.1673503  33.0917148  37.1995069  31.8493203  31.9331200  37.4954763
  33.5234414  31.3528630  37.3288578  31.5422191  32.8964035  34.9616579
  31.3726413  32.7381815  33.8966174  30.6125724  32.7296685  35.5057683
  31.8810191  33.9191185  35.1270956  34.9374073  31.1033753  35.1236161
  34.8320535  29.9330019  34.7284253  35.9012228  31.5201393  35.9397708
  35.9479540  32.5049112  36.1591789  36.9092025  30.6365480  36.5110345
  36.6020786  29.5982848  36.3854018  38.2753511  30.8378235  35.8062167
  38.0161813  30.6555128  34.7632914  38.5598582  31.8824818  35.9320931
  39.4512397  29.9359134  36.2060393  39.0603153  28.9674342  36.5180121
  40.4054230  29.7446900  35.0444379  40.7971430  30.7127569  34.7321867
  41.2299942  29.1020156  35.3529064  39.8764474  29.2815561  34.2114960
  40.2083100  30.4731424  37.4378930  39.5263665  30.5340568  38.2860334
  41.0308502  29.8006143  37.6812751  40.6034618  31.4649325  37.2181056
  37.0220353  30.9444273  38.0010718  36.9777107  32.1122835  38.3972704
  37.1512876  29.9029250  38.8242801  37.0756929  28.9648559  38.4576589
  37.3662575  30.0704327  40.2601249  37.6393228  31.1062011  40.4619128
  36.1006382  29.7262750  41.0745034  35.2740271  30.3435340  40.7226445
  35.8575841  28.6744076  40.9241712  36.3165772  29.9682407  42.4532774
  35.5215081  29.7496231  42.9448781  38.5157829  29.1831401  40.7083759
  38.6660035  28.0588162  40.2227963  39.3394234  29.6888202  41.6273797
  39.2866121  30.6609005  41.8963966  40.3912877  28.8709595  42.2046133
  40.0980565  27.8231044  42.1404700  41.7409559  29.0507354  41.4780892
  42.4275474  28.2437519  41.7339583  41.5666539  29.0513364  40.4021159
  42.4559028  30.3476658  41.8023674  43.3388812  30.4248220  42.8830385
  43.5055248  29.5373215  43.4935077  43.9998890  31.6094292  43.1842287
  44.6769161  31.6562633  44.0371892  43.7961382  32.7380215  42.3941610
  44.3160965  33.6669950  42.6281515  42.9387333  32.6811082  41.3182039
  42.7798346  33.5636495  40.6985489  42.2652417  31.4777495  41.0182524
  41.5886818  31.4299381  40.1649760  40.5213621  29.1909831  43.6889726
  39.9955101  30.1895610  44.1929358  41.1849847  28.2965742  44.3960821
  41.4868706  27.4288569  43.9765218  41.4338493  28.4998005  45.8132901
  41.2967559  29.5542535  46.0529431  40.4779363  27.6695956  46.6851067
  40.6802640  27.9399390  47.7214836  39.4650610  27.9742947  46.4217775
  40.6116749  26.1840609  46.5207948  40.4763810  25.9378058  45.4676306
  41.6121304  25.8886060  46.8368601  39.5613691  25.4287833  47.3648645
  38.5730207  25.6589723  46.9670209  39.7507443  24.3595783  47.2698009
  39.5903269  25.7844092  48.7784148  40.4289379  25.5476368  49.2890711
  38.6099728  26.4036845  49.4233155  37.5048482  26.7879457  48.8020386
  37.3967311  26.6096573  47.8137957  36.7755042  27.2574283  49.3194776
  38.7334785  26.6282883  50.7306638  39.5668459  26.3269333  51.2152091
  37.9931772  27.0988881  51.2312519  42.8862272  28.1659723  46.1203193
  43.5150303  27.3494266  45.4424758  43.4262022  28.8350571  47.1223760
  42.9099216  29.5743033  47.5774241  44.7917263  28.5712848  47.5645368
  45.4065225  28.2449582  46.7257068  45.4280110  29.8264714  48.1804290
  44.7621664  30.2222610  48.9473064  46.7832219  29.4864286  48.8075019
  47.4498057  29.0909846  48.0410875  47.2204824  30.3866760  49.2393101
  46.6452915  28.7392600  49.5890490  45.6074377  30.8982499  47.0861439
  44.6355617  31.1528484  46.6633691  46.0588744  31.7900633  47.5208547
  46.2548724  30.5104316  46.2996796  44.7461397  27.4226698  48.5611645
  43.9820672  27.4589712  49.5268168  45.5200942  26.3773697  48.3002964
  46.0647772  26.3418506  47.4504975  45.5154033  25.2089363  49.1652624
  44.7436688  25.3108754  49.9282392  45.2472000  23.9192880  48.3619497
  45.2085600  23.0695163  49.0434877  43.9227100  24.0403023  47.6286285
  43.9607496  24.8896401  46.9465147  43.7358112  23.1280531  47.0620858
  43.1196499  24.1901892  48.3502447  46.3409776  23.6550331  47.3595457
  47.2925177  23.5452587  47.8797601  46.1190988  22.7390875  46.8119026
  46.4035741  24.4893487  46.6609041  46.7940066  25.0851903  49.9897535
  46.8056666  24.3119627  50.9571206  47.8380412  25.8465079  49.6800678
  47.8139158  26.4635300  48.8808175  49.0456712  25.8108220  50.4861958
  48.7767236  25.9592411  51.5320151  49.5203240  24.8366970  50.3683631
  50.0259924  26.8910544  50.0705716  49.7079524  27.7728144  49.2706143
  51.2241836  26.8142529  50.6362865  51.3843175  26.1242502  51.3562537
  52.3191914  27.6830340  50.2631868  53.1543248  27.0655384  49.9325049
  51.9916017  28.3202941  49.4417954  52.7778678  28.5583327  51.4145231
  52.2242302  28.5400638  52.5123581  53.8132698  29.3530795  51.1266999
  54.1782794  29.3552076  50.1849659  54.4794429  30.1815176  52.1300083
  54.1937237  29.8449435  53.1265933  55.9966179  30.0903917  52.0010858
  56.2778230  30.6556874  51.1125681  56.4229989  30.5665157  52.8840384
  56.5278368  28.6653161  51.8858164  56.0183482  28.1919133  51.0465239
  57.5948629  28.7299736  51.6728048  56.3103093  27.8323390  53.1490282
  56.4557375  28.3717972  54.2736852  55.9908032  26.6290786  53.0120743
  53.9882174  31.6084203  51.9542842  54.5082093  32.3635670  51.1281626
  53.0100007  31.9761102  52.7655316  52.7392063  31.3051209  53.4701897
  52.2850096  33.2354974  52.6976136  52.9927084  34.0627136  52.7521571
  51.4909124  33.3551955  51.3908286  50.8730017  34.2522711  51.3515741
  52.2055684  33.3706059  50.5679499  50.5789222  32.1964608  51.1436796
  49.3677608  32.0562892  51.7860290  48.7934323  30.9305591  51.3977515
  47.8192097  30.6396129  51.7906122  49.5923455  30.3329869  50.5323896
  49.4109439  29.4578925  50.0618546  50.7243189  31.0966154  50.3689312
  51.5188136  30.7580267  49.7039221  51.3770227  33.2513670  53.9169728
  51.3295860  32.2830759  54.6853530  50.6430762  34.3461930  54.0875384
  50.7040026  35.1050277  53.4237935  49.7903175  34.5178726  55.2569565
  50.0103119  33.7463286  55.9948057  50.0376676  35.8866940  55.8925976
  49.7284228  36.6483060  55.1767666  49.4184847  35.9566011  56.7869273
  51.4854951  36.1041489  56.2647049  51.7976594  35.2958531  56.9260008
  52.0839741  36.0794913  55.3540365  51.6854447  37.4385454  56.9663318
  52.7526738  37.5944346  57.1238738  51.2932060  38.2310609  56.3290191
  51.0097449  37.4988051  58.2552769  51.2795298  36.8162269  58.9491087
  50.0680794  38.3775058  58.5656591  49.6435240  39.2743567  57.6892247
  50.0409223  39.2962911  56.7609502  48.9241967  39.9324853  57.9529186
  49.5440882  38.3640765  59.7901104  49.8675351  37.6879478  60.4671126
  48.8257020  39.0300815  60.0359913  48.3032888  34.3575953  54.9516846
  47.4713620  34.7011634  55.7983917  47.9420741  33.8452072  53.7759936
  48.6268831  33.5455741  53.0967617  46.5298375  33.7251770  53.4330877
  45.9776330  34.5627916  53.8591993  46.3339962  33.7318829  51.9145584
  46.7147763  32.7546998  51.6175415  45.2585744  33.7702537  51.7410773
  47.0232503  34.8208071  51.0875337  48.1049293  34.7313617  51.1878875
  46.6348144  34.6505475  49.6298035  45.5532454  34.7403338  49.5285824
  47.1204515  35.4213933  49.0314274  46.9514644  33.6674993  49.2813077
  46.6453594  36.1941157  51.6002949  46.9539687  36.2914870  52.6411496
  47.1439830  36.9560816  51.0012258  45.5656485  36.3250009  51.5282357
  45.9538305  32.4367637  54.0026105  46.5988166  31.3899348  53.9623842
  44.7336938  32.5174742  54.5334269  44.3278875  33.4303203  54.6821970
  43.9695848  31.3483077  54.9405648  44.5027502  30.4509731  54.6265196
  43.7607145  31.2885937  56.4709548  43.3090643  32.2354033  56.7670339
  43.0601813  30.4762378  56.6644259  45.0285947  31.0626463  57.2693711
  45.6990729  31.9045795  57.0970098  44.7667969  31.0178372  58.3265164
  45.7288540  29.7592011  56.8602763  44.9894411  28.9583854  56.8681337
  46.1176342  29.8841458  55.8496635  46.8797096  29.4016078  57.8100749
  46.4833439  29.4085272  58.8254305  47.2144408  28.3953424  57.5581141
  48.0320214  30.3461606  57.7196834  47.7221575  31.2785748  57.9535377
  48.7538228  30.0593976  58.3653379  48.3997202  30.3395801  56.7790169
  42.6302999  31.4004889  54.2303113  41.9548697  32.4363878  54.2503463
  42.2579616  30.2929893  53.5864939  42.9214941  29.5408832  53.4674958
  40.9464847  30.1670762  52.9526089  40.8781828  29.2194731  52.4183032
  39.8450401  30.2088971  54.0190313  39.9934119  31.0698542  54.6708273
  38.8862038  30.3010120  53.5088864  39.8222167  28.9548558  54.8705620
  39.8074384  27.8498626  54.3451617  39.8435259  29.1179990  56.1954451
  39.8295432  28.3097806  56.8009923  39.8735333  30.0488923  56.5861344
  40.7359315  31.2358058  51.8699592  39.6849905  31.8750732  51.7775839
  41.7463131  31.4144328  51.0295173  42.6201853  30.9250152  51.1595834
  41.6301657  32.3366095  49.9028248  41.0276434  33.1957014  50.1978283
  42.9944124  32.8315402  49.4545162  43.4901146  33.2722961  50.3194513
  43.5618324  31.9656721  49.1133315  42.9171695  33.8642395  48.3311704
  42.9249350  33.4814617  46.9953643  42.9841285  32.4207581  46.7514313
  42.8580905  34.4357223  45.9672459  42.8765859  34.1308317  44.9209183
  42.7887843  35.7858102  46.2974631  42.7174321  36.7513255  45.3175942
  42.7218870  36.3858928  44.4298787  42.7696820  36.1777923  47.6236381
  42.7053051  37.2338148  47.8858833  42.8331588  35.2158754  48.6246264
  42.8174125  35.5173581  49.6719852  40.9464176  31.6474182  48.7297447
  41.3895747  30.5837019  48.2856857  39.8954793  32.2776133  48.2102586
  39.5582067  33.1134473  48.6660304  39.1835290  31.7982888  47.0252798
  39.8316292  31.1290616  46.4594174  37.9082569  31.0356261  47.4117081
  38.2122920  30.2147682  48.0612110  37.2802072  31.7281781  47.9720877
  37.1147935  30.4764809  46.2151420  36.8746357  31.2951508  45.5367581
  37.7303642  29.7427620  45.6947274  35.8141346  29.8080633  46.6922420
  36.0703527  28.8901484  47.2212821  35.3043999  30.4892921  47.3735624
  34.9008815  29.4815071  45.5279522  34.0238364  28.9536277  45.9024329
  34.5888746  30.4104359  45.0506240  35.6071961  28.6272962  44.5355625
  35.8960147  27.7662930  44.9775546  34.9853677  28.4192940  43.7673409
  36.4196809  29.1164286  44.1881190  38.8362737  32.9946534  46.1499339
  38.3576182  34.0139759  46.6524313  39.0399148  32.8753060  44.8423795
  39.5129294  32.0820547  44.4335901  38.6563391  33.9721896  43.9711974
  37.9599866  34.6237372  44.4990972  39.8713552  34.8012344  43.5391993
  39.5349085  35.8205183  43.3495592  40.5886327  34.8027088  44.3599372
  40.4825886  34.2886488  42.3853888  41.2355870  34.8364487  42.1519180
  37.8829870  33.4542789  42.7627468  38.0012024  32.2872234  42.3733683
  37.0259529  34.3211496  42.2373613  36.9795301  35.2416688  42.6503850
  36.1362439  34.0183676  41.1156327  36.4375564  33.0921984  40.6262244
  34.6605665  33.8946887  41.5368819  34.3298898  34.8421688  41.9623624
  33.7898534  33.5484538  40.3217777  34.1196558  32.6007995  39.8960048
  32.7485563  33.4637198  40.6326169  33.8819508  34.3345422  39.5723214
  34.4745627  32.8418939  42.6334820  35.0601075  33.1214308  43.5093235
  33.4207525  32.7821601  42.9055402  34.8102608  31.8717296  42.2671640
  36.3014127  35.1517506  40.1175640  36.1890400  36.3233254  40.4929625
  36.5782023  34.8079846  38.8624555  36.6773034  33.8273259  38.6420314
  36.7672761  35.7810002  37.7903474  36.6092980  36.7862116  38.1811061
  38.1843290  35.6947582  37.2220154  38.3281328  34.7009635  36.7979954
  38.4170490  36.7608839  36.1263593  38.2738673  37.7550267  36.5497726
  39.4336004  36.6727650  35.7430092  37.7079497  36.6074195  35.3128930
  39.1113650  35.9144390  38.2781170  40.0062026  35.8628940  37.9343014
  35.7476886  35.5054635  36.6900266  35.5304988  34.3465843  36.3290645
  35.0908910  36.5554816  36.1945138  35.1757449  37.4617127  36.6322857
  34.1959543  36.4213097  35.0489257  34.3148205  35.4230263  34.6277366
  32.7220600  36.6233960  35.4224368  32.1264184  36.5290655  34.5144654
  32.4398377  35.8389355  36.1246279  32.4866042  37.8955889  36.0135423
  31.5553688  37.9799778  36.2309797  34.5964932  37.4210380  33.9758348
  35.1195972  38.5037095  34.2762089  34.3513389  37.0380151  32.7191523
  33.8824684  36.1553002  32.5739829  34.7511782  37.8151744  31.5409159
  35.1436493  38.7965830  31.8071916  35.8003758  37.0805249  30.6925689
  35.3849773  36.1234257  30.3771258  36.1928898  37.9121344  29.4405320
  36.6088247  38.8692548  29.7552057  36.9367656  37.3665686  28.8599227
  35.3088800  38.0849188  28.8267128  37.0187150  36.7370792  31.5267180
  36.7227642  36.0937231  32.3553362  37.7493210  36.2173587  30.9068752
  37.4613161  37.6528615  31.9185698  33.4864099  38.0633080  30.7391696
  32.8510711  37.1125990  30.2671644  33.1089352  39.3300305  30.6178612
  33.7730457  40.0474529  30.8715572  31.7918547  39.7408227  30.1608548
  31.2037573  38.8792344  29.8447754  31.0716670  40.4237565  31.3252697
  31.6100235  41.3326931  31.5937950  30.0607992  40.6808823  31.0088322
  30.9831982  39.5204960  32.5660516  30.1060465  38.6641317  32.6182626
  31.8934661  39.7072592  33.5619431  31.8589040  39.1280821  34.3886590
  32.5989197  40.4240850  33.4692235  31.9565684  40.6905188  28.9826864
  32.6786203  41.6811990  29.1011338  31.2992247  40.4144416  27.8533284
  30.6850861  39.6161192  27.7783976  31.5303952  41.2240787  26.6608776
  32.4183771  41.8377349  26.8125794  31.7407342  40.3592004  25.4176946
  32.4423784  39.5634766  25.6679309  30.7821649  39.9227179  25.1371093
  32.2977556  41.1837406  24.2335571  31.5104312  41.8833550  23.9529134
  33.1657721  41.7383192  24.5900525  32.6894294  40.3538285  23.0270350
  33.7957141  39.7617196  23.0186572  31.8927579  40.3065327  22.0629034
  30.4002718  42.2164305  26.4235107  29.2307478  41.9272091  26.6928032
  30.7649657  43.4008459  25.9176762  31.7444833  43.5590637  25.7289655
  29.8254225  44.4767582  25.6367571  28.8117883  44.0783108  25.6801673
  29.9404406  45.6276595  26.6337722  30.9793815  45.9452960  26.7221362
  29.3308689  46.4685024  26.3028557  29.4809078  45.2831152  28.0106011
  30.3199835  44.6260700  28.8874418  31.3273030  44.3592976  28.5676921
  29.8913420  44.3056140  30.1644384  30.5570282  43.7819234  30.8505220
  28.6070367  44.6538893  30.5710960  28.2673125  44.4061953  31.5767475
  27.7661189  45.3109590  29.7035076  26.7594257  45.5862257  30.0179871
  28.2023648  45.6228662  28.4262103  27.5380342  46.1412701  27.7348189
  30.0744191  45.0286002  24.2461022  31.1746745  44.9153390  23.7007977
  29.0428847  45.6586236  23.6967588  28.1564165  45.6539031  24.1807539
  29.1207519  46.3275162  22.4026072  30.1147675  46.1773601  21.9813172
  28.0861546  45.7813696  21.4195511  28.3824216  44.7453463  21.2552924
  27.0933454  45.8079681  21.8686862  28.0599958  46.5249718  20.0763886
  27.8360263  47.5755017  20.2616597  29.3976001  46.4104763  19.3662904
  29.6220528  45.3601862  19.1802513  29.3529232  46.9454916  18.4176791
  30.1791976  46.8434597  19.9905750  26.9394354  46.0166476  19.1830086
  25.9811330  46.1670257  19.6801427  26.9489801  46.5638733  18.2403770
  27.0837993  44.9541436  18.9871943  28.9099709  47.8165644  22.6138247
  27.8702931  48.2334236  23.1366663  29.8993263  48.6103134  22.2141592
  30.7764642  48.2025109  21.9235986  29.7846261  50.0630059  22.2306031
  29.2362685  50.3865559  23.1153169  31.1746251  50.6899397  22.2624121
  31.7707291  50.1862540  23.0233720  31.6388672  50.5497214  21.2862368
  31.1427791  52.1702553  22.5745606  30.4634396  52.9481215  21.9033229
  31.8810503  52.5667339  23.6078497  31.9006905  53.5431384  23.8654313
  32.4184974  51.8895055  24.1299732  28.9912705  50.4885586  21.0001102
  29.4556151  50.3280326  19.8672441  27.7821874  51.0124860  21.2185207
  27.4323792  51.1382153  22.1576297  26.9083246  51.3619679  20.1014642
  26.8154515  50.5144126  19.4224032  25.5164794  51.7305708  20.6160289
  25.6409362  52.5756200  21.2931563  24.9296390  52.0415642  19.7517364
  24.7950500  50.6036884  21.3393669  25.4714793  50.1735124  22.0779418
  23.9208302  51.0149022  21.8440895  24.3389792  49.5018485  20.3991497
  24.4041759  49.6422170  19.1745583  23.8727165  48.3964143  20.9696119
  23.5550247  47.6299700  20.3936462  23.8380653  48.3275049  21.9766632
  27.4755959  52.5058195  19.2705421  27.2681294  52.5464903  18.0521265
  28.1863295  53.4396451  19.9077278  28.3254855  53.3964876  20.9071638
  28.7272023  54.5847130  19.1827615  27.9393708  55.0658051  18.6031314
  29.3012557  55.6040643  20.1674394  30.0395646  55.0934344  20.7857082
  29.7915676  56.3870396  19.5889552  28.2372270  56.2234572  21.0574514
  27.1596506  56.5897527  20.5395202  28.4804993  56.3425539  22.2773856
  29.7897561  54.1565951  18.1783569  29.8023119  54.6378708  17.0380341
  30.6859575  53.2505893  18.5787049  30.6265647  52.8508235  19.5043178
  31.8033462  52.8619446  17.7290775  31.9446964  53.6007378  16.9402151
  33.0939357  52.7740466  18.5558603  33.9285717  52.6461761  17.8665628
  33.2119552  53.7119799  19.0984953  33.0718529  51.6951010  19.4764632
  33.8952315  51.6784972  19.9697906  31.5883058  51.5457802  16.9987826
  32.2760160  51.2914972  16.0058573  30.6537186  50.7132171  17.4459868
  30.0050185  50.9964585  18.1664464  30.5412810  49.3726138  16.9091147
  29.5789032  48.9726138  17.2283766  30.5579873  49.4536063  15.8222567
  31.6368102  48.4283459  17.3489272  31.7085217  47.3025907  16.8408025
  32.4831830  48.8392964  18.2868663  32.3939039  49.7757506  18.6545376
  33.5718390  48.0090376  18.7735369  33.7734937  47.2120187  18.0578585
  34.8445023  48.8357210  18.9553573  34.6560573  49.5785462  19.7304693
  35.6387928  48.1643561  19.2816575  35.2652877  49.5318795  17.6831522
  35.1192581  48.8355449  16.8573832  34.6176083  50.3978482  17.5463624
  36.6988970  49.9790488  17.7129875  36.8095888  50.7771871  18.4470321
  37.3306893  49.1367293  17.9948310  37.1138631  50.4859884  16.3521464
  36.9360933  49.7161922  15.6012054  36.5408284  51.3782082  16.0998089
  38.5612913  50.8202889  16.3852479  39.0924898  49.9935720  16.6186297
  38.8490102  51.1606238  15.4788870  38.7261678  51.5338890  17.0807260
  33.1894676  47.3399706  20.0873643  32.4745173  47.9107685  20.9140691
  33.6597333  46.1224487  20.2619280  34.2114085  45.6793278  19.5412354
  33.3461691  45.3599215  21.4534127  32.3905784  45.6756363  21.8720648
  33.2793391  43.8526351  21.1585441  32.9837333  43.3238521  22.0646926
  32.2617049  43.5766613  20.0535335  32.5569068  44.1047771  19.1468635
  32.2232350  42.5058688  19.8534738  31.2776969  43.9221096  20.3705436
  34.6468365  43.3382485  20.7508405  35.3569708  43.5124800  21.5592059
  34.5869591  42.2696248  20.5445451  34.9806497  43.8624848  19.8553821
  34.3890674  45.6717722  22.5165596  35.4931615  46.1345049  22.2277280
  34.0194641  45.4407061  23.7695160  33.0541820  45.2408012  23.9894429
  34.9701025  45.5331208  24.8637264  35.9455872  45.1977269  24.5115338
  35.1079090  46.9636812  25.4002237  35.9559871  46.9560789  26.0849171
  35.3366154  47.6015276  24.5464408  33.8861429  47.4988180  26.1166016
  32.8626392  48.1251876  25.4152840  32.9511377  48.2207019  24.3330897
  31.7456061  48.6233984  26.0654994  30.9469349  49.1082038  25.5040817
  31.6432260  48.4895922  27.4369013  30.5382380  48.9846897  28.0911444
  29.9067183  49.4000283  27.4993029  32.6489155  47.8733134  28.1590716
  32.5702913  47.7734439  29.2416356  33.7587408  47.3826078  27.4989709
  34.5549659  46.8938738  28.0604553  34.5079752  44.5730326  25.9460660
  33.4268516  43.9793672  25.8623992  35.3508139  44.4187779  26.9537521
  36.1675771  45.0113270  26.9971428  35.1649323  43.4249526  27.9965044
  34.2035725  42.9265383  27.8721269  36.2726534  42.3717021  27.9387264
  37.2375178  42.8783743  27.9592259  36.1774360  41.4003779  29.1314377
  35.2129574  40.8929561  29.1113452  36.9770126  40.6626064  29.0645825
  36.2748958  41.9576057  30.0631562  36.1562151  41.6315071  26.7226674
  36.8502634  40.9694253  26.6833616  35.1858886  44.1186965  29.3489874
  35.9474729  45.0735127  29.5546240  34.3332119  43.6518873  30.2555289
  33.5520616  43.0891911  29.9501169  34.4548384  43.9524245  31.6778406
  35.2648698  44.6597047  31.8558942  33.1584140  44.5346881  32.2591510
  32.3505497  43.8143141  32.1306373  33.3439472  44.8321565  33.7486677
  34.1513956  45.5528594  33.8779557  32.4206166  45.2449955  34.1550237
  33.5921778  43.9108063  34.2755424  32.7505026  45.8003056  31.5092399
  32.5892640  45.5640078  30.4574474  31.8296161  46.1961300  31.9374813
  33.5409678  46.5457152  31.5965905  34.8300964  42.6534844  32.3797272
  34.0985302  41.6550456  32.2844808  35.9905930  42.6496647  33.0333954
  36.6294226  43.4216552  32.9067988  36.3980294  41.5501704  33.9004725
  35.8732204  40.6238029  33.6669819  37.9154060  41.2918424  33.8145083
  38.4375415  42.2265545  34.0189272  38.3639515  40.2193490  34.8305284
  37.8425486  39.2841545  34.6264422  39.4389617  40.0620204  34.7427717
  38.1274610  40.5536259  35.8406931  38.3416594  40.8910102  32.3945482
  38.0895905  41.6917640  31.6993096  39.4174862  40.7171306  32.3730501
  37.8208550  39.9792473  32.1020556  35.9879974  41.9125617  35.3137126
  36.2109821  43.0428296  35.7633416  35.3569911  40.9672825  36.0008578
  35.0618220  40.1365599  35.5080349  35.0692292  41.0640508  37.4226088
  35.3399014  42.0566456  37.7825966  33.5793199  40.8320851  37.6991844
  33.4373062  39.7863777  37.4263707  33.4250654  40.9514359  38.7715934
  32.5738549  41.6967587  36.9411674  32.7798211  41.6092501  35.8743867
  31.1382071  41.2634054  37.2185958  30.9313382  41.3510861  38.2851867
  30.4515848  41.9014240  36.6621940  31.0041525  40.2275382  36.9069729
  32.7797216  43.1583868  37.3212307  33.7930716  43.4630825  37.0597319
  32.0637952  43.7788252  36.7821510  32.6297292  43.2799923  38.3939904
  35.8903877  40.0019348  38.1352647  35.9013654  38.8451230  37.7058095
  36.5699417  40.3857936  39.2196912  36.6532022  41.3680326  39.4396308
  37.2537724  39.4249943  40.0772332  36.9181634  38.4193982  39.8237728
  38.7839840  39.4902402  39.9095301  39.0051365  39.3602483  38.8501468
  39.1084907  40.4805420  40.2290575  39.5370082  38.4085771  40.7318839
  39.6928328  38.8170142  41.7303821  38.8930343  37.5314238  40.7951202
  40.8848944  38.0087817  40.1287775  41.1085796  38.2608275  38.9224770
  41.7310882  37.4303857  40.8551900  36.8428992  39.7110223  41.5151502
  37.0325178  40.8310586  42.0104739  36.2477606  38.7202265  42.1685946
  35.9963532  37.8775825  41.6717600  35.9114142  38.8146024  43.5803543
  36.1392207  39.8178972  43.9403583  34.4232194  38.5348599  43.8185967
  34.2087578  38.6366942  44.8824271  33.8317782  39.2589974  43.2583090
  34.0902094  37.2197021  43.3919713  33.1564841  37.0596974  43.5473916
  36.7570912  37.8208217  44.3603981  37.1769967  36.7902864  43.8282915
  37.0218024  38.1284321  45.6284154  36.7950142  39.0262694  46.0315960
  37.7218240  37.1613278  46.4527746  37.5674331  36.1636103  46.0418944
  39.2275862  37.4412888  46.5062809  39.6951872  36.6168873  47.0446217
  39.5946904  37.4591187  45.4801149  39.5733359  38.7535713  47.1905212
  39.6516077  38.8498352  48.5816117  39.4680881  37.9601807  49.1840527
  39.9581245  40.0566727  49.1996316  40.0142482  40.1256949  50.2859961
  40.2084039  41.1798029  48.4172967  40.5145338  42.3889821  49.0055110
  40.5289305  42.3466483  49.9644689  40.1395504  41.1004709  47.0424114
  40.3344486  41.9798387  46.4285487  39.8200466  39.8924757  46.4414795
  39.7582325  39.8235517  45.3554185  37.1378464  37.1540503  47.8576498
  36.4958907  38.1111039  48.2953735  37.3733743  36.0508324  48.5536784
  37.6500102  35.2158900  48.0572480  37.2217548  35.9757761  49.9993160
  37.0321760  36.9800686  50.3782033  36.0558750  35.0582481  50.4282538
  35.1446361  35.3944358  49.9335602  36.3353060  33.6095619  50.0474012
  37.2462095  33.2725004  50.5421172  35.4996509  32.9834643  50.3601015
  36.4602320  33.5349453  48.9671575  35.8932324  35.1323339  51.8545496
  35.1689477  34.5627782  52.1240275  38.5209890  35.4593502  50.5971202
  39.2483481  34.6832321  49.9753242  38.8315247  35.9189370  51.8060928
  38.2651755  36.6310356  52.2445713  40.0218383  35.4570801  52.5044134
  40.1578919  34.3812094  52.3944557  41.2933918  36.1738344  51.9789146
  41.3219505  36.0953487  50.8921195  41.2800496  37.6432165  52.3814571
  41.2519584  37.7225145  53.4682062  42.1788420  38.1317433  52.0051405
  40.3997867  38.1281133  51.9594215  42.5637253  35.4886370  52.5036443
  42.5824204  34.4514636  52.1689447  43.4420438  36.0090133  52.1217218
  42.5696033  35.5184253  53.5932217  39.7965715  35.7085116  53.9861863
  39.0989541  36.6498444  54.3644488  40.3681490  34.8497237  54.8247830
  40.8221443  34.0134183  54.4862848  40.3395486  35.0866386  56.2620972
  39.3234703  35.3326857  56.5705526  40.7957894  33.8522856  57.0294383
  41.7633224  33.5406718  56.6358954  40.9055244  34.1424451  58.0743621
  39.8143440  32.7023059  56.9252624  38.7649506  32.8819153  56.2718506
  40.1066851  31.6243024  57.4865190  41.2484789  36.2510163  56.6106504
  42.3605574  36.3575805  56.0941386  40.7830344  37.1111276  57.5106943
  39.8313788  37.0556004  57.8444122  41.6270014  38.1974859  58.0021556
  42.0875028  38.7388097  57.1757136  40.8348641  39.1784400  58.8776878
  40.3704031  38.6228694  59.6923765  41.7552450  40.2698157  59.4595745
  42.2197401  40.8261521  58.6454280  41.1678470  40.9507623  60.0755096
  42.5298011  39.8052542  60.0697750  39.6923754  39.7999049  58.0703349
  40.1082689  40.6236528  57.4901860  39.3124721  39.0347997  57.3932920
  38.5564360  40.3157912  58.9404664  38.9355025  41.0813168  59.6175034
  37.7789214  40.7438049  58.3077149  38.1397071  39.4924634  59.5206114
  42.7680786  37.5489992  58.7704979  42.5167965  36.7842812  59.7136982
  44.0213711  37.7911038  58.3907977  44.4414086  38.5076715  57.1745917
  43.9762658  39.4932671  57.1560513  44.1301170  37.9429817  56.2957732
  45.9151674  38.5765336  57.3088571  46.1728734  39.5803873  57.6464433
  46.3489169  38.4023759  56.3241582  46.3694659  37.5422970  58.2806356
  47.1346973  37.9904832  58.9143935  46.7694868  36.6452427  57.8080083
  45.1375354  37.1851111  59.1234804  44.9770367  36.1082436  59.1753905
  45.2408323  37.7494546  60.5304204  44.7640226  38.8459825  60.8301053
  45.8694769  36.9799418  61.4081363  46.2550732  36.0811340  61.1560266
  45.9359464  37.3922652  62.8002559  44.9379785  37.6521100  63.1532999
  46.4860699  36.2651062  63.6758212  46.3953670  36.6159255  64.7038280
  45.8193551  35.4166464  63.5218489  47.9161786  35.8377137  63.4125366
  47.9175844  35.2346925  62.5045365  48.5386382  36.7199392  63.2631335
  48.4702089  35.0160520  64.5676767  47.6573719  34.4014379  65.2996688
  49.7079700  34.9990703  64.7626130  46.7703444  38.6645349  62.9322212
  47.7522503  38.8671957  62.2081774  46.3241499  39.5559736  63.8175332
  45.5205760  39.3327267  64.3872078  46.9541804  40.8461398  63.9957653
  46.6591069  41.2042529  64.9820644  48.0302472  40.6731767  63.9795350
  46.6078902  41.9037729  62.9618835  46.9777007  43.0691115  63.1544557
  45.9171252  41.5604841  61.8805216  45.6514626  40.5989749  61.7223358
  45.5705881  42.5485062  60.8673102  46.1585222  43.4524786  61.0262652
  45.8552733  42.0210285  59.4577587  45.5176325  40.9856326  59.4124448
  45.3086677  42.6133394  58.7239399  47.3289878  42.0647893  59.1139322
  47.9726496  41.0242088  58.9789630  47.8818871  43.2769710  58.9933011
  48.8621401  43.3610871  58.7649850  47.3165392  44.1024988  59.1310923
  44.1070398  42.9569297  60.9738627  43.2907862  42.2835639  61.6103270
  43.7936436  44.0937953  60.3616753  44.5392444  44.6455545  59.9619997
  42.4317006  44.5967972  60.2590765  41.8083734  44.1598470  61.0392284
  42.4042427  46.1194338  60.4068393  41.3670825  46.4447921  60.4877159
  43.1801341  46.5653492  61.6578133  44.2175648  46.2407293  61.5774444
  43.1452010  47.6517142  61.7396054  42.7282639  46.1200545  62.5441690
  42.9926244  46.7206204  59.2422901  42.9765144  47.6762147  59.3327351
  41.8261404  44.2088720  58.9167055  42.5348350  44.0003981  57.9269725
  40.4904695  44.1302312  58.8877783  39.9377835  44.1794396  59.7317072
  39.8027006  43.9061972  57.6244732  40.0891240  42.9376766  57.2145603
  38.2883453  43.9208567  57.8303564  38.0420822  43.1225204  58.5304370
  38.0236197  44.8828054  58.2693040  37.5037205  43.7198969  56.5311693
  37.6921357  44.5816857  55.8909189  37.8748106  42.8180902  56.0442030
  36.0040038  43.5856688  56.7740821  35.5499969  43.9275015  57.8858299
  35.2798406  43.1351037  55.8593916  40.2059438  44.9488302  56.5839072
  40.4624648  44.6078753  55.4213799  40.2647829  46.2254987  56.9843625
  40.0473161  46.4766782  57.9381530  40.5888278  47.2978058  56.0404613
  39.8944240  47.2723120  55.2006681  40.4820278  48.6609486  56.7208182
  40.9124044  48.5531366  57.7164346  41.0869292  49.3549802  56.1372820
  39.0729393  49.1956307  56.8365830  38.6424115  49.2161885  55.8354217
  38.4969500  48.5166624  57.4653418  39.0346017  50.5962603  57.4342801
  40.0656622  51.3086755  57.3587295  37.9775049  50.9827627  57.9872388
  41.9799488  47.1264600  55.4466559  42.1710025  47.2951136  54.2362405
  42.9668172  46.7942090  56.2778123  42.8267466  46.7185323  57.2751852
  44.3122011  46.5911742  55.7508569  44.5973617  47.4397733  55.1290352
  45.3159747  46.4625087  56.8884398  44.8764728  45.8187642  57.6503651
  46.2172114  45.9937914  56.4932480  45.6724097  47.8062223  57.5046880
  45.2381592  48.8529634  56.9637874  46.3902283  47.8082846  58.5288957
  44.3739737  45.3653511  54.8532240  45.0707727  45.3761642  53.8331979
  43.6609679  44.2951121  55.2167752  43.1701337  44.2547242  56.0985631
  43.6306784  43.1214598  54.3554711  44.6445506  42.7606796  54.1822661
  42.8179152  42.0014403  55.0049442  41.7789547  42.3183588  55.0956301
  42.8910668  40.7476240  54.1566662  43.9297486  40.4298146  54.0659086
  42.3090432  39.9553422  54.6274497  42.4870953  40.9546929  53.1656919
  43.3434805  41.7240571  56.3083972  42.8330279  41.0206858  56.7162050
  43.0589752  43.4791959  52.9929021  43.6297334  43.1284961  51.9564106
  41.9352213  44.1955795  52.9805042  41.4761987  44.4610500  53.8401105
  41.3084374  44.5678934  51.7194418  41.0995339  43.6756104  51.1292812
  39.9927899  45.2981880  51.9825585  39.4435065  44.7194015  52.7251171
  40.2415039  46.2756518  52.3958452  39.1253240  45.4783852  50.7319063
  39.7529632  45.8350733  49.9152402  38.6908514  44.5158831  50.4618593
  38.0141213  46.4801842  50.9904817  37.5770286  46.2701681  51.9666693
  38.4431599  47.4821916  50.9930424  36.9275941  46.3935810  49.9161067
  36.4794575  45.4011029  49.9636603  36.1693915  47.1449680  50.1366641
  37.4784562  46.6281074  48.5393793  38.1807367  45.9316991  48.3346420
  36.7318334  46.5625211  47.8623617  37.8933769  47.5478729  48.4949785
  42.2408223  45.4347868  50.8889941  42.3542812  45.2536021  49.6707555
  42.9432157  46.3612601  51.5342659  42.8407300  46.5072265  52.5283936
  43.8327119  47.2482692  50.7932549  43.2885606  47.7263389  49.9787318
  44.3813416  48.3348370  51.7182203  44.6269587  47.8700699  52.6730831
  45.2886238  48.7344756  51.2651994  43.3944001  49.4575740  51.9437180
  43.0153612  49.7622248  50.9682088  42.5755663  49.0593508  52.5429104
  44.0996226  50.8941184  52.7818846  43.9798824  50.4093667  54.5096948
  44.5518373  49.4957446  54.6717481  44.3798565  51.2042759  55.1391714
  42.9352780  50.2338746  54.7668048  44.9639466  46.4713158  50.1361207
  45.2364554  46.6443793  48.9447219  45.6166010  45.5875554  50.8850071
  45.3953589  45.4420436  51.8596750  46.7434947  44.8554066  50.3142193
  47.4290341  45.5806394  49.8758448  47.4806330  44.0840475  51.4008459
  46.8097203  43.3475821  51.8431070  48.3413631  43.5758549  50.9661228
  47.8191757  44.7758153  52.1721729  46.2984777  43.9179157  49.1946248
  46.9379718  43.8438158  48.1417974  45.2173745  43.1716404  49.3996174
  44.6879795  43.1753226  50.2597492  44.8436005  42.2173327  48.3615867
  45.7303117  41.7176130  47.9715575  43.8704359  41.1693883  48.9215412
  42.9902467  41.6729591  49.3212709  43.4490432  40.2126757  47.8184822
  44.3287089  39.7083527  47.4185479  42.7589084  39.4722820  48.2229965
  42.9568491  40.7702342  47.0216304  44.5660340  40.4183327  50.0631785
  45.4655231  39.9570737  49.6554282  44.8453825  41.1519744  50.8193754
  43.7292008  39.3961975  50.6666375  43.4498126  38.6618918  49.9110998
  44.2791575  38.9016776  51.4673228  42.8296703  39.8567927  51.0750452
  44.2754477  42.9405484  47.1472608  44.5635956  42.5684863  46.0061361
  43.4429364  43.9662938  47.3744731  43.1455478  44.1827003  48.3151259
  42.9189568  44.7766628  46.2793866  42.3011875  44.1552154  45.6311094
  42.0638824  45.9356398  46.8074066  42.5788677  46.3513690  47.6734659
  42.0042399  46.6908685  46.0237151  40.6615497  45.5106142  47.2083896
  40.3685764  44.2923003  47.1860281  39.8419903  46.4033616  47.5435871
  44.0446006  45.3467130  45.4265971  43.9167667  45.4274364  44.1953976
  45.1358645  45.7834677  46.0707192  45.1711768  45.7630499  47.0798949
  46.2783218  46.3443806  45.3475400  45.9705590  47.2153579  44.7689384
  47.3783086  46.7708713  46.3278280  47.6081683  45.9348752  46.9884152
  48.6330136  47.1806129  45.5744383  48.4040316  48.0169215  44.9139425
  49.4029008  47.4801388  46.2855340  48.9932662  46.3390638  44.9827341
  46.9335165  47.8755471  47.1324431  47.6317728  48.1305359  47.7399125
  46.8322317  45.3367033  44.3452065  47.0838110  45.6683319  43.1780787
  47.0263975  44.0963889  44.7900724  46.8797979  43.8702889  45.7634617
  47.5349461  43.0556761  43.9090320  48.4179402  43.3670913  43.3509629
  47.8853553  41.7987091  44.7213985  46.9967380  41.4687947  45.2595575
  48.3677743  40.6837765  43.8097367  49.2567016  41.0128058  43.2715461
  48.6098275  39.8045911  44.4068496  47.5834911  40.4326690  43.0956314
  48.9389962  42.1319629  45.8002459  48.5419968  42.8909297  46.4743845
  49.1766737  41.2317710  46.3670471  49.8430180  42.5087311  45.3218202
  46.5224580  42.7541180  42.8068430  46.8645240  42.7542644  41.6193752
  45.2592396  42.5152174  43.1769928  44.9615399  42.5546377  44.1413165
  44.2901368  42.0802886  42.1682060  44.6734533  41.2326348  41.6001825
  42.9538746  41.6721854  42.8211579  42.5572219  42.5180375  43.3826738
  41.9324312  41.2505227  41.7311218  42.3282109  40.4043640  41.1694503
  40.9929182  40.9645446  42.2040196  41.7578568  42.0861353  41.0533482
  43.1730345  40.5312832  43.8021707  43.8668512  40.8489076  44.5805249
  42.2215509  40.2534645  44.2555970  43.5880328  39.6724623  43.2746255
  44.0956947  43.1626917  41.1142351  44.0338726  42.8721731  39.9118599
  44.0146197  44.4305692  41.5352760  44.0197225  44.6708420  42.5162665
  43.8363355  45.5053151  40.5589021  42.9732541  45.2920196  39.9282716
  43.6048867  46.8412163  41.2692016  42.7853131  46.6941904  41.9726088
  44.5166348  47.0761358  41.8184086  43.2667539  47.9941836  40.3285605
  42.9972845  48.8528721  40.9434923  44.1644587  48.2258383  39.7553554
  42.1000949  47.6684265  39.3544018  42.4206911  46.8904984  38.6614770
  41.2446718  47.3127096  39.9286982  41.7031215  48.9138342  38.5710553
  41.5548175  49.7146826  39.2954504  42.5408898  49.1639388  37.9201398
  40.4659364  48.7505359  37.7494095  39.6894320  48.5192029  38.3524235
  40.2688075  49.6132392  37.2626004  40.6033004  48.0087844  37.0778182
  45.0291701  45.6026727  39.6060674  44.8472041  45.7828485  38.3886853
  46.2594419  45.4987495  40.1345768  46.4088131  45.4449494  41.1320201
  47.4310723  45.5027951  39.2564499  47.4692439  46.4427676  38.7059104
  48.7229076  45.3543740  40.0595388  48.7606733  46.2253742  40.7137800
  48.7059796  44.4472760  40.6636802  49.9652051  45.3417842  39.1501322
  49.8138658  44.6016842  38.3643528  50.2041369  46.7238674  38.5140045
  50.3560302  47.4644615  39.2992100  51.0880161  46.6835186  37.8774275
  49.3377070  47.0031799  37.9145179  51.2319968  44.8871831  39.8934912
  51.0861464  43.8773847  40.2770722  52.0791794  44.8959501  39.2077026
  51.4300060  45.5654761  40.7234369  47.3447363  44.3802294  38.2290798
  47.6283251  44.5752540  37.0393967  46.9585093  43.1909742  38.6771398
  46.7403317  43.0363105  39.6510889  46.9123007  42.0536390  37.7708509
  47.8605909  41.9617520  37.2413213  46.6628441  40.7655269  38.5520567
  45.8481573  40.9522185  39.2517216  46.3798726  39.9623620  37.8716500
  47.8888933  40.3266002  39.3392490  48.9990577  40.7364900  39.0301497
  47.6923517  39.4758985  40.3301072  48.4766827  39.1565211  40.8804914
  46.7586196  39.1486192  40.5329211  45.8514610  42.2504283  36.6986791
  46.0530641  41.8608281  35.5436117  44.7164383  42.8537774  37.0541891
  44.5263050  43.1191043  38.0099873  43.6742625  43.0823558  36.0490928
  43.5027847  42.1701647  35.4776018  42.3659592  43.4871291  36.7268612
  42.6251578  44.3289400  37.3689436  41.6885966  43.8243420  35.9422802
  41.6764297  42.3957965  37.5655102  42.2923176  42.1781328  38.4380957
  40.3064541  42.8575294  38.0173889  39.6897984  43.0749553  37.1452876
  39.8347340  42.0727556  38.6087526  40.4075535  43.7576275  38.6237738
  41.5242829  41.0942838  36.7753929  42.5084590  40.7312453  36.4792510
  41.0337251  40.3459694  37.3978716  40.9221298  41.2771896  35.8854176
  44.1155660  44.1407170  35.0416785  43.7961341  44.0496861  33.8447668
  44.8543855  45.1508359  35.5071100  45.0171283  45.2714039  36.4965934
  45.3983365  46.1434183  34.5925053  44.5984627  46.5680735  33.9859008
  46.0690441  47.2722972  35.3765178  46.8462728  46.8251360  35.9962449
  46.5256160  47.9482087  34.6534785  45.1087202  48.0457186  36.2527251
  44.3494904  48.5215244  35.6320160  44.6309996  47.3433338  36.9357629
  45.8100637  49.1191017  37.0713013  46.9734296  48.9667154  37.4585418
  45.1081102  50.2218730  37.3228997  45.5226145  50.9686560  37.8619757
  44.1642544  50.3067057  36.9735561  46.3838091  45.5065651  33.6289672
  46.3865659  45.8210212  32.4374175  47.2398025  44.6182056  34.1237235
  47.2882085  44.3936371  35.1072504  48.2027974  43.9991306  33.2269962
  48.6033265  44.7464722  32.5420465  49.3578895  43.3952584  34.0191949
  48.9334673  42.6918138  34.7355263  49.9937720  42.8575828  33.3158753
  50.1955799  44.4455937  34.7674906  49.5537226  44.9554273  35.4859541
  51.0002390  43.9360039  35.2975321  50.7927802  45.4722851  33.7974688
  51.8641134  45.5318376  33.9892959  50.6254179  45.1120851  32.7824095
  50.1687010  46.8607615  33.9550873  49.6476927  47.1092172  33.0304682
  49.4527923  46.8234443  34.7761727  51.2035008  47.9070795  34.2419010
  51.8667317  47.9421179  33.4809826  50.7547252  48.8066685  34.3390616
  51.6861043  47.6772689  35.0988608  47.5492701  42.9510055  32.3475131
  48.0649285  42.6567439  31.2661803  46.4352099  42.3721611  32.8020847
  46.1603807  42.4562869  33.7703259  45.6095324  41.5529527  31.9157128
  46.2030658  40.7423000  31.4930315  44.4442826  40.9468927  32.7041854
  44.9262782  40.2744046  33.4137905  43.9649325  41.7625650  33.2454821
  43.3883924  40.1743826  31.9047926  43.0276947  40.7932167  31.0831830
  44.0089119  38.9041897  31.3472261  44.3694501  38.2845854  32.1683238
  43.2602556  38.3528832  30.7783011  44.8427468  39.1627286  30.6945567
  42.1834440  39.8460304  32.7964901  41.7427894  40.7712276  33.1678834
  41.4408117  39.2974514  32.2171288  42.5096311  39.2358504  33.6387378
  45.0932704  42.3814666  30.7460260  45.1134797  41.9354844  29.5863344
  44.6167424  43.5919845  31.0279563  44.5218754  43.9280762  31.9756598
  44.2158875  44.4692787  29.9433733  43.3830116  44.0024968  29.4175105
  43.8885476  45.4156959  30.3737712  45.3363396  44.7374604  28.9547072
  45.1219364  44.7302097  27.7393605  46.5466867  45.0043385  29.4584899
  46.7005756  45.0604015  30.4551214  47.6670177  45.3026123  28.5656958
  47.4290217  46.1164637  27.8807849  48.9165232  45.6916569  29.3767682
  49.0873999  44.9415367  30.1489210  50.1275667  45.7694537  28.4727885
  49.9576113  46.5197486  27.7006009  51.0031174  46.0454812  29.0604281
  50.2955451  44.7992477  28.0052576  48.7063328  47.0363716  30.0980861
  47.8583678  46.9557947  30.7782073  49.6027067  47.2896033  30.6642020
  48.5089731  47.8166225  29.3629954  47.9485391  44.1122069  27.6490357
  48.1221289  44.2695413  26.4351731  48.0469047  42.9144967  28.2278651
  48.0217567  42.8216892  29.2332773  48.2589400  41.7089428  27.4246211
  49.2028506  41.8115323  26.8892639  48.3419798  40.4740641  28.3333862
  47.4006669  40.3528195  28.8694177  48.5309578  39.5881758  27.7270947
  49.1533456  40.6033354  29.0496777  47.1561938  41.5254353  26.3804539
  47.4401610  41.2516200  25.2071097  45.8944036  41.6859094  26.7794457
  45.6624154  41.9526466  27.7255600  44.8020128  41.4176903  25.8481312
  44.9693949  40.4395147  25.3972932  43.4619107  41.3942564  26.5819828
  43.2759354  42.3698400  27.0311486  42.6645350  41.1618879  25.8760812
  43.4879752  40.6343026  27.3629374  44.7537147  42.4427247  24.7268940
  44.3565513  42.1145415  23.6007328  45.1492906  43.6862572  25.0041530
  45.4768750  43.9504001  25.9223122  45.0521226  44.7174906  23.9839519
  44.2236832  44.4787619  23.3170217  44.7866211  46.0811137  24.6246030
  44.7093442  46.8365714  23.8426745  43.4846170  46.0384814  25.4211041
  43.5613109  45.2835213  26.2035701  43.3030213  47.0131939  25.8739371
  42.6587461  45.7882499  24.7552048  45.8585599  46.3911835  25.5183378
  45.6991801  47.2461975  25.9247236  46.2830974  44.8185582  23.0986862
  46.1734313  45.3383992  21.9812656  47.4535836  44.3615855  23.5524582
  47.5421309  43.8340197  24.4091572  48.6684672  44.7039521  22.8228776
  48.4316150  44.9268637  21.7825360  49.3257275  45.9496547  23.4573460
  50.2124068  46.2203053  22.8840683  48.6171286  46.7777591  23.4421610
  49.6956940  45.6706225  24.7935903  50.1032583  46.4482936  25.1818155
  49.7147183  43.6001212  22.7184086  50.7124481  43.8006999  22.0214068
  49.5450003  42.4606030  23.3767544  48.7299663  42.3256027  23.9577826
  50.5304511  41.3904848  23.3103480  51.4640178  41.7766895  22.9012046
  50.8060038  40.8245294  24.7160984  49.8822343  40.4257401  25.1352847
  51.5473407  40.0282875  24.6488776  51.1837151  41.6184767  25.3603662
  50.0479041  40.2686085  22.3965799  48.8402826  40.1018409  22.1884600
  50.9606318  39.4809358  21.8259892  52.4140049  39.7000501  21.7656841
  52.7963875  39.8720957  22.7718074  52.6235517  40.5705960  21.1441223
  52.9291953  38.4356840  21.1656224  53.2952648  37.8014057  21.9729534
  53.7543245  38.6873212  20.4993327  51.8386992  37.7876871  20.4274251
  51.9136627  36.7138172  20.5985474  51.8644025  37.9870337  19.3561175
  50.5297031  38.3222664  21.0288394  49.8362600  38.6667779  20.2616715
  49.8448213  37.2764409  21.8984479  50.1104653  37.1635211  23.0970785
  48.9337056  36.5223689  21.2896288  48.6955089  36.6681442  20.3190047
  48.2031738  35.4931820  22.0382404  47.8850075  35.8999117  22.9981573
  46.9672602  35.0256132  21.2725578  47.2906438  34.7862261  20.2595345
  46.6111286  34.1198304  21.7633000  45.8364715  36.0527473  21.2167584
  45.5993691  36.3201373  22.2465087  46.2269927  36.9268488  20.6956617
  44.3409906  35.4928566  20.3925051  43.5614276  34.4072851  21.6106258
  43.3462258  34.9729545  22.5171605  42.6324462  34.0097123  21.2019327
  44.2350464  33.5839043  21.8480770  49.1002581  34.2982601  22.3541447
  50.0711061  34.0363651  21.6444756  48.8819170  33.5977673  23.3400841
  52.2126041  39.5076376  46.4280725  47.5769529  38.4550848  47.3084964
  46.5895240  38.7279407  46.3459592  46.1810084  37.7490659  45.4270985
  46.7923645  36.5074704  45.5208723  46.7623148  34.1369713  45.1965932
  48.1651790  34.0435235  45.7913230  49.2455382  34.0510033  44.6823113
  49.0910008  35.3460826  42.5717754  48.9834566  36.7919768  42.0811418
  50.4702633  37.5044121  43.8298413  52.3771870  40.8677640  46.6743783
  50.5782287  36.0675332  44.3142662  50.0877763  38.5116935  49.3185885
  49.5306239  39.1334533  50.4322963  49.7103694  40.4934752  50.6659497
  50.4598577  41.2526183  49.7800247  51.0369497  40.6533831  48.6665527
  50.8621381  39.2842422  48.4245028  51.4584800  38.7163344  47.2962989
  51.7883413  41.4459665  47.7925910  49.8275095  37.1372217  49.1953956
  49.1216402  36.6429971  48.1222337  49.2254516  35.3799224  47.6607453
  50.1479631  34.2562544  48.1337016  47.7279301  36.3238804  46.4684157
  48.1551308  37.2434925  47.3630526  48.3845137  35.1940208  46.6443940
  49.3238827  35.3712788  44.0302610  50.0703683  36.4248615  50.1753459
  46.4760940  35.4604028  44.6600080  50.1895814  37.5251402  42.4209453
  52.6804677  39.0526097  45.5426780  47.8783960  39.2376747  48.0204425
  46.1292221  39.7262006  46.3117625  45.4126052  37.9563338  44.6683037
  46.6720945  33.3987178  44.3855402  46.0412340  33.9377591  46.0035789
  48.2412764  33.1032253  46.3571477  50.2216696  33.8124050  45.1300973
  48.9752757  33.3016265  43.9243907  48.1564912  34.8075760  42.3529797
  49.9198063  34.8324994  42.0632976  48.8501737  36.7962894  40.9889161
  48.1207586  37.2739302  42.5652298  49.6581848  38.0113691  44.3710650
  51.4225650  38.0225203  44.0176476  52.9720516  41.4843503  45.9842571
  51.4055597  35.5640938  43.7927145  50.7720037  36.0551465  45.3966173
  48.9366917  38.5385196  51.1423247  49.2589527  40.9650278  51.5506842
  50.5982169  42.3296735  49.9581985  51.3337741  37.6422992  47.0915456
  51.9119881  42.5209785  47.9893489  49.7349822  33.2866293  47.8200445
  51.1460278  34.3901659  47.6910409  50.2264800  34.2841250  49.2306097
  31.7809978  43.4173613  54.5990497  30.7145235  30.7619175  55.7943870
  28.6378264  24.2457805  30.5799703  56.5303067  25.8826643  30.7473681
  38.9905098  54.4814950  59.3642423  54.8088015  65.8673920  54.4122632
  34.6859389  60.6875775  20.9245373  59.3460581  50.6525980  61.5625272
  12.5459339  48.0032584  52.7967106  58.0460805  54.6520543  19.0519321
  58.5675804  37.3389529   0.4338446  41.8487275   3.3696156  39.1725455
  70.2910121  39.5942882  39.3783136   8.8072563  54.6738638  28.2305510
  50.2146855  10.5403889  13.6241043   9.1849621  10.7452652  47.4763631
  25.9593031  44.3532587  -1.0098811  19.1632506  47.0142652  10.4580530
  61.6002486  41.9894172  33.3871080  60.4124865  50.0773319  46.5597662
  28.0971551  62.9252306  43.3632331   5.2519896  26.8564199  63.1784525
  43.4516051  55.2339603  69.7748651  44.3174352  77.3042962  26.1458137
  28.5207775  57.2380316  70.1575964   2.5443560  32.3451067  61.8377780
  33.6332135  24.6167703  17.4667090  48.4544355  58.3541382  48.2230679
  27.7976291  26.5839264  59.6257615  48.1088604  33.6195298  82.9481543
  72.2314864  28.4719717  35.5259959  27.6876604  11.2715420  17.6201512
   9.1439140  47.8111659  18.0467228   2.9439449  28.7312487  48.6034911
  19.1193720  59.7752902  10.6532143  62.8625942  19.6867438  55.6607512
  14.3251740   8.0303700  44.9646435  75.2639593  61.9472399  27.9225868
  59.0141441  37.0231846  53.2447538  25.2672697  52.3943770  59.7221145
  41.3404781  54.9471983  28.5040150  41.1328273  28.1909886  69.7854719
   7.0474161  36.2791796  11.6664984  22.0975400  19.2562141  48.6254117
  47.9437723  69.8852000  18.4164296  31.3933665  31.3310376  61.3100899
  30.1965194  15.9347698  63.5424261  57.9132898  47.0423063  31.8986482
  39.5455720  37.4162596  -3.6304950  71.2818218  61.6019698  56.0866159
   4.2282147  48.3988466  10.6814986  30.3558681  29.4926956  67.0312909
  18.2912990  56.3914281  39.4826310   9.6522543  52.7658830  67.2754290
  60.3271913  39.3941828  33.2322516  35.4169071  40.8120923  83.2848134
  34.8326286  41.3170955  83.6913998  35.0139166  40.5863310  82.5444726
  35.2708375  40.8529171  83.2353159  39.8746285  37.0586575  81.7617054
  40.1142289  37.2664559  80.9492397  40.1962126  36.2544084  81.8705999
  39.9583443  36.9700676  81.6577607  40.2602985  43.1754417  81.1938987
  40.6754134  42.8439440  80.5023482  39.4294915  42.9423319  81.0659123
  40.1990994  43.0925673  81.0729834  42.9536375  39.4264976  80.3800188
  42.8716538  39.4967163  81.2455175  43.5916096  39.9894720  80.1883929
  43.0356213  39.5203947  80.4790137  36.5687209  38.1409238  82.8555996
  36.9532361  37.9216944  83.6072541  36.3198829  38.9672183  82.9857072
  36.5889281  38.2307384  82.9857072  41.4952508  42.6647230  78.7324600
  42.2625493  42.7247355  78.3230451  41.0483817  42.0927672  78.2480918
  41.5425935  42.5883806  78.6002310  37.5427108  38.9365997  80.1961710
  37.8319633  39.7130879  80.4705284  37.6298907  38.4254728  80.8976209
  37.5981364  38.9757915  80.3404208  37.3435249  34.6046771  81.8840349
  37.7234214  34.6226400  81.0991464  36.6027845  35.0500759  81.7631196
  37.2904087  34.6728545  81.7503917  46.7455974  13.9291097  73.3350378
  46.7149978  14.7835734  73.5068647  47.3437322  13.6286390  73.8936521
  46.8293132  14.0107594  73.4425180  39.7821758  22.9754835  69.2826087
  39.4473127  23.6531757  68.8470309  40.2948629  22.5860147  68.6942959
  39.8087339  23.0179414  69.1312878  39.3226049  24.9269104  75.2237198
  39.7065429  25.4956003  74.6841974  39.2585191  24.2018614  74.7443014
  39.3699477  24.9044568  75.0731061  44.5672548  16.5043399  71.6068688
  44.4512074  17.2551085  72.0360826  45.3628435  16.2467352  71.8564775
  44.6677138  16.5778246  71.7072779  36.4502874  20.4937422  72.8938030
  36.7718715  21.0342629  72.2899338  37.0974970  19.9234194  73.0260320
  36.5928929  20.4896597  72.8245065  42.2901854  17.2351043  69.9182977
  42.2053149  18.0912010  70.0632546  42.7786237  16.9595367  70.5865137
  42.3490751  17.3208365  70.0385059  43.2220287  13.8535838  71.4180713
  42.6931758  14.0695471  72.0778019  43.7445307  14.5471976  71.3381682
  43.2208740  13.9878974  71.5036312  48.6768340  19.4282142  76.7913757
  47.8466043  19.6392786  76.9547174  48.6277592  18.6019197  76.5156041
  48.5475075  19.3371748  76.7751122  35.1119895  17.7499054  70.2188181
  34.5277110  18.2549086  70.6254044  34.7089990  17.5241441  69.4784773
  34.9659199  17.7907303  70.1693206  39.5697109  13.9964706  68.6957101
  39.8093113  14.2042690  67.8832444  39.8912950  13.1922215  68.8046046
  39.6534267  13.9078808  68.5917654  39.9553809  20.1132548  68.1279033
  40.3704958  19.7817572  67.4363529  39.1245739  19.8801450  67.9999170
  39.8941818  20.0303804  68.0069881  45.3541832  17.8327799  75.5610099
  45.5897421  17.9772998  74.7336949  45.5031396  18.5970207  75.9541612
  45.4107635  17.9666853  75.4973703  47.1832289  16.6729465  73.3979703
  47.5140506  17.2057105  72.7919798  47.7565377  16.7268352  74.0541654
  47.3165968  16.7599034  73.4057484  42.6487199  16.3643107  67.3140235
  42.5667362  16.4345294  68.1795222  43.2866920  16.9272851  67.1223975
  42.7307037  16.4582078  67.4130184  39.7527309  16.3863561  70.3248841
  40.5667948  16.6778454  70.2131613  39.6886451  15.7323424  69.7507134
  39.8630048  16.3328756  70.2237679  36.5461275  23.2992245  71.8628413
  36.8359574  22.9081226  71.1387640  37.2764756  23.4808950  72.3033688
  36.6968159  23.2686058  71.8211220  36.6535147  26.6489017  73.7119255
  37.3059205  26.1165459  73.9410281  35.9560755  26.2957669  74.0987129
  36.6465865  26.5178540  73.8031423  44.6475065  18.9693431  73.0550234
  45.2133098  19.6286641  72.9708777  44.0002968  19.3143129  73.5266637
  44.6353821  19.1175372  73.1122991  41.1181643  21.9132215  72.4787314
  40.8768319  21.1800076  72.0714379  41.2982976  22.4619072  71.8253647
  41.1089267  21.8854606  72.3217537  45.8437763  19.0199659  69.8475871
  45.4644572  18.2336797  69.8405160  45.1804008  19.5686516  69.7047515
  45.6896238  18.9844483  69.8256668  38.6684671  22.5713178  73.6864697
  39.4334562  22.3022821  73.3647361  38.5662761  22.0863188  74.4034760
  38.7666166  22.4602742  73.7444525  41.1903332  19.6025361  65.6664646
  41.9576317  19.6625486  65.2570498  40.7434640  19.0305803  65.1820965
  41.2376759  19.5261937  65.5342357  44.0897862  21.2645150  70.1827557
  44.1717699  22.0712136  69.8589008  44.5747604  21.2841109  70.9068330
  44.1735020  21.3865812  70.2414455  37.8942404  21.2057272  70.4358998
  37.9635225  20.3471811  70.5751999  38.6730859  21.4229153  70.1078023
  38.0195254  21.1110136  70.4076156  42.2849892  23.6294973  74.6495492
  41.8929684  23.3261689  73.9318358  42.4402964  24.4664063  74.4600446
  42.2503482  23.7078810  74.5151989  42.4489567  20.1944962  74.5901522
  42.0904221  20.3659605  75.3665555  41.9628277  20.6558168  74.0329521
  42.3248263  20.2883933  74.6226791  37.2377932  15.8744128  67.1301757
  37.5270457  16.6509010  67.4045331  37.3249731  15.3632859  67.8316256
  37.2932188  15.9136046  67.2744254  41.5846633  19.8380954  70.5165101
  42.3080832  20.3039067  70.3729674  41.1447224  19.9054564  69.7662698
  41.6262326  19.9164791  70.3849882  41.8450483  23.9001659  70.6763162
  41.1279793  23.7262522  70.2110399  42.4957221  23.6654232  70.1438648
  41.8352334  23.8397452  70.5292380  48.2270782  18.8705470  71.2420017
  48.6104388  19.6196826  71.4718114  47.4314895  19.1171290  70.9832006
  48.1664564  19.0175164  71.2377590  37.8370827  18.3802408  70.2089186
  37.0282150  18.0569082  70.1622495  38.3445736  17.6735630  70.1417434
  37.7920494  18.2283724  70.1919480  57.7188557  29.4476405  73.3350378
  57.6882562  30.3021042  73.5068647  58.3169906  29.1471698  73.8936521
  57.8025715  29.5292902  73.4425180  50.9188242  28.5352056  78.0903308
  50.0626138  28.6960554  78.1412425  50.9655896  27.6644120  78.1108369
  50.7987354  28.4302858  78.1009374  45.3029382  38.0714774  73.8540540
  44.5512281  37.6930312  73.6256585  45.7515394  38.1033208  73.1059350
  45.2579049  38.0200381  73.7098042  50.7554342  38.4940143  69.2826087
  50.4205710  39.1717065  68.8470309  51.2681212  38.1045455  68.6942959
  50.7819923  38.5364722  69.1312878  50.2958633  40.4454412  75.2237198
  50.6798012  41.0141311  74.6841974  50.2317774  39.7203922  74.7443014
  50.3432060  40.4229876  75.0731061  53.7640063  30.5944100  80.7334960
  54.3096023  31.2729187  80.7928930  53.7056939  30.4531561  79.8736541
  53.8355977  30.6736102  80.6147020  46.8814138  38.0833166  76.1203312
  46.9824501  37.2733520  76.4300440  46.2855883  37.9890112  75.4902991
  46.8086677  37.9498194  76.0729551  55.5405132  32.0228707  71.6068688
  55.4244658  32.7736393  72.0360826  56.3361018  31.7652660  71.8564775
  55.6409721  32.0963554  71.7072779  46.7214878  43.0010755  77.5218168
  47.3652333  43.4423919  77.9114327  47.0471133  42.1964181  77.4348427
  46.8646706  42.9475950  77.5663646  40.0779182  34.1053453  75.7455646
  39.8429367  33.2721105  75.6387915  40.2164823  34.3858118  74.9316847
  40.0634845  34.0236956  75.6098001  42.3769270  26.2739183  78.6439954
  41.7574301  25.6831830  78.4749968  42.2753133  26.8650618  78.0104277
  42.2706945  26.2743266  78.5244943  47.4235457  36.0122730  72.8938030
  47.7451298  36.5527937  72.2899338  48.0707554  35.4419501  73.0260320
  47.5661512  36.0081905  72.8245065  49.4737165  28.0138725  72.9772417
  50.1717330  28.1926853  73.4693880  49.7889498  27.4909064  72.3542806
  49.6232503  27.9632497  72.9574427  42.1038403  29.8191465  80.8883523
  41.9797100  30.4053910  81.5233341  42.7556687  29.3251661  81.1895798
  42.1812052  29.8330269  81.0269452  49.6625101  34.4009170  72.9652208
  50.1018736  33.7926271  73.4106981  49.5129764  34.0216543  72.1937673
  49.7046566  34.2547641  72.9171376  47.1296744  32.9953182  80.1671034
  47.7745746  32.5025625  79.8481982  47.3698521  33.1377968  80.9937112
  47.2607329  32.9430624  80.2420567  49.6682835  35.8408088  79.8177926
  49.9506078  35.0459493  79.5964682  50.3968996  36.3188675  79.8382987
  49.8172399  35.7942685  79.7880941  47.6464029  23.3831122  77.0593691
  47.3167359  23.8342265  76.3897390  46.9709031  23.3047285  77.6066698
  47.4974465  23.4382257  77.0416915  53.2634437  32.7536351  69.9182977
  53.1785732  33.6097318  70.0632546  53.7518821  32.4780675  70.5865137
  53.3223335  32.8393673  70.0385059  54.8540437  19.3716645  75.3043302
  54.5393878  20.0620123  75.7363724  54.3367378  19.3161427  74.6028803
  54.7304907  19.4651533  75.2640251  54.1952871  29.3721146  71.4180713
  53.6664342  29.5880779  72.0778019  54.7177890  30.0657284  71.3381682
  54.1941324  29.5064282  71.5036312  59.6500923  34.9467450  76.7913757
  58.8198627  35.1578094  76.9547174  59.6010176  34.1204505  76.5156041
  59.5207659  34.8557056  76.7751122  46.0852478  33.2684362  70.2188181
  45.5009694  33.7734394  70.6254044  45.6822574  33.0426749  69.4784773
  45.9391782  33.3092611  70.1693206  41.6396507  38.9839123  77.0211852
  41.1564085  39.7089613  76.9971436  42.4519825  39.2815253  77.1322010
  41.6887255  39.1341477  77.0339131  47.7110661  37.7771304  79.6261667
  47.1937603  37.4178719  79.0222975  48.4085052  37.2533479  79.6367733
  47.7376242  37.6468992  79.5391925  50.5429693  29.5150014  68.6957101
  50.7825696  29.7227998  67.8832444  50.8645534  28.7107523  68.8046046
  50.6266851  29.4264116  68.5917654  45.8519983  21.4443410  72.5416639
  46.6065951  21.8121727  72.3033689  45.6747518  21.8182964  73.3095819
  45.9374461  21.5541598  72.6201528  44.4940704  39.4995299  77.1732132
  45.1961284  38.9847288  77.2304888  44.4138187  39.8269451  77.9779007
  44.5864465  39.4709526  77.3004924  44.2077048  23.8513729  69.2394752
  44.0252621  24.0685610  68.4135745  45.0702661  23.9652742  69.2953367
  44.3081637  23.9003627  69.1249239  43.8191480  35.6901651  76.6817740
  44.6580379  35.9224584  76.7291502  43.8503249  34.8205963  76.6124775
  43.9473197  35.5958598  76.6782385  44.4444183  36.1102527  80.9831045
  44.9842408  35.9673658  81.6534418  43.7614129  36.5099277  81.3515072
  44.4236337  36.1482197  81.1365467  49.8876767  20.8540140  72.2743776
  50.6162927  20.6756095  71.8281932  49.9771660  21.6958220  72.4850954
  50.0083429  20.9524018  72.2397294  53.8685068  31.7893527  76.1776070
  54.6242583  32.2225041  76.2164979  53.9747392  31.1398297  76.7510706
  53.9955238  31.7571011  76.2674095  56.9065239  35.6166804  76.9278473
  56.4700471  35.6203547  77.6837444  56.5728154  36.2972303  76.4958050
  56.7927859  35.7179260  76.9759305  43.7539075  27.1287902  67.7517225
  43.0397252  26.8426081  68.1639658  44.2383043  27.4684528  68.3923613
  43.7198438  27.1369551  67.9072860  60.0409585  32.3347724  75.8198110
  60.7026019  31.7738393  75.7194019  59.4000997  31.8399755  76.1450801
  60.0438452  32.1784133  75.8530450  50.9286393  35.6317856  68.1279033
  51.3437541  35.3002880  67.4363529  50.0978322  35.3986758  67.9999170
  50.8674401  35.5489112  68.0069881  40.2574741  33.1161597  78.4177211
  40.0750315  33.0908483  77.5649503  40.9924410  33.5860535  78.4566120
  40.3388805  33.1822959  78.2975130  56.3274416  33.3513107  75.5610099
  56.5630005  33.4958306  74.7336949  56.4763979  34.1155515  75.9541612
  56.3840219  33.4852161  75.4973703  58.1564872  32.1914773  73.3979703
  58.4873089  32.7242413  72.7919798  58.7297960  32.2453660  74.0541654
  58.2898551  32.2784341  73.4057484  53.3696761  30.0379675  74.0803283
  53.4643616  30.7768969  74.5342908  52.7455605  29.6097151  74.5137847
  53.2905792  30.0840996  74.2111430  40.2245652  29.9955097  78.5676278
  40.8019154  29.8591548  79.2068523  39.5259713  29.5390882  78.8221862
  40.2066673  29.9077364  78.6998568  53.6219783  31.8828415  67.3140235
  53.5399945  31.9530602  68.1795222  54.2599503  32.4458159  67.1223975
  53.7039620  31.9767386  67.4130184  46.9812954  31.6489153  76.7814761
  46.7232198  30.8160888  76.7546061  47.0361437  31.8746766  75.9407261
  46.9512732  31.5586924  76.6534898  52.0614004  23.7517604  76.8818854
  51.3570331  23.2626789  77.0402773  52.1098978  23.7640078  76.0107298
  51.9644056  23.6807252  76.7758194  45.9547666  29.2026916  77.2679656
  45.3797257  29.3619084  77.9043617  45.5783342  28.5662325  76.8048106
  45.8150478  29.1324728  77.2934214  49.6220955  27.6750265  82.1272034
  49.2335387  27.2504483  81.4724225  48.9575653  27.9232414  82.6349061
  49.4667882  27.6488986  82.1059902  59.2644224  27.4325269  74.9019864
  59.0080789  26.6205211  74.7117747  60.1073538  27.4402837  74.6750052
  59.3510249  27.3137267  74.8404681  35.7004485  28.8466990  75.2824096
  35.7864737  28.4698859  76.0637626  36.3280282  28.4727436  74.8044055
  35.8061036  28.7352472  75.3269574  50.7259893  31.9048869  70.3248841
  51.5400532  32.1963762  70.2131613  50.6619034  31.2508732  69.7507134
  50.8362632  31.8514064  70.2237679  46.5967801  35.3770387  75.4521153
  47.2341748  35.1382134  75.9972947  47.0222873  35.5807546  74.7174314
  46.7543967  35.3721397  75.4238311  41.2880444  37.6158723  79.3355457
  41.3284589  37.8873574  78.5075237  41.8474968  38.1400631  79.7513245
  41.3763790  37.7334478  79.2747345  47.2370616  30.5972677  69.7896043
  47.6215769  30.3780383  70.5412588  46.9882237  31.4235622  69.9197119
  47.2572689  30.6870823  69.9197119  48.9789273  35.8542809  77.1314940
  49.0528281  35.6917981  77.9856790  49.7958780  36.0432999  76.8875421
  49.1105632  35.8579552  77.2212965  42.7395030  36.2000672  74.1609383
  41.9133148  36.4462409  74.0343662  42.8007021  36.1212753  75.0271441
  42.6269197  36.2245621  74.2698328  44.9571054  22.2669613  75.1204823
  44.0893479  22.3392213  75.1862432  45.2446258  23.0691692  75.3092798
  44.8710802  22.3963760  75.1579590  47.5193859  38.8177553  71.8628413
  47.8092157  38.4266534  71.1387640  48.2497340  38.9994257  72.3033688
  47.6700743  38.7871366  71.8211220  45.4599774  40.7944935  74.9288563
  45.2400070  40.5042290  75.7215230  45.2394296  40.1359890  74.4006475
  45.3947369  40.6544643  74.9677471  44.3716722  32.8818251  77.1944264
  44.0829970  32.2555723  77.7289992  45.2400070  32.8238539  77.2608945
  44.4576974  32.7805796  77.2835219  55.1594619  28.0253035  77.5126246
  54.8159385  27.3043370  77.8633496  55.2587662  27.8166886  76.6704604
  55.1236662  27.8877238  77.4397926  47.6267730  42.1674325  73.7119255
  48.2791788  41.6350767  73.9410281  46.9293339  41.8142977  74.0987129
  47.6198448  42.0363848  73.8031423  44.5748995  34.5213503  73.1186629
  45.3294963  34.9026542  73.3322092  43.9819608  34.9724646  73.5733326
  44.5985709  34.6442330  73.2169508  55.6207649  34.4878739  73.0550234
  56.1865681  35.1471949  72.9708777  54.9735552  34.8328437  73.5266637
  55.6086405  34.6360680  73.1122991  45.8947222  35.6922064  78.4926745
  45.3727975  35.8322356  79.1778609  46.2821242  34.9332728  78.6828862
  45.8750923  35.6007588  78.6227821  42.8838406  25.7427873  72.5621699
  42.5963201  25.3729143  71.8253647  43.5708874  26.2122728  72.3005404
  42.9427303  25.7574842  72.4136775  52.0914227  37.4317523  72.4787314
  51.8500903  36.6985384  72.0714379  52.2715560  37.9804380  71.8253647
  52.0821851  37.4039914  72.3217537  47.3213547  32.7226083  73.8908236
  47.1256330  33.3300817  73.2968539  47.5447893  32.0294027  73.4099910
  47.3248188  32.7103608  73.7324317  45.7192077  29.6080821  74.0089104
  46.4414729  29.7721979  73.5492910  45.2400070  30.3290486  73.9028444
  45.7555808  29.7379050  73.9254718  53.6785585  25.9444620  79.3885789
  52.8396685  25.9705898  79.1524052  53.7489952  26.5915355  79.9691136
  53.5653978  26.0440745  79.4394906  52.1254863  22.8429997  74.1213405
  52.8281216  22.6437745  73.6433363  51.8599052  22.0705939  74.4282249
  52.1901495  22.6992963  74.0958847  57.5543109  31.1512606  76.6747031
  57.4677083  31.3068032  77.5281810  57.0993589  31.7950682  76.3006436
  57.4746365  31.2688361  76.7454138  40.4566600  26.5209085  73.4106981
  40.5582737  27.3235246  73.7387956  41.2522487  26.3196421  73.1130061
  40.5894506  26.6094984  73.4142336  51.4268925  28.4723353  75.2972590
  51.1803639  28.3919104  76.1309379  51.7554048  27.6876821  75.1035118
  51.4390168  28.3449619  75.3920113  49.5585869  30.4070240  82.4920705
  48.8109183  30.6001255  82.0868983  49.7127395  29.5815460  82.2544826
  49.4708297  30.3135352  82.3966111  56.8170346  34.5384967  69.8475871
  56.4377155  33.7522105  69.8405160  56.1536592  35.0871824  69.7047515
  56.6628821  34.5029791  69.8256668  49.6417255  38.0898486  73.6864697
  50.4067146  37.8208129  73.3647361  49.5395345  37.6048496  74.4034760
  49.7398750  37.9788050  73.7444525  47.6770024  26.2922895  80.2257933
  46.8866099  26.1114355  80.5475269  48.0730647  25.5149848  80.2088227
  47.6186901  26.1510356  80.2710481  53.0613711  33.9265325  77.9517379
  52.3858712  33.6950557  78.4530766  53.0706087  33.3186508  77.3259484
  52.9632215  33.8024250  77.9333531  55.0630445  36.7830458  70.1827557
  55.1450283  37.5897444  69.8589008  55.5480187  36.8026417  70.9068330
  55.1467603  36.9051120  70.2414455  48.8726949  31.4615294  78.8497635
  48.4489198  31.6619793  78.1136653  48.6971804  30.6144142  78.9621934
  48.7837829  31.3664075  78.7571325  44.1609393  31.9567345  74.2825607
  44.3174013  31.8914148  75.1381599  44.5009987  32.7315898  74.0704287
  44.2342628  32.0616543  74.3780201  50.6988538  31.3325229  73.1518970
  51.2404084  30.8295610  73.6157591  51.0135097  31.2790423  72.3408456
  50.8252935  31.2504649  73.1002782  48.8674988  36.7242580  70.4358998
  48.9367808  35.8657119  70.5751999  49.6463443  36.9414461  70.1078023
  48.9927838  36.6295444  70.4076156  53.2582475  39.1480281  74.6495492
  52.8662267  38.8446997  73.9318358  53.4135548  39.9849371  74.4600446
  53.2236065  39.2264118  74.5151989  40.7343655  29.1402295  74.5986374
  41.1142620  29.5586840  73.9346642  40.1599020  29.7215751  74.9055218
  40.7054980  29.2880154  74.5463115  53.4222150  35.7130270  74.5901522
  53.0636805  35.8844913  75.3665555  52.9360861  36.1743476  74.0329521
  53.2980847  35.8069241  74.6226791  51.2392536  19.3361469  78.1928614
  50.3686094  19.3100190  78.1461923  51.4932877  19.1638661  77.3754459
  51.1486096  19.3071612  78.0648750  48.2110516  31.3929436  67.1301757
  48.5003040  32.1694318  67.4045331  48.2982314  30.8818167  67.8316256
  48.2664772  31.4321354  67.2744254  44.3774457  30.7062700  79.2301869
  43.5362463  30.6066574  79.4380763  44.5864464  31.4758180  79.5816189
  44.2839149  30.8054744  79.3129184  41.8550023  28.3282237  77.0586619
  41.4606721  28.4025249  76.2836729  41.2990140  28.7140184  77.6094981
  41.7152836  28.3964012  77.0254279  53.4914970  21.3063531  76.7390498
  53.6964564  21.2385839  77.5847495  53.1641394  22.1122352  76.6711676
  53.4730218  21.4149472  76.8550153  48.1891121  28.6344099  78.4799466
  47.8854259  28.0800088  79.0809874  47.4870542  28.8136309  77.9927500
  48.0407331  28.5788882  78.4969172  47.2457218  25.9444619  73.0444168
  47.5216953  25.2263532  72.6321736  47.8455888  26.5429539  72.8365274
  47.3750483  25.9264990  72.9524929  50.7467739  23.6158137  71.3190763
  51.2011486  23.7868697  72.0438608  51.2207785  23.0026247  70.9188539
  50.8836059  23.5509022  71.3664525  44.2683264  33.1006463  80.6493502
  43.6771198  33.7415961  80.6196517  45.0304288  33.5244080  80.6224801
  44.2931525  33.2582301  80.6408649  48.0880759  30.3200671  72.4235770
  48.8322804  30.7074947  72.6618720  48.2341455  29.4758096  72.5876258
  48.2191344  30.2531144  72.4829740  50.0060334  22.1150930  77.4567632
  49.1596379  22.2873738  77.3308982  50.0031467  21.3100274  77.7933460
  49.8807484  22.0211959  77.4878759  51.0758635  25.8926144  78.3229690
  50.6018589  25.3667906  78.8335001  51.4476771  25.3455617  77.7544551
  51.0608524  25.7342141  78.3144837  53.0042134  26.7862699  71.3855444
  52.4765153  26.8691443  70.6961152  53.4637843  27.5280570  71.3820088
  52.9943985  26.9083361  71.2830139  44.9975200  25.0565218  66.4096339
  44.6488004  25.7084944  66.8727888  44.5171645  25.0422331  65.6820210
  44.8745444  25.1508272  66.3707430  41.5259126  34.7740560  81.7927418
  40.9959051  34.0832999  81.8422393  41.7984220  34.7650745  80.9640127
  41.4883849  34.6707692  81.6774834  52.5579217  35.3566262  70.5165101
  53.2813416  35.8224375  70.3729674  52.1179808  35.4239872  69.7662698
  52.5994909  35.4350099  70.3849882  51.7265372  32.2163805  81.7665790
  51.1122365  31.6721855  82.0614425  52.2432657  31.7028041  81.2871606
  51.7121034  32.0600214  81.7390018  50.9661669  33.2868075  79.5010088
  50.5389277  32.6617793  79.0675524  50.9586614  33.0042997  80.3269095
  50.9020810  33.1520855  79.5589916  49.2947379  24.1636829  79.7152622
  49.3189866  23.6296942  79.0265402  49.5458853  23.6554138  80.3778213
  49.3357298  24.0097733  79.7117267  36.8054969  31.4468324  79.1495766
  36.6998418  31.4015169  78.2847850  36.0555189  31.7922105  79.4310051
  36.6790572  31.4909232  79.0633096  46.9963065  29.4068157  81.3932266
  46.1654994  29.5741975  81.1867514  46.9414582  29.0304108  82.1781151
  46.8652479  29.3757889  81.4780794  45.3699108  27.6823749  71.9222383
  45.5102069  28.1796213  72.6251025  45.8681641  26.9810043  72.0636597
  45.4640189  27.6525728  72.0473962  45.3999331  28.5490860  69.2514960
  46.0344410  29.1451285  69.1864422  45.4824942  28.2494317  70.0660830
  45.5055882  28.5931768  69.3618047  46.9778314  24.4804835  69.2260402
  47.2994155  24.0007918  68.5719664  47.2405257  25.2904481  69.0351214
  47.0644339  24.5294733  69.1015894  41.9052319  30.7458701  72.5204506
  42.4144548  31.3423208  72.9015812  42.3786591  30.4784674  71.8380926
  42.0495694  30.7944516  72.4759029  52.8183067  39.4186967  70.6763162
  52.1012376  39.2447830  70.2110399  53.4689804  39.1839540  70.1438648
  52.8084917  39.3582760  70.5292380  50.8131691  20.3392129  74.9974458
  50.1700009  20.1889775  75.5659597  50.4731098  20.0934474  74.2323563
  50.6676769  20.2804251  74.9677473  55.4031038  28.2951556  74.4204467
  54.7322228  28.8381258  74.2917532  56.0970788  28.7646411  74.1786162
  55.4059905  28.4449827  74.3659994  44.2642850  27.3814959  75.3877686
  43.5454839  27.7979092  75.6550550  44.6355213  27.9469198  74.8369325
  44.2134782  27.5264241  75.3460493  48.0996229  40.6548726  77.1053310
  47.6856627  39.9922856  76.7157151  48.7843603  40.8026585  76.5849004
  48.1394600  40.5789384  76.9709807  51.4661523  39.8138811  77.8576926
  51.0677806  39.9241082  77.0897746  50.8512742  40.0220878  78.4403486
  51.3160412  39.8612379  77.8308226  50.0389425  26.4212959  70.7251066
  49.4454264  26.7429956  70.1735633  50.0764702  25.5754054  70.5172172
  49.9563814  26.3437287  70.6133837  52.9147241  26.3792464  74.1552816
  52.6860934  26.4025165  73.3131174  53.1745318  25.5549931  74.2747827
  52.9193429  26.2608543  74.0478014  45.9692004  24.9169010  75.4507012
  46.4449370  25.2786090  74.8157193  45.4680603  25.5725477  75.7307155
  45.9657363  25.0663199  75.3983753  59.2003365  34.3890778  71.2420017
  59.5836971  35.1382134  71.4718114  58.4047479  34.6356598  70.9832006
  59.1397148  34.5360472  71.2377590  48.0118657  27.0610210  68.8180396
  48.3917622  27.0789839  68.0331511  47.2711253  27.5064198  68.6971243
  47.9587495  27.1291984  68.6843964  55.6403947  25.3692401  74.4055974
  55.6398174  25.2141057  75.2640251  55.4360128  26.2155388  74.3497360
  55.6103725  25.4713022  74.5243914  53.3644800  30.0489903  78.0592181
  53.8598465  29.3312898  78.0196202  52.5544575  29.7460700  77.9446668
  53.3188693  29.8987549  78.0365907  48.8103411  33.8987716  70.2089186
  48.0014734  33.5754389  70.1622495  49.3178320  33.1920938  70.1417434
  48.7653078  33.7469032  70.1919480  39.4393688  31.3259909  75.9336550
  38.5739208  31.3145599  75.8219321  39.5392504  31.1390132  76.7807689
  39.3267855  31.2965970  76.0425495  55.4296618  32.7993590  80.7469310
  55.8551690  32.2768012  80.1939735  55.0653538  33.3974428  80.2257933
  55.4383221  32.8103817  80.5878320  45.0650698  41.0957808  79.5066656
  45.3797257  41.9094196  79.5144437  45.4744112  40.7108026  80.1748815
  45.1718796  41.1586510  79.6070747  52.0175218  36.5127854  77.0770468
  52.4886396  37.2268117  77.2460453  52.3535396  35.9126605  77.6130337
  52.1370333  36.5299319  77.1802844  48.0037828  23.2871738  71.5008027
  48.8253522  23.4570051  71.2589722  47.5407479  23.4418999  70.7774325
  48.0568990  23.3353471  71.3579672  42.4063718  35.0430916  79.1545264
  43.0108576  35.0026750  78.5259085  42.1991031  35.8902068  79.1849320
  42.4652616  35.1618919  79.0661381  37.6415001  34.0265534  79.0244187
  37.5439279  33.2161805  79.3334244  38.4243870  34.0057327  78.6390455
  37.7431137  33.9032624  79.0131050  57.0585062  48.7869670  70.2188181
  56.4742277  49.2919702  70.6254044  56.6555157  48.5612057  69.4784773
  56.9124366  48.8277919  70.1693206  61.5162276  45.0335322  68.6957101
  61.7558280  45.2413306  67.8832444  61.8378117  44.2292831  68.8046046
  61.5999434  44.9449423  68.5917654  56.8252567  36.9628718  72.5416639
  57.5798535  37.3307035  72.3033689  56.6480101  37.3368272  73.3095819
  56.9107045  37.0726906  72.6201528  55.1809631  39.3699037  69.2394752
  54.9985204  39.5870918  68.4135745  56.0435244  39.4838050  69.2953367
  55.2814221  39.4188935  69.1249239  60.8609350  36.3725448  72.2743776
  61.5895511  36.1941403  71.8281932  60.9504243  37.2143527  72.4850954
  60.9816013  36.4709326  72.2397294  54.7271658  42.6473210  67.7517225
  54.0129835  42.3611389  68.1639658  55.2115627  42.9869835  68.3923613
  54.6931022  42.6554859  67.9072860  64.5952366  47.4013723  67.3140235
  64.5132529  47.4715910  68.1795222  65.2332087  47.9643467  67.1223975
  64.6772204  47.4952694  67.4130184  46.6737069  44.3652298  75.2824096
  46.7597320  43.9884167  76.0637626  47.3012866  43.9912744  74.8044055
  46.7793619  44.2537780  75.3269574  58.2103200  46.1157985  69.7896043
  58.5948353  45.8965691  70.5412588  57.9614820  46.9420930  69.9197119
  58.2305272  46.2056131  69.9197119  55.9303637  37.7854921  75.1204823
  55.0626063  37.8577521  75.1862432  56.2178842  38.5877000  75.3092798
  55.8443385  37.9149068  75.1579590  53.8570989  41.2613181  72.5621699
  53.5695785  40.8914451  71.8253647  54.5441457  41.7308036  72.3005404
  53.9159887  41.2760150  72.4136775  63.0987447  38.3615305  74.1213405
  63.8013800  38.1623053  73.6433363  62.8331635  37.5891247  74.4282249
  63.1634079  38.2178271  74.0958847  51.4299184  42.0394393  73.4106981
  51.5315320  42.8420554  73.7387956  52.2255071  41.8381729  73.1130061
  51.5627089  42.1280292  73.4142336  63.1368499  50.6395977  65.6664646
  63.9041484  50.6996102  65.2570498  62.6899808  50.0676419  65.1820965
  63.1841926  50.5632553  65.5342357  51.7076239  44.6587603  74.5986374
  52.0875203  45.0772148  73.9346642  51.1331603  45.2401059  74.9055218
  51.6787563  44.8065462  74.5463115  59.1843099  46.9114744  67.1301757
  59.4735624  47.6879626  67.4045331  59.2714898  46.4003475  67.8316256
  59.2397355  46.9506662  67.2744254  58.2189802  41.4629927  73.0444168
  58.4949536  40.7448840  72.6321736  58.8188471  42.0614847  72.8365274
  58.3483067  41.4450298  72.9524929  61.7200323  39.1343445  71.3190763
  62.1744069  39.3054005  72.0438608  62.1940368  38.5211555  70.9188539
  61.8568643  39.0694330  71.3664525  63.9774718  42.3048007  71.3855444
  63.4497737  42.3876751  70.6961152  64.4370426  43.0465878  71.3820088
  63.9676569  42.4268669  71.2830139  55.9707783  40.5750526  66.4096339
  55.6220588  41.2270252  66.8727888  55.4904229  40.5607639  65.6820210
  55.8478027  40.6693580  66.3707430  56.3431692  43.2009057  71.9222383
  56.4834653  43.6981521  72.6251025  56.8414225  42.4995351  72.0636597
  56.4372773  43.1711036  72.0473962  56.3731914  44.0676168  69.2514960
  57.0076994  44.6636593  69.1864422  56.4557525  43.7679625  70.0660830
  56.4788465  44.1117076  69.3618047  57.9510897  39.9990143  69.2260402
  58.2726738  39.5193226  68.5719664  58.2137841  40.8089789  69.0351214
  58.0376923  40.0480041  69.1015894  52.8784902  46.2644009  72.5204506
  53.3877132  46.8608516  72.9015812  53.3519174  45.9969982  71.8380926
  53.0228278  46.3129824  72.4759029  61.7864275  35.8577437  74.9974458
  61.1432593  35.7075083  75.5659597  61.4463682  35.6119782  74.2323563
  61.6409352  35.7989559  74.9677473  61.0122008  41.9398267  70.7251066
  60.4186848  42.2615263  70.1735633  61.0497286  41.0939362  70.5172172
  60.9296397  41.8622595  70.6133837  56.9424587  40.4354318  75.4507012
  57.4181954  40.7971398  74.8157193  56.4413187  41.0910785  75.7307155
  56.9389946  40.5848507  75.3983753  58.9851241  42.5795518  68.8180396
  59.3650205  42.5975147  68.0331511  58.2443837  43.0249506  68.6971243
  58.9320078  42.6477292  68.6843964  58.9770411  38.8057046  71.5008027
  59.7986106  38.9755359  71.2589722  58.5140062  38.9604307  70.7774325
  59.0301573  38.8538779  71.3579672  39.4772582  -0.0867033  56.2166134
  39.1423951   0.5909888  55.7810356  39.9899453  -0.4761722  55.6283005
  39.5038163  -0.0442455  56.0652925  39.0176873   1.8647235  62.1577245
  39.4016253   2.4334134  61.6182021  38.9536015   1.1396746  61.6783061
  39.0650301   1.8422699  62.0071108  36.2412099   0.2370376  58.7968460
  36.5310398  -0.1540643  58.0727686  36.9715580   0.4187081  59.2373735
  36.3918983   0.2064190  58.7551267  36.3485971   3.5867148  60.6459302
  37.0010029   3.0543590  60.8750328  35.6511579   3.2335800  61.0327176
  36.3416689   3.4556671  60.7371470  38.3635495  -0.4908691  60.6204744
  39.1285386  -0.7599047  60.2987408  38.2613585  -0.9758681  61.3374807
  38.4616990  -0.6019126  60.6784571  41.9800716   0.5673105  61.5835539
  41.5880507   0.2639820  60.8658405  42.1353788   1.4042195  61.3940492
  41.9454306   0.6456941  61.4492036  41.5401307   0.8379791  57.6103208
  40.8230617   0.6640653  57.1450446  42.1908045   0.6032363  57.0778694
  41.5303158   0.7775583  57.4632426  57.4139381   6.3854536  60.2690425
  57.3833386   7.2399173  60.4408694  58.0120730   6.0849829  60.8276568
  57.4976539   6.4671033  60.3765227  50.6139066   5.4730187  65.0243355
  49.7576962   5.6338685  65.0752472  50.6606720   4.6022251  65.0448416
  50.4938178   5.3680989  65.0349421  44.9980206  15.0092905  60.7880587
  44.2463105  14.6308443  60.5596632  45.4466217  15.0411339  60.0399397
  44.9529873  14.9578512  60.6438089  50.4505166  15.4318275  56.2166134
  50.1156534  16.1095196  55.7810356  50.9632036  15.0423586  55.6283005
  50.4770747  15.4742853  56.0652925  49.9909457  17.3832543  62.1577245
  50.3748836  17.9519442  61.6182021  49.9268598  16.6582054  61.6783061
  50.0382884  17.3608007  62.0071108  53.4590887   7.5322231  67.6675007
  54.0046847   8.2107318  67.7268976  53.4007763   7.3909692  66.8076588
  53.5306801   7.6114233  67.5487067  46.5764962  15.0211297  63.0543359
  46.6775325  14.2111651  63.3640487  45.9806707  14.9268244  62.4243038
  46.5037501  14.8876325  63.0069598  55.2355956   8.9606838  58.5408734
  55.1195482   9.7114524  58.9700873  56.0311842   8.7030792  58.7904821
  55.3360545   9.0341685  58.6412826  46.4165702  19.9388886  64.4558215
  47.0603157  20.3802050  64.8454374  46.7421957  19.1342313  64.3688474
  46.5597530  19.8854081  64.5003692  39.7730006  11.0431584  62.6795693
  39.5380191  10.2099236  62.5727962  39.9115647  11.3236249  61.8656894
  39.7585669  10.9615087  62.5438048  47.1186281  12.9500861  59.8278077
  47.4402122  13.4906069  59.2239385  47.7658378  12.3797633  59.9600367
  47.2612336  12.9460036  59.7585112  49.1687989   4.9516856  59.9112464
  49.8668154   5.1304984  60.4033927  49.4840322   4.4287196  59.2882853
  49.3183327   4.9010628  59.8914474  49.3575925  11.3387301  59.8992255
  49.7969560  10.7304402  60.3447028  49.2080588  10.9594675  59.1277720
  49.3997390  11.1925772  59.8511422  46.8247568   9.9331313  67.1011081
  47.4696570   9.4403756  66.7822029  47.0649345  10.0756100  67.9277159
  46.9558153   9.8808755  67.1760614  49.3633659  12.7786219  66.7517973
  49.6456902  11.9837625  66.5304729  50.0919819  13.2566806  66.7723034
  49.5123223  12.7320816  66.7220988  52.9585261   9.6914483  56.8523024
  52.8736556  10.5475449  56.9972593  53.4469644   9.4158807  57.5205183
  53.0174159   9.7771804  56.9725106  53.8903694   6.3099277  58.3520759
  53.3615166   6.5258910  59.0118066  54.4128714   7.0035415  58.2721729
  53.8892147   6.4442414  58.4376359  59.3451747  11.8845581  63.7253804
  58.5149451  12.0956225  63.8887220  59.2961000  11.0582636  63.4496087
  59.2158483  11.7935187  63.7091169  45.7803302  10.2062493  57.1528227
  45.1960518  10.7112525  57.5594091  45.3773397   9.9804880  56.4124819
  45.6342606  10.2470742  57.1033253  41.3347331  15.9217255  63.9551899
  40.8514909  16.6467744  63.9311482  42.1470649  16.2193385  64.0662057
  41.3838079  16.0719608  63.9679178  47.4061485  14.7149435  66.5601713
  46.8888427  14.3556850  65.9563021  48.1035876  14.1911610  66.5707779
  47.4327066  14.5847123  66.4731972  51.0625077  15.1644249  72.5217886
  51.1508423  14.9770390  73.3696097  51.4914789  14.5181679  72.1222733
  51.1387179  15.0407257  72.5889638  48.6295537  14.4475409  71.5035549
  48.0666372  14.0348019  72.0275210  49.3916560  14.3728315  71.9228692
  48.6589985  14.3752810  71.6428549  50.2380517   6.4528146  55.6297148
  50.4776520   6.6606129  54.8172491  50.5596358   5.6485654  55.7386092
  50.3217675   6.3642247  55.5257701  44.1891528  16.4373431  64.1072179
  44.8912107  15.9225420  64.1644935  44.1089011  16.7647582  64.9119054
  44.2815289  16.4087657  64.2344971  43.9027872   0.7891860  56.1734799
  43.7203445   1.0063741  55.3475792  44.7653485   0.9030873  56.2293413
  44.0032461   0.8381758  56.0589286  43.5142304  12.6279782  63.6157787
  44.3531203  12.8602715  63.6631548  43.5454073  11.7584094  63.5464822
  43.6424021  12.5336729  63.6122431  44.1395007  13.0480658  67.9171092
  44.6793232  12.9051789  68.5874465  43.4564953  13.4477408  68.2855119
  44.1187160  13.0860329  68.0705514  53.5635891   8.7271658  63.1116117
  54.3193407   9.1603173  63.1505025  53.6698216   8.0776428  63.6850753
  53.6906062   8.6949142  63.2014142  56.6016063  12.5544936  63.8618520
  56.1651294  12.5581678  64.6177491  56.2678978  13.2350435  63.4298097
  56.4878683  12.6557391  63.9099352  43.4489899   4.0666033  54.6857272
  42.7348076   3.7804212  55.0979704  43.9333867   4.4062659  55.3263659
  43.4149262   4.0747683  54.8412907  51.3315530  16.5063370  68.8328126
  50.5330775  16.2662871  69.0901994  51.7801541  16.5577763  69.5795173
  51.2790141  16.4785762  68.9813050  59.7360409   9.2725855  62.7538157
  60.3976843   8.7116524  62.6534065  59.0951821   8.7777886  63.0790848
  59.7389276   9.1162264  62.7870497  50.6237217  12.5695987  55.0619080
  51.0388365  12.2381011  54.3703576  49.7929146  12.3364889  54.9339217
  50.5625225  12.4867243  54.9409928  39.9525565  10.0539728  65.3517258
  39.7701139  10.0286614  64.4989550  40.6875234  10.5238666  65.3906167
  40.0339629  10.1201090  65.2315177  56.0225240  10.2891238  62.4950146
  56.2580829  10.4336437  61.6676996  56.1714803  11.0533646  62.8881659
  56.0791043  10.4230292  62.4313750  57.8515696   9.1292904  60.3319749
  58.1823913   9.6620544  59.7259844  58.4248784   9.1831792  60.9881700
  57.9849375   9.2162473  60.3397531  53.0647585   6.9757807  61.0143330
  53.1594440   7.7147101  61.4682955  52.4406429   6.5475282  61.4477894
  52.9856615   7.0219127  61.1451477  51.3200059  10.1544019  71.6633610
  51.8938921   9.5171263  71.8182174  51.2414863  10.1548102  70.7943268
  51.3933294  10.0609131  71.5580021  39.9196476   6.9333229  65.5016325
  40.4969978   6.7969679  66.1408570  39.2210537   6.4769013  65.7561909
  39.9017497   6.8455495  65.6338614  53.3170607   8.8206546  54.2480282
  53.2350769   8.8908733  55.1135269  53.9550327   9.3836290  54.0564022
  53.3990444   8.9145517  54.3470231  46.6763778   8.5867284  63.7154808
  46.4183022   7.7539019  63.6886107  46.7312261   8.8124897  62.8747308
  46.6463556   8.4965055  63.5874945  45.6498490   6.1405047  64.2019703
  45.0748081   6.2997215  64.8383664  45.2734166   5.5040456  63.7388153
  45.5101302   6.0702860  64.2274261  35.3955309   5.7845121  62.2164143
  35.4815561   5.4076990  62.9977673  36.0231106   5.4105567  61.7384102
  35.5011860   5.6730604  62.2609621  50.4210717   8.8427001  57.2588888
  51.2351356   9.1341893  57.1471659  50.3569858   8.1886863  56.6847181
  50.5313456   8.7892195  57.1577725  46.2918625  12.3148518  62.3861200
  46.9292572  12.0760266  62.9312993  46.7173697  12.5185677  61.6514361
  46.4494791  12.3099528  62.3578357  40.9831268  14.5536855  66.2695504
  41.0235413  14.8251706  65.4415283  41.5425792  15.0778763  66.6853292
  41.0714613  14.6712610  66.2087392  46.9321440   7.5350808  56.7236089
  47.3166593   7.3158515  57.4752635  46.6833061   8.3613753  56.8537166
  46.9523513   7.6248954  56.8537166  57.6656628  11.3097445  67.7346758
  57.3602445  12.0425502  68.0960074  56.9462843  10.9035375  67.4539544
  57.5143970  11.3579178  67.7459895  48.6740097  12.7920941  64.0654986
  48.7479105  12.6296113  64.9196836  49.4909603  12.9811130  63.8215468
  48.8056456  12.7957683  64.1553012  42.4345854  13.1378803  61.0949430
  41.6083971  13.3840541  60.9683709  42.4957845  13.0590884  61.9611488
  42.3220021  13.1623752  61.2038374  47.2144683  15.7555684  58.7968460
  47.5042981  15.3644665  58.0727686  47.9448164  15.9372389  59.2373735
  47.3651567  15.7249497  58.7551267  47.8039428  10.5573430  69.8821590
  47.3051122  11.2689197  69.9606479  48.6139652  10.8774096  69.8439753
  47.8495535  10.7100278  69.8878159  45.1550598  17.7323066  61.8628609
  44.9350894  17.4420421  62.6555276  44.9345120  17.0738021  61.3346522
  45.0898193  17.5922775  61.9017518  44.0667546   9.8196383  64.1284311
  43.7780794   9.1933854  64.6630038  44.9350894   9.7616670  64.1948992
  44.1527798   9.7183927  64.2175266  54.8545443   4.9631166  64.4466293
  54.5110209   4.2421501  64.7973543  54.9538486   4.7545017  63.6044651
  54.8187486   4.8255369  64.3737973  47.3218554  19.1052456  60.6459302
  47.9742612  18.5728898  60.8750328  46.6244163  18.7521108  61.0327176
  47.3149272  18.9741979  60.7371470  44.2699819  11.4591634  60.0526676
  45.0245787  11.8404673  60.2662139  43.6770432  11.9102777  60.5073373
  44.2936533  11.5820461  60.1509555  55.3158472  11.4256870  59.9890281
  55.8816505  12.0850080  59.9048824  54.6686376  11.7706568  60.4606683
  55.3037229  11.5738811  60.0463038  45.5898046  12.6300195  65.4266792
  45.0678799  12.7700487  66.1118656  45.9772066  11.8710859  65.6168909
  45.5701746  12.5385719  65.5567868  42.5789230   2.6806004  59.4961746
  42.2914025   2.3107274  58.7593694  43.2659698   3.1500859  59.2345451
  42.6378127   2.6952973  59.3476822  51.7865051  14.3695654  59.4127360
  51.5451726  13.6363515  59.0054425  51.9666383  14.9182511  58.7593694
  51.7772675  14.3418045  59.2557583  47.0164371   9.6604214  60.8248283
  46.8207154  10.2678949  60.2308586  47.2398717   8.9672158  60.3439957
  47.0199012   9.6481740  60.6664363  45.4142901   6.5458952  60.9429151
  46.1365553   6.7100110  60.4832957  44.9350894   7.2668617  60.8368491
  45.4506632   6.6757182  60.8594765  57.2493933   8.0890738  63.6087078
  57.1627907   8.2446164  64.4621857  56.7944413   8.7328813  63.2346483
  57.1697189   8.2066493  63.6794184  40.1517424   3.4587216  60.3447027
  40.2533561   4.2613378  60.6728003  40.9473311   3.2574552  60.0470108
  40.2845330   3.5473115  60.3482383  51.1219749   5.4101485  62.2312637
  50.8754463   5.3297236  63.0649426  51.4504872   4.6254952  62.0375165
  51.1340992   5.2827750  62.3260160  55.0167797  12.1184844  66.0199418
  54.8782157  12.8165890  66.5248161  54.2367795  11.9633500  65.6635600
  54.8811024  12.1985011  66.0425693  49.2536693   7.3448372  69.4260752
  48.5060007   7.5379386  69.0209030  49.4078219   6.5193591  69.1884873
  49.1659121   7.2513483  69.3306158  46.1544531  16.3360975  68.5096647
  46.3034095  15.7763891  67.8570052  46.9344533  16.4152977  68.8929166
  46.2918625  16.2646541  68.4693596  56.5121170  11.4763098  56.7815918
  56.1327979  10.6900236  56.7745207  55.8487416  12.0249955  56.6387562
  56.3579645  11.4407922  56.7596715  48.6797832  16.5075618  69.7881138
  48.6041503  15.8384429  70.3431926  48.6087691  17.2093406  70.3021804
  48.6578438  16.5120525  69.9457986  49.3368079  15.0276617  60.6204744
  50.1017970  14.7586261  60.2987408  49.2346168  14.5426627  61.3374807
  49.4349574  14.9166181  60.6784571  47.3720848   3.2301026  67.1597980
  46.5816923   3.0492486  67.4815315  47.7681471   2.4527979  67.1428274
  47.3137724   3.0888487  67.2050528  51.8586739  12.0588801  52.6004693
  52.6259724  12.1188926  52.1910545  51.4118048  11.4869242  52.1161012
  51.9060166  11.9825376  52.4682404  52.7564535  10.8643456  64.8857426
  52.0809536  10.6328689  65.3870813  52.7656911  10.2564639  64.2599531
  52.6583039  10.7402382  64.8673578  54.7581269  13.7208589  57.1167604
  54.8401107  14.5275575  56.7929054  55.2431011  13.7404548  57.8408377
  54.8418427  13.8429251  57.1754502  48.5677772   8.3993425  65.7837681
  48.1440022   8.5997924  65.0476700  48.3922628   7.5522273  65.8961981
  48.4788653   8.3042206  65.6911372  48.0689466  19.9143938  68.2459139
  48.5585396  19.2154727  68.0634803  47.4973698  19.6167808  68.8335196
  48.0573996  19.7670161  68.3060180  43.8560217   8.8945476  61.2165654
  44.0124837   8.8292279  62.0721646  44.1960811   9.6694029  61.0044334
  43.9293452   8.9994674  61.3120248  50.3939362   8.2703360  60.0859017
  50.9354907   7.7673741  60.5497638  50.7085921   8.2168554  59.2748502
  50.5203759   8.1882781  60.0342829  48.5625812  13.6620711  57.3699045
  48.6318632  12.8035250  57.5092046  49.3414267  13.8792592  57.0418070
  48.6878662  13.5673575  57.3416203  52.9533299  16.0858413  61.5835539
  52.5613091  15.7825128  60.8658405  53.1086372  16.9227503  61.3940492
  52.9186889  16.1642249  61.4492036  40.4294479   6.0780427  61.5326421
  40.8093444   6.4964972  60.8686688  39.8549844   6.6593882  61.8395264
  40.4005804   6.2258285  61.4803162  53.1172974  12.6508401  61.5241569
  52.7587629  12.8223044  62.3005602  52.6311685  13.1121607  60.9669568
  52.9931671  12.7447372  61.5566838  47.9061339   8.3307567  54.0641803
  48.1953864   9.1072449  54.3385378  47.9933138   7.8196298  54.7656303
  47.9615596   8.3699485  54.2084301  54.3331970  14.2332106  69.1114127
  55.1224348  13.8821170  69.2316208  54.5075568  15.0468494  68.8490761
  54.4752252  14.3017963  69.0901995  44.0725280   7.6440831  66.1641916
  43.2313287   7.5444706  66.3720809  44.2815288   8.4136312  66.5156236
  43.9789973   7.7432875  66.2469230  41.5500847   5.2660368  63.9926666
  41.1557545   5.3403380  63.2176776  40.9940964   5.6518315  64.5435028
  41.4103660   5.3342143  63.9594326  47.8841945   5.5722231  65.4139513
  47.5805083   5.0178219  66.0149921  47.1821366   5.7514441  64.9267547
  47.7358155   5.5167013  65.4309219  46.9408042   2.8822750  59.9784215
  47.2167777   2.1641663  59.5661782  47.5406712   3.4807670  59.7705321
  47.0701307   2.8643121  59.8864976  45.9460296  12.7871951  70.1211611
  45.8380651  12.7974013  70.9873669  46.1556078  13.6126732  69.9316565
  45.9610407  12.9113026  70.2215702  43.9634088  10.0384594  67.5833548
  43.3722022  10.6794092  67.5536564  44.7255112  10.4622211  67.5564848
  43.9882349  10.1960432  67.5748696  53.7223605  15.4893905  65.0165573
  53.5243293  15.9784720  64.3221784  53.1011316  15.6935147  65.5949706
  53.6011169  15.5910444  64.9988796  47.7831583   7.2578802  59.3575817
  48.5273628   7.6453078  59.5958767  47.9292279   6.4136227  59.5216305
  47.9142168   7.1909275  59.4169787  52.6992958   3.7240830  58.3195490
  52.1715977   3.8069574  57.6301199  53.1588667   4.4658701  58.3160135
  52.6894809   3.8461492  58.2170185  44.6926024   1.9943350  53.3436385
  44.3438828   2.6463075  53.8067935  44.2122469   1.9800463  52.6160257
  44.5696267   2.0886403  53.3047477  41.2209950  11.7118691  68.7267465
  40.6909875  11.0211130  68.7762440  41.4935044  11.7028877  67.8980173
  41.1834673  11.6085823  68.6114881  52.2530041  12.2944394  57.4505147
  52.9764240  12.7602507  57.3069721  51.8130632  12.3618003  56.7002744
  52.2945733  12.3728230  57.3189929  51.4216196   9.1541936  68.7005836
  50.8073189   8.6099986  68.9954472  51.9383481   8.6406172  68.2211652
  51.4071858   8.9978345  68.6730065  50.6612493  10.2246206  66.4350135
  50.2340101   9.5995924  66.0015570  50.6537438   9.9421128  67.2609142
  50.5971634  10.0898986  66.4929963  36.5005793   8.3846455  66.0835813
  36.3949242   8.3393300  65.2187897  35.7506013   8.7300236  66.3650098
  36.3741396   8.4287363  65.9973143  46.6913888   6.3446288  68.3272312
  45.8605818   6.5120106  68.1207560  46.6365406   5.9682239  69.1121198
  46.5603303   6.3136020  68.4120840  45.0649932   4.6201880  58.8562430
  45.2052893   5.1174344  59.5591071  45.5632465   3.9188174  58.9976644
  45.1591013   4.5903859  58.9814009  45.0950155   5.4868991  56.1855007
  45.7295234   6.0829416  56.1204469  45.1775765   5.1872449  57.0000877
  45.2006706   5.5309899  56.2958093  49.9026110  12.4401841  69.6799265
  49.3951201  12.9937688  70.1239895  49.6052756  12.5010131  68.8618039
  49.7830995  12.5308152  69.6247722  41.6003143   7.6836832  59.4544553
  42.1095372   8.2801339  59.8355858  42.0737415   7.4162805  58.7720972
  41.7446518   7.7322647  59.4099076  52.5133891  16.3565098  57.6103208
  51.7963200  16.1825961  57.1450446  53.1640628  16.1217671  57.0778694
  52.5035741  16.2960891  57.4632426  55.0981862   5.2329687  61.3544514
  54.4273052   5.7759389  61.2257579  55.7921612   5.7024542  61.1126208
  55.1010729   5.3827958  61.3000041  49.1468596  17.3726399  66.5856272
  48.9234250  16.6145228  66.9540298  48.6578439  17.4024420  65.8636712
  49.0412045  17.2648624  66.5333013  43.9593674   4.3193090  62.3217733
  43.2405663   4.7357223  62.5890597  44.3306037   4.8847329  61.7709371
  43.9085606   4.4642372  62.2800540  47.7947053  17.5926857  64.0393356
  47.3807451  16.9300987  63.6497198  48.4794427  17.7404716  63.5189051
  47.8345424  17.5167515  63.9049854  51.1612347  16.7516942  64.7916973
  50.7628630  16.8619213  64.0237793  50.5463566  16.9599009  65.3743533
  51.0111236  16.7990510  64.7648272  49.7340249   3.3591090  57.6591113
  49.1405088   3.6808087  57.1075680  49.7715526   2.5132186  57.4512219
  49.6514638   3.2815418  57.5473884  45.6642828   1.8547141  62.3847059
  46.1400194   2.2164221  61.7497240  45.1631427   2.5103609  62.6647201
  45.6608187   2.0041330  62.3323800  58.8954189  11.3268909  58.1760064
  59.2787795  12.0760265  58.4058161  58.0998303  11.5734729  57.9172053
  58.8347972  11.4738603  58.1717637  47.7069481   3.9988341  55.7520443
  48.0868446   4.0167970  54.9671557  46.9662077   4.4442330  55.6311290
  47.6538319   4.0670115  55.6184011  53.0595623   6.9868034  64.9932228
  53.5549289   6.2691029  64.9536248  52.2495399   6.6838831  64.8786715
  53.0139517   6.8365680  64.9705954  48.5054235  10.8365847  57.1429233
  47.6965558  10.5132521  57.0962542  49.0129144  10.1299069  57.0757481
  48.4603902  10.6847163  57.1259527  39.1344512   8.2638040  62.8676597
  38.2690032   8.2523731  62.7559368  39.2343328   8.0768263  63.7147736
  39.0218679   8.2344101  62.9765541  55.1247442   9.7371721  67.6809357
  55.5502514   9.2146143  67.1279782  54.7604362  10.3352559  67.1597980
  55.1334045   9.7481948  67.5218367  44.7601522  18.0335939  66.4406702
  45.0748081  18.8472327  66.4484484  45.1694935  17.6486157  67.1088862
  44.8669620  18.0964641  66.5410794  51.7126042  13.4505986  64.0110514
  52.1837220  14.1646248  64.1800500  52.0486220  12.8504736  64.5470384
  51.8321157  13.4677450  64.1142890  52.3499988  13.2423920  70.7738207
  51.8020934  12.6181803  70.5058272  52.8113017  13.4318192  70.0582286
  52.3367198  13.1782970  70.6288638  42.1014542  11.9809047  66.0885311
  42.7059400  11.9404881  65.4599132  41.8941855  12.8280199  66.1189367
  42.1603440  12.0997050  66.0001427  51.9158314  14.2474992  67.3047548
  52.7356688  14.1037958  67.5663843  51.6352392  14.8721191  67.8463986
  51.9955058  14.3185344  67.4235488  37.3365825  10.9643665  65.9584234
  37.2390103  10.1539936  66.2674291  38.1194694  10.9435458  65.5730502
  37.4381961  10.8410755  65.9471097  68.3871965  21.9039844  60.2690425
  68.3565969  22.7584481  60.4408694  68.9853314  21.6035137  60.8276568
  68.4709123  21.9856341  60.3765227  61.5871650  20.9915495  65.0243355
  60.7309545  21.1523993  65.0752472  61.6339303  20.1207559  65.0448416
  61.4670761  20.8866297  65.0349421  55.9712789  30.5278213  60.7880587
  55.2195689  30.1493751  60.5596632  56.4198801  30.5596647  60.0399397
  55.9262456  30.4763820  60.6438089  61.4237749  30.9503583  56.2166134
  61.0889118  31.6280504  55.7810356  61.9364620  30.5608894  55.6283005
  61.4503330  30.9928161  56.0652925  60.9642041  32.9017851  62.1577245
  61.3481420  33.4704750  61.6182021  60.9001182  32.1767362  61.6783061
  61.0115468  32.8793315  62.0071108  64.4323471  23.0507539  67.6675007
  64.9779431  23.7292626  67.7268976  64.3740347  22.9095000  66.8076588
  64.5039385  23.1299541  67.5487067  57.5497546  30.5396605  63.0543359
  57.6507908  29.7296959  63.3640487  56.9539291  30.4453552  62.4243038
  57.4770084  30.4061633  63.0069598  66.2088539  24.4792146  58.5408734
  66.0928065  25.2299832  58.9700873  67.0044426  24.2216099  58.7904821
  66.3093129  24.5526993  58.6412826  57.3898285  35.4574194  64.4558215
  58.0335741  35.8987358  64.8454374  57.7154541  34.6527621  64.3688474
  57.5330114  35.4039389  64.5003692  50.7462590  26.5616892  62.6795693
  50.5112774  25.7284544  62.5727962  50.8848231  26.8421557  61.8656894
  50.7318252  26.4800395  62.5438048  53.0452677  18.7302622  65.5780000
  52.4257709  18.1395270  65.4090015  52.9436541  19.3214058  64.9444324
  52.9390353  18.7306705  65.4584990  58.0918865  28.4686169  59.8278077
  58.4134706  29.0091377  59.2239385  58.7390961  27.8982941  59.9600367
  58.2344920  28.4645344  59.7585112  60.1420573  20.4702164  59.9112464
  60.8400738  20.6490292  60.4033927  60.4572905  19.9472503  59.2882853
  60.2915910  20.4195936  59.8914474  52.7721810  22.2754904  67.8223569
  52.6480507  22.8617350  68.4573388  53.4240095  21.7815100  68.1235844
  52.8495460  22.2893708  67.9609499  60.3308508  26.8572609  59.8992255
  60.7702144  26.2489710  60.3447028  60.1813171  26.4779982  59.1277720
  60.3729974  26.7111080  59.8511422  57.7980151  25.4516621  67.1011081
  58.4429154  24.9589064  66.7822029  58.0381928  25.5941408  67.9277159
  57.9290736  25.3994063  67.1760614  60.3366243  28.2971527  66.7517973
  60.6189485  27.5022933  66.5304729  61.0652403  28.7752114  66.7723034
  60.4855806  28.2506124  66.7220988  58.3147436  15.8394561  63.9933738
  57.9850767  16.2905704  63.3237437  57.6392438  15.7610724  64.5406745
  58.1657873  15.8945696  63.9756961  63.9317845  25.2099790  56.8523024
  63.8469140  26.0660757  56.9972593  64.4202228  24.9344115  57.5205183
  63.9906742  25.2957112  56.9725106  65.5223844  11.8280084  62.2383349
  65.2077285  12.5183562  62.6703771  65.0050786  11.7724866  61.5368850
  65.3988315  11.9214972  62.1980298  64.8636278  21.8284585  58.3520759
  64.3347750  22.0444218  59.0118066  65.3861298  22.5220723  58.2721729
  64.8624731  21.9627722  58.4376359  70.3184331  27.4030889  63.7253804
  69.4882034  27.6141533  63.8887220  70.2693583  26.5767944  63.4496087
  70.1891066  27.3120495  63.7091169  56.7535886  25.7247801  57.1528227
  56.1693101  26.2297833  57.5594091  56.3505981  25.4990188  56.4124819
  56.6075190  25.7656050  57.1033253  52.3079914  31.4402563  63.9551899
  51.8247493  32.1653052  63.9311482  53.1203233  31.7378693  64.0662057
  52.3570662  31.5904916  63.9679178  58.3794069  30.2334743  66.5601713
  57.8621010  29.8742158  65.9563021  59.0768460  29.7096918  66.5707779
  58.4059650  30.1032431  66.4731972  62.0357661  30.6829557  72.5217886
  62.1241006  30.4955698  73.3696097  62.4647373  30.0366987  72.1222733
  62.1119763  30.5592565  72.5889638  59.6028120  29.9660717  71.5035549
  59.0398955  29.5533327  72.0275210  60.3649144  29.8913623  71.9228692
  59.6322569  29.8938118  71.6428549  61.2113100  21.9713453  55.6297148
  61.4509104  22.1791437  54.8172491  61.5328941  21.1670962  55.7386092
  61.2950258  21.8827555  55.5257701  56.5203391  13.9006849  59.4756686
  57.2749359  14.2685166  59.2373736  56.3430925  14.2746404  60.2435865
  56.6057869  14.0105037  59.5541574  55.1624112  31.9558738  64.1072179
  55.8644691  31.4410728  64.1644935  55.0821595  32.2832890  64.9119054
  55.2547872  31.9272965  64.2344971  56.2103018  22.1934325  73.2352594
  56.3823522  22.0840220  74.0837875  56.7472376  22.8388731  72.9983786
  56.3148022  22.2726327  73.3257691  54.8760455  16.3077168  56.1734799
  54.6936028  16.5249049  55.3475792  55.7386068  16.4216181  56.2293413
  54.9765045  16.3567066  56.0589286  54.4874887  28.1465090  63.6157787
  55.3263787  28.3788023  63.6631548  54.5186656  27.2769402  63.5464822
  54.6156605  28.0522037  63.6122431  55.1127590  28.5665966  67.9171092
  55.6525815  28.4237097  68.5874465  54.4297536  28.9662716  68.2855119
  55.0919744  28.6045637  68.0705514  60.5560174  13.3103579  59.2083823
  61.2846335  13.1319534  58.7621979  60.6455067  14.1521659  59.4191001
  60.6766836  13.4087457  59.1737340  64.5368475  24.2456966  63.1116117
  65.2925990  24.6788481  63.1505025  64.6430800  23.5961736  63.6850753
  64.6638646  24.2134450  63.2014142  67.5748646  28.0730244  63.8618520
  67.1383878  28.0766986  64.6177491  67.2411562  28.7535742  63.4298097
  67.4611266  28.1742699  63.9099352  50.5164735  24.7866256  68.0705514
  50.2503150  23.9705373  68.2296504  50.5303299  24.8319412  67.2001029
  50.4789458  24.6723161  67.9658996  54.4222482  19.5851341  54.6857272
  53.7080659  19.2989520  55.0979704  54.9066451  19.9247967  55.3263659
  54.3881846  19.5932991  54.8412907  55.2663342  18.3244635  70.7172522
  54.5735138  17.8541614  70.9633253  55.8823669  18.0982939  71.2914229
  55.2547872  18.2211767  70.8381674  62.3048113  32.0248678  68.8328126
  61.5063359  31.7848178  69.0901994  62.7534125  32.0763071  69.5795173
  62.2522724  31.9971070  68.9813050  70.7092992  24.7911163  62.7538157
  71.3709426  24.2301832  62.6534065  70.0684404  24.2963194  63.0790848
  70.7121860  24.6347572  62.7870497  61.5969800  28.0881295  55.0619080
  62.0120949  27.7566319  54.3703576  60.7661730  27.8550197  54.9339217
  61.5357809  28.0052551  54.9409928  50.9258149  25.5725036  65.3517258
  50.7433722  25.5471922  64.4989550  51.6607818  26.0423974  65.3906167
  51.0072213  25.6386398  65.2315177  66.9957823  25.8076546  62.4950146
  67.2313412  25.9521745  61.6676996  67.1447387  26.5718954  62.8881659
  67.0523626  25.9415600  62.4313750  53.9903901  22.2910039  71.8599367
  54.7143873  22.2763069  72.3464261  54.0920037  23.0005394  71.3621335
  54.1122110  22.3934742  71.8578154  68.8248280  24.6478212  60.3319749
  69.1556497  25.1805852  59.7259844  69.3981368  24.7017099  60.9881700
  68.9581959  24.7347781  60.3397531  64.0380169  22.4943114  61.0143330
  64.1327023  23.2332409  61.4682955  63.4139012  22.0660590  61.4477894
  63.9589199  22.5404435  61.1451477  62.2932643  25.6729327  71.6633610
  62.8671504  25.0356571  71.8182174  62.2147447  25.6733409  70.7943268
  62.3665878  25.5794438  71.5580021  50.8929059  22.4518537  65.5016325
  51.4702562  22.3154987  66.1408570  50.1943121  21.9954321  65.7561909
  50.8750081  22.3640803  65.6338614  64.2903190  24.3391854  54.2480282
  64.2083353  24.4094041  55.1135269  64.9282911  24.9021598  54.0564022
  64.3723028  24.4330825  54.3470231  57.6496361  24.1052592  63.7154808
  57.3915606  23.2724327  63.6886107  57.7044844  24.3310205  62.8747308
  57.6196139  24.0150363  63.5874945  62.7297412  16.2081043  63.8158901
  62.0253738  15.7190228  63.9742820  62.7782386  16.2203517  62.9447345
  62.6327463  16.1370691  63.7098240  56.6231074  21.6590355  64.2019703
  56.0480665  21.8182523  64.8383664  56.2466750  21.0225764  63.7388153
  56.4833886  21.5888168  64.2274261  60.2904362  20.1313704  69.0612081
  59.9018795  19.7067922  68.4064272  59.6259061  20.3795854  69.5689108
  60.1351290  20.1052425  69.0399949  69.9327631  19.8888709  61.8359911
  69.6764196  19.0768650  61.6457794  70.7756945  19.8966276  61.6090098
  70.0193657  19.7700706  61.7744728  46.3687892  21.3030429  62.2164143
  46.4548144  20.9262298  62.9977673  46.9963690  20.9290875  61.7384102
  46.4744443  21.1915912  62.2609621  61.3943300  24.3612309  57.2588888
  62.2083939  24.6527201  57.1471659  61.3302442  23.7072171  56.6847181
  61.5046039  24.3077503  57.1577725  57.2651209  27.8333826  62.3861200
  57.9025156  27.5945573  62.9312993  57.6906280  28.0370985  61.6514361
  57.4227375  27.8284836  62.3578357  51.9563851  30.0722162  66.2695504
  51.9967996  30.3437014  65.4415283  52.5158375  30.5964071  66.6853292
  52.0447197  30.1897918  66.2087392  57.9054024  23.0536116  56.7236089
  58.2899176  22.8343822  57.4752635  57.6565644  23.8799061  56.8537166
  57.9256096  23.1434262  56.8537166  68.6389211  26.8282753  67.7346758
  68.3335028  27.5610810  68.0960074  67.9195427  26.4220683  67.4539544
  68.4876554  26.8764486  67.7459895  59.6472681  28.3106249  64.0654986
  59.7211689  28.1481420  64.9196836  60.4642187  28.4996438  63.8215468
  59.7789039  28.3142991  64.1553012  53.4078437  28.6564111  61.0949430
  52.5816555  28.9025849  60.9683709  53.4690429  28.5776192  61.9611488
  53.2952604  28.6809060  61.2038374  55.6254461  14.7233052  62.0544870
  54.7576887  14.7955652  62.1202479  55.9129665  15.5255131  62.2432845
  55.5394209  14.8527199  62.0919637  58.1877266  31.2740992  58.7968460
  58.4775565  30.8829973  58.0727686  58.9180747  31.4557697  59.2373735
  58.3384151  31.2434805  58.7551267  58.7772012  26.0758738  69.8821590
  58.2783705  26.7874505  69.9606479  59.5872236  26.3959404  69.8439753
  58.8228118  26.2285586  69.8878159  56.1283182  33.2508374  61.8628609
  55.9083477  32.9605729  62.6555276  55.9077704  32.5923329  61.3346522
  56.0630776  33.1108082  61.9017518  55.0400129  25.3381691  64.1284311
  54.7513378  24.7119162  64.6630038  55.9083477  25.2801978  64.1948992
  55.1260381  25.2369235  64.2175266  65.8278027  20.4816474  64.4466293
  65.4842793  19.7606809  64.7973543  65.9271070  20.2730325  63.6044651
  65.7920070  20.3440677  64.3737973  58.2951138  34.6237764  60.6459302
  58.9475196  34.0914206  60.8750328  57.5976746  34.2706416  61.0327176
  58.2881856  34.4927287  60.7371470  55.2432403  26.9776942  60.0526676
  55.9978371  27.3589981  60.2662139  54.6503015  27.4288085  60.5073373
  55.2669116  27.1005769  60.1509555  66.2891056  26.9442178  59.9890281
  66.8549089  27.6035388  59.9048824  65.6418959  27.2891876  60.4606683
  66.2769812  27.0924119  60.0463038  56.5630629  28.1485503  65.4266792
  56.0411383  28.2885795  66.1118656  56.9504649  27.3896167  65.6168909
  56.5434330  28.0571027  65.5567868  53.5521813  18.1991312  59.4961746
  53.2646609  17.8292582  58.7593694  54.2392281  18.6686167  59.2345451
  53.6110710  18.2138281  59.3476822  62.7597634  29.8880962  59.4127360
  62.5184310  29.1548823  59.0054425  62.9398967  30.4367819  58.7593694
  62.7505258  29.8603353  59.2557583  57.9896955  25.1789522  60.8248283
  57.7939737  25.7864257  60.2308586  58.2131300  24.4857466  60.3439957
  57.9931596  25.1667048  60.6664363  56.3875485  22.0644260  60.9429151
  57.1098137  22.2285418  60.4832957  55.9083478  22.7853925  60.8368491
  56.4239215  22.1942489  60.8594765  64.3468992  18.4008059  66.3225836
  63.5080093  18.4269338  66.0864099  64.4173360  19.0478794  66.9031183
  64.2337386  18.5004185  66.3734953  54.0383101  24.4702332  70.0483291
  54.5504198  24.7486586  69.3992051  53.7519444  25.2091626  70.4146104
  54.0717965  24.6204686  70.0073169  62.7938271  15.2993436  61.0553452
  63.4964623  15.1001184  60.5773410  62.5282459  14.5269378  61.3622295
  62.8584903  15.1556402  61.0298893  68.2226516  23.6076045  63.6087078
  68.1360491  23.7631472  64.4621857  67.7676996  24.2514121  63.2346483
  68.1429773  23.7251801  63.6794184  51.1250008  18.9772524  60.3447027
  51.2266144  19.7798686  60.6728003  51.9205895  18.7759860  60.0470108
  51.2577913  19.0658423  60.3482383  57.5566827  16.5628721  70.1084332
  57.3650024  16.5783855  70.9583756  58.4065423  16.7592395  70.0850987
  57.6542549  16.5943072  70.2307627  51.9413740  19.0919702  68.0868149
  51.7999232  18.2403643  68.2112657  52.2254303  19.1348363  67.2630355
  51.9621586  18.9719452  67.9835773  62.0952332  20.9286793  62.2312637
  61.8487047  20.8482544  63.0649426  62.4237455  20.1440260  62.0375165
  62.1073576  20.8013058  62.3260160  65.9900381  27.6370152  66.0199418
  65.8514740  28.3351198  66.5248161  65.2100379  27.4818808  65.6635600
  65.8543608  27.7170319  66.0425693  58.0549360  23.6643511  71.6435620
  58.1992735  24.2444719  71.0078730  58.4025008  24.0419808  72.3485475
  58.1276821  23.8064215  71.6534615  60.2269277  22.8633680  69.4260752
  59.4792591  23.0564694  69.0209030  60.3810802  22.0378899  69.1884873
  60.1391704  22.7698791  69.3306158  57.1277115  31.8546283  68.5096647
  57.2766678  31.2949199  67.8570052  57.9077117  31.9338285  68.8929166
  57.2651208  31.7831848  68.4693596  67.4853754  26.9948406  56.7815918
  67.1060563  26.2085544  56.7745207  66.8219999  27.5435263  56.6387562
  67.3312229  26.9593230  56.7596715  59.6530415  32.0260926  69.7881138
  59.5774086  31.3569736  70.3431926  59.5820274  32.7278714  70.3021804
  59.6311022  32.0305833  69.9457986  52.7104045  17.0050050  71.4045599
  52.1746235  16.3930408  71.7206367  52.7721810  17.5798186  72.0579266
  52.6399678  16.9996978  71.5481026  60.3100662  30.5461925  60.6204744
  61.0750553  30.2771568  60.2987408  60.2078752  30.0611935  61.3374807
  60.4082158  30.4351489  60.6784571  58.3453432  18.7486334  67.1597980
  57.5549507  18.5677794  67.4815315  58.7414055  17.9713287  67.1428274
  58.2870308  18.6073795  67.2050528  62.8319323  27.5774109  52.6004693
  63.5992308  27.6374233  52.1910545  62.3850632  27.0054550  52.1161012
  62.8792750  27.5010684  52.4682404  63.7297118  26.3828764  64.8857426
  63.0542120  26.1513997  65.3870813  63.7389494  25.7749947  64.2599531
  63.6315623  26.2587690  64.8673578  60.8591262  21.2246593  71.6421479
  60.7950403  22.0856550  71.5141615  60.9988450  20.9078587  70.8417030
  60.8706732  21.3046760  71.5049691  65.7313853  29.2393897  57.1167604
  65.8133690  30.0460883  56.7929054  66.2163595  29.2589856  57.8408377
  65.8151011  29.3614559  57.1754502  59.5410356  23.9178733  65.7837681
  59.1172605  24.1183232  65.0476700  59.3655211  23.0707581  65.8961981
  59.4521237  23.8227514  65.6911372  59.0422049  35.4329246  68.2459139
  59.5317980  34.7340035  68.0634803  58.4706282  35.1353116  68.8335196
  59.0306579  35.2855469  68.3060180  54.8292801  24.4130784  61.2165654
  54.9857420  24.3477587  62.0721646  55.1693394  25.1879337  61.0044334
  54.9026036  24.5179982  61.3120248  61.3671946  23.7888668  60.0859017
  61.9087491  23.2859049  60.5497638  61.6818505  23.7353862  59.2748502
  61.4936343  23.7068089  60.0342829  59.5358395  29.1806019  57.3699045
  59.6051216  28.3220558  57.5092046  60.3146850  29.3977900  57.0418070
  59.6611245  29.0858883  57.3416203  63.9265883  31.6043720  61.5835539
  63.5345675  31.3010436  60.8658405  64.0818955  32.4412810  61.3940492
  63.8919473  31.6827557  61.4492036  51.4027062  21.5965735  61.5326421
  51.7826027  22.0150279  60.8686688  50.8282427  22.1779190  61.8395264
  51.3738387  21.7443593  61.4803162  64.0905558  28.1693709  61.5241569
  63.7320212  28.3408352  62.3005602  63.6044268  28.6306915  60.9669568
  63.9664255  28.2632680  61.5566838  61.9075944  11.7924908  65.1268660
  61.0369502  11.7663629  65.0801970  62.1616285  11.6202100  64.3094506
  61.8169504  11.7635052  64.9988797  58.8793923  23.8492875  54.0641803
  59.1686448  24.6257757  54.3385378  58.9665722  23.3381606  54.7656303
  58.9348179  23.8884793  54.2084301  58.9325084  13.8031136  66.5842131
  58.4163573  13.1111328  66.7093710  58.3719013  14.4701913  66.5304730
  58.7731597  13.7994394  66.5948197  65.3064554  29.7517414  69.1114127
  66.0956932  29.4006478  69.2316208  65.4808151  30.5653802  68.8490761
  65.4484835  29.8203271  69.0901995  55.0457864  23.1626139  66.1641916
  54.2045871  23.0630013  66.3720809  55.2547872  23.9321620  66.5156236
  54.9522557  23.2618183  66.2469230  52.5233431  20.7845676  63.9926666
  52.1290129  20.8588688  63.2176776  51.9673548  21.1703623  64.5435028
  52.3836243  20.8527451  63.9594326  64.1598378  13.7626970  63.6730545
  64.3647971  13.6949278  64.5187542  63.8324802  14.5685791  63.6051723
  64.1413626  13.8712911  63.7890200  58.8574529  21.0907539  65.4139513
  58.5537666  20.5363527  66.0149921  58.1553950  21.2699748  64.9267547
  58.7090739  21.0352321  65.4309219  57.9140626  18.4008058  59.9784215
  58.1900360  17.6826971  59.5661782  58.5139295  18.9992978  59.7705321
  58.0433891  18.3828429  59.8864976  56.9192880  28.3057259  70.1211611
  56.8113235  28.3159321  70.9873669  57.1288661  29.1312040  69.9316565
  56.9342991  28.4298334  70.2215702  61.4151146  16.0721576  58.2530810
  61.8694893  16.2432136  58.9778654  61.8891192  15.4589686  57.8528586
  61.5519467  16.0072461  58.3004572  54.9366672  25.5569902  67.5833548
  54.3454605  26.1979400  67.5536564  55.6987695  25.9807519  67.5564848
  54.9614933  25.7145740  67.5748696  55.3327295  16.7171899  68.2501566
  55.7928776  16.7910829  68.9876690  55.3783401  17.5153153  67.9001387
  55.4077850  16.8466046  68.3074323  64.6956188  31.0079213  65.0165573
  64.4975877  31.4970028  64.3221784  64.0743899  31.2120455  65.5949706
  64.5743753  31.1095751  64.9988796  58.7564166  22.7764110  59.3575817
  59.5006211  23.1638386  59.5958767  58.9024863  21.9321535  59.5216305
  58.8874752  22.7094583  59.4169787  60.6743742  14.5714369  64.3907679
  59.8279787  14.7437177  64.2649028  60.6714874  13.7663713  64.7273507
  60.5490892  14.4775398  64.4218806  61.7442042  18.3489583  65.2569737
  61.2701997  17.8231345  65.7675047  62.1160178  17.8019056  64.6884598
  61.7291931  18.1905580  65.2484884  52.1215072  20.3461090  70.6253282
  52.9840686  20.2456799  70.5390612  51.7906855  19.7655799  70.0638854
  52.2000269  20.2452717  70.5298688  63.6725542  19.2426138  58.3195490
  63.1448561  19.3254882  57.6301199  64.1321250  19.9844009  58.3160135
  63.6627392  19.3646800  58.2170185  55.4816858  19.1703539  67.2863700
  54.8569929  19.1821931  66.6789653  55.1462453  19.6463714  67.9354941
  55.3402350  19.2422056  67.2920269  55.6658607  17.5128658  53.3436385
  55.3171411  18.1648383  53.8067935  55.1855053  17.4985771  52.6160257
  55.5428851  17.6071711  53.3047477  52.1942534  27.2303999  68.7267465
  51.6642459  26.5396438  68.7762440  52.4667627  27.2214184  67.8980173
  52.1567256  27.1271131  68.6114881  63.2262624  27.8129701  57.4505147
  63.9496823  28.2787814  57.3069721  62.7863216  27.8803311  56.7002744
  63.2678317  27.8913538  57.3189929  62.3948780  24.6727244  68.7005836
  61.7805773  24.1285294  68.9954472  62.9116065  24.1591480  68.2211652
  62.3804442  24.5163653  68.6730065  61.6345077  25.7431514  66.4350135
  61.2072685  25.1181232  66.0015570  61.6270021  25.4606436  67.2609142
  61.5704218  25.6084294  66.4929963  54.7507604  20.7796687  69.5038569
  54.9101091  20.0240011  69.9090291  54.5700497  21.3287626  70.1579307
  54.7472963  20.7490501  69.6601275  59.9630786  16.6200268  66.6492669
  59.9873274  16.0860381  65.9605449  60.2142260  16.1117577  67.3118260
  60.0040705  16.4661172  66.6457314  47.4738376  23.9031763  66.0835813
  47.3681825  23.8578608  65.2187897  46.7238596  24.2485544  66.3650098
  47.3473979  23.9472671  65.9973143  56.2432109  15.3471087  66.0298413
  56.2830480  15.8480293  66.7433121  55.4181773  15.4381480  65.7604336
  56.1271635  15.4352903  66.0948952  58.4261722  24.9131827  74.1318708
  57.5757352  25.0503541  74.2676353  58.5889849  24.1795605  74.5766410
  58.3245585  24.8245928  74.2174307  57.6646472  21.8631596  68.3272312
  56.8338402  22.0305414  68.1207560  57.6097989  21.4867547  69.1121198
  57.5335887  21.8321328  68.4120840  56.0382516  20.1387188  58.8562430
  56.1785477  20.6359652  59.5591071  56.5365049  19.4373482  58.9976644
  56.1323597  20.1089167  58.9814009  56.0682738  21.0054299  56.1855007
  56.7027818  21.6014724  56.1204469  56.1508349  20.7057757  57.0000877
  56.1739289  21.0495207  56.2958093  57.6461721  16.9368274  56.1600449
  57.9677562  16.4571357  55.5059711  57.9088665  17.7467920  55.9691260
  57.7327747  16.9858172  56.0355941  60.8758694  27.9587149  69.6799265
  60.3683785  28.5122996  70.1239895  60.5785340  28.0195439  68.8618039
  60.7563579  28.0493460  69.6247722  52.5735726  23.2022140  59.4544553
  53.0827955  23.7986647  59.8355858  53.0469998  22.9348113  58.7720972
  52.7179102  23.2507955  59.4099076  63.4866474  31.8750406  57.6103208
  62.7695784  31.7011269  57.1450446  64.1373212  31.6402979  57.0778694
  63.4768325  31.8146199  57.4632426  61.4815099  12.7955568  61.9314505
  60.8383417  12.6453214  62.4999643  61.1414506  12.5497913  61.1663610
  61.3360176  12.7367691  61.9017520  66.0714445  20.7514995  61.3544514
  65.4005635  21.2944697  61.2257579  66.7654196  21.2209850  61.1126208
  66.0743313  20.9013266  61.3000041  60.1201179  32.8911707  66.5856272
  59.8966834  32.1330536  66.9540298  59.6311022  32.9209728  65.8636712
  60.0144628  32.7833931  66.5333013  54.9326258  19.8378398  62.3217733
  54.2138247  20.2542531  62.5890597  55.3038620  20.4032637  61.7709371
  54.8818190  19.9827680  62.2800540  58.7679636  33.1112165  64.0393356
  58.3540035  32.4486295  63.6497198  59.4527010  33.2590024  63.5189051
  58.8078008  33.0352823  63.9049854  62.1344930  32.2702250  64.7916973
  61.7361213  32.3804521  64.0237793  61.5196150  32.4784317  65.3743533
  61.9843820  32.3175818  64.7648272  60.7072832  18.8776398  57.6591113
  60.1137672  19.1993395  57.1075680  60.7448110  18.0317494  57.4512219
  60.6247221  18.8000726  57.5473884  63.5830649  18.8355903  61.0892863
  63.3544342  18.8588604  60.2471221  63.8428725  18.0113370  61.2087874
  63.5876837  18.7171983  60.9818061  57.8649877  20.6890376  70.6917963
  57.3528780  20.0811559  71.0502995  57.6929373  21.4046968  71.1591939
  57.7639514  20.7053675  70.8134187  52.7115592  19.1327951  73.3420325
  52.5418182  19.7929326  72.7968532  52.2681542  19.3434512  74.0632814
  52.6214926  19.2613933  73.3681954  56.6375411  17.3732449  62.3847059
  57.1132778  17.7349529  61.7497240  56.1364011  18.0288917  62.6647201
  56.6340770  17.5226638  62.3323800  69.8686773  26.8454217  58.1760064
  70.2520379  27.5945573  58.4058161  69.0730886  27.0920037  57.9172053
  69.8080555  26.9923911  58.1717637  49.6117656  22.0374817  68.6008815
  49.0644376  21.3675462  68.7189683  50.4010035  21.6704664  68.6652282
  49.6469840  21.8839803  68.6277515  58.6802064  19.5173649  55.7520443
  59.0601029  19.5353278  54.9671557  57.9394661  19.9627638  55.6311290
  58.6270902  19.5855423  55.6184011  66.3087355  17.8255840  61.3396021
  66.3081581  17.6704497  62.1980298  66.1043535  18.6718827  61.2837407
  66.2787133  17.9276461  61.4583961  48.3704626  21.2495624  65.7554838
  48.1926387  20.7972233  66.4809753  48.0823648  22.0521786  65.9393315
  48.3017579  21.3018182  65.8898341  64.0328207  22.5053342  64.9932228
  64.5281872  21.7876337  64.9536248  63.2227983  22.2024139  64.8786715
  63.9872100  22.3550988  64.9705954  59.4786819  26.3551155  57.1429233
  58.6698141  26.0317829  57.0962542  59.9861727  25.6484377  57.0757481
  59.4336485  26.2032471  57.1259527  50.1077096  23.7823348  62.8676597
  49.2422615  23.7709039  62.7559368  50.2075912  23.5953571  63.7147736
  49.9951263  23.7529409  62.9765541  66.0980026  25.2557029  67.6809357
  66.5235097  24.7331451  67.1279782  65.7336946  25.8537867  67.1597980
  66.1066628  25.2667256  67.5218367  55.7334106  33.5521247  66.4406702
  56.0480665  34.3657635  66.4484484  56.1427519  33.1671465  67.1088862
  55.8402204  33.6149949  66.5410794  62.6858625  28.9691294  64.0110514
  63.1569804  29.6831556  64.1800500  63.0218804  28.3690044  64.5470384
  62.8053740  28.9862758  64.1142890  63.3232572  28.7609228  70.7738207
  62.7753518  28.1367111  70.5058272  63.7845600  28.9503500  70.0582286
  63.3099781  28.6968278  70.6288638  58.6721235  15.7435177  58.4348074
  59.4936930  15.9133490  58.1929769  58.2090886  15.8982438  57.7114372
  58.7252397  15.7916910  58.2919718  57.2616567  13.7377939  69.2146503
  57.8060980  13.3969066  69.8050845  57.3153503  14.5963401  69.3567788
  57.3505686  13.8133199  69.3228376  53.0747126  27.4994355  66.0885311
  53.6791983  27.4590189  65.4599132  52.8674438  28.3465507  66.1189367
  53.1336023  27.6182358  66.0001427  62.8890898  29.7660300  67.3047548
  63.7089272  29.6223266  67.5663843  62.6084976  30.3906499  67.8463986
  62.9687641  29.8370652  67.4235488  48.3098408  26.4828973  65.9584234
  48.2122686  25.6725244  66.2674291  49.0927278  26.4620766  65.5730502
  48.4114545  26.3596063  65.9471097  72.5604233  36.5100803  65.0243355
  71.7042129  36.6709301  65.0752472  72.6071887  35.6392867  65.0448416
  72.4403345  36.4051605  65.0349421  66.9445373  46.0463521  60.7880587
  66.1928272  45.6679059  60.5596632  67.3931385  46.0781955  60.0399397
  66.8995040  45.9949128  60.6438089  72.3970333  46.4688890  56.2166134
  72.0621701  47.1465812  55.7810356  72.9097203  46.0794202  55.6283005
  72.4235914  46.5113469  56.0652925  71.9374624  48.4203159  62.1577245
  72.3214003  48.9890058  61.6182021  71.8733765  47.6952669  61.6783061
  71.9848051  48.3978623  62.0071108  75.4056054  38.5692847  67.6675007
  75.9512014  39.2477934  67.7268976  75.3472931  38.4280308  66.8076588
  75.4771969  38.6484849  67.5487067  68.5230129  46.0581913  63.0543359
  68.6240492  45.2482267  63.3640487  67.9271874  45.9638860  62.4243038
  68.4502668  45.9246941  63.0069598  61.7195173  42.0802200  62.6795693
  61.4845358  41.2469852  62.5727962  61.8580814  42.3606865  61.8656894
  61.7050836  41.9985703  62.5438048  64.0185261  34.2487930  65.5780000
  63.3990292  33.6580578  65.4090015  63.9169124  34.8399365  64.9444324
  63.9122936  34.2492013  65.4584990  69.0651448  43.9871477  59.8278077
  69.3867289  44.5276684  59.2239385  69.7123545  43.4168249  59.9600367
  69.2077504  43.9830652  59.7585112  71.1153156  35.9887472  59.9112464
  71.8133321  36.1675600  60.4033927  71.4305489  35.4657811  59.2882853
  71.2648494  35.9381244  59.8914474  63.7454394  37.7940212  67.8223569
  63.6213091  38.3802657  68.4573388  64.3972678  37.3000408  68.1235844
  63.8228043  37.8079016  67.9609499  71.3041092  42.3757917  59.8992255
  71.7434727  41.7675018  60.3447028  71.1545755  41.9965290  59.1277720
  71.3462558  42.2296388  59.8511422  68.7712735  40.9701929  67.1011081
  69.4161737  40.4774372  66.7822029  69.0114512  41.1126716  67.9277159
  68.9023320  40.9179371  67.1760614  71.3098826  43.8156835  66.7517973
  71.5922069  43.0208241  66.5304729  72.0384987  44.2937422  66.7723034
  71.4588390  43.7691432  66.7220988  69.2880020  31.3579869  63.9933738
  68.9583350  31.8091012  63.3237437  68.6125022  31.2796032  64.5406745
  69.1390456  31.4131004  63.9756961  74.9050428  40.7285098  56.8523024
  74.8201724  41.5846065  56.9972593  75.3934812  40.4529422  57.5205183
  74.9639326  40.8142420  56.9725106  67.7268469  41.2433109  57.1528227
  67.1425685  41.7483141  57.5594091  67.3238565  41.0175496  56.4124819
  67.5807773  41.2841358  57.1033253  63.2812498  46.9587870  63.9551899
  62.7980076  47.6838360  63.9311482  64.0935816  47.2564000  64.0662057
  63.3303246  47.1090224  63.9679178  69.3526652  45.7520051  66.5601713
  68.8353594  45.3927466  65.9563021  70.0501043  45.2282226  66.5707779
  69.3792233  45.6217739  66.4731972  72.1845684  37.4898761  55.6297148
  72.4241688  37.6976745  54.8172491  72.5061525  36.6856270  55.7386092
  72.2682842  37.4012863  55.5257701  67.4935974  29.4192157  59.4756686
  68.2481942  29.7870474  59.2373736  67.3163509  29.7931712  60.2435865
  67.5790453  29.5290345  59.5541574  66.1356695  47.4744046  64.1072179
  66.8377275  46.9596035  64.1644935  66.0554178  47.8018198  64.9119054
  66.2280456  47.4458273  64.2344971  65.8493039  31.8262476  56.1734799
  65.6668612  32.0434357  55.3475792  66.7118652  31.9401489  56.2293413
  65.9497628  31.8752374  56.0589286  65.4607471  43.6650398  63.6157787
  66.2996370  43.8973331  63.6631548  65.4919240  42.7954710  63.5464822
  65.5889188  43.5707345  63.6122431  66.0860174  44.0851274  67.9171092
  66.6258399  43.9422405  68.5874465  65.4030120  44.4848024  68.2855119
  66.0652328  44.1230944  68.0705514  71.5292758  28.8288887  59.2083823
  72.2578918  28.6504842  58.7621979  71.6187651  29.6706967  59.4191001
  71.6499420  28.9272765  59.1737340  61.4897319  40.3051564  68.0705514
  61.2235734  39.4890681  68.2296504  61.5035883  40.3504720  67.2001029
  61.4522041  40.1908469  67.9658996  65.3955066  35.1036649  54.6857272
  64.6813243  34.8174828  55.0979704  65.8799034  35.4433275  55.3263659
  65.3614429  35.1118298  54.8412907  66.2395925  33.8429943  70.7172522
  65.5467722  33.3726922  70.9633253  66.8556253  33.6168247  71.2914229
  66.2280455  33.7397074  70.8381674  72.5702384  43.6066603  55.0619080
  72.9853532  43.2751627  54.3703576  71.7394313  43.3735505  54.9339217
  72.5090392  43.5237859  54.9409928  61.8990732  41.0910344  65.3517258
  61.7166306  41.0657230  64.4989550  62.6340401  41.5609282  65.3906167
  61.9804796  41.1571706  65.2315177  64.9636484  37.8095347  71.8599367
  65.6876456  37.7948377  72.3464261  65.0652621  38.5190702  71.3621335
  65.0854693  37.9120050  71.8578154  75.0112753  38.0128422  61.0143330
  75.1059607  38.7517716  61.4682955  74.3871596  37.5845898  61.4477894
  74.9321783  38.0589743  61.1451477  61.8661643  37.9703844  65.5016325
  62.4435145  37.8340295  66.1408570  61.1675705  37.5139629  65.7561909
  61.8482664  37.8826111  65.6338614  75.2635774  39.8577162  54.2480282
  75.1815936  39.9279349  55.1135269  75.9015494  40.4206906  54.0564022
  75.3455611  39.9516133  54.3470231  68.6228945  39.6237900  63.7154808
  68.3648189  38.7909635  63.6886107  68.6777428  39.8495513  62.8747308
  68.5928723  39.5335671  63.5874945  73.7029995  31.7266351  63.8158901
  72.9986322  31.2375536  63.9742820  73.7514969  31.7388825  62.9447345
  73.6060047  31.6555999  63.7098240  67.5963657  37.1775663  64.2019703
  67.0213248  37.3367831  64.8383664  67.2199333  36.5411072  63.7388153
  67.4566469  37.1073475  64.2274261  71.2636946  35.6499012  69.0612081
  70.8751379  35.2253230  68.4064272  70.5991644  35.8981161  69.5689108
  71.1083874  35.6237733  69.0399949  57.3420476  36.8215737  62.2164143
  57.4280728  36.4447606  62.9977673  57.9696273  36.4476183  61.7384102
  57.4477027  36.7101219  62.2609621  72.3675884  39.8797616  57.2588888
  73.1816523  40.1712509  57.1471659  72.3035025  39.2257479  56.6847181
  72.4778623  39.8262811  57.1577725  68.2383792  43.3519134  62.3861200
  68.8757739  43.1130881  62.9312993  68.6638864  43.5556293  61.6514361
  68.3959959  43.3470144  62.3578357  62.9296435  45.5907470  66.2695504
  62.9700580  45.8622321  65.4415283  63.4890959  46.1149378  66.6853292
  63.0179781  45.7083225  66.2087392  68.8786607  38.5721424  56.7236089
  69.2631760  38.3529130  57.4752635  68.6298228  39.3984369  56.8537166
  68.8988680  38.6619570  56.8537166  70.6205264  43.8291557  64.0654986
  70.6944273  43.6666728  64.9196836  71.4374771  44.0181746  63.8215468
  70.7521623  43.8328299  64.1553012  64.3811021  44.1749419  61.0949430
  63.5549139  44.4211157  60.9683709  64.4423012  44.0961500  61.9611488
  64.2685188  44.1994368  61.2038374  66.5987045  30.2418360  62.0544870
  65.7309470  30.3140960  62.1202479  66.8862249  31.0440439  62.2432845
  66.5126793  30.3712507  62.0919637  69.1609850  46.7926300  58.7968460
  69.4508148  46.4015281  58.0727686  69.8913331  46.9743004  59.2373735
  69.3116734  46.7620113  58.7551267  67.1015766  48.7693682  61.8628609
  66.8816061  48.4791037  62.6555276  66.8810288  48.1108637  61.3346522
  67.0363360  48.6293390  61.9017518  66.0132713  40.8566998  64.1284311
  65.7245961  40.2304470  64.6630038  66.8816061  40.7987286  64.1948992
  66.0992965  40.7554543  64.2175266  69.2683721  50.1423072  60.6459302
  69.9207779  49.6099514  60.8750328  68.5709330  49.7891724  61.0327176
  69.2614439  50.0112595  60.7371470  66.2164986  42.4962250  60.0526676
  66.9710954  42.8775289  60.2662139  65.6235599  42.9473393  60.5073373
  66.2401700  42.6191077  60.1509555  67.5363213  43.6670811  65.4266792
  67.0143966  43.8071103  66.1118656  67.9237233  42.9081475  65.6168909
  67.5166914  43.5756335  65.5567868  64.5254397  33.7176620  59.4961746
  64.2379193  33.3477890  58.7593694  65.2124865  34.1871475  59.2345451
  64.5843294  33.7323589  59.3476822  73.7330218  45.4066270  59.4127360
  73.4916894  44.6734131  59.0054425  73.9131551  45.9553127  58.7593694
  73.7237842  45.3788661  59.2557583  68.9629538  40.6974830  60.8248283
  68.7672321  41.3049564  60.2308586  69.1863884  40.0042774  60.3439957
  68.9664179  40.6852355  60.6664363  67.3608068  37.5829568  60.9429151
  68.0830720  37.7470726  60.4832957  66.8816061  38.3039233  60.8368491
  67.3971799  37.7127797  60.8594765  75.3201576  33.9193367  66.3225836
  74.4812677  33.9454646  66.0864099  75.3905943  34.5664102  66.9031183
  75.2069969  34.0189492  66.3734953  65.0115685  39.9887640  70.0483291
  65.5236782  40.2671894  69.3992051  64.7252028  40.7276934  70.4146104
  65.0450548  40.1389994  70.0073169  73.7670854  30.8178744  61.0553452
  74.4697207  30.6186492  60.5773410  73.5015043  30.0454686  61.3622295
  73.8317487  30.6741710  61.0298893  62.0982591  34.4957832  60.3447027
  62.1998728  35.2983994  60.6728003  62.8938478  34.2945168  60.0470108
  62.2310497  34.5843731  60.3482383  68.5299410  32.0814029  70.1084332
  68.3382607  32.0969163  70.9583756  69.3798006  32.2777703  70.0850987
  68.6275132  32.1128380  70.2307627  62.9146323  34.6105010  68.0868149
  62.7731815  33.7588951  68.2112657  63.1986887  34.6533671  67.2630355
  62.9354170  34.4904760  67.9835773  73.0684916  36.4472101  62.2312637
  72.8219630  36.3667851  63.0649426  73.3970039  35.6625568  62.0375165
  73.0806159  36.3198366  62.3260160  71.2001860  38.3818987  69.4260752
  70.4525175  38.5750002  69.0209030  71.3543386  37.5564207  69.1884873
  71.1124288  38.2884099  69.3306158  63.6836629  32.5235358  71.4045599
  63.1478818  31.9115716  71.7206367  63.7454393  33.0983494  72.0579266
  63.6132261  32.5182286  71.5481026  71.2833246  46.0647233  60.6204744
  72.0483137  45.7956876  60.2987408  71.1811336  45.5797243  61.3374807
  71.3814741  45.9536797  60.6784571  69.3186015  34.2671642  67.1597980
  68.5282090  34.0863102  67.4815315  69.7146638  33.4898595  67.1428274
  69.2602892  34.1259103  67.2050528  73.8051906  43.0959416  52.6004693
  74.5724891  43.1559541  52.1910545  73.3583215  42.5239858  52.1161012
  73.8525333  43.0195992  52.4682404  74.7029702  41.9014072  64.8857426
  74.0274704  41.6699305  65.3870813  74.7122078  41.2935255  64.2599531
  74.6048206  41.7772997  64.8673578  71.8323846  36.7431901  71.6421479
  71.7682987  37.6041858  71.5141615  71.9721033  36.4263894  70.8417030
  71.8439316  36.8232068  71.5049691  70.5142940  39.4364041  65.7837681
  70.0905189  39.6368540  65.0476700  70.3387795  38.5892889  65.8961981
  70.4253820  39.3412822  65.6911372  65.8025385  39.9316092  61.2165654
  65.9590004  39.8662895  62.0721646  66.1425978  40.7064645  61.0044334
  65.8758619  40.0365290  61.3120248  72.3404529  39.3073976  60.0859017
  72.8820075  38.8044357  60.5497638  72.6551088  39.2539170  59.2748502
  72.4668926  39.2253397  60.0342829  70.5090979  44.6991327  57.3699045
  70.5783799  43.8405866  57.5092046  71.2879434  44.9163208  57.0418070
  70.6343829  44.6044191  57.3416203  74.8998466  47.1229028  61.5835539
  74.5078258  46.8195744  60.8658405  75.0551539  47.9598118  61.3940492
  74.8652056  47.2012865  61.4492036  62.3759646  37.1151042  61.5326421
  62.7558611  37.5335587  60.8686688  61.8015011  37.6964498  61.8395264
  62.3470971  37.2628901  61.4803162  75.0638141  43.6879017  61.5241569
  74.7052796  43.8593660  62.3005602  74.5776852  44.1492223  60.9669568
  74.9396838  43.7817988  61.5566838  72.8808527  27.3110216  65.1268660
  72.0102085  27.2848937  65.0801970  73.1348868  27.1387408  64.3094506
  72.7902087  27.2820359  64.9988797  69.8526507  39.3678183  54.0641803
  70.1419031  40.1443065  54.3385378  69.9398305  38.8566914  54.7656303
  69.9080763  39.4070101  54.2084301  69.9057668  29.3216444  66.5842131
  69.3896156  28.6296636  66.7093710  69.3451597  29.9887221  66.5304730
  69.7464181  29.3179702  66.5948197  66.0190448  38.6811447  66.1641916
  65.1778454  38.5815321  66.3720809  66.2280456  39.4506928  66.5156236
  65.9255140  38.7803491  66.2469230  63.4966015  36.3030984  63.9926666
  63.1022712  36.3773996  63.2176776  62.9406131  36.6888931  64.5435028
  63.3568827  36.3712759  63.9594326  75.1330961  29.2812278  63.6730545
  75.3380555  29.2134586  64.5187542  74.8057385  30.0871099  63.6051723
  75.1146209  29.3898219  63.7890200  69.8307112  36.6092846  65.4139513
  69.5270250  36.0548835  66.0149921  69.1286533  36.7885056  64.9267547
  69.6823322  36.5537629  65.4309219  68.8873210  33.9193366  59.9784215
  69.1632944  33.2012279  59.5661782  69.4871879  34.5178286  59.7705321
  69.0166474  33.9013737  59.8864976  72.3883730  31.5906884  58.2530810
  72.8427477  31.7617444  58.9778654  72.8623776  30.9774994  57.8528586
  72.5252050  31.5257769  58.3004572  65.9099255  41.0755210  67.5833548
  65.3187189  41.7164708  67.5536564  66.6720279  41.4992827  67.5564848
  65.9347516  41.2331048  67.5748696  66.3059878  32.2357207  68.2501566
  66.7661360  32.3096137  68.9876690  66.3515985  33.0338461  67.9001387
  66.3810434  32.3651354  68.3074323  69.7296750  38.2949418  59.3575817
  70.4738795  38.6823694  59.5958767  69.8757446  37.4506843  59.5216305
  69.8607335  38.2279891  59.4169787  71.6476326  30.0899677  64.3907679
  70.8012371  30.2622485  64.2649028  71.6447458  29.2849021  64.7273507
  71.5223475  29.9960706  64.4218806  72.7174626  33.8674891  65.2569737
  72.2434580  33.3416653  65.7675047  73.0892762  33.3204364  64.6884598
  72.7024515  33.7090888  65.2484884  63.0947656  35.8646398  70.6253282
  63.9573269  35.7642107  70.5390612  62.7639439  35.2841107  70.0638854
  63.1732852  35.7638025  70.5298688  74.6458126  34.7611446  58.3195490
  74.1181144  34.8440190  57.6301199  75.1053834  35.5029317  58.3160135
  74.6359976  34.8832108  58.2170185  66.4549442  34.6888847  67.2863700
  65.8302512  34.7007239  66.6789653  66.1195037  35.1649022  67.9354941
  66.3134934  34.7607364  67.2920269  66.6391191  33.0313965  53.3436385
  66.2903995  33.6833691  53.8067935  66.1587637  33.0171078  52.6160257
  66.5161435  33.1257019  53.3047477  63.1675118  42.7489307  68.7267465
  62.6375042  42.0581746  68.7762440  63.4400211  42.7399492  67.8980173
  63.1299840  42.6456439  68.6114881  74.1995208  43.3315009  57.4505147
  74.9229407  43.7973122  57.3069721  73.7595799  43.3988619  56.7002744
  74.2410900  43.4098846  57.3189929  73.3681363  40.1912552  68.7005836
  72.7538356  39.6470602  68.9954472  73.8848648  39.6776788  68.2211652
  73.3537026  40.0348961  68.6730065  72.6077660  41.2616822  66.4350135
  72.1805268  40.6366540  66.0015570  72.6002605  40.9791744  67.2609142
  72.5436801  41.1269602  66.4929963  65.7240187  36.2981995  69.5038569
  65.8833674  35.5425319  69.9090291  65.5433081  36.8472934  70.1579307
  65.7205546  36.2675809  69.6601275  70.9363370  32.1385576  66.6492669
  70.9605857  31.6045689  65.9605449  71.1874844  31.6302885  67.3118260
  70.9773289  31.9846480  66.6457314  58.4470960  39.4217071  66.0835813
  58.3414409  39.3763916  65.2187897  57.6971180  39.7670852  66.3650098
  58.3206563  39.4657979  65.9973143  67.2164692  30.8656394  66.0298413
  67.2563064  31.3665601  66.7433121  66.3914357  30.9566788  65.7604336
  67.1004218  30.9538211  66.0948952  68.6379056  37.3816904  68.3272312
  67.8070985  37.5490722  68.1207560  68.5830573  37.0052855  69.1121198
  68.5068470  37.3506636  68.4120840  67.0115099  35.6572496  58.8562430
  67.1518061  36.1544960  59.5591071  67.5097632  34.9558790  58.9976644
  67.1056180  35.6274475  58.9814009  67.0415322  36.5239607  56.1855007
  67.6760401  37.1200032  56.1204469  67.1240933  36.2243064  57.0000877
  67.1471873  36.5680515  56.2958093  68.6194305  32.4553582  56.1600449
  68.9410146  31.9756665  55.5059711  68.8821248  33.2653228  55.9691260
  68.7060330  32.5043480  56.0355941  63.5468310  38.7207448  59.4544553
  64.0560539  39.3171955  59.8355858  64.0202582  38.4533421  58.7720972
  63.6911685  38.7693263  59.4099076  74.4599058  47.3935714  57.6103208
  73.7428367  47.2196577  57.1450446  75.1105795  47.1588287  57.0778694
  74.4500908  47.3331507  57.4632426  72.4547683  28.3140876  61.9314505
  71.8116000  28.1638522  62.4999643  72.1147090  28.0683221  61.1663610
  72.3092760  28.2552999  61.9017520  65.9058841  35.3563706  62.3217733
  65.1870831  35.7727839  62.5890597  66.2771204  35.9217945  61.7709371
  65.8550773  35.5012988  62.2800540  69.7412220  48.6297473  64.0393356
  69.3272618  47.9671603  63.6497198  70.4259594  48.7775332  63.5189051
  69.7810591  48.5538131  63.9049854  71.6805416  34.3961706  57.6591113
  71.0870255  34.7178703  57.1075680  71.7180694  33.5502801  57.4512219
  71.5979805  34.3186034  57.5473884  74.5563232  34.3541211  61.0892863
  74.3276925  34.3773912  60.2471221  74.8161309  33.5298678  61.2087874
  74.5609420  34.2357291  60.9818061  68.8382461  36.2075684  70.6917963
  68.3261364  35.5996867  71.0502995  68.6661957  36.9232276  71.1591939
  68.7372098  36.2238983  70.8134187  63.6848176  34.6513259  73.3420325
  63.5150766  35.3114634  72.7968532  63.2414125  34.8619820  74.0632814
  63.5947509  34.7799241  73.3681954  67.6107995  32.8917757  62.3847059
  68.0865361  33.2534837  61.7497240  67.1096595  33.5474224  62.6647201
  67.6073354  33.0411946  62.3323800  60.5850240  37.5560125  68.6008815
  60.0376959  36.8860770  68.7189683  61.3742618  37.1889972  68.6652282
  60.6202424  37.4025111  68.6277515  69.6534648  35.0358957  55.7520443
  70.0333613  35.0538586  54.9671557  68.9127244  35.4812946  55.6311290
  69.6003486  35.1040731  55.6184011  59.3437210  36.7680932  65.7554838
  59.1658971  36.3157541  66.4809753  59.0556232  37.5707094  65.9393315
  59.2750163  36.8203490  65.8898341  75.0060791  38.0238650  64.9932228
  75.5014456  37.3061645  64.9536248  74.1960566  37.7209447  64.8786715
  74.9604684  37.8736296  64.9705954  70.4519402  41.8736463  57.1429233
  69.6430725  41.5503136  57.0962542  70.9594311  41.1669685  57.0757481
  70.4069069  41.7217779  57.1259527  61.0809679  39.3008656  62.8676597
  60.2155199  39.2894347  62.7559368  61.1808495  39.1138879  63.7147736
  60.9683846  39.2714717  62.9765541  73.6591209  44.4876601  64.0110514
  74.1302387  45.2016864  64.1800500  73.9951387  43.8875352  64.5470384
  73.7786324  44.5048066  64.1142890  69.6453819  31.2620485  58.4348074
  70.4669513  31.4318798  58.1929769  69.1823470  31.4167746  57.7114372
  69.6984981  31.3102218  58.2919718  68.2349151  29.2563247  69.2146503
  68.7793564  28.9154374  69.8050845  68.2886086  30.1148709  69.3567788
  68.3238270  29.3318506  69.3228376  64.0479709  43.0179663  66.0885311
  64.6524567  42.9775497  65.4599132  63.8407022  43.8650815  66.1189367
  64.1068607  43.1367666  66.0001427  59.2830992  42.0014281  65.9584234
  59.1855270  41.1910552  66.2674291  60.0659861  41.9806074  65.5730502
  59.3847128  41.8781371  65.9471097  68.3153060  52.3401045  62.2164143
  68.4013311  51.9632914  62.9977673  68.9428857  51.9661491  61.7384102
  68.4209611  52.2286527  62.2609621  75.4986980  49.2361928  59.4961746
  75.2111776  48.8663198  58.7593694  76.1857449  49.7056783  59.2345451
  75.5575878  49.2508897  59.3476822  73.0715175  50.0143140  60.3447027
  73.1731311  50.8169301  60.6728003  73.8671062  49.8130476  60.0470108
  73.2043081  50.1029039  60.3482383  73.3492230  52.6336350  61.5326421
  73.7291194  53.0520895  60.8686688  72.7747594  53.2149806  61.8395264
  73.3203555  52.7814209  61.4803162  74.5200893  54.2392756  59.4544553
  75.0293123  54.8357263  59.8355858  74.9935166  53.9718729  58.7720972
  74.6644269  54.2878571  59.4099076  55.6663613   7.4656344  47.7220633
  54.9146513   7.0871883  47.4936678  56.1149625   7.4974778  46.9739444
  55.6213280   7.4141951  47.5778136  61.1188573   7.8881714  43.1506180
  60.7839942   8.5658635  42.7150403  61.6315444   7.4987025  42.5623052
  61.1454154   7.9306292  42.9992972  60.6592864   9.8395982  49.0917292
  61.0432244  10.4082881  48.5522067  60.5952006   9.1145493  48.6123108
  60.7066292   9.8171446  48.9411155  57.2448369   7.4774736  49.9883406
  57.3458732   6.6675090  50.2980534  56.6490115   7.3831683  49.3583084
  57.1720908   7.3439764  49.9409644  57.0849109  12.3952326  51.3898262
  57.7286565  12.8365490  51.7794420  57.4105365  11.5905752  51.3028521
  57.2280938  12.3417520  51.4343739  50.4413414   3.4995023  49.6135740
  50.2063598   2.6662675  49.5068008  50.5799054   3.7799689  48.7996941
  50.4269076   3.4178526  49.4778095  52.0030738   8.3780694  50.8891946
  51.5198317   9.1031183  50.8651529  52.8154057   8.6756824  51.0002103
  52.0521486   8.5283047  50.9019225  58.0744892   7.1712874  53.4941760
  57.5571834   6.8120289  52.8903068  58.7719284   6.6475049  53.5047826
  58.1010474   7.0410562  53.4072019  61.7308484   7.6207688  59.4557933
  61.8191830   7.4333829  60.3036144  62.1598197   6.9745118  59.0562780
  61.8070587   7.4970696  59.5229685  59.2978944   6.9038848  58.4375595
  58.7349779   6.4911458  58.9615257  60.0599968   6.8291754  58.8568739
  59.3273393   6.8316249  58.5768596  54.8574936   8.8936870  51.0412226
  55.5595515   8.3788859  51.0984982  54.7772419   9.2211021  51.8459101
  54.9498696   8.8651096  51.1685018  54.1825711   5.0843222  50.5497834
  55.0214611   5.3166154  50.5971595  54.2137480   4.2147533  50.4804869
  54.3107429   4.9900168  50.5462478  54.8078414   5.5044097  54.8511139
  55.3476639   5.3615228  55.5214511  54.1248360   5.9040848  55.2195165
  54.7870568   5.5423768  55.0045561  61.9998937   8.9626810  55.7668172
  61.2014183   8.7226310  56.0242041  62.4484949   9.0141202  56.5135220
  61.9473548   8.9349201  55.9153097  51.6514675   7.0100294  53.2035551
  51.6918820   7.2815145  52.3755330  52.2109199   7.5342202  53.6193339
  51.7398021   7.1276049  53.1427439  53.1029261   5.5942243  48.0289477
  52.2767379   5.8403980  47.9023755  53.1641253   5.5154323  48.8951535
  52.9903428   5.6187192  48.1378421  57.8828090   8.2119123  45.7308507
  58.1726389   7.8208104  45.0067733  58.6131571   8.3935828  46.1713782
  58.0334975   8.1812937  45.6891314  55.8234006  10.1886505  48.7968656
  55.6034301   9.8983860  49.5895323  55.6028528   9.5301460  48.2686569
  55.7581600  10.0486214  48.8357565  57.9901962  11.5615895  47.5799349
  58.6426020  11.0292337  47.8090375  57.2927570  11.2084547  47.9667223
  57.9832680  11.4305418  47.6711516  56.8227938   8.7924414  55.4436694
  56.9717502   8.2327330  54.7910098  57.6027941   8.8716416  55.8269213
  56.9602032   8.7209980  55.4033643  59.3481239   8.9639057  56.7221185
  59.2724910   8.2947868  57.2771973  59.2771098   9.6656845  57.2361851
  59.3261846   8.9683964  56.8798033  60.0051486   7.4840056  47.5544791
  60.7701377   7.2149700  47.2327455  59.9029576   6.9990066  48.2714854
  60.1032981   7.3729621  47.6124618  58.7372873  12.3707377  55.1799186
  59.2268804  11.6718166  54.9974850  58.1657106  12.0731247  55.7675243
  58.7257403  12.2233600  55.2400226  63.6216707   8.5421852  48.5175585
  63.2296499   8.2388567  47.7998452  63.7769779   9.3790942  48.3280539
  63.5870297   8.6205688  48.3832082  56.6143704   5.2435390  57.0551658
  56.5064059   5.2537452  57.9213716  56.8239485   6.0690171  56.8656611
  56.6293815   5.3676465  57.1555749  64.3907012   7.9457344  51.9505620
  64.1926701   8.4348159  51.2561831  63.7694723   8.1498586  52.5289753
  64.2694577   8.0473883  51.9328843  51.8893358   4.1682130  55.6607512
  51.3593282   3.4774569  55.7102486  52.1618451   4.1592316  54.8320220
  51.8518080   4.0649262  55.5454928  63.1817298   8.8128538  44.5443255
  62.4646608   8.6389400  44.0790493  63.8324036   8.5781110  44.0118741
  63.1719149   8.7524330  44.3972473  59.8152003   9.8289838  53.5196319
  59.5917658   9.0708667  53.8880345  59.3261846   9.8587859  52.7976758
  59.7095452   9.7212063  53.4673060  58.4630460  10.0490296  50.9733403
  58.0490859   9.3864426  50.5837245  59.1477834  10.1968155  50.4529097
  58.5028832   9.9730954  50.8389900  61.8295754   9.2080381  51.7257020
  61.4312037   9.3182652  50.9577840  61.2146974   9.4162448  52.3083580
  61.6794643   9.2553950  51.6988319  55.4284930  10.4899378  53.3746749
  55.7431489  11.3035766  53.3824531  55.8378343  10.1049597  54.0428908
  55.5353028  10.5528080  53.4750841  52.7697950   4.4372486  53.0225358
  53.3742807   4.3968321  52.3939178  52.5625262   5.2843638  53.0529413
  52.8286847   4.5560489  52.9341474  48.0049232   3.4207104  52.8924281
  47.9073510   2.6103375  53.2014337  48.7878102   3.3998897  52.5070549
  48.1065369   3.2974194  52.8811144  72.2555057  13.4478934  51.9583402
  71.3992953  13.6087433  52.0092519  72.3022711  12.5770998  51.9788463
  72.1354169  13.3429736  51.9689468  66.6396197  22.9841652  47.7220633
  65.8879096  22.6057190  47.4936678  67.0882209  23.0160086  46.9739444
  66.5945864  22.9327259  47.5778136  72.0921157  23.4067022  43.1506180
  71.7572525  24.0843943  42.7150403  72.6048027  23.0172333  42.5623052
  72.1186738  23.4491600  42.9992972  71.6325448  25.3581290  49.0917292
  72.0164827  25.9268189  48.5522067  71.5684589  24.6330801  48.6123108
  71.6798875  25.3356754  48.9411155  75.1006878  15.5070978  54.6015053
  75.6462838  16.1856065  54.6609023  75.0423754  15.3658439  53.7416635
  75.1722793  15.5862980  54.4827114  68.2180953  22.9960044  49.9883406
  68.3191316  22.1860398  50.2980534  67.6222698  22.9016991  49.3583084
  68.1453492  22.8625072  49.9409644  68.0581693  27.9137633  51.3898262
  68.7019148  28.3550797  51.7794420  68.3837948  27.1091060  51.3028521
  68.2013521  27.8602828  51.4343739  61.4145997  19.0180331  49.6135740
  61.1796182  18.1847983  49.5068008  61.5531638  19.2984997  48.7996941
  61.4001660  18.9363834  49.4778095  63.7136085  11.1866061  52.5120047
  63.0941116  10.5958709  52.3430062  63.6119948  11.7777497  51.8784370
  63.6073760  11.1870144  52.3925037  68.7602272  20.9249608  46.7618124
  69.0818113  21.4654816  46.1579432  69.4074369  20.3546380  46.8940413
  68.9028328  20.9208783  46.6925159  70.8103980  12.9265603  46.8452510
  71.5084145  13.1053731  47.3373974  71.1256313  12.4035943  46.2222900
  70.9599318  12.8759375  46.8254520  63.4405218  14.7318343  54.7563616
  63.3163915  15.3180789  55.3913435  64.0923502  14.2378539  55.0575891
  63.5178867  14.7457148  54.8949546  70.9991916  19.3136048  46.8332302
  71.4385551  18.7053149  47.2787075  70.8496579  18.9343422  46.0617767
  71.0413381  19.1674519  46.7851469  68.4663559  17.9080060  54.0351127
  69.1112561  17.4152503  53.7162076  68.7065336  18.0504847  54.8617206
  68.5974144  17.8557502  54.1100661  71.0049650  20.7534966  53.6858020
  71.2872893  19.9586372  53.4644776  71.7335811  21.2315553  53.7063081
  71.1539214  20.7069563  53.6561035  74.6001252  17.6663230  43.7863071
  74.5152547  18.5224196  43.9312640  75.0885636  17.3907554  44.4545230
  74.6590150  17.7520551  43.9065153  75.5319686  14.2848024  45.2860806
  75.0031157  14.5007657  45.9458112  76.0544706  14.9784162  45.2061776
  75.5308139  14.4191161  45.3716405  67.4219293  18.1811241  44.0868274
  66.8376509  18.6861272  44.4934138  67.0189389  17.9553627  43.3464866
  67.2758597  18.2219489  44.0373299  62.9763322  23.8966002  50.8891946
  62.4930900  24.6216491  50.8651529  63.7886640  24.1942132  51.0002103
  63.0254070  24.0468355  50.9019225  69.0477476  22.6898182  53.4941760
  68.5304418  22.3305597  52.8903068  69.7451867  22.1660357  53.5047826
  69.0743057  22.5595870  53.4072019  72.7041068  23.1392996  59.4557933
  72.7924414  22.9519137  60.3036144  73.1330781  22.4930426  59.0562780
  72.7803170  23.0156004  59.5229685  70.2711528  22.4224156  58.4375595
  69.7082363  22.0096766  58.9615257  71.0332551  22.3477062  58.8568739
  70.3005976  22.3501557  58.5768596  71.8796508  14.4276893  42.5637195
  72.1192511  14.6354876  41.7512538  72.2012349  13.6234401  42.6726139
  71.9633666  14.3390994  42.4597748  65.8307519  24.4122178  51.0412226
  66.5328099  23.8974167  51.0984982  65.7505002  24.7396329  51.8459101
  65.9231280  24.3836404  51.1685018  66.8786426  14.6497764  60.1692641
  67.0506930  14.5403659  61.0177922  67.4155783  15.2952170  59.9323833
  66.9831430  14.7289766  60.2597737  65.5443863   8.7640607  43.1074846
  65.3619436   8.9812488  42.2815838  66.4069476   8.8779620  43.1633460
  65.6448452   8.8130505  42.9929333  65.1558295  20.6028530  50.5497834
  65.9947194  20.8351462  50.5971595  65.1870064  19.7332841  50.4804869
  65.2840012  20.5085476  50.5462478  65.7810998  21.0229405  54.8511139
  66.3209223  20.8800536  55.5214511  65.0980944  21.4226156  55.2195165
  65.7603152  21.0609076  55.0045561  75.2051883  16.7020405  50.0456163
  75.9609398  17.1351920  50.0845072  75.3114207  16.0525175  50.6190800
  75.3322053  16.6697889  50.1354189  61.1848143  17.2429696  55.0045561
  60.9186558  16.4268812  55.1636551  61.1986707  17.2882851  54.1341076
  61.1472865  17.1286600  54.8999043  65.0905890  12.0414780  41.6197319
  64.3764067  11.7552959  42.0319751  65.5749858  12.3811406  42.2603706
  65.0565253  12.0496430  41.7752954  65.9346749  10.7808074  57.6512568
  65.2418546  10.3105054  57.8973300  66.5507076  10.5546378  58.2254275
  65.9231279  10.6775206  57.7721721  72.9731521  24.4812117  55.7668172
  72.1746766  24.2411618  56.0242041  73.4217532  24.5326510  56.5135220
  72.9206132  24.4534509  55.9153097  72.2653208  20.5444734  41.9959127
  72.6804356  20.2129758  41.3043623  71.4345137  20.3113636  41.8679264
  72.2041216  20.4615990  41.8749974  61.5941556  18.0288475  52.2857305
  61.4117130  18.0035361  51.4329597  62.3291225  18.4987413  52.3246214
  61.6755620  18.0949837  52.1655223  64.6587308  14.7473478  58.7939414
  65.3827280  14.7326508  59.2804308  64.7603445  15.4568833  58.2961382
  64.7805517  14.8498181  58.7918200  74.7063576  14.9506554  47.9483376
  74.8010431  15.6895848  48.4023002  74.0822420  14.5224029  48.3817941
  74.6272607  14.9967874  48.0791524  72.9616050  18.1292766  58.5973657
  73.5354912  17.4920010  58.7522221  72.8830854  18.1296849  57.7283315
  73.0349285  18.0357878  58.4920068  61.5612467  14.9081976  52.4356371
  62.1385969  14.7718426  53.0748617  60.8626528  14.4517760  52.6901956
  61.5433488  14.8204242  52.5678661  74.9586598  16.7955293  41.1820328
  74.8766760  16.8657480  42.0475315  75.5966318  17.3585037  40.9904069
  75.0406435  16.8894264  41.2810278  68.3179769  16.5616031  50.6494855
  68.0599013  15.7287766  50.6226154  68.3728252  16.7873644  49.8087355
  68.2879547  16.4713803  50.5214991  67.2914481  14.1153794  51.1359749
  66.7164072  14.2745962  51.7723710  66.9150157  13.4789203  50.6728200
  67.1517293  14.0451607  51.1614308  70.9587770  12.5877143  55.9952128
  70.5702202  12.1631361  55.3404319  70.2942468  12.8359293  56.5029155
  70.8034698  12.5615864  55.9739996  57.0371300  13.7593869  49.1504190
  57.1231552  13.3825737  49.9317720  57.6647097  13.3854314  48.6724148
  57.1427851  13.6479351  49.1949667  72.0626708  16.8175748  44.1928935
  72.8767347  17.1090640  44.0811706  71.9985849  16.1635610  43.6187228
  72.1729447  16.7640942  44.0917772  67.9334616  20.2897265  49.3201247
  68.5708563  20.0509013  49.8653040  68.3589688  20.4934424  48.5854408
  68.0910782  20.2848275  49.2918404  62.6247259  22.5285602  53.2035551
  62.6651404  22.8000453  52.3755330  63.1841783  23.0527510  53.6193339
  62.7130605  22.6461357  53.1427439  68.5737431  15.5099555  43.6576136
  68.9582584  15.2907262  44.4092681  68.3249052  16.3362500  43.7877213
  68.5939504  15.5997701  43.7877213  70.3156088  20.7669688  50.9995033
  70.3895096  20.6044860  51.8536883  71.1325595  20.9559877  50.7555515
  70.4472447  20.7706430  51.0893059  64.0761845  21.1127551  48.0289477
  63.2499963  21.3589288  47.9023755  64.1373836  21.0339631  48.8951535
  63.9636012  21.1372499  48.1378421  68.8560674  23.7304431  45.7308507
  69.1458972  23.3393412  45.0067733  69.5864155  23.9121136  46.1713782
  69.0067558  23.6998245  45.6891314  69.4455419  18.5322177  56.8161637
  68.9467113  19.2437944  56.8946526  70.2555643  18.8522843  56.7779799
  69.4911526  18.6849025  56.8218206  66.7966590  25.7071813  48.7968656
  66.5766885  25.4169168  49.5895323  66.5761112  25.0486768  48.2686569
  66.7314184  25.5671522  48.8357565  65.7083537  17.7945130  51.0624358
  65.4196785  17.1682601  51.5970085  66.5766885  17.7365417  51.1289038
  65.7943789  17.6932674  51.1515313  68.9634545  27.0801203  47.5799349
  69.6158603  26.5477645  47.8090375  68.2660154  26.7269855  47.9667223
  68.9565263  26.9490726  47.6711516  65.9115810  19.4340381  46.9866723
  66.6661778  19.8153420  47.2002186  65.3186423  19.8851524  47.4413420
  65.9352524  19.5569208  47.0849601  67.2314037  20.6048942  52.3606838
  66.7094790  20.7449234  53.0458703  67.6188057  19.8459606  52.5508956
  67.2117738  20.5134466  52.4907915  64.2205221  10.6554751  46.4301793
  63.9330016  10.2856021  45.6933740  64.9075689  11.1249606  46.1685498
  64.2794118  10.6701720  46.2816869  73.4281042  22.3444401  46.3467407
  73.1867718  21.6112262  45.9394472  73.6082375  22.8931258  45.6933741
  73.4188666  22.3166792  46.1897630  68.6580362  17.6352961  47.7588329
  68.4623145  18.2427696  47.1648632  68.8814708  16.9420905  47.2780003
  68.6615003  17.6230487  47.6004410  67.0558892  14.5207699  47.8769198
  67.7781544  14.6848857  47.4173004  66.5766885  15.2417364  47.7708538
  67.0922623  14.6505929  47.7934812  64.7066509  16.9265771  56.9823338
  65.2187606  17.2050025  56.3332097  64.4202852  17.6655065  57.3486151
  64.7401372  17.0768125  56.9413216  61.7933415  11.4335963  47.2787074
  61.8949552  12.2362125  47.6068050  62.5889302  11.2323299  46.9810155
  61.9261321  11.5221862  47.2822430  68.2250234   9.0192160  57.0424379
  68.0333431   9.0347294  57.8923803  69.0748830   9.2155834  57.0191034
  68.3225956   9.0506511  57.1647674  62.6097147  11.5483141  55.0208196
  62.4682639  10.6967082  55.1452704  62.8937711  11.5911802  54.1970402
  62.6304993  11.4282892  54.9175820  72.7635740  13.3850232  49.1652684
  72.5170454  13.3045983  49.9989473  73.0920863  12.6003700  48.9715212
  72.7756983  13.2576497  49.2600207  68.7232767  16.1206950  58.5775667
  68.8676143  16.7008158  57.9418777  69.0708416  16.4983247  59.2825522
  68.7960228  16.2627654  58.5874662  70.8952684  15.3197119  56.3600799
  70.1475998  15.5128133  55.9549077  71.0494210  14.4942338  56.1224920
  70.8075112  15.2262230  56.2646205  67.7960522  24.3109722  55.4436694
  67.9450086  23.7512638  54.7910098  68.5760524  24.3901724  55.8269213
  67.9334616  24.2395288  55.4033643  70.3213823  24.4824365  56.7221185
  70.2457494  23.8133176  57.2771973  70.2503682  25.1842153  57.2361851
  70.2994430  24.4869272  56.8798033  63.3787453   9.4613489  58.3385646
  62.8429642   8.8493847  58.6546413  63.4405217  10.0361625  58.9919313
  63.3083085   9.4560417  58.4821073  70.9784070  23.0025364  47.5544791
  71.7433961  22.7335008  47.2327455  70.8762160  22.5175374  48.2714854
  71.0765565  22.8914928  47.6124618  69.0136839  11.2049773  54.0938026
  68.2232914  11.0241233  54.4155362  69.4097462  10.4276726  54.0768321
  68.9553716  11.0637234  54.1390575  73.5002730  20.0337548  39.5344740
  74.2675715  20.0937673  39.1250592  73.0534039  19.4617989  39.0501059
  73.5476157  19.9574123  39.4022450  74.3980526  18.8392203  51.8197472
  73.7225527  18.6077436  52.3210859  74.4072902  18.2313386  51.1939577
  74.2999030  18.7151129  51.8013625  71.5274670  13.6810032  58.5761525
  71.4633811  14.5419989  58.4481662  71.6671857  13.3642026  57.7757077
  71.5390140  13.7610199  58.4389738  70.2093764  16.3742172  52.7177728
  69.7856013  16.5746671  51.9816747  70.0338619  15.5271020  52.8302028
  70.1204644  16.2790953  52.6251418  69.7105457  27.8892685  55.1799186
  70.2001387  27.1903474  54.9974850  69.1389689  27.5916555  55.7675243
  69.6989987  27.7418908  55.2400226  65.4976209  16.8694223  48.1505701
  65.6540828  16.8041026  49.0061693  65.8376802  17.6442776  47.9384380
  65.5709443  16.9743421  48.2460295  72.0355353  16.2452107  47.0199064
  72.5770899  15.7422488  47.4837685  72.3501912  16.1917301  46.2088549
  72.1619750  16.1631528  46.9682876  70.2041803  21.6369458  44.3039092
  70.2734623  20.7783997  44.4432092  70.9830258  21.8541339  43.9758117
  70.3294653  21.5422322  44.2756249  74.5949290  24.0607160  48.5175585
  74.2029082  23.7573875  47.7998452  74.7502363  24.8976250  48.3280539
  74.5602880  24.1390996  48.3832082  62.0710470  14.0529174  48.4666468
  62.4509435  14.4713719  47.8026735  61.4965835  14.6342629  48.7735311
  62.0421795  14.2007032  48.4143209  74.7588965  20.6257148  48.4581616
  74.4003620  20.7971791  49.2345648  74.2727676  21.0870354  47.9009614
  74.6347662  20.7196120  48.4906885  69.5477331  16.3056314  40.9981850
  69.8369855  17.0821196  41.2725425  69.6349129  15.7945045  41.6996350
  69.6031587  16.3448232  41.1424348  65.7141272  15.6189578  53.0981962
  64.8729278  15.5193453  53.3060856  65.9231279  16.3885059  53.4496283
  65.6205964  15.7181622  53.1809277  63.1916838  13.2409115  50.9266713
  62.7973536  13.3152127  50.1516823  62.6356955  13.6267062  51.4775075
  63.0519651  13.3090890  50.8934373  69.5257936  13.5470978  52.3479560
  69.2221074  12.9926966  52.9489968  68.8237357  13.7263188  51.8607594
  69.3774146  13.4915760  52.3649266  68.5824034  10.8571497  46.9124262
  68.8583768  10.1390410  46.5001829  69.1822703  11.4556417  46.7045368
  68.7117298  10.8391868  46.8205023  67.5876287  20.7620698  57.0551658
  67.4796642  20.7722760  57.9213716  67.7972069  21.5875479  56.8656611
  67.6026398  20.8861773  57.1555749  65.6050079  18.0133341  54.5173595
  65.0138013  18.6542839  54.4876610  66.3671103  18.4370958  54.4904895
  65.6298340  18.1709179  54.5088742  66.0010702   9.1735338  55.1841613
  66.4612184   9.2474268  55.9216737  66.0466809   9.9716592  54.8341434
  66.0761258   9.3029486  55.2414369  75.3639596  23.4642652  51.9505620
  75.1659284  23.9533467  51.2561831  74.7427307  23.6683894  52.5289753
  75.2427160  23.5659191  51.9328843  69.4247574  15.2327549  46.2915864
  70.1689619  15.6201825  46.5298814  69.5708270  14.3884974  46.4556352
  69.5558159  15.1658022  46.3509834  62.7898480  12.8024529  57.5593329
  63.6524093  12.7020238  57.4730659  62.4590263  12.2219238  56.9978901
  62.8683676  12.7016156  57.4638735  74.3408950  11.6989577  45.2535537
  73.8131968  11.7818321  44.5641246  74.8004658  12.4407448  45.2500182
  74.3310800  11.8210239  45.1510232  66.1500266  11.6266978  54.2203747
  65.5253336  11.6385370  53.6129700  65.8145861  12.1027153  54.8694987
  66.0085758  11.6985495  54.2260316  66.3342015   9.9692097  40.2776432
  65.9854819  10.6211822  40.7407982  65.8538460   9.9549210  39.5500303
  66.2112259  10.0635150  40.2387524  73.8946032  20.2693141  44.3845194
  74.6180231  20.7351254  44.2409767  73.4546623  20.3366750  43.6342791
  73.9361724  20.3476977  44.2529976  73.0632187  17.1290683  55.6345883
  72.4489180  16.5848733  55.9294518  73.5799472  16.6154919  55.1551699
  73.0487850  16.9727092  55.6070112  72.3028484  18.1994953  53.3690182
  71.8756092  17.5744672  52.9355617  72.2953429  17.9169875  54.1949189
  72.2387625  18.0647734  53.4270009  65.4191011  13.2360126  56.4378616
  65.5784498  12.4803450  56.8430338  65.2383905  13.7851065  57.0919353
  65.4156370  13.2053940  56.5941322  58.1421784  16.3595202  53.0175860
  58.0365233  16.3142047  52.1527944  57.3922004  16.7048983  53.2990145
  58.0157387  16.4036111  52.9313190  69.0945129  17.3695266  61.0658755
  68.2440760  17.5066980  61.2016400  69.2573257  16.6359044  61.5106456
  68.9928993  17.2809367  61.1514354  68.3329880  14.3195035  55.2612359
  67.5021809  14.4868853  55.0547607  68.2781397  13.9430986  56.0461244
  68.2019294  14.2884767  55.3460887  66.7065923  12.5950627  45.7902477
  66.8468884  13.0923091  46.4931118  67.2048456  11.8936921  45.9316690
  66.8007004  12.5652606  45.9154056  66.7366146  13.4617738  43.1195054
  67.3711225  14.0578163  43.0544515  66.8191757  13.1621196  43.9340924
  66.8422697  13.5058646  43.2298140  71.5442101  20.4150588  56.6139312
  71.0367192  20.9686435  57.0579942  71.2468748  20.4758878  55.7958086
  71.4246986  20.5056899  56.5587768  63.2419134  15.6585579  46.3884600
  63.7511363  16.2550086  46.7695905  63.7153406  15.3911552  45.7061019
  63.3862509  15.7071394  46.3439122  74.1549882  24.3313845  44.5443255
  73.4379191  24.1574708  44.0790493  74.8056619  24.0966418  44.0118741
  74.1451732  24.2709638  44.3972473  70.7884587  25.3475146  53.5196319
  70.5650241  24.5893975  53.8880345  70.2994430  25.3773167  52.7976758
  70.6828036  25.2397371  53.4673060  65.6009665  12.2941837  49.2557780
  64.8821655  12.7105970  49.5230644  65.9722028  12.8596076  48.7049418
  65.5501597  12.4391119  49.2140587  69.4363044  25.5675604  50.9733403
  69.0223442  24.9049734  50.5837245  70.1210418  25.7153463  50.4529097
  69.4761415  25.4916262  50.8389900  72.8028338  24.7265689  51.7257020
  72.4044621  24.8367960  50.9577840  72.1879557  24.9347756  52.3083580
  72.6527227  24.7739257  51.6988319  71.3756240  11.3339837  44.5931160
  70.7821079  11.6556834  44.0415727  71.4131517  10.4880933  44.3852266
  71.2930629  11.2564166  44.4813931  68.5333285  13.1453815  57.6258010
  68.0212188  12.5374998  57.9843041  68.3612781  13.8610407  58.0931986
  68.4322922  13.1617114  57.7474234  63.3798999  11.5891390  60.2760372
  63.2101590  12.2492765  59.7308578  62.9364949  11.7997951  60.9972861
  63.2898333  11.7177372  60.3022001  67.3058819   9.8295888  49.3187105
  67.7816185  10.1912968  48.6837287  66.8047418  10.4852356  49.5987248
  67.3024178   9.9790077  49.2663846  60.2801064  14.4938256  55.5348862
  59.7327783  13.8238901  55.6529730  61.0693442  14.1268104  55.5992329
  60.3153248  14.3403242  55.5617562  69.3485472  11.9737088  42.6860489
  69.7284437  11.9916717  41.9011604  68.6078068  12.4191077  42.5651337
  69.2954310  12.0418862  42.5524058  59.0388033  13.7059063  52.6894885
  58.8609795  13.2535672  53.4149800  58.7507056  14.5085225  52.8733362
  58.9700987  13.7581621  52.8238388  74.7011615  14.9616781  51.9272275
  75.1965280  14.2439776  51.8876295  73.8911390  14.6587579  51.8126762
  74.6555508  14.8114427  51.9046001  70.1470226  18.8114594  44.0769279
  69.3381549  18.4881268  44.0302589  70.6545135  18.1047816  44.0097528
  70.1019893  18.6595910  44.0599574  60.7760503  16.2386787  49.8016644
  59.9106023  16.2272478  49.6899415  60.8759319  16.0517010  50.6487783
  60.6634670  16.2092848  49.9105588  66.4017513  26.0084686  53.3746749
  66.7164072  26.8221074  53.3824531  66.8110927  25.6234905  54.0428908
  66.5085611  26.0713388  53.4750841  73.3542033  21.4254733  50.9450561
  73.8253211  22.1394995  51.1140546  73.6902211  20.8253483  51.4810431
  73.4737148  21.4426197  51.0482937  73.9915979  21.2172667  57.7078254
  73.4436925  20.5930550  57.4398319  74.4529008  21.4066939  56.9922333
  73.9783189  21.1531717  57.5628685  63.7430533  19.9557794  53.0225358
  64.3475391  19.9153628  52.3939178  63.5357846  20.8028946  53.0529413
  63.8019431  20.0745797  52.9341474  73.5574306  22.2223739  54.2387595
  74.3772679  22.0786705  54.5003890  73.2768383  22.8469938  54.7804033
  73.6371049  22.2934091  54.3575534  58.9781816  18.9392412  52.8924281
  58.8806094  18.1288683  53.2014337  59.7610685  18.9184205  52.5070549
  59.0797952  18.8159502  52.8811144  72.3878581  34.5365639  49.6135740
  72.1528765  33.7033291  49.5068008  72.5264222  34.8170304  48.7996941
  72.3734243  34.4549142  49.4778095  74.6868668  26.7051369  52.5120047
  74.0673700  26.1144017  52.3430062  74.5852532  27.2962805  51.8784370
  74.5806344  26.7055452  52.3925037  74.4137801  30.2503651  54.7563616
  74.2896498  30.8366097  55.3913435  75.0656086  29.7563847  55.0575891
  74.4911451  30.2642456  54.8949546  73.9495906  39.4151310  50.8891946
  73.4663484  40.1401799  50.8651529  74.7619224  39.7127440  51.0002103
  73.9986653  39.5653663  50.9019225  72.1580726  32.7615003  55.0045561
  71.8919142  31.9454120  55.1636551  72.1719290  32.8068159  54.1341076
  72.1205449  32.6471908  54.8999043  72.5674140  33.5473783  52.2857305
  72.3849713  33.5220669  51.4329597  73.3023809  34.0172721  52.3246214
  72.6488204  33.6135145  52.1655223  72.5345050  30.4267284  52.4356371
  73.1118553  30.2903734  53.0748617  71.8359112  29.9703068  52.6901956
  72.5166072  30.3389550  52.5678661  68.0103884  29.2779176  49.1504190
  68.0964135  28.9011045  49.9317720  68.6379681  28.9039622  48.6724148
  68.1160435  29.1664659  49.1949667  73.5979842  38.0470909  53.2035551
  73.6383987  38.3185761  52.3755330  74.1574366  38.5712818  53.6193339
  73.6863188  38.1646665  53.1427439  75.0494428  36.6312858  48.0289477
  74.2232546  36.8774596  47.9023755  75.1106420  36.5524939  48.8951535
  74.9368595  36.6557807  48.1378421  75.1937804  26.1740059  46.4301793
  74.9062600  25.8041329  45.6933740  75.8808273  26.6434914  46.1685498
  75.2526702  26.1887028  46.2816869  75.6799093  32.4451079  56.9823338
  76.1920190  32.7235333  56.3332097  75.3935435  33.1840373  57.3486151
  75.7133956  32.5953433  56.9413216  72.7665999  26.9521271  47.2787074
  72.8682135  27.7547433  47.6068050  73.5621886  26.7508607  46.9810155
  72.8993905  27.0407170  47.2822430  73.5829731  27.0668449  55.0208196
  73.4415223  26.2152390  55.1452704  73.8670294  27.1097110  54.1970402
  73.6037577  26.9468199  54.9175820  74.3520036  24.9798797  58.3385646
  73.8162226  24.3679155  58.6546413  74.4137801  25.5546933  58.9919313
  74.2815669  24.9745725  58.4821073  73.0443054  29.5714482  48.4666468
  73.4242018  29.9899027  47.8026735  72.4698418  30.1527937  48.7735311
  73.0154378  29.7192340  48.4143209  74.1649422  28.7594423  50.9266713
  73.7706120  28.8337435  50.1516823  73.6089539  29.1452370  51.4775075
  74.0252234  28.8276198  50.8934373  73.7631064  28.3209837  57.5593329
  74.6256677  28.2205546  57.4730659  73.4322847  27.7404546  56.9978901
  73.8416260  28.2201464  57.4638735  73.8358525  35.2052746  55.6607512
  73.3058450  34.5145185  55.7102486  74.1083618  35.1962931  54.8320220
  73.7983247  35.1019878  55.5454928  69.1154367  31.8780510  53.0175860
  69.0097816  31.8327355  52.1527944  68.3654587  32.2234291  53.2990145
  68.9889970  31.9221418  52.9313190  74.2151717  31.1770887  46.3884600
  74.7243947  31.7735394  46.7695905  74.6885990  30.9096860  45.7061019
  74.3595093  31.2256702  46.3439122  74.3531583  27.1076698  60.2760372
  74.1834173  27.7678073  59.7308578  73.9097533  27.3183259  60.9972861
  74.2630917  27.2362680  60.3022001  71.2533648  30.0123564  55.5348862
  70.7060367  29.3424209  55.6529730  72.0426026  29.6453411  55.5992329
  71.2885831  29.8588550  55.5617562  70.0120617  29.2244371  52.6894885
  69.8342378  28.7720980  53.4149800  69.7239639  30.0270533  52.8733362
  69.9433570  29.2766929  52.8238388  71.7493087  31.7572095  49.8016644
  70.8838606  31.7457786  49.6899415  71.8491903  31.5702318  50.6487783
  71.6367254  31.7278156  49.9105588  74.7163117  35.4743102  53.0225358
  75.3207974  35.4338936  52.3939178  74.5090429  36.3214254  53.0529413
  74.7752014  35.5931105  52.9341474  69.9514399  34.4577720  52.8924281
  69.8538677  33.6473991  53.2014337  70.7343269  34.4369513  52.5070549
  70.0530536  34.3344810  52.8811144  72.0829405  11.4743770  36.5475786
  71.8479589  10.6411422  36.4408055  72.2215046  11.7548436  35.7336987
  72.0685067  11.3927273  36.4118141  73.6446730  16.3529441  37.8231993
  73.1614308  17.0779930  37.7991576  74.4570048  16.6505571  37.9342150
  73.6937477  16.5031794  37.8359272  72.2624964  10.4851914  39.2197352
  72.0800537  10.4598800  38.3669644  72.9974633  10.9550852  39.2586260
  72.3439028  10.5513276  39.0995270  73.2930666  14.9849041  40.1375598
  73.3334811  15.2563892  39.3095377  73.8525190  15.5090949  40.5533385
  73.3814012  15.1024796  40.0767486  74.7445252  13.5690990  34.9629524
  73.9183370  13.8152727  34.8363802  74.8057244  13.4903070  35.8291582
  74.6319419  13.5935939  35.0718468  73.5309349  12.1430877  42.5947558
  73.0009274  11.4523316  42.6442533  73.8034442  12.1341063  41.7660267
  73.4934071  12.0398009  42.4794974  74.4113941  12.4121233  39.9565404
  75.0158798  12.3717068  39.3279225  74.2041253  13.2592385  39.9869460
  74.4702838  12.5309236  39.8681521  69.6465223  11.3955851  39.8264328
  69.5489501  10.5852122  40.1354384  70.4294093  11.3747644  39.4410596
  69.7481360  11.2722941  39.8151191  25.1856340  29.1743060  73.0615738
  25.1550344  30.0287697  73.2334008  25.7837689  28.8738353  73.6201882
  25.2693498  29.2559557  73.1690541  12.7697164  37.7981429  73.5805900
  12.0180064  37.4196967  73.3521945  13.2183176  37.8299863  72.8324711
  12.7246831  37.7467036  73.4363402  18.2222124  38.2206799  69.0091447
  17.8873493  38.8983720  68.5735669  18.7348995  37.8312110  68.4208319
  18.2487705  38.2631377  68.8578239  17.7626416  40.1721067  74.9502559
  18.1465795  40.7407966  74.4107334  17.6985557  39.4470578  74.4708375
  17.8099843  40.1496531  74.7996421  23.0072914  31.7495362  71.3334048
  22.8912440  32.5003048  71.7626186  23.8028801  31.4919316  71.5830135
  23.1077504  31.8230209  71.4338140  14.8903240  35.7389385  72.6203390
  15.2119081  36.2794593  72.0164699  15.5375336  35.1686157  72.7525680
  15.0329295  35.7348560  72.5510426  17.1292883  34.1275825  72.6917569
  17.5686519  33.5192926  73.1372341  16.9797546  33.7483199  71.9203034
  17.1714349  33.9814296  72.6436736  20.7302220  32.4803007  69.6448338
  20.6453515  33.3363973  69.7897907  21.2186603  32.2047331  70.3130497
  20.7891117  32.5660328  69.7650419  21.6620653  29.0987801  71.1446073
  21.1332125  29.3147434  71.8043379  22.1845673  29.7923939  71.0647042
  21.6609106  29.2330938  71.2301672  27.1168706  34.6734105  76.5179117
  26.2866409  34.8844749  76.6812534  27.0677958  33.8471160  76.2421401
  26.9875441  34.5823711  76.5016483  13.5520261  32.9951017  69.9453541
  12.9677476  33.5001049  70.3519405  13.1490356  32.7693404  69.2050133
  13.4059565  33.0359266  69.8958566  18.0097475  29.2416670  68.4222462
  18.2493479  29.4494653  67.6097805  18.3313316  28.4374178  68.5311406
  18.0934633  29.1530771  68.3183015  27.5077367  32.0614379  75.5463471
  28.1693802  31.5005048  75.4459379  26.8668779  31.5666410  75.8716162
  27.5106235  31.9050789  75.5795811  18.3954175  35.3584511  67.8544394
  18.8105324  35.0269535  67.1628890  17.5646105  35.1253413  67.7264530
  18.3342184  35.2755767  67.7335241  23.7942198  33.0779762  75.2875459
  24.0297787  33.2224961  74.4602310  23.9431762  33.8422170  75.6806973
  23.8508001  33.2118816  75.2239063  25.6232655  31.9181428  73.1245063
  25.9540872  32.4509068  72.5185158  26.1965743  31.9720316  73.7807014
  25.7566334  32.0050997  73.1322845  21.0887565  31.6095070  67.0405595
  21.0067728  31.6797257  67.9060582  21.7267286  32.1724814  66.8489336
  21.1707403  31.7034041  67.1395545  18.1927676  31.6315525  70.0514202
  19.0068314  31.9230417  69.9396973  18.1286817  30.9775387  69.4772495
  18.3030415  31.5780719  69.9503039  14.7038399  30.3239332  69.5161403
  15.0883552  30.1047039  70.2677948  14.4550019  31.1502277  69.6462480
  14.7240471  30.4137478  69.6462480  14.9861641  38.5444208  71.5893773
  15.2759940  38.1533189  70.8653000  15.7165122  38.7260913  72.0299049
  15.1368526  38.5138022  71.5476580  15.0935513  41.8940980  73.4384616
  15.7459571  41.3617422  73.6675642  14.3961121  41.5409632  73.8252490
  15.0866231  41.7630503  73.5296783  23.0875431  34.2145394  72.7815595
  23.6533464  34.8738604  72.6974138  22.4403335  34.5595092  73.2531997
  23.0754188  34.3627335  72.8388351  19.5582009  37.1584178  72.2052674
  19.3168685  36.4252039  71.7979739  19.7383342  37.7071035  71.5519007
  19.5489633  37.1306569  72.0482897  24.2838129  34.2651622  69.5741231
  23.9044938  33.4788760  69.5670521  23.6204374  34.8138479  69.4312876
  24.1296604  34.2296446  69.5522028  17.1085037  37.8165141  73.4130058
  17.8734928  37.5474785  73.0912722  17.0063127  37.3315151  74.1300120
  17.2066533  37.7054705  73.4709885  19.6303698  34.8477325  65.3930007
  20.3976683  34.9077450  64.9835859  19.1835007  34.2757766  64.9086325
  19.6777125  34.7713900  65.2607717  22.5298228  36.5097113  69.9092917
  22.6118065  37.3164099  69.5854368  23.0147970  36.5293072  70.6333691
  22.6135386  36.6317775  69.9679816  16.3342770  36.4509235  70.1624359
  16.4035591  35.5923774  70.3017359  17.1131226  36.6681116  69.8343383
  16.4595620  36.3562099  70.1341516  20.7250258  38.8746937  74.3760852
  20.3330050  38.5713652  73.6583718  20.8803330  39.7116027  74.1865806
  20.6903848  38.9530773  74.2417349  20.8889933  35.4396925  74.3166883
  20.5304587  35.6111568  75.0930915  20.4028643  35.9010131  73.7594881
  20.7648630  35.5335896  74.3492152  15.6778298  31.1196091  66.8567117
  15.9670823  31.8960973  67.1310691  15.7650097  30.6084822  67.5581616
  15.7332554  31.1588009  67.0009615  20.0247000  35.0832918  70.2430461
  20.7481198  35.5491031  70.0995034  19.5847591  35.1506527  69.4928058
  20.0662692  35.1616754  70.1115242  20.2850849  39.1453622  70.4028522
  19.5680159  38.9714485  69.9375759  20.9357587  38.9106195  69.8704008
  20.2752700  39.0849415  70.2557740  26.6671148  34.1157433  70.9685377
  27.0504754  34.8648789  71.1983474  25.8715261  34.3623253  70.7097366
  26.6064930  34.2627127  70.9642951  15.4786440  26.7876865  68.5445756
  15.8585404  26.8056494  67.7596871  14.7379036  27.2330854  68.4236604
  15.4255277  26.8558639  68.4109324  16.2771194  33.6254371  69.9354546
  15.4682516  33.3021045  69.8887856  16.7846102  32.9187593  69.8682795
  16.2320860  33.4735687  69.9184841  36.1588923  44.6928368  73.0615738
  36.1282928  45.5473005  73.2334008  36.7570272  44.3923661  73.6201882
  36.2426081  44.7744865  73.1690541  29.3588608  43.7804019  77.8168669
  28.5026504  43.9412517  77.8677785  29.4056262  42.9096083  77.8373730
  29.2387720  43.6754821  77.8274735  23.7429748  53.3166737  73.5805900
  22.9912647  52.9382275  73.3521945  24.1915760  53.3485171  72.8324711
  23.6979415  53.2652344  73.4363402  29.1954708  53.7392107  69.0091447
  28.8606076  54.4169028  68.5735669  29.7081578  53.3497418  68.4208319
  29.2220289  53.7816685  68.8578239  28.7358999  55.6906375  74.9502559
  29.1198378  56.2593274  74.4107334  28.6718140  54.9655886  74.4708375
  28.7832426  55.6681839  74.7996421  32.2040429  45.8396063  80.4600320
  32.7496389  46.5181150  80.5194290  32.1457306  45.6983524  79.6001902
  32.2756344  45.9188065  80.3412381  25.3214504  53.3285129  75.8468673
  25.4224867  52.5185483  76.1565800  24.7256249  53.2342076  75.2168351
  25.2487043  53.1950157  75.7994911  33.9805498  47.2680670  71.3334048
  33.8645024  48.0188356  71.7626186  34.7761385  47.0104623  71.5830135
  34.0810087  47.3415517  71.4338140  25.1615244  58.2462718  77.2483529
  25.8052699  58.6875882  77.6379687  25.4871499  57.4416145  77.1613788
  25.3047072  58.1927913  77.2929006  18.5179548  49.3505416  75.4721006
  18.2829733  48.5173068  75.3653275  18.6565189  49.6310081  74.6582207
  18.5035211  49.2688919  75.3363361  20.8169636  41.5191146  78.3705314
  20.1974668  40.9283794  78.2015329  20.7153499  42.1102582  77.7369637
  20.7107311  41.5195229  78.2510304  25.8635823  51.2574693  72.6203390
  26.1851665  51.7979901  72.0164699  26.5107920  50.6871465  72.7525680
  26.0061879  51.2533868  72.5510426  27.9137531  43.2590688  72.7037777
  28.6117696  43.4378816  73.1959240  28.2289864  42.7361028  72.0808167
  28.0632869  43.2084460  72.6839787  20.5438769  45.0643428  80.6148883
  20.4197466  45.6505874  81.2498702  21.1957053  44.5703624  80.9161158
  20.6212418  45.0782233  80.7534812  28.1025467  49.6461133  72.6917569
  28.5419102  49.0378234  73.1372341  27.9530130  49.2668507  71.9203034
  28.1446933  49.4999604  72.6436736  25.5697110  48.2405145  79.8936394
  26.2146112  47.7477588  79.5747343  25.8098887  48.3829932  80.7202472
  25.7007695  48.1882587  79.9685927  28.1083201  51.0860051  79.5443287
  28.3906444  50.2911457  79.3230043  28.8369362  51.5640638  79.5648348
  28.2572765  51.0394648  79.5146302  26.0864395  38.6283085  76.7859052
  25.7567725  39.0794228  76.1162751  25.4109397  38.5499248  77.3332058
  25.9374831  38.6834220  76.7682275  31.7034803  47.9988314  69.6448338
  31.6186099  48.8549281  69.7897907  32.1919187  47.7232639  70.3130497
  31.7623701  48.0845636  69.7650419  33.2940803  34.6168608  75.0308662
  32.9794244  35.3072086  75.4629085  32.7767745  34.5613390  74.3294163
  33.1705273  34.7103496  74.9905612  32.6353237  44.6173109  71.1446073
  32.1064708  44.8332742  71.8043379  33.1578257  45.3109247  71.0647042
  32.6341690  44.7516246  71.2301672  38.0901290  50.1919413  76.5179117
  37.2598993  50.4030057  76.6812534  38.0410542  49.3656468  76.2421401
  37.9608025  50.1009019  76.5016483  24.5252844  48.5136325  69.9453541
  23.9410060  49.0186357  70.3519405  24.1222940  48.2878712  69.2050133
  24.3792148  48.5544574  69.8958566  26.1511027  53.0223267  79.3527027
  25.6337969  52.6630682  78.7488335  26.8485418  52.4985442  79.3633093
  26.1776608  52.8920955  79.2657286  28.9830059  44.7601977  68.4222462
  29.2226063  44.9679961  67.6097805  29.3045900  43.9559486  68.5311406
  29.0667217  44.6716079  68.3183015  24.2920349  36.6895373  72.2682000
  25.0466317  37.0573690  72.0299050  24.1147884  37.0634928  73.0361179
  24.3774828  36.7993561  72.3466888  22.9341070  54.7447262  76.8997492
  23.6361650  54.2299252  76.9570249  22.8538553  55.0721414  77.7044367
  23.0264831  54.7161489  77.0270285  37.5855248  42.8389814  80.3129539
  36.7483669  42.9092001  80.5477133  37.5543479  42.8414309  79.4403841
  37.4573530  42.8500041  80.2189087  22.6477414  39.0965692  68.9660113
  22.4652987  39.3137573  68.1401105  23.5103027  39.2104705  69.0218727
  22.7482003  39.1455590  68.8514600  22.2591846  50.9353614  76.4083100
  23.0980745  51.1676547  76.4556862  22.2903615  50.0657926  76.3390136
  22.3873563  50.8410561  76.4047745  28.3277133  36.0992103  72.0009136
  29.0563293  35.9208058  71.5547293  28.4172026  36.9410183  72.2116314
  28.4483795  36.1975981  71.9662654  32.3085434  47.0345490  75.9041430
  33.0642949  47.4677005  75.9430339  32.4147758  46.3850260  76.4776066
  32.4355604  47.0022974  75.9939456  35.3465605  50.8618768  76.6543833
  34.9100837  50.8655510  77.4102805  35.0128520  51.5424267  76.2223411
  35.2328225  50.9631223  76.7024666  35.2663088  37.9032595  78.8973261
  35.9088996  37.9730700  79.4835176  35.5186108  37.2361818  78.3952803
  35.3985220  37.8158944  78.9100540  22.1939441  42.3739865  67.4782586
  21.4797618  42.0878044  67.8905018  22.6783410  42.7136491  68.1188973
  22.1598804  42.3821515  67.6338221  38.4809951  47.5799687  75.5463471
  39.1426385  47.0190356  75.4459379  37.8401363  47.0851718  75.8716162
  38.4838819  47.4236096  75.5795811  29.3686759  50.8769819  67.8544394
  29.7837907  50.5454843  67.1628890  28.5378688  50.6438721  67.7264530
  29.3074767  50.7941075  67.7335241  18.6975108  48.3613560  78.1442572
  18.5150681  48.3360446  77.2914864  19.4324776  48.8312498  78.1831480
  18.7789171  48.4274922  78.0240490  34.7674782  48.5965070  75.2875459
  35.0030371  48.7410269  74.4602310  34.9164345  49.3607478  75.6806973
  34.8240585  48.7304124  75.2239063  36.5965238  47.4366736  73.1245063
  36.9273456  47.9694376  72.5185158  37.1698327  47.4905624  73.7807014
  36.7298918  47.5236305  73.1322845  31.8097128  45.2831638  73.8068643
  31.9043982  46.0220933  74.2608269  31.1855971  44.8549114  74.2403208
  31.7306158  45.3292959  73.9376791  18.6646018  45.2407061  78.2941638
  19.2419520  45.1043511  78.9333884  17.9660080  44.7842845  78.5487223
  18.6467039  45.1529327  78.4263928  32.0620149  47.1280378  67.0405595
  31.9800311  47.1982565  67.9060582  32.6999869  47.6910122  66.8489336
  32.1439986  47.2219349  67.1395545  25.4213320  46.8941116  76.5080122
  25.1632564  46.0612851  76.4811421  25.4761803  47.1198729  75.6672622
  25.3913098  46.8038887  76.3800258  30.5014370  38.9969567  76.6084214
  29.7970697  38.5078752  76.7668133  30.5499345  39.0092041  75.7372659
  30.4044422  38.9259215  76.5023554  24.3948032  44.4478879  76.9945016
  23.8197623  44.6071047  77.6308977  24.0183708  43.8114288  76.5313467
  24.2550845  44.3776692  77.0199575  28.0621321  42.9202228  81.8537395
  27.6735754  42.4956446  81.1989586  27.3976019  43.1684378  82.3614421
  27.9068249  42.8940949  81.8325263  37.7044590  42.6777233  74.6285225
  37.4481155  41.8657174  74.4383108  38.5473904  42.6854800  74.4015412
  37.7910615  42.5589230  74.5670042  14.1404851  44.0918953  75.0089457
  14.2265103  43.7150822  75.7902987  14.7680649  43.7179399  74.5309415
  14.2461402  43.9804436  75.0534934  31.8847682  36.6176857  79.3661379
  32.2658194  35.9355028  79.7529253  31.0810967  36.3286459  79.1837043
  31.8224144  36.4743905  79.3965435  29.1660259  47.1500833  70.0514202
  29.9800898  47.4415725  69.9396973  29.1019400  46.4960695  69.4772495
  29.2762998  47.0966027  69.9503039  25.0368167  50.6222350  75.1786514
  25.6742114  50.3834098  75.7238307  25.4623239  50.8259509  74.4439674
  25.1944334  50.6173360  75.1503671  25.6770982  45.8424640  69.5161403
  26.0616135  45.6232346  70.2677948  25.4282603  46.6687585  69.6462480
  25.6973055  45.9322786  69.6462480  27.4189639  51.0994773  76.8580300
  27.4928648  50.9369944  77.7122150  28.2359146  51.2884962  76.6140782
  27.5505998  51.1031515  76.9478326  21.1795396  51.4452635  73.8874744
  20.3533514  51.6914373  73.7609022  21.2407387  51.3664716  74.7536802
  21.0669563  51.4697584  73.9963688  23.3971420  37.5121576  74.8470184
  22.5293845  37.5844176  74.9127793  23.6846624  38.3143655  75.0358159
  23.3111168  37.6415724  74.8844950  25.9594225  54.0629516  71.5893773
  26.2492523  53.6718497  70.8653000  26.6897706  54.2446221  72.0299049
  26.1101109  54.0323329  71.5476580  39.8966579  45.0308664  78.1287010
  40.4474501  44.3976733  78.3684103  39.8810695  45.5624057  78.8202515
  39.9751776  45.0157612  78.2665869  26.5488970  48.8647262  82.6746904
  26.0500664  49.5763029  82.7531792  27.3589194  49.1847928  82.6365066
  26.5945077  49.0174110  82.6803472  23.9000141  56.0396898  74.6553923
  23.6800436  55.7494253  75.4480590  23.6794663  55.3811853  74.1271835
  23.8347735  55.8996606  74.6942832  22.8117088  48.1270215  76.9209625
  22.5230336  47.5007686  77.4555352  23.6800436  48.0690502  76.9874305
  22.8977340  48.0257759  77.0100579  33.5994986  43.2704998  77.2391607
  33.2559751  42.5495333  77.5898856  33.6988028  43.0618849  76.3969965
  33.5637028  43.1329201  77.1663287  26.0668096  57.4126288  73.4384616
  26.7192154  56.8802730  73.6675642  25.3693705  57.0594940  73.8252490
  26.0598814  57.2815811  73.5296783  23.0149361  49.7665466  72.8451990
  23.7695329  50.1478505  73.0587452  22.4219974  50.2176609  73.2998686
  23.0386075  49.8894293  72.9434868  34.0608015  49.7330702  72.7815595
  34.6266047  50.3923912  72.6974138  33.4135918  50.0780400  73.2531997
  34.0486771  49.8812643  72.8388351  24.3347588  50.9374027  78.2192105
  23.8128341  51.0774319  78.9043970  24.7221608  50.1784691  78.4094223
  24.3151289  50.8459551  78.3493182  21.3238772  40.9879836  72.2887060
  21.0363568  40.6181106  71.5519007  22.0109240  41.4574691  72.0270765
  21.3827669  41.0026805  72.1402136  30.5314593  52.6769486  72.2052674
  30.2901269  51.9437347  71.7979739  30.7115926  53.2256343  71.5519007
  30.5222217  52.6491877  72.0482897  25.7613913  47.9678046  73.6173596
  25.5656696  48.5752781  73.0233899  25.9848259  47.2745990  73.1365270
  25.7648554  47.9555572  73.4589677  24.1592443  44.8532784  73.7354465
  24.8815095  45.0173942  73.2758271  23.6800436  45.5742449  73.6293804
  24.1956174  44.9831014  73.6520079  32.1185951  41.1896583  79.1151150
  31.2797052  41.2157862  78.8789413  32.1890318  41.8367318  79.6956496
  32.0054344  41.2892709  79.1660266  30.5655229  38.0881960  73.8478766
  31.2681582  37.8889708  73.3698724  30.2999418  37.3157902  74.1547609
  30.6301862  37.9444926  73.8224207  35.9943475  46.3964570  76.4012391
  35.9077449  46.5519996  77.2547170  35.5393955  47.0402645  76.0271796
  35.9146731  46.5140325  76.4719498  18.8966966  41.7661048  73.1372341
  18.9983103  42.5687210  73.4653316  19.6922853  41.5648384  72.8395422
  19.0294872  41.8546947  73.1407696  29.8669291  43.7175317  75.0237951
  29.6204005  43.6371068  75.8574740  30.1954414  42.9328784  74.8300478
  29.8790534  43.5901582  75.1185474  33.7617340  50.4258676  78.8124732
  33.6231699  51.1239722  79.3173474  32.9817338  50.2707332  78.4560914
  33.6260567  50.5058843  78.8351006  27.9986235  45.6522204  82.2186066
  27.2509550  45.8453218  81.8134344  28.1527761  44.8267423  81.9810187
  27.9108663  45.5587315  82.1231471  35.2570713  49.7836930  69.5741231
  34.8777521  48.9974068  69.5670521  34.5936958  50.3323787  69.4312876
  35.1029187  49.7481754  69.5522028  32.7115338  32.7262629  76.9775312
  32.8298907  33.1839093  76.2442615  32.5377514  31.9207891  76.6911530
  32.7034509  32.6756402  76.8276246  28.0817621  53.3350449  73.4130058
  28.8467512  53.0660093  73.0912722  27.9795711  52.8500459  74.1300120
  28.1799116  53.2240013  73.4709885  26.1170390  41.5374858  79.9523293
  25.3266465  41.3566318  80.2740629  26.5131013  40.7601811  79.9353588
  26.0587267  41.3962319  79.9975842  30.6036281  50.3662633  65.3930007
  31.3709266  50.4262758  64.9835859  30.1567590  49.7943074  64.9086325
  30.6509708  50.2899208  65.2607717  31.5014077  49.1717288  77.6782739
  30.8259079  48.9402521  78.1796126  31.5106453  48.5638471  77.0524844
  31.4032581  49.0476214  77.6598891  33.5030811  52.0282421  69.9092917
  33.5850649  52.8349407  69.5854368  33.9880554  52.0478380  70.6333691
  33.5867969  52.1503083  69.9679816  27.3127315  46.7067257  78.5762995
  26.8889564  46.9071756  77.8402013  27.1372170  45.8596105  78.6887295
  27.2238195  46.6116038  78.4836685  22.6009760  47.2019308  74.0090968
  22.7574379  47.1366111  74.8646960  22.9410353  47.9767861  73.7969647
  22.6742994  47.3068506  74.1045562  29.1388904  46.5777192  72.8784331
  29.6804450  46.0747573  73.3422951  29.4535463  46.5242386  72.0673816
  29.2653301  46.4956613  72.8268143  27.3075354  51.9694543  70.1624359
  27.3768174  51.1109082  70.3017359  28.0863809  52.1866424  69.8343383
  27.4328204  51.8747407  70.1341516  30.2878174  41.4713496  82.9306631
  30.5020143  40.8324410  82.3769985  29.6712073  41.9159320  82.5014493
  30.2283503  41.4423640  82.7857062  31.6982841  54.3932245  74.3760852
  31.3062633  54.0898960  73.6583718  31.8535914  55.2301334  74.1865806
  31.6636431  54.4716081  74.2417349  19.1744021  44.3854259  74.3251735
  19.5542986  44.8038804  73.6612002  18.5999386  44.9667714  74.6320578
  19.1455346  44.5332117  74.2728476  32.4517262  43.0802561  83.8689938
  31.6393943  42.7728452  83.9503111  32.9107196  42.6001562  84.4332651
  32.3997646  42.9639054  83.9644533  31.8622516  50.9582233  74.3166883
  31.5037171  51.1296876  75.0930915  31.3761227  51.4195439  73.7594881
  31.7381213  51.0521204  74.3492152  29.6792902  34.5813432  77.9193974
  28.8086460  34.5552153  77.8727284  29.9333243  34.4090624  77.1019820
  29.5886462  34.5523576  77.7914111  26.6510882  46.6381399  66.8567117
  26.9403406  47.4146281  67.1310691  26.7382681  46.1270130  67.5581616
  26.7065138  46.6773317  67.0009615  34.7484256  43.6975275  79.8299999
  34.3211864  43.6101624  79.0748099  34.1110309  43.8053051  80.4154843
  34.5913863  43.7007935  79.8045441  22.8174823  45.9514663  78.9567229
  21.9762829  45.8518538  79.1646123  23.0264831  46.7210144  79.3081550
  22.7239515  46.0506707  79.0394544  20.2950390  43.5734200  76.7851980
  19.9007087  43.6477212  76.0102090  19.7390506  43.9592147  77.3360342
  20.1553202  43.6415975  76.7519640  31.9315336  36.5515494  76.4655859
  32.1364930  36.4837802  77.3112856  31.6041760  37.3574316  76.3977036
  31.9130584  36.6601435  76.5815514  26.6291487  43.8796063  78.2064827
  26.3254625  43.3252051  78.8075234  25.9270908  44.0588272  77.7192861
  26.4807697  43.8240845  78.2234532  25.6857585  41.1896582  72.7709529
  25.9617319  40.4715495  72.3587096  26.2856254  41.7881502  72.5630635
  25.8150849  41.1716953  72.6790290  35.1849024  37.1047259  75.9458624
  34.5723338  37.5917661  76.3312356  35.2813199  36.4290749  76.4896275
  35.1086922  37.0765567  76.0837482  29.1868105  38.8610100  71.0456124
  29.6411852  39.0320660  71.7703968  29.6608151  38.2478210  70.6453899
  29.3236425  38.7960985  71.0929885  22.7083631  48.3458426  80.3758862
  22.1171564  48.9867924  80.3461877  23.4704654  48.7696043  80.3490162
  22.7331891  48.5034264  80.3674009  32.4673147  53.7967737  77.8090887
  32.2692835  54.2858552  77.1147098  31.8460858  54.0008979  78.3875020
  32.3460711  53.8984275  77.7914110  26.5281125  45.5652634  72.1501131
  27.2723170  45.9526910  72.3884081  26.6741821  44.7210059  72.3141619
  26.6591710  45.4983107  72.2095101  28.4460701  37.3602893  77.1832992
  27.5996746  37.5325701  77.0574342  28.4431833  36.5552237  77.5198821
  28.3207850  37.2663922  77.2144119  29.5159001  41.1378107  78.0495050
  29.0418955  40.6119869  78.5600361  29.8877137  40.5907580  77.4809912
  29.5008890  40.9794104  78.0410197  35.7795732  46.1980483  79.4601831
  35.5393954  45.3586898  79.4644257  36.2587739  46.2780650  80.1842604
  35.8147915  46.0861883  79.5676633  31.4442501  42.0314662  71.1120804
  30.9165519  42.1143406  70.4226513  31.9038209  42.7732533  71.1085449
  31.4344351  42.1535324  71.0095499  37.7800919  42.9781940  77.4131090
  37.5410689  42.9377774  76.5751874  37.9434820  43.8253092  77.5396811
  37.7691222  43.0974025  77.3084572  23.4375566  40.3017182  66.1361699
  23.0888370  40.9536907  66.5993248  22.9572012  40.2874295  65.4085570
  23.3145810  40.3960235  66.0972790  30.9979583  50.6018226  70.2430461
  31.7213782  51.0676338  70.0995034  30.5580174  50.6691835  69.4928058
  31.0395275  50.6802062  70.1115242  30.1665738  47.4615768  81.4931150
  29.5522731  46.9173818  81.7879785  30.6833023  46.9480004  81.0136966
  30.1521401  47.3052177  81.4655378  29.4062035  48.5320038  79.2275449
  28.9789643  47.9069756  78.7940884  29.3986980  48.2494960  80.0534456
  29.3421177  48.3972818  79.2855276  27.7347745  39.4088792  79.4417983
  27.7590232  38.8748905  78.7530763  27.9859219  38.9006101  80.1043573
  27.7757664  39.2549696  79.4382627  25.4363431  44.6520120  81.1197626
  24.6055360  44.8193938  80.9132874  25.3814948  44.2756071  81.9046511
  25.3052846  44.6209852  81.2046154  23.8099474  42.9275712  71.6487744
  23.9502436  43.4248176  72.3516385  24.3082007  42.2262006  71.7901957
  23.9040555  42.8977691  71.7739323  23.8399697  43.7942823  68.9780320
  24.4744776  44.3903248  68.9129782  23.9225308  43.4946281  69.7926191
  23.9456248  43.8383731  69.0883407  25.4178680  39.7256798  68.9525762
  25.7394521  39.2459881  68.2985025  25.6805623  40.5356444  68.7616574
  25.5044705  39.7746696  68.8281255  20.3452685  45.9910664  72.2469866
  20.8544914  46.5875171  72.6281172  20.8186957  45.7236637  71.5646286
  20.4896060  46.0396479  72.2024389  31.2583433  54.6638930  70.4028522
  30.5412743  54.4899793  69.9375759  31.9090170  54.4291503  69.8704008
  31.2485283  54.6034723  70.2557740  29.2532058  35.5844092  74.7239819
  28.6100376  35.4341738  75.2924957  28.9131465  35.3386437  73.9588923
  29.1077135  35.5256215  74.6942834  33.8431404  43.5403519  74.1469827
  33.1722594  44.0833221  74.0182893  34.5371154  44.0098374  73.9051522
  33.8460272  43.6901790  74.0925355  34.0059531  39.9959403  77.0560200
  34.3587142  39.5689126  77.7305999  33.1474333  39.9110246  77.1861277
  33.9308976  39.9204143  77.1755211  22.7043216  42.6266922  75.1143047
  21.9855206  43.0431055  75.3815910  23.0755579  43.1921161  74.5634685
  22.6535148  42.7716204  75.0725854  32.0042797  43.2594771  81.0045043
  31.9840725  43.0778066  81.8579821  32.0521998  44.1306790  80.9804626
  32.0077438  43.3611309  81.1268337  26.5396595  55.9000689  76.8318670
  26.1256993  55.2374819  76.4422512  27.2243969  56.0478548  76.3114364
  26.5794966  55.8241347  76.6975167  29.9061889  55.0590774  77.5842287
  29.5078172  55.1693045  76.8163107  29.2913108  55.2672841  78.1668846
  29.7560778  55.1064342  77.5573586  28.4789791  41.6664922  70.4516426
  27.8854630  41.9881919  69.9000993  28.5165069  40.8206018  70.2437533
  28.3964180  41.5889250  70.3399198  35.4383592  35.1177814  77.9844513
  34.9314456  34.4106954  77.9165690  36.2351025  34.7871003  78.1145589
  35.4810831  34.9650966  77.9943508  31.3547607  41.6244427  73.8818177
  31.1261300  41.6477128  73.0396535  31.6145684  40.8001894  74.0013187
  31.3593795  41.5060507  73.7743374  24.4092370  40.1620973  75.1772372
  24.8849736  40.5238053  74.5422553  23.9080970  40.8177441  75.4572515
  24.4057729  40.3115162  75.1249113  37.6403732  49.6342741  70.9685377
  38.0237337  50.3834097  71.1983474  36.8447845  49.8808561  70.7097366
  37.5797514  49.7812435  70.9642951  26.4519023  42.3062173  68.5445756
  26.8317988  42.3241802  67.7596871  25.7111619  42.7516162  68.4236604
  26.3987861  42.3743947  68.4109324  34.0804314  40.6144364  74.1321335
  34.0798540  40.4593021  74.9905611  33.8760494  41.4607351  74.0762721
  34.0504091  40.7164985  74.2509274  31.8045166  45.2941866  77.7857542
  32.2998831  44.5764861  77.7461562  30.9944941  44.9912663  77.6712029
  31.7589059  45.1439512  77.7631268  27.2503777  49.1439679  69.9354546
  26.4415100  48.8206353  69.8887856  27.7578686  48.4372901  69.8682795
  27.2053444  48.9920995  69.9184841  17.8794054  46.5711872  75.6601911
  17.0139574  46.5597563  75.5484682  17.9792870  46.3842095  76.5073050
  17.7668221  46.5417933  75.7690855  33.8696985  48.0445553  80.4734671
  34.2952056  47.5219975  79.9205096  33.5053904  48.6426391  79.9523294
  33.8783587  48.0555780  80.3143680  30.4575584  51.7579818  76.8035828
  30.9286762  52.4720080  76.9725813  30.7935762  51.1578568  77.3395698
  30.5770699  51.7751282  76.9068204  33.9043395  39.6183106  80.9514713
  33.3206383  40.1192313  80.5392280  34.2247689  39.1112662  80.3179036
  33.8656570  39.6174941  80.7973220  26.4438194  38.5323701  71.2273388
  27.2653888  38.7022014  70.9855083  25.9807845  38.6870962  70.5039685
  26.4969356  38.5805434  71.0845032  35.4985428  64.0321633  69.9453541
  34.9142643  64.5371665  70.3519405  35.0955523  63.8064020  69.2050133
  35.3524732  64.0729882  69.8958566  39.9562642  60.2787285  68.4222462
  40.1958646  60.4865269  67.6097805  40.2778483  59.4744794  68.5311406
  40.0399800  60.1901387  68.3183015  35.2652933  52.2080681  72.2682000
  36.0198901  52.5758998  72.0299050  35.0880467  52.5820236  73.0361179
  35.3507411  52.3178869  72.3466888  33.6209997  54.6151000  68.9660113
  33.4385571  54.8322881  68.1401105  34.4835610  54.7290013  69.0218727
  33.7214587  54.6640898  68.8514600  39.3009717  51.6177411  72.0009136
  40.0295877  51.4393366  71.5547293  39.3904609  52.4595491  72.2116314
  39.4216379  51.7161289  71.9662654  33.1672024  57.8925173  67.4782586
  32.4530202  57.6063352  67.8905018  33.6515993  58.2321799  68.1188973
  33.1331388  57.9006822  67.6338221  43.0352732  62.6465686  67.0405595
  42.9532895  62.7167873  67.9060582  43.6732453  63.2095430  66.8489336
  43.1172570  62.7404657  67.1395545  25.1137435  59.6104261  75.0089457
  25.1997686  59.2336130  75.7902987  25.7413232  59.2364707  74.5309415
  25.2193986  59.4989744  75.0534934  36.6503566  61.3609948  69.5161403
  37.0348719  61.1417654  70.2677948  36.4015186  62.1872893  69.6462480
  36.6705639  61.4508094  69.6462480  34.3704003  53.0306884  74.8470184
  33.5026429  53.1029484  74.9127793  34.6579208  53.8328963  75.0358159
  34.2843751  53.1601031  74.8844950  32.2971355  56.5065144  72.2887060
  32.0096151  56.1366414  71.5519007  32.9841824  56.9759999  72.0270765
  32.3560253  56.5212113  72.1402136  41.5387813  53.6067268  73.8478766
  42.2414166  53.4075016  73.3698724  41.2732002  52.8343210  74.1547609
  41.6034445  53.4630234  73.8224207  29.8699550  57.2846356  73.1372341
  29.9715686  58.0872518  73.4653316  30.6655437  57.0833692  72.8395422
  30.0027456  57.3732255  73.1407696  41.5768865  65.8847940  65.3930007
  42.3441850  65.9448065  64.9835859  41.1300174  65.3128382  64.9086325
  41.6242292  65.8084516  65.2607717  30.1476605  59.9039567  74.3251735
  30.5275570  60.3224111  73.6612002  29.5731969  60.4853022  74.6320578
  30.1187930  60.0517425  74.2728476  37.6243465  62.1566707  66.8567117
  37.9135990  62.9331589  67.1310691  37.7115264  61.6455438  67.5581616
  37.6797721  62.1958625  67.0009615  36.6590168  56.7081890  72.7709529
  36.9349903  55.9900803  72.3587096  37.2588837  57.3066810  72.5630635
  36.7883433  56.6902261  72.6790290  40.1600689  54.3795408  71.0456124
  40.6144435  54.5505968  71.7703968  40.6340734  53.7663518  70.6453899
  40.2969009  54.3146293  71.0929885  42.4175084  57.5499970  71.1120804
  41.8898103  57.6328714  70.4226513  42.8770792  58.2917841  71.1085449
  42.4076935  57.6720632  71.0095499  34.4108149  55.8202489  66.1361699
  34.0620954  56.4722215  66.5993248  33.9304595  55.8059603  65.4085570
  34.2878393  55.9145543  66.0972790  34.7832058  58.4461020  71.6487744
  34.9235019  58.9433484  72.3516385  35.2814591  57.7447314  71.7901957
  34.8773139  58.4162999  71.7739323  34.8132280  59.3128131  68.9780320
  35.4477360  59.9088556  68.9129782  34.8957891  59.0131589  69.7926191
  34.9188831  59.3569039  69.0883407  36.3911263  55.2442106  68.9525762
  36.7127104  54.7645189  68.2985025  36.6538207  56.0541752  68.7616574
  36.4777289  55.2932004  68.8281255  31.3185268  61.5095972  72.2469866
  31.8277498  62.1060479  72.6281172  31.7919541  61.2421945  71.5646286
  31.4628644  61.5581787  72.2024389  40.2264641  51.1029400  74.7239819
  39.5832959  50.9527046  75.2924957  39.8864048  50.8571745  73.9588923
  40.0809718  51.0441523  74.6942834  39.4522374  57.1850230  70.4516426
  38.8587214  57.5067227  69.9000993  39.4897652  56.3391326  70.2437533
  39.3696764  57.1074558  70.3399198  35.3824954  55.6806281  75.1772372
  35.8582320  56.0423361  74.5422553  34.8813553  56.3362748  75.4572515
  35.3790312  55.8300470  75.1249113  37.4251607  57.8247481  68.5445756
  37.8050571  57.8427110  67.7596871  36.6844203  58.2701470  68.4236604
  37.3720444  57.8929255  68.4109324  37.4170777  54.0509009  71.2273388
  38.2386472  54.2207322  70.9855083  36.9540428  54.2056270  70.5039685
  37.4701940  54.0990742  71.0845032  24.8807164   6.1121191  59.9955785
  24.8501168   6.9665828  60.1674054  25.4788513   5.8116484  60.5541929
  24.9644322   6.1937688  60.1030587  17.9172948  15.1584930  55.9431494
  17.5824317  15.8361851  55.5075716  18.4299819  14.7690241  55.3548366
  17.9438529  15.2009508  55.7918286  17.4577239  17.1099198  61.8842606
  17.8416619  17.6786097  61.3447381  17.3936381  16.3848709  61.4048422
  17.5050667  17.0874662  61.7336468  22.7023738   8.6873493  58.2674095
  22.5863264   9.4381180  58.6966233  23.4979625   8.4297447  58.5170182
  22.8028328   8.7608340  58.3678187  14.5854064  12.6767516  59.5543437
  14.9069905  13.2172724  58.9504745  15.2326160  12.1064288  59.6865727
  14.7280119  12.6726692  59.4850473  20.4253044   9.4181138  56.5788385
  20.3404339  10.2742104  56.7237954  20.9137427   9.1425462  57.2470544
  20.4841941   9.5038459  56.6990466  21.3571477   6.0365932  58.0786120
  20.8282948   6.2525565  58.7383426  21.8796497   6.7302070  57.9987089
  21.3559930   6.1709069  58.1641719  26.8119530  11.6112236  63.4519164
  25.9817233  11.8222880  63.6152581  26.7628782  10.7849291  63.1761448
  26.6826265  11.5201843  63.4356530  13.2471085   9.9329149  56.8793588
  12.6628300  10.4379180  57.2859452  12.8441180   9.7071536  56.1390180
  13.1010389   9.9737397  56.8298613  17.7048299   6.1794801  55.3562508
  17.9444303   6.3872784  54.5437852  18.0264140   5.3752309  55.4651453
  17.7885457   6.0908902  55.2523061  18.0904999  12.2962642  54.7884441
  18.5056148  11.9647666  54.0968936  17.2596929  12.0631544  54.6604577
  18.0293008  12.2133898  54.6675288  23.4893022  10.0157893  62.2215506
  23.7248611  10.1603092  61.3942357  23.6382586  10.7800301  62.6147020
  23.5458825  10.1496947  62.1579110  25.3183479   8.8559559  60.0585110
  25.6491696   9.3887199  59.4525205  25.8916567   8.9098447  60.7147061
  25.4517158   8.9429128  60.0662892  20.7838389   8.5473202  53.9745642
  20.7018552   8.6175389  54.8400629  21.4218110   9.1102945  53.7829383
  20.8658227   8.6412173  54.0735592  17.8878499   8.5693656  56.9854249
  18.7019138   8.8608549  56.8737020  17.8237641   7.9153518  56.4112541
  17.9981238   8.5158851  56.8843086  14.6812465  15.4822339  58.5233820
  14.9710764  15.0911320  57.7993047  15.4115946  15.6639044  58.9639096
  14.8319350  15.4516153  58.4816627  14.7886337  18.8319111  60.3724662
  15.4410395  18.2995554  60.6015688  14.0911945  18.4787764  60.7592536
  14.7817055  18.7008634  60.4636830  22.7826255  11.1523525  59.7155642
  23.3484288  11.8116735  59.6314185  22.1354158  11.4973223  60.1872044
  22.7705011  11.3005467  59.7728398  19.2532833  14.0962309  59.1392721
  19.0119509  13.3630170  58.7319786  19.4334166  14.6449166  58.4859054
  19.2440457  14.0684701  58.9822944  23.9788953  11.2029753  56.5081278
  23.5995762  10.4166891  56.5010567  23.3155198  11.7516610  56.3652922
  23.8247428  11.1674577  56.4862075  16.8035861  14.7543272  60.3470104
  17.5685752  14.4852916  60.0252769  16.7013951  14.2693282  61.0640167
  16.9017357  14.6432837  60.4049932  19.3254522  11.7855456  52.3270054
  20.0927507  11.8455581  51.9175905  18.8785831  11.2135897  51.8426372
  19.3727949  11.7092031  52.1947764  22.2249052  13.4475244  56.8432964
  22.3068889  14.2542230  56.5194415  22.7098794  13.4671203  57.5673737
  22.3086210  13.5695906  56.9019863  16.0293594  13.3887366  57.0964406
  16.0986415  12.5301905  57.2357406  16.8082049  13.6059247  56.7683430
  16.1546444  13.2940230  57.0681563  20.4201082  15.8125068  61.3100899
  20.0280874  15.5091783  60.5923765  20.5754154  16.6494158  61.1205853
  20.3854672  15.8908904  61.1757396  20.5840757  12.3775057  61.2506930
  20.2255411  12.5489699  62.0270962  20.0979467  12.8388262  60.6934928
  20.4599454  12.4714028  61.2832199  15.3729122   8.0574222  53.7907164
  15.6621647   8.8339105  54.0650738  15.4600921   7.5462953  54.4921663
  15.4283378   8.0966140  53.9349662  19.7197823  12.0211049  57.1770508
  20.4432022  12.4869162  57.0335081  19.2798414  12.0884658  56.4268105
  19.7613516  12.0994885  57.0455289  19.9801673  16.0831754  57.3368569
  19.2630983  15.9092616  56.8715806  20.6308411  15.8484326  56.8044055
  19.9703524  16.0227546  57.1897787  26.3621972  11.0535564  57.9025424
  26.7455578  11.8026920  58.1323521  25.5666085  11.3001384  57.6437413
  26.3015754  11.2005258  57.8982998  15.9722018  10.5632502  56.8694593
  15.1633340  10.2399176  56.8227903  16.4796926   9.8565724  56.8022842
  15.9271684  10.4113819  56.8524887  35.8539747  21.6306499  59.9955785
  35.8233752  22.4851136  60.1674054  36.4521096  21.3301792  60.5541929
  35.9376905  21.7122996  60.1030587  29.0539432  20.7182150  64.7508715
  28.1977328  20.8790649  64.8017832  29.1007086  19.8474214  64.7713776
  28.9338544  20.6132952  64.7614781  23.4380572  30.2544868  60.5145947
  22.6863471  29.8760407  60.2861992  23.8866584  30.2863302  59.7664757
  23.3930239  30.2030475  60.3703449  32.3633149  26.9868676  74.3569172
  33.0699916  26.4920707  74.4856106  32.5521084  27.4277757  73.6271830
  32.4961054  26.9787026  74.2678217  28.4309823  32.6284506  61.8842606
  28.8149202  33.1971405  61.3447381  28.3668964  31.9034017  61.4048422
  28.4783250  32.6059970  61.7336468  31.8991253  22.7774194  67.3940367
  32.4447213  23.4559281  67.4534337  31.8408130  22.6361655  66.5341949
  31.9707168  22.8566196  67.2752428  25.0165328  30.2663260  62.7808720
  25.1175691  29.4563614  63.0905847  24.4207073  30.1720207  62.1508398
  24.9437867  30.1328288  62.7334958  33.6756322  24.2058801  58.2674095
  33.5595848  24.9566487  58.6966233  34.4712209  23.9482755  58.5170182
  33.7760911  24.2793648  58.3678187  24.8566068  35.1840850  64.1823576
  25.5003523  35.6254014  64.5719734  25.1822323  34.3794276  64.0953834
  24.9997896  35.1306044  64.2269053  18.2130372  26.2883547  62.4061053
  17.9780557  25.4551199  62.2993322  18.3516013  26.5688213  61.5922254
  18.1986035  26.2067050  62.2703408  20.5120460  18.4569278  65.3045361
  19.8925491  17.8661925  65.1355376  20.4104323  19.0480713  64.6709684
  20.4058135  18.4573360  65.1850350  25.5586647  28.1952824  59.5543437
  25.8802488  28.7358032  58.9504745  26.2058744  27.6249596  59.6865727
  25.7012703  28.1912000  59.4850473  27.6088355  20.1968819  59.6377824
  28.3068520  20.3756947  60.1299287  27.9240688  19.6739159  59.0148213
  27.7583693  20.1462591  59.6179834  25.2647934  25.1783276  66.8276441
  25.9096936  24.6855719  66.5087389  25.5049711  25.3208063  67.6542519
  25.3958519  25.1260718  66.9025974  27.8034025  28.0238182  66.4783334
  28.0857268  27.2289588  66.2570089  28.5320186  28.5018770  66.4988395
  27.9523589  27.9772779  66.4486349  25.7815219  15.5661216  63.7199099
  25.4518549  16.0172360  63.0502797  25.1060221  15.4877379  64.2672105
  25.6325655  15.6212351  63.7022322  31.3985627  24.9366446  56.5788385
  31.3136922  25.7927412  56.7237954  31.8870011  24.6610770  57.2470544
  31.4574525  25.0223767  56.6990466  32.9891627  11.5546739  61.9648709
  32.6745068  12.2450217  62.3969132  32.4718568  11.4991521  61.2634210
  32.8656097  11.6481627  61.9245658  32.3304061  21.5551240  58.0786120
  31.8015532  21.7710873  58.7383426  32.8529081  22.2487378  57.9987089
  32.3292514  21.6894377  58.1641719  37.7852114  27.1297544  63.4519164
  36.9549817  27.3408188  63.6152581  37.7361366  26.3034599  63.1761448
  37.6558849  27.0387151  63.4356530  24.2203668  25.4514457  56.8793588
  23.6360884  25.9564488  57.2859452  23.8173764  25.2256844  56.1390180
  24.0742972  25.4922705  56.8298613  19.7747697  31.1669218  63.6817259
  19.2915275  31.8919707  63.6576843  20.5871015  31.4645348  63.7927417
  19.8238445  31.3171571  63.6944539  25.8461851  29.9601398  66.2867074
  25.3288793  29.6008813  65.6828382  26.5436242  29.4363573  66.2973140
  25.8727432  29.8299086  66.1997332  29.5025443  30.4096213  72.2483247
  29.5908789  30.2222353  73.0961457  29.9315156  29.7633642  71.8488094
  29.5787545  30.2859220  72.3154998  27.0695903  29.6927372  71.2300909
  26.5066738  29.2799982  71.7540570  27.8316926  29.6180278  71.6494052
  27.0990351  29.6204773  71.3693909  28.6780883  21.6980109  55.3562508
  28.9176887  21.9058092  54.5437852  28.9996724  20.8937617  55.4651453
  28.7618041  21.6094210  55.2523061  23.9871173  13.6273504  59.2022046
  24.7417141  13.9951821  58.9639097  23.8098708  14.0013059  59.9701226
  24.0725651  13.7371692  59.2806935  22.6291894  31.6825394  63.8337539
  23.3312474  31.1677383  63.8910296  22.5489377  32.0099545  64.6384414
  22.7215655  31.6539620  63.9610331  37.2806072  19.7767945  67.2469586
  36.4434493  19.8470132  67.4817180  37.2494303  19.7792440  66.3743888
  37.1524354  19.7878172  67.1529134  22.3428238  16.0343823  55.9000159
  22.1603811  16.2515704  55.0741152  23.2053851  16.1482836  55.9558774
  22.4432827  16.0833721  55.7854646  21.9542670  27.8731746  63.3423147
  22.7931569  28.1054678  63.3896909  21.9854439  27.0036057  63.2730183
  22.0824387  27.7788692  63.3387792  22.5795373  28.2932621  67.6436453
  23.1193598  28.1503752  68.3139825  21.8965319  28.6929372  68.0120479
  22.5587527  28.3312292  67.7970874  28.0227957  13.0370234  58.9349183
  28.7514117  12.8586189  58.4887339  28.1122850  13.8788314  59.1456361
  28.1434619  13.1354112  58.9002701  32.0036258  23.9723621  62.8381477
  32.7593773  24.4055136  62.8770386  32.1098582  23.3228391  63.4116113
  32.1306428  23.9401105  62.9279503  35.0416429  27.7996899  63.5883880
  34.6051661  27.8033641  64.3442852  34.7079344  28.4802398  63.1563458
  34.9279049  27.9009354  63.6364713  29.6145502  29.8405232  74.9127030
  30.3985919  29.9536079  75.2782773  29.4142097  29.0146369  75.1085716
  29.7011528  29.7351951  74.9961416  34.9613912  14.8410727  65.8313308
  35.6039820  14.9108831  66.4175223  35.2136932  14.1739949  65.3292850
  35.0936044  14.7537075  65.8440587  21.8890265  19.3117996  54.4122632
  21.1748442  19.0256176  54.8245065  22.3734233  19.6514622  55.0529020
  21.8549628  19.3199646  54.5678267  29.7715896  31.7515334  68.5593486
  28.9731141  31.5114834  68.8167355  30.2201907  31.8029726  69.3060534
  29.7190507  31.7237725  68.7078410  38.1760775  24.5177819  62.4803517
  38.8377209  23.9568487  62.3799426  37.5352187  24.0229849  62.8056208
  38.1789642  24.3614228  62.5135858  29.0637583  27.8147950  54.7884441
  29.4788731  27.4832974  54.0968936  28.2329512  27.5816852  54.6604577
  29.0025591  27.7319206  54.6675288  18.3925931  25.2991691  65.0782619
  18.2101505  25.2738577  64.2254911  19.1275600  25.7690629  65.1171527
  18.4739995  25.3653053  64.9580537  34.4625606  25.5343201  62.2215506
  34.6981195  25.6788400  61.3942357  34.6115169  26.2985609  62.6147020
  34.5191409  25.6682255  62.1579110  36.2916062  24.3744867  60.0585110
  36.6224279  24.9072507  59.4525205  36.8649150  24.4283755  60.7147061
  36.4249742  24.4614436  60.0662892  31.5047952  22.2209770  60.7408690
  31.5994806  22.9599064  61.1948316  30.8806795  21.7927245  61.1743255
  31.4256982  22.2671090  60.8716838  29.7600425  25.3995982  71.3898971
  30.3339287  24.7623226  71.5447535  29.6815229  25.4000065  70.5208629
  29.8333660  25.3061094  71.2845382  18.3596842  22.1785192  65.2281685
  18.9370344  22.0421642  65.8673930  17.6610904  21.7220976  65.4827270
  18.3417863  22.0907458  65.3603975  31.7570973  24.0658509  53.9745642
  31.6751135  24.1360697  54.8400629  32.3950693  24.6288253  53.7829383
  31.8390810  24.1597481  54.0735592  25.1164144  23.8319247  63.4420168
  24.8583388  22.9990982  63.4151468  25.1712627  24.0576860  62.6012669
  25.0863922  23.7417019  63.3140305  24.0898856  21.3857010  63.9285063
  23.5148447  21.5449178  64.5649024  23.7134532  20.7492419  63.4653514
  23.9501668  21.3154823  63.9539622  27.7572145  19.8580359  68.7877442
  27.3686578  19.4334577  68.1329633  27.0926843  20.1062509  69.2954468
  27.6019073  19.8319080  68.7665309  37.3995414  19.6155364  61.5625272
  37.1431979  18.8035305  61.3723154  38.2424728  19.6232931  61.3355459
  37.4861439  19.4967361  61.5010089  13.8355675  21.0297085  61.9429504
  13.9215927  20.6528953  62.7243034  14.4631472  20.6557530  61.4649462
  13.9412226  20.9182567  61.9874981  31.5798506  13.5554988  66.3001426
  31.9609018  12.8733159  66.6869300  30.7761791  13.2664590  66.1177090
  31.5174968  13.4122036  66.3305482  28.8611083  24.0878964  56.9854249
  29.6751722  24.3793856  56.8737020  28.7970224  23.4338826  56.4112541
  28.9713822  24.0344158  56.8843086  35.0820573  26.7704960  71.3983824
  34.8459211  25.9393025  71.2795885  35.7263802  26.7190567  71.9838668
  35.1415244  26.6402648  71.4669718  24.7318991  27.5600481  62.1126561
  25.3692938  27.3212229  62.6578354  25.1574063  27.7637640  61.3779721
  24.8895158  27.5551491  62.0843718  19.4231634  29.7988818  65.9960864
  19.4635779  30.0703669  65.1680644  19.9826158  30.3230726  66.4118652
  19.5114980  29.9164573  65.9352753  25.3721806  22.7802771  56.4501450
  25.7566959  22.5610478  57.2017995  25.1233427  23.6065716  56.5802526
  25.3923879  22.8700917  56.5802526  36.1056994  26.5549409  67.4612119
  35.8002811  27.2877465  67.8225434  35.3863209  26.1487338  67.1804905
  35.9544336  26.6031142  67.4725256  27.1140463  28.0372904  63.7920347
  27.1879472  27.8748076  64.6462197  27.9309970  28.2263093  63.5480829
  27.2456822  28.0409646  63.8818372  41.8058786  23.1942409  66.7880463
  41.7383286  23.2138368  65.9183049  41.7914448  24.0372737  67.0136133
  41.7937542  23.3216144  66.6932940  20.8746220  28.3830767  60.8214790
  20.0484338  28.6292504  60.6949069  20.9358211  28.3042847  61.6876848
  20.7620387  28.4075716  60.9303735  23.0922244  14.4499708  61.7810231
  22.2244669  14.5222307  61.8467840  23.3797448  15.2521787  61.9698206
  23.0061992  14.5793855  61.8184997  25.6545049  31.0007647  58.5233820
  25.9443347  30.6096628  57.7993047  26.3848530  31.1824352  58.9639096
  25.8051933  30.9701461  58.4816627  39.5917403  21.9686795  65.0627057
  40.1425325  21.3354865  65.3024149  39.5761519  22.5002188  65.7542562
  39.6702600  21.9535744  65.2005916  26.2439794  25.8025393  69.6086951
  25.7451488  26.5141160  69.6871839  27.0540018  26.1226059  69.5705113
  26.2895901  25.9552241  69.6143519  23.5950965  32.9775029  61.5893970
  23.3751260  32.6872384  62.3820637  23.3745487  32.3189984  61.0611882
  23.5298559  32.8374738  61.6282879  22.5067912  25.0648346  63.8549672
  22.2181160  24.4385817  64.3895399  23.3751260  25.0068633  63.9214352
  22.5928164  24.9635890  63.9440626  33.2945810  20.2083129  64.1731653
  32.9510575  19.4873464  64.5238903  33.3938852  19.9996980  63.3310012
  33.2587852  20.0707332  64.1003334  25.7618920  34.3504419  60.3724662
  26.4142978  33.8180862  60.6015688  25.0644529  33.9973072  60.7592536
  25.7549638  34.2193942  60.4636830  22.7100185  26.7043597  59.7792037
  23.4646153  27.0856636  59.9927499  22.1170798  27.1554740  60.2338733
  22.7336899  26.8272424  59.8774915  33.7558839  26.6708833  59.7155642
  34.3216871  27.3302043  59.6314185  33.1086742  27.0158531  60.1872044
  33.7437595  26.8190775  59.7728398  24.0298412  27.8752158  65.1532152
  23.5079165  28.0152450  65.8384017  24.4172432  27.1162822  65.3434269
  24.0102113  27.7837682  65.2833229  21.0189596  17.9257967  59.2227107
  20.7314391  17.5559237  58.4859054  21.7060064  18.3952822  58.9610812
  21.0778493  17.9404936  59.0742183  30.2265417  29.6147617  59.1392721
  29.9852093  28.8815478  58.7319786  30.4066750  30.1634474  58.4859054
  30.2173041  29.5870009  58.9822944  25.4564737  24.9056177  60.5513643
  25.2607520  25.5130912  59.9573946  25.6799083  24.2124121  60.0705317
  25.4599378  24.8933703  60.3929724  23.8543267  21.7910915  60.6694511
  24.5765919  21.9552073  60.2098317  23.3751260  22.5120580  60.5633851
  23.8906998  21.9209145  60.5860125  31.8136775  18.1274714  66.0491196
  30.9747876  18.1535993  65.8129460  31.8841142  18.7745449  66.6296543
  31.7005168  18.2270840  66.1000313  30.2606053  15.0260091  60.7818812
  30.9632406  14.8267839  60.3038771  29.9950242  14.2536033  61.0887656
  30.3252685  14.8823057  60.7564254  35.6894299  23.3342701  63.3352438
  35.6028273  23.4898127  64.1887217  35.2344779  23.9780776  62.9611843
  35.6097555  23.4518456  63.4059545  18.5917790  18.7039179  60.0712388
  18.6933927  19.5065341  60.3993363  19.3873677  18.5026515  59.7735468
  18.7245696  18.7925078  60.0747743  29.5620115  20.6553448  61.9577998
  29.3154829  20.5749199  62.7914787  29.8905238  19.8706916  61.7640525
  29.5741358  20.5279713  62.0525521  33.4568164  27.3636807  65.7464779
  33.3182523  28.0617853  66.2513521  32.6768162  27.2085464  65.3900961
  33.3211390  27.4436974  65.7691053  31.7946249  23.6633182  71.9987161
  31.7894287  22.7912999  72.0029587  32.5007243  23.8621352  71.5256616
  31.8991253  23.5637057  71.9294196  27.6937059  22.5900335  69.1526112
  26.9460373  22.7831349  68.7474390  27.8478585  21.7645554  68.9150234
  27.6059487  22.4965446  69.0571518  24.5944897  31.5812938  68.2362008
  24.7434461  31.0215854  67.5835412  25.3744899  31.6604940  68.6194526
  24.7318991  31.5098504  68.1958957  34.9521536  26.7215061  56.5081278
  34.5728345  25.9352199  56.5010567  34.2887782  27.2701918  56.3652922
  34.7980011  26.6859885  56.4862075  27.1198198  31.7527581  69.5146498
  27.0441869  31.0836392  70.0697287  27.0488057  32.4545369  70.0287165
  27.0978805  31.7572488  69.6723347  32.4066162   9.6640761  63.9115359
  32.5249731  10.1217224  63.1782662  32.2328338   8.8586022  63.6251577
  32.3985333   9.6134533  63.7616293  27.7768445  30.2728580  60.3470104
  28.5418336  30.0038224  60.0252769  27.6746535  29.7878590  61.0640167
  27.8749940  30.1618145  60.4049932  25.8121214  18.4752989  66.8863340
  25.0217289  18.2944449  67.2080676  26.2081837  17.6979942  66.8693635
  25.7538091  18.3340450  66.9315888  30.2987105  27.3040764  52.3270054
  31.0660090  27.3640889  51.9175905  29.8518414  26.7321205  51.8426372
  30.3460532  27.2277339  52.1947764  31.1964901  26.1095420  64.6122786
  30.5209902  25.8780652  65.1136173  31.2057277  25.5016602  63.9864891
  31.0983405  25.9854345  64.5938938  33.1981635  28.9660552  56.8432964
  33.2801473  29.7727538  56.5194415  33.6831377  28.9856511  57.5673737
  33.2818793  29.0881214  56.9019863  27.0078139  23.6445388  65.5103042
  26.5840388  23.8449887  64.7742060  26.8322994  22.7974236  65.6227342
  26.9189019  23.5494169  65.4176732  26.5089832  35.1595901  67.9724499
  26.9985762  34.4606690  67.7900164  25.9374064  34.8619771  68.5600557
  26.4974362  35.0122124  68.0325540  22.2960584  24.1397439  60.9431014
  22.4525203  24.0744242  61.7987006  22.6361177  24.9145992  60.7309694
  22.3693818  24.2446637  61.0385609  28.8339728  23.5155323  59.8124378
  29.3755274  23.0125704  60.2762998  29.1486287  23.4620518  59.0013863
  28.9604125  23.4334744  59.7608190  27.0026178  28.9072674  57.0964406
  27.0718998  28.0487213  57.2357406  27.7814633  29.1244555  56.7683430
  27.1279028  28.8125538  57.0681563  18.8694845  21.3232390  61.2591782
  19.2493810  21.7416935  60.5952049  18.2950210  21.9045845  61.5660625
  18.8406170  21.4710249  61.2068523  32.1468086  20.0180693  70.8029985
  31.3344767  19.7106583  70.8843158  32.6058020  19.5379693  71.3672697
  32.0948470  19.9017185  70.8984579  31.5573340  27.8960365  61.2506930
  31.1987995  28.0675007  62.0270962  31.0712051  28.3573570  60.6934928
  31.4332037  27.9899336  61.2832199  29.3743726  11.5191563  64.8534021
  28.5037284  11.4930284  64.8067330  29.6284067  11.3468755  64.0359867
  29.2837286  11.4901707  64.7254158  26.3461706  23.5759530  53.7907164
  26.6354230  24.3524412  54.0650738  26.4333504  23.0648261  54.4921663
  26.4015962  23.6151448  53.9349662  32.7178080  28.7864260  72.1974130
  33.3557800  28.2924456  71.8636586  32.0752171  28.7141661  71.6126357
  32.7172306  28.7023269  72.0616485  34.4435080  20.6353406  66.7640046
  34.0162688  20.5479755  66.0088146  33.8061133  20.7431182  67.3494890
  34.2864687  20.6386066  66.7385488  32.7732336  29.4784069  68.8379487
  33.5624714  29.1273133  68.9581569  32.9475934  30.2920457  68.5756121
  32.9152618  29.5469926  68.8167355  22.5125647  22.8892794  65.8907276
  21.6713653  22.7896669  66.0986170  22.7215655  23.6588275  66.2421597
  22.4190339  22.9884838  65.9734591  19.9901214  20.5112331  63.7192027
  19.5957911  20.5855343  62.9442136  19.4341330  20.8970278  64.2700388
  19.8504026  20.5794106  63.6859686  31.6266160  13.4893625  63.3995906
  31.8315754  13.4215933  64.2452903  31.2992584  14.2952447  63.3317083
  31.6081408  13.5979566  63.5155561  26.3242311  20.8174194  65.1404874
  26.0205449  20.2630182  65.7415281  25.6221732  20.9966404  64.6532908
  26.1758521  20.7618976  65.1574579  25.3808409  18.1274713  59.7049575
  25.6568143  17.4093626  59.2927143  25.9807078  18.7259633  59.4970681
  25.5101673  18.1095084  59.6130337  24.3860662  28.0323914  69.8476971
  24.2781017  28.0425977  70.7139029  24.5956444  28.8578695  69.6581925
  24.4010774  28.1564989  69.9481063  34.8799848  14.0425390  62.8798671
  34.2674162  14.5295792  63.2652403  34.9764023  13.3668881  63.4236322
  34.8037746  14.0143698  63.0177529  28.8818929  15.7988231  57.9796170
  29.3362676  15.9698791  58.7044015  29.3558975  15.1856342  57.5793946
  29.0187249  15.7339116  58.0269932  22.4034454  25.2836557  67.3098909
  21.8122388  25.9246055  67.2801924  23.1655478  25.7074174  67.2830208
  22.4282715  25.4412395  67.3014056  38.5224876  25.1142326  68.3076187
  38.5808000  25.5628975  69.0536164  37.8891344  25.5241139  67.8706267
  38.4376171  25.2416061  68.3528735  32.1623971  30.7345868  64.7430933
  31.9643659  31.2236683  64.0487145  31.5411682  30.9387110  65.3215067
  32.0411535  30.8362407  64.7254157  26.2231949  22.5030765  59.0841178
  26.9673994  22.8905042  59.3224128  26.3692645  21.6588191  59.2481665
  26.3542534  22.4361238  59.1435147  28.1411524  14.2981024  64.1173039
  27.2947570  14.4703832  63.9914389  28.1382657  13.4930368  64.4538867
  28.0158674  14.2042053  64.1484166  29.2109825  18.0756239  64.9835097
  28.7369779  17.5498001  65.4940408  29.5827961  17.5285711  64.4149959
  29.1959714  17.9172235  64.9750244  35.4746555  23.1358614  66.3941878
  35.2344778  22.2965029  66.3984304  35.9538563  23.2158781  67.1182651
  35.5098739  23.0240014  66.5016680  31.1393325  18.9692793  58.0460851
  30.6116343  19.0521537  57.3566560  31.5989033  19.7110665  58.0425495
  31.1295175  19.0913456  57.9435546  37.4751742  19.9160071  64.3471137
  37.2361512  19.8755906  63.5091921  37.6385644  20.7631223  64.4736858
  37.4642046  20.0352156  64.2424619  34.0797773  24.3010021  70.2776182
  34.8031971  23.8482547  70.0987202  33.8147735  24.5814686  69.4948510
  34.1479046  24.2760989  70.1354897  23.1326390  17.2395313  53.0701746
  22.7839194  17.8915038  53.5333295  22.6522836  17.2252426  52.3425617
  23.0096634  17.3338366  53.0312837  19.6610317  26.9570654  68.4532825
  19.1310241  26.2663093  68.5027800  19.9335410  26.9480840  67.6245534
  19.6235039  26.8537786  68.3380241  30.6930407  27.5396357  57.1770508
  31.4164606  28.0054470  57.0335081  30.2530998  27.6069966  56.4268105
  30.7346099  27.6180193  57.0455289  29.8616562  24.3993899  68.4271197
  29.2473555  23.8551949  68.7219832  30.3783847  23.8858135  67.9477013
  29.8472225  24.2430308  68.3995425  29.1012859  25.4698169  66.1615495
  28.6740467  24.8447888  65.7280931  29.0937804  25.1873091  66.9874503
  29.0372000  25.3350950  66.2195323  27.4298569  16.3466923  66.3758029
  27.4541056  15.8127036  65.6870809  27.6810043  15.8384232  67.0383620
  27.4708488  16.1927827  66.3722674  14.9406159  23.6298418  65.8101174
  14.8349608  23.5845263  64.9453258  14.1906379  23.9752199  66.0915458
  14.8141762  23.6739327  65.7238503  25.1314255  21.5898252  68.0537673
  24.3006184  21.7572070  67.8472921  25.0765772  21.2134202  68.8386558
  25.0003669  21.5587983  68.1386201  23.5050298  19.8653843  58.5827790
  23.6453259  20.3626307  59.2856432  24.0032831  19.1640138  58.7242004
  23.5991379  19.8355822  58.7079369  23.5350521  20.7320954  55.9120367
  24.1695600  21.3281379  55.8469829  23.6176132  20.4324412  56.7266237
  23.6407072  20.7761862  56.0223454  36.5133087  23.2636432  68.7806731
  37.1050927  23.9033682  68.8124930  36.9492081  22.5659468  69.0698798
  36.6651518  23.2554782  68.8287564  25.1129504  16.6634930  55.8865809
  25.4345345  16.1838012  55.2325072  25.3756447  17.4734576  55.6956621
  25.1995529  16.7124827  55.7621301  28.3426476  27.6853804  69.4064625
  27.8351568  28.2389651  69.8505256  28.0453123  27.7462094  68.5883400
  28.2231361  27.7760115  69.3513082  20.0403509  22.9288795  59.1809913
  20.5495738  23.5253302  59.5621219  20.5137781  22.6614769  58.4986333
  20.1846884  22.9774610  59.1364436  28.9482881  12.5222223  61.6579865
  28.3051199  12.3719870  62.2265004  28.6082288  12.2764569  60.8928970
  28.8027959  12.4634346  61.6282881  33.5382228  20.4781650  61.0809874
  32.8673418  21.0211352  60.9522940  34.2321978  20.9476505  60.8391569
  33.5411095  20.6279921  61.0265402  27.5868962  32.6178362  66.3121632
  27.3634616  31.8597191  66.6805659  27.0978805  32.6476383  65.5902072
  27.4812411  32.5100587  66.2598373  33.7010355  16.9337534  63.9900247
  34.0537966  16.5067257  64.6646046  32.8425157  16.8488377  64.1201324
  33.6259800  16.8582274  64.1095258  22.3994040  19.5645053  62.0483094
  21.6806030  19.9809186  62.3155957  22.7706403  20.1299292  61.4974732
  22.3485972  19.7094335  62.0065901  31.6993621  20.1972902  67.9385089
  31.6791549  20.0156198  68.7919868  31.7472822  21.0684921  67.9144673
  31.7028262  20.2989441  68.0608384  29.6439951  26.7860094  73.8633566
  29.6035806  26.1409771  73.2778722  30.4563269  26.7296712  74.1758978
  29.7583105  26.6819061  73.8230515  26.2347419  32.8378820  63.7658717
  25.8207817  32.1752950  63.3762559  26.9194793  32.9856679  63.2454411
  26.2745790  32.7619478  63.6315214  29.6012713  31.9968906  64.5182333
  29.2028996  32.1071176  63.7503154  28.9863932  32.2050972  65.1008893
  29.4511602  32.0442474  64.4913633  28.1740615  18.6043053  57.3856473
  27.5805454  18.9260050  56.8341040  28.2115892  17.7584149  57.1777579
  28.0915004  18.5267382  57.2739244  35.1334416  12.0555946  64.9184560
  34.6265280  11.3485085  64.8505737  35.9301849  11.7249134  65.0485636
  35.1761655  11.9029097  64.9283555  31.0498431  18.5622558  60.8158223
  30.8212124  18.5855259  59.9736582  31.3096508  17.7380025  60.9353234
  31.0544619  18.4438638  60.7083421  24.1043194  17.0999104  62.1112419
  24.5800560  17.4616184  61.4762600  23.6031794  17.7555572  62.3912562
  24.1008553  17.2493293  62.0589160  37.3354555  26.5720872  57.9025424
  37.7188161  27.3212228  58.1323521  36.5398669  26.8186692  57.6437413
  37.2748338  26.7190566  57.8982998  26.1469847  19.2440304  55.4785803
  26.5268812  19.2619933  54.6936918  25.4062443  19.6894293  55.3576650
  26.0938685  19.3122079  55.3449371  33.7755138  17.5522495  61.0661382
  33.7749364  17.3971152  61.9245658  33.5711318  18.3985482  61.0102767
  33.7454915  17.6543116  61.1849321  31.4995990  22.2319997  64.7197589
  31.9949655  21.5142992  64.6801609  30.6895765  21.9290795  64.6052076
  31.4539883  22.0817643  64.6971314  26.9454601  26.0817810  56.8694593
  26.1365924  25.7584484  56.8227903  27.4529510  25.3751032  56.8022842
  26.9004268  25.9299127  56.8524887  17.5744878  23.5090003  62.5941957
  16.7090398  23.4975694  62.4824729  17.6743694  23.3220226  63.4413097
  17.4619045  23.4796065  62.7030902  33.5647808  24.9823684  67.4074717
  33.9902880  24.4598106  66.8545142  33.2004728  25.5804522  66.8863340
  33.5734411  24.9933911  67.2483727  23.2001888  33.2787902  66.1672063
  23.5148447  34.0924290  66.1749845  23.6095302  32.8938121  66.8354222
  23.3069986  33.3416604  66.2676155  30.1526408  28.6957949  63.7375875
  30.6237586  29.4098211  63.9065860  30.4886586  28.0956699  64.2735744
  30.2721523  28.7129413  63.8408251  32.2403392  30.3059262  75.9167947
  32.3500358  29.5167823  76.2724694  32.5694289  30.2165198  75.1142285
  32.3055798  30.1765115  75.8510338  30.7900354  28.4875883  70.5003567
  30.2421300  27.8633766  70.2323633  31.2513383  28.6770155  69.7847647
  30.7767564  28.4234933  70.3553999  33.5994219  16.5561237  67.8854760
  33.0157207  17.0570444  67.4732327  33.9198513  16.0490794  67.2519083
  33.5607394  16.5553072  67.7313267  26.1389018  15.4701832  58.1613435
  26.9604712  15.6400145  57.9195129  25.6758669  15.6249093  57.4379732
  26.1920180  15.5183565  58.0185079  20.5414908  27.2261010  65.8150671
  21.1459766  27.1856845  65.1864492  20.3342221  28.0732162  65.8454727
  20.6003806  27.3449013  65.7266788  15.7766191  26.2095628  65.6849594
  15.6790469  25.3991899  65.9939651  16.5595060  26.1887421  65.2995863
  15.8782327  26.0862718  65.6736457  40.0272016  36.2367458  64.7508715
  39.1709911  36.3975957  64.8017832  40.0739669  35.3659522  64.7713776
  39.9071127  36.1318260  64.7614781  43.3365732  42.5053984  74.3569172
  44.0432500  42.0106015  74.4856106  43.5253668  42.9463065  73.6271830
  43.4693638  42.4972334  74.2678217  42.8723837  38.2959502  67.3940367
  43.4179797  38.9744589  67.4534337  42.8140713  38.1546963  66.5341949
  42.9439751  38.3751504  67.2752428  35.9897912  45.7848568  62.7808720
  36.0908275  44.9748922  63.0905847  35.3939657  45.6905515  62.1508398
  35.9170450  45.6513596  62.7334958  35.8298651  50.7026157  64.1823576
  36.4736107  51.1439322  64.5719734  36.1554907  49.8979584  64.0953834
  35.9730480  50.6491352  64.2269053  29.1862956  41.8068855  62.4061053
  28.9513140  40.9736507  62.2993322  29.3248597  42.0873521  61.5922254
  29.1718618  41.7252358  62.2703408  31.4853043  33.9754585  65.3045361
  30.8658075  33.3847233  65.1355376  31.3836907  34.5666021  64.6709684
  31.3790719  33.9758668  65.1850350  31.2122176  37.5206867  67.5488930
  31.0880873  38.1069313  68.1838749  31.8640461  37.0267063  67.8501205
  31.2895826  37.5345672  67.6874859  36.2380517  40.6968584  66.8276441
  36.8829520  40.2041027  66.5087389  36.4782294  40.8393371  67.6542519
  36.3691103  40.6446026  66.9025974  38.7766609  43.5423490  66.4783334
  39.0589852  42.7474896  66.2570089  39.5052769  44.0204077  66.4988395
  38.9256172  43.4958087  66.4486349  36.7547803  31.0846524  63.7199099
  36.4251133  31.5357668  63.0502797  36.0792804  31.0062687  64.2672105
  36.6058239  31.1397659  63.7022322  43.9624210  27.0732047  61.9648709
  43.6477651  27.7635525  62.3969132  43.4451152  27.0176829  61.2634210
  43.8388681  27.1666935  61.9245658  30.7480281  46.6854526  63.6817259
  30.2647859  47.4105015  63.6576843  31.5603599  46.9830656  63.7927417
  30.7971028  46.8356879  63.6944539  36.8194435  45.4786706  66.2867074
  36.3021376  45.1194121  65.6828382  37.5168826  44.9548881  66.2973140
  36.8460016  45.3484394  66.1997332  40.4758027  45.9281520  72.2483247
  40.5641372  45.7407661  73.0961457  40.9047739  45.2818950  71.8488094
  40.5520129  45.8044528  72.3154998  38.0428486  45.2112680  71.2300909
  37.4799321  44.7985290  71.7540570  38.8049510  45.1365586  71.6494052
  38.0722935  45.1390081  71.3693909  34.9603757  29.1458812  59.2022046
  35.7149725  29.5137129  58.9639097  34.7831291  29.5198367  59.9701226
  35.0458235  29.2557000  59.2806935  33.6024478  47.2010702  63.8337539
  34.3045057  46.6862691  63.8910296  33.5221961  47.5284853  64.6384414
  33.6948238  47.1724928  63.9610331  34.6503384  37.4386288  72.9617954
  34.8223888  37.3292183  73.8103236  35.1872742  38.0840694  72.7249147
  34.7548388  37.5178290  73.0523051  32.9275253  43.3917054  63.3423147
  33.7664153  43.6239986  63.3896909  32.9587022  42.5221365  63.2730183
  33.0556971  43.2974000  63.3387792  33.5527956  43.8117929  67.6436453
  34.0926181  43.6689060  68.3139825  32.8697903  44.2114680  68.0120479
  33.5320110  43.8497600  67.7970874  40.5878086  45.3590539  74.9127030
  41.3718503  45.4721387  75.2782773  40.3874680  44.5331677  75.1085716
  40.6744111  45.2537259  74.9961416  28.9565101  40.0318220  67.7970874
  28.6903517  39.2157336  67.9561865  28.9703666  40.0771375  66.9266390
  28.9189824  39.9175124  67.6924356  45.9346495  30.3596034  65.8313308
  46.5772404  30.4294139  66.4175223  46.1869516  29.6925257  65.3292850
  46.0668627  30.2722383  65.8440587  33.7063708  33.5696598  70.4437882
  33.0135505  33.0993578  70.6898614  34.3224035  33.3434902  71.0179589
  33.6948238  33.4663730  70.5647035  40.7448479  47.2700641  68.5593486
  39.9463725  47.0300142  68.8167355  41.1934491  47.3215034  69.3060534
  40.6923090  47.2423033  68.7078410  29.3658515  40.8176999  65.0782619
  29.1834088  40.7923885  64.2254911  30.1008184  41.2875937  65.1171527
  29.4472579  40.8838361  64.9580537  32.4304267  37.5362002  71.5864727
  33.1544239  37.5215032  72.0729622  32.5320403  38.2457357  71.0886695
  32.5522476  37.6386705  71.5843514  39.8049216  41.0161086  76.4513674
  39.0122197  41.3304598  76.6366294  39.9198143  41.2312555  75.6134459
  39.7044627  41.0944923  76.3552009  40.7333009  40.9181290  71.3898971
  41.3071871  40.2808534  71.5447535  40.6547813  40.9185373  70.5208629
  40.8066244  40.8246402  71.2845382  41.1697778  31.4533006  63.5424261
  40.4654104  30.9642191  63.7008180  41.2182752  31.4655480  62.6712705
  41.0727829  31.3822654  63.4363601  38.7304728  35.3765667  68.7877442
  38.3419161  34.9519885  68.1329633  38.0659427  35.6247817  69.2954468
  38.5751656  35.3504388  68.7665309  24.8088259  36.5482393  61.9429504
  24.8948510  36.1714261  62.7243034  25.4364056  36.1742838  61.4649462
  24.9144810  36.4367875  61.9874981  42.5531090  29.0740296  66.3001426
  42.9341602  28.3918467  66.6869300  41.7494374  28.7849898  66.1177090
  42.4907552  28.9307344  66.3305482  46.0553157  42.2890268  71.3983824
  45.8191794  41.4578333  71.2795885  46.6996386  42.2375875  71.9838668
  46.1147828  42.1587956  71.4669718  35.7051575  43.0785789  62.1126561
  36.3425522  42.8397537  62.6578354  36.1306646  43.2822948  61.3779721
  35.8627741  43.0736799  62.0843718  30.3964217  45.3174126  65.9960864
  30.4368363  45.5888977  65.1680644  30.9558741  45.8416034  66.4118652
  30.4847563  45.4349881  65.9352753  36.5122930  31.5794494  76.1664034
  36.1976371  32.3494057  75.9033597  36.1912863  31.0164750  75.5816261
  36.4181849  31.6104763  76.0405384  38.0873047  43.5558212  63.7920347
  38.1612055  43.3933384  64.6462197  38.9042553  43.7448401  63.5480829
  38.2189405  43.5594954  63.8818372  52.7791370  38.7127717  66.7880463
  52.7115870  38.7323676  65.9183049  52.7647032  39.5558044  67.0136133
  52.7670126  38.8401452  66.6932940  31.8478804  43.9016075  60.8214790
  31.0216921  44.1477812  60.6949069  31.9090795  43.8228155  61.6876848
  31.7352970  43.9261024  60.9303735  34.0654827  29.9685016  61.7810231
  33.1977253  30.0407615  61.8467840  34.3530032  30.7707094  61.9698206
  33.9794575  30.0979163  61.8184997  43.1887716  30.1162875  70.1121552
  43.9341308  29.9272685  69.6984978  42.7725021  30.6421113  69.5535409
  43.2372690  30.1665020  69.9686126  37.2172378  41.3210701  69.6086951
  36.7184071  42.0326468  69.6871839  38.0272602  41.6411367  69.5705113
  37.2628484  41.4737549  69.6143519  34.5683548  48.4960337  61.5893970
  34.3483844  48.2057692  62.3820637  34.3478070  47.8375292  61.0611882
  34.5031142  48.3560046  61.6282879  36.1439436  34.1791745  74.9049249
  35.3339211  34.4849525  74.7939091  36.6214122  34.8997327  75.0201833
  36.0942914  34.3306346  74.9056320  35.0030995  43.3937466  65.1532152
  34.4811749  43.5337758  65.8384017  35.3905016  42.6348130  65.3434269
  34.9834696  43.3022990  65.2833229  42.7869359  33.6460022  66.0491196
  41.9480459  33.6721301  65.8129460  42.8573726  34.2930757  66.6296543
  42.6737752  33.7456148  66.1000313  32.4783468  39.7154295  69.7748651
  32.9904565  39.9938549  69.1257411  32.1919810  40.4543590  70.1411464
  32.5118331  39.8656649  69.7338529  41.2338637  30.5445399  60.7818812
  41.9364990  30.3453147  60.3038771  40.9682826  29.7721341  61.0887656
  41.2985269  30.4008365  60.7564254  35.9967193  31.8080684  69.8349693
  35.8050390  31.8235818  70.6849116  36.8465789  32.0044358  69.8116348
  36.0942915  31.8395035  69.9572988  30.3814106  34.3371666  67.8133509
  30.2399598  33.4855606  67.9378017  30.6654669  34.3800326  66.9895715
  30.4021952  34.2171416  67.7101133  42.7678832  39.1818490  71.9987161
  42.7626871  38.3098307  72.0029587  43.4739826  39.3806660  71.5256616
  42.8723836  39.0822365  71.9294196  36.4949726  38.9095474  71.3700981
  36.6393101  39.4896682  70.7344091  36.8425374  39.2871771  72.0750835
  36.5677187  39.0516178  71.3799976  38.6669643  38.1085643  69.1526112
  37.9192957  38.3016657  68.7474390  38.8211168  37.2830862  68.9150234
  38.5792071  38.0150754  69.0571518  35.5677481  47.0998246  68.2362008
  35.7167044  46.5401162  67.5835412  36.3477483  47.1790248  68.6194526
  35.7051574  47.0283812  68.1958957  38.0930781  47.2712889  69.5146498
  38.0174452  46.6021700  70.0697287  38.0220640  47.9730677  70.0287165
  38.0711388  47.2757796  69.6723347  38.9071420  32.0036193  70.0421516
  39.3644034  32.7360168  70.1694308  38.9827749  31.5802659  70.8008772
  38.9862390  32.0493431  70.1722593  31.1504411  32.2502013  71.1310960
  30.6146601  31.6382371  71.4471727  31.2122176  32.8250149  71.7844626
  31.0800044  32.2448941  71.2746387  43.3798746  25.1826069  63.9115359
  43.4982314  25.6402532  63.1782662  43.2060922  24.3771330  63.6251577
  43.3717917  25.1319841  63.7616293  36.7853798  33.9938297  66.8863340
  35.9949873  33.8129757  67.2080676  37.1814421  33.2165250  66.8693635
  36.7270674  33.8525758  66.9315888  39.2991628  36.4698556  71.3686839
  39.2350769  37.3308513  71.2406976  39.4388816  36.1530550  70.5682390
  39.3107098  36.5498723  71.2315052  37.9810722  39.1630696  65.5103042
  37.5572971  39.3635195  64.7742060  37.8055577  38.3159544  65.6227342
  37.8921603  39.0679477  65.4176732  37.4822416  50.6781209  67.9724499
  37.9718346  49.9791998  67.7900164  36.9106648  50.3805079  68.5600557
  37.4706946  50.5307432  68.0325540  43.6789419  43.2443278  76.9251290
  44.4924284  42.9728427  77.0856422  43.5184385  42.9450818  76.1211486
  43.7759368  43.1598204  76.8296696  40.9561581  33.9276935  69.8646678
  41.1703551  33.2887850  69.3110032  40.3395480  34.3722759  69.4354540
  40.8966910  33.8987079  69.7197109  43.1200669  35.5366000  70.8029985
  42.3077351  35.2291891  70.8843158  43.5790604  35.0565001  71.3672697
  43.0681054  35.4202493  70.8984579  40.3476310  27.0376871  64.8534021
  39.4769868  27.0115592  64.8067330  40.6016651  26.8654063  64.0359867
  40.2569870  27.0087015  64.7254158  40.2154177  36.9426072  75.5858688
  40.6853808  37.5668188  75.9726562  40.2616057  36.2743047  76.1451902
  40.2922052  36.9360752  75.7258759  37.3725450  29.0483099  66.3107491
  36.8563939  28.3563291  66.4359070  36.8119379  29.7153876  66.2570090
  37.2131964  29.0446357  66.3213557  39.4417684  29.5876059  68.1400344
  39.0549437  29.6125091  68.9213874  38.9550621  29.0217738  67.6874860
  39.3130193  29.5071810  68.1888248  43.6910663  44.3049568  72.1974130
  44.3290384  43.8109764  71.8636586  43.0484755  44.2326969  71.6126357
  43.6904890  44.2208577  72.0616485  39.1074825  26.4743045  70.4310604
  39.7367943  27.0103345  70.1531674  39.2760688  26.3820404  71.2824169
  39.2252620  26.5404407  70.5159132  38.9088740  31.2614240  72.7037015
  39.7362170  30.9899389  72.7595630  38.9296586  32.0575081  73.0600833
  39.0341590  31.3393994  72.7652198  43.7464920  44.9969377  68.8379487
  44.5357298  44.6458441  68.9581569  43.9208518  45.8105765  68.5756121
  43.8885201  45.0655234  68.8167355  33.4858230  38.4078102  65.8907276
  32.6446237  38.3081977  66.0986170  33.6948238  39.1773583  66.2421597
  33.3922923  38.5070146  65.9734591  42.5998744  29.0078933  63.3995906
  42.8048337  28.9401241  64.2452903  42.2725168  29.8137755  63.3317083
  42.5813992  29.1164874  63.5155561  35.3593246  43.5509222  69.8476971
  35.2513601  43.5611284  70.7139029  35.5689028  44.3764003  69.6581925
  35.3743357  43.6750297  69.9481063  45.8532432  29.5610698  62.8798671
  45.2406745  30.0481100  63.2652403  45.9496607  28.8854189  63.4236322
  45.7770329  29.5329006  63.0177529  33.3767038  40.8021865  67.3098909
  32.7854971  41.4431363  67.2801924  34.1388062  41.2259482  67.2830208
  33.4015299  40.9597703  67.3014056  33.7727661  31.9623862  67.9766927
  34.2329142  32.0362792  68.7142050  33.8183768  32.7605117  67.6266748
  33.8478216  32.0918010  68.0339683  35.4211011  32.6290557  72.5438954
  35.0296576  31.9823904  72.9794731  35.5896873  33.2201993  73.1633209
  35.3881921  32.6204825  72.7001660  49.4957460  40.6327634  68.3076187
  49.5540583  41.0814283  69.0536164  48.8623927  41.0426447  67.8706267
  49.4108755  40.7601369  68.3528735  39.1144108  29.8166332  64.1173039
  38.2680153  29.9889140  63.9914389  39.1115241  29.0115676  64.4538867
  38.9891258  29.7227361  64.1484166  40.1842408  33.5941546  64.9835097
  39.7102363  33.0683308  65.4940408  40.5560544  33.0471019  64.4149959
  40.1692297  33.4357543  64.9750244  30.5615439  35.5913053  70.3518643
  31.4241052  35.4908762  70.2655973  30.2307222  35.0107762  69.7904215
  30.6400635  35.4904680  70.2564049  45.0530356  39.8195329  70.2776182
  45.7764555  39.3667855  70.0987202  44.7880319  40.0999994  69.4948510
  45.1211630  39.7946297  70.1354897  33.9217225  34.4155502  67.0129061
  33.2970295  34.4273894  66.4055014  33.5862819  34.8915677  67.6620301
  33.7802716  34.4874019  67.0185629  30.6342900  42.4755962  68.4532825
  30.1042825  41.7848401  68.5027800  30.9067993  42.4666148  67.6245534
  30.5967622  42.3723094  68.3380241  40.8349146  39.9179207  68.4271197
  40.2206139  39.3737257  68.7219832  41.3516431  39.4043443  67.9477013
  40.8204808  39.7615616  68.3995425  40.0745443  40.9883477  66.1615495
  39.6473051  40.3633196  65.7280931  40.0670387  40.7058399  66.9874503
  40.0104584  40.8536258  66.2195323  33.1907970  36.0248650  69.2303929
  33.3501457  35.2691974  69.6355651  33.0100864  36.5739589  69.8844667
  33.1873329  35.9942464  69.3866635  38.4031153  31.8652231  66.3758029
  38.4273640  31.3312344  65.6870809  38.6542626  31.3569540  67.0383620
  38.4441071  31.7113135  66.3722674  25.9138742  39.1483726  65.8101174
  25.8082191  39.1030571  64.9453258  25.1638962  39.4937507  66.0915458
  25.7874345  39.1924635  65.7238503  34.6832475  30.5923050  65.7563774
  34.7230846  31.0932256  66.4698481  33.8582139  30.6833443  65.4869697
  34.5672001  30.6804866  65.8214312  36.8662088  40.1583790  73.8584068
  36.0157718  40.2955504  73.9941713  37.0290215  39.4247568  74.3031770
  36.7645951  40.0697891  73.9439668  36.1046838  37.1083559  68.0537673
  35.2738768  37.2757377  67.8472921  36.0498355  36.7319510  68.8386558
  35.9736253  37.0773291  68.1386201  33.9130621  30.5992452  73.6894083
  34.5383325  30.0554585  73.9623516  33.4581101  30.1187370  73.1201874
  33.9378882  30.4481934  73.6455677  47.4865670  38.7821739  68.7806731
  48.0783510  39.4218990  68.8124930  47.9224665  38.0844776  69.0698798
  47.6384101  38.7740090  68.8287564  39.3159060  43.2039112  69.4064625
  38.8084151  43.7574959  69.8505256  39.0185706  43.2647402  68.5883400
  39.1963945  43.2945423  69.3513082  41.4821242  31.5692431  68.2489288
  41.9076314  31.1164958  67.6372815  40.8678235  31.0152502  68.5254076
  41.4549888  31.4206408  68.1994314  39.9215465  28.0407531  61.6579865
  39.2783783  27.8905178  62.2265004  39.5814872  27.7949877  60.8928970
  39.7760542  27.9819654  61.6282881  38.5601545  48.1363670  66.3121632
  38.3367200  47.3782499  66.6805659  38.0711389  48.1661691  65.5902072
  38.4544994  48.0285895  66.2598373  42.6726205  35.7158210  67.9385089
  42.6524132  35.5341505  68.7919868  42.7205406  36.5870229  67.9144673
  42.6760846  35.8174749  68.0608384  40.6172535  42.3045402  73.8633566
  40.5768390  41.6595079  73.2778722  41.4295853  42.2482020  74.1758978
  40.7315688  42.2004369  73.8230515  37.2080002  48.3564128  63.7658717
  36.7940401  47.6938258  63.3762559  37.8927376  48.5041987  63.2454411
  37.2478374  48.2804786  63.6315214  46.1066999  27.5741254  64.9184560
  45.5997864  26.8670393  64.8505737  46.9034433  27.2434442  65.0485636
  46.1494238  27.4214405  64.9283555  36.3050243  35.9342339  70.4183324
  35.7929146  35.3263522  70.7768355  36.1329740  36.6498931  70.8857299
  36.2039880  35.9505638  70.5399547  31.1515958  34.3779914  73.0685685
  30.9818548  35.0381289  72.5233892  30.7081908  34.5886475  73.7898175
  31.0615292  34.5065896  73.0947315  40.1819314  33.8566583  72.8585579
  40.7390744  33.6280393  72.2264045  39.8580379  34.6172249  72.5820792
  40.2165724  33.9350420  72.7242076  28.0518023  37.2826780  68.3274175
  27.5044742  36.6127425  68.4455044  28.8410401  36.9156628  68.3917643
  28.0870206  37.1291766  68.3542876  37.9002431  36.9434237  73.8237586
  38.6513758  37.2585914  74.1377140  38.0925007  36.7413408  72.9971508
  38.0393845  36.9601619  73.7480982  44.7487721  33.0707803  61.0661382
  44.7481948  32.9156460  61.9245658  44.5443901  33.9170790  61.0102767
  44.7187499  33.1728424  61.1849321  26.8104992  36.4947588  65.4820198
  26.6326753  36.0424196  66.2075114  26.5224014  37.2973749  65.6658676
  26.7417945  36.5470145  65.6163701  44.5380392  40.5008992  67.4074717
  44.9635464  39.9783414  66.8545142  44.1737312  41.0989830  66.8863340
  44.5466995  40.5119219  67.2483727  34.1734472  48.7973210  66.1672063
  34.4881031  49.6109598  66.1749845  34.5827885  48.4123429  66.8354222
  34.2802570  48.8601912  66.2676155  43.2135976  45.8244570  75.9167947
  43.3232942  45.0353131  76.2724694  43.5426873  45.7350506  75.1142285
  43.2788382  45.6950423  75.8510338  38.0428486  28.9870727  70.6933970
  38.1756392  28.1901721  71.0214945  38.4273639  29.5137130  71.2732245
  38.1184815  28.9470644  70.8277473  41.7632938  44.0061191  70.5003567
  41.2153884  43.3819074  70.2323633  42.2245967  44.1955463  69.7847647
  41.7500147  43.9420241  70.3553999  41.1160842  25.9101053  67.2915063
  40.3106805  25.7998783  67.6082901  40.9867577  26.0113509  66.4344929
  40.9780974  25.9084723  67.2123103  44.5726802  32.0746545  67.8854760
  43.9889791  32.5755752  67.4732327  44.8931096  31.5676101  67.2519083
  44.5339978  32.0738380  67.7313267  35.7016933  28.9829902  68.9411863
  36.2461346  28.6421029  69.5316205  35.7553869  29.8415364  69.0833148
  35.7906053  29.0585162  69.0493737  31.5147492  42.7446318  65.8150671
  32.1192349  42.7042152  65.1864492  31.3074805  43.5917470  65.8454727
  31.5736389  42.8634321  65.7266788  41.3291264  45.0112263  67.0312909
  42.1489638  44.8675230  67.2929204  41.0485342  45.6358462  67.5729347
  41.4088007  45.0822616  67.1500848  26.7498774  41.7280936  65.6849594
  26.6523052  40.9177207  65.9939651  27.5327644  41.7072729  65.2995863
  26.8514911  41.6048026  65.6736457  57.8004915  52.6677115  59.9955785
  57.7698919  53.5221752  60.1674054  58.3986263  52.3672408  60.5541929
  57.8842072  52.7493612  60.1030587  51.0004599  51.7552766  64.7508715
  50.1442495  51.9161264  64.8017832  51.0472253  50.8844830  64.7713776
  50.8803711  51.6503568  64.7614781  45.3845739  61.2915484  60.5145947
  44.6328639  60.9131022  60.2861992  45.8331751  61.3233918  59.7664757
  45.3395406  61.2401091  60.3703449  50.8370699  61.7140854  55.9431494
  50.5022067  62.3917775  55.5075716  51.3497569  61.3246165  55.3548366
  50.8636280  61.7565432  55.7918286  50.3774990  63.6655122  61.8842606
  50.7614370  64.2342021  61.3447381  50.3134131  62.9404633  61.4048422
  50.4248417  63.6430586  61.7336468  53.8456420  53.8144810  67.3940367
  54.3912380  54.4929897  67.4534337  53.7873297  53.6732271  66.5341949
  53.9172335  53.8936812  67.2752428  46.9630495  61.3033876  62.7808720
  47.0640858  60.4934230  63.0905847  46.3672240  61.2090823  62.1508398
  46.8903034  61.1698904  62.7334958  55.6221489  55.2429417  58.2674095
  55.5061015  55.9937103  58.6966233  56.4177376  54.9853371  58.5170182
  55.7226078  55.3164264  58.3678187  46.8031235  66.2211465  64.1823576
  47.4468690  66.6624629  64.5719734  47.1287490  65.4164892  64.0953834
  46.9463063  66.1676660  64.2269053  40.1595540  57.3254163  62.4061053
  39.9245724  56.4921815  62.2993322  40.2981180  57.6058828  61.5922254
  40.1451202  57.2437666  62.2703408  42.4585627  49.4939893  65.3045361
  41.8390659  48.9032541  65.1355376  42.3569491  50.0851329  64.6709684
  42.3523302  49.4943976  65.1850350  47.5051815  59.2323440  59.5543437
  47.8267656  59.7728648  58.9504745  48.1523911  58.6620212  59.6865727
  47.6477870  59.2282615  59.4850473  49.5553523  51.2339435  59.6377824
  50.2533687  51.4127563  60.1299287  49.8705855  50.7109775  59.0148213
  49.7048860  51.1833207  59.6179834  42.1854760  53.0392175  67.5488930
  42.0613457  53.6254621  68.1838749  42.8373044  52.5452371  67.8501205
  42.2628409  53.0530980  67.6874859  49.7441458  57.6209880  59.6257615
  50.1835093  57.0126981  60.0712388  49.5946121  57.2417254  58.8543080
  49.7862924  57.4748351  59.5776783  47.2113101  56.2153892  66.8276441
  47.8562104  55.7226335  66.5087389  47.4514878  56.3578679  67.6542519
  47.3423686  56.1631334  66.9025974  49.7499192  59.0608798  66.4783334
  50.0322435  58.2660204  66.2570089  50.4785353  59.5389385  66.4988395
  49.8988756  59.0143395  66.4486349  47.7280386  46.6031832  63.7199099
  47.3983716  47.0542975  63.0502797  47.0525388  46.5247995  64.2672105
  47.5790822  46.6582967  63.7022322  53.3450795  55.9737061  56.5788385
  53.2602090  56.8298028  56.7237954  53.8335178  55.6981386  57.2470544
  53.4039692  56.0594383  56.6990466  54.9356794  42.5917355  61.9648709
  54.6210235  43.2820833  62.3969132  54.4183736  42.5362137  61.2634210
  54.8121264  42.6852243  61.9245658  54.2769228  52.5921856  58.0786120
  53.7480699  52.8081489  58.7383426  54.7994248  53.2857994  57.9987089
  54.2757681  52.7264993  58.1641719  59.7317281  58.1668160  63.4519164
  58.9014984  58.3778804  63.6152581  59.6826533  57.3405215  63.1761448
  59.6024016  58.0757766  63.4356530  46.1668836  56.4885072  56.8793588
  45.5826051  56.9935104  57.2859452  45.7638931  56.2627459  56.1390180
  46.0208139  56.5293321  56.8298613  41.7212864  62.2039834  63.6817259
  41.2380442  62.9290323  63.6576843  42.5336182  62.5015964  63.7927417
  41.7703612  62.3542187  63.6944539  47.7927018  60.9972014  66.2867074
  47.2753960  60.6379429  65.6828382  48.4901409  60.4734189  66.2973140
  47.8192599  60.8669702  66.1997332  50.6246050  52.7350725  55.3562508
  50.8642054  52.9428708  54.5437852  50.9461891  51.9308233  55.4651453
  50.7083208  52.6464826  55.2523061  44.5757061  62.7196009  63.8337539
  45.2777641  62.2047999  63.8910296  44.4954545  63.0470161  64.6384414
  44.6680822  62.6910236  63.9610331  59.2271239  50.8138561  67.2469586
  58.3899660  50.8840748  67.4817180  59.1959470  50.8163056  66.3743888
  59.0989521  50.8248788  67.1529134  43.9007837  58.9102361  63.3423147
  44.7396736  59.1425294  63.3896909  43.9319606  58.0406673  63.2730183
  44.0289554  58.8159308  63.3387792  44.5260540  59.3303237  67.6436453
  45.0658765  59.1874368  68.3139825  43.8430486  59.7299987  68.0120479
  44.5052694  59.3682908  67.7970874  53.9501425  55.0094237  62.8381477
  54.7058940  55.4425752  62.8770386  54.0563749  54.3599007  63.4116113
  54.0771595  54.9771721  62.9279503  56.9881596  58.8367515  63.5883880
  56.5516828  58.8404257  64.3442852  56.6544511  59.5173014  63.1563458
  56.8744216  58.9379970  63.6364713  39.9297685  55.5503527  67.7970874
  39.6636100  54.7342644  67.9561865  39.9436249  55.5956683  66.9266390
  39.8922407  55.4360432  67.6924356  56.9079079  45.8781342  65.8313308
  57.5504987  45.9479447  66.4175223  57.1602100  45.2110565  65.3292850
  57.0401211  45.7907691  65.8440587  44.6796291  49.0881906  70.4437882
  43.9868088  48.6178885  70.6898614  45.2956619  48.8620210  71.0179589
  44.6680821  48.9849038  70.5647035  60.1225942  55.5548434  62.4803517
  60.7842376  54.9939103  62.3799426  59.4817354  55.0600465  62.8056208
  60.1254810  55.3984843  62.5135858  51.0102750  58.8518566  54.7884441
  51.4253898  58.5203590  54.0968936  50.1794679  58.6187468  54.6604577
  50.9490759  58.7689822  54.6675288  40.3391099  56.3362307  65.0782619
  40.1566672  56.3109193  64.2254911  41.0740768  56.8061245  65.1171527
  40.4205162  56.4023669  64.9580537  56.4090773  56.5713817  62.2215506
  56.6446362  56.7159016  61.3942357  56.5580336  57.3356225  62.6147020
  56.4656576  56.7052871  62.1579110  43.4036850  53.0547310  71.5864727
  44.1276823  53.0400340  72.0729622  43.5052987  53.7642665  71.0886695
  43.5255059  53.1572013  71.5843514  58.2381230  55.4115483  60.0585110
  58.5689447  55.9443123  59.4525205  58.8114318  55.4654371  60.7147061
  58.3714909  55.4985052  60.0662892  53.4513119  53.2580385  60.7408690
  53.5459973  53.9969680  61.1948316  52.8271962  52.8297861  61.1743255
  53.3722149  53.3041706  60.8716838  40.3062009  53.2155808  65.2281685
  40.8835512  53.0792258  65.8673930  39.6076071  52.7591592  65.4827270
  40.2883030  53.1278074  65.3603975  53.7036140  55.1029125  53.9745642
  53.6216303  55.1731312  54.8400629  54.3415860  55.6658869  53.7829383
  53.7855977  55.1968096  54.0735592  47.0629311  54.8689863  63.4420168
  46.8048555  54.0361598  63.4151468  47.1177794  55.0947476  62.6012669
  47.0329089  54.7787634  63.3140305  52.1430361  46.9718314  63.5424261
  51.4386688  46.4827499  63.7008180  52.1915336  46.9840788  62.6712705
  52.0460413  46.9007962  63.4363601  46.0364023  52.4227626  63.9285063
  45.4613615  52.5819794  64.5649024  45.6599700  51.7863035  63.4653514
  45.8966836  52.3525439  63.9539622  49.7037312  50.8950975  68.7877442
  49.3151745  50.4705193  68.1329633  49.0392010  51.1433125  69.2954468
  49.5484240  50.8689696  68.7665309  35.7820842  52.0667700  61.9429504
  35.8681094  51.6899569  62.7243034  36.4096640  51.6928146  61.4649462
  35.8877393  51.9553183  61.9874981  53.5263673  44.5925604  66.3001426
  53.9074185  43.9103775  66.6869300  52.7226958  44.3035206  66.1177090
  53.4640135  44.4492652  66.3305482  50.8076250  55.1249580  56.9854249
  51.6216889  55.4164472  56.8737020  50.7435391  54.4709442  56.4112541
  50.9178989  55.0714774  56.8843086  46.6784158  58.5971097  62.1126561
  47.3158105  58.3582845  62.6578354  47.1039230  58.8008256  61.3779721
  46.8360325  58.5922107  62.0843718  41.3696801  60.8359434  65.9960864
  41.4100946  61.1074285  65.1680644  41.9291325  61.3601342  66.4118652
  41.4580147  60.9535189  65.9352753  47.3186973  53.8173387  56.4501450
  47.7032126  53.5981094  57.2017995  47.0698594  54.6436332  56.5802526
  47.3389046  53.9071533  56.5802526  49.0605630  59.0743520  63.7920347
  49.1344639  58.9118692  64.6462197  49.8775137  59.2633709  63.5480829
  49.1921989  59.0780262  63.8818372  42.8211387  59.4201382  60.8214790
  41.9949505  59.6663120  60.6949069  42.8823378  59.3413463  61.6876848
  42.7085554  59.4446331  60.9303735  54.1620300  45.6348183  70.1121552
  54.9073892  45.4457993  69.6984978  53.7457604  46.1606421  69.5535409
  54.2105274  45.6850328  69.9686126  47.6010216  62.0378263  58.5233820
  47.8908515  61.6467244  57.7993047  48.3313697  62.2194968  58.9639096
  47.7517100  62.0072076  58.4816627  61.5382570  53.0057411  65.0627057
  62.0890492  52.3725480  65.3024149  61.5226686  53.5372804  65.7542562
  61.6167767  52.9906359  65.2005916  45.5416132  64.0145645  61.5893970
  45.3216427  63.7243000  62.3820637  45.3210654  63.3560600  61.0611882
  45.4763726  63.8745353  61.6282879  44.4533079  56.1018962  63.8549672
  44.1646328  55.4756433  64.3895399  45.3216427  56.0439249  63.9214352
  44.5393331  56.0006506  63.9440626  55.2410977  51.2453745  64.1731653
  54.8975743  50.5244080  64.5238903  55.3404019  51.0367596  63.3310012
  55.2053020  51.1077948  64.1003334  47.7084087  65.3875035  60.3724662
  48.3608145  64.8551477  60.6015688  47.0109696  65.0343687  60.7592536
  47.7014805  65.2564558  60.4636830  44.6565352  57.7414213  59.7792037
  45.4111320  58.1227252  59.9927499  44.0635965  58.1925356  60.2338733
  44.6802066  57.8643040  59.8774915  55.7024006  57.7079449  59.7155642
  56.2682038  58.3672659  59.6314185  55.0551909  58.0529147  60.1872044
  55.6902762  57.8561390  59.7728398  45.9763579  58.9122774  65.1532152
  45.4544332  59.0523066  65.8384017  46.3637599  58.1533438  65.3434269
  45.9567280  58.8208298  65.2833229  52.1730584  60.6518233  59.1392721
  51.9317260  59.9186094  58.7319786  52.3531917  61.2005090  58.4859054
  52.1638208  60.6240624  58.9822944  47.4029904  55.9426793  60.5513643
  47.2072687  56.5501528  59.9573946  47.6264250  55.2494737  60.0705317
  47.4064546  55.9304319  60.3929724  45.8008434  52.8281531  60.6694511
  46.5231086  52.9922689  60.2098317  45.3216427  53.5491196  60.5633851
  45.8372165  52.9579761  60.5860125  53.7601942  49.1645330  66.0491196
  52.9213043  49.1906609  65.8129460  53.8306309  49.8116065  66.6296543
  53.6470336  49.2641456  66.1000313  52.2071220  46.0630707  60.7818812
  52.9097573  45.8638455  60.3038771  51.9415409  45.2906649  61.0887656
  52.2717853  45.9193673  60.7564254  57.6359466  54.3713317  63.3352438
  57.5493440  54.5268743  64.1887217  57.1809946  55.0151392  62.9611843
  57.5562723  54.4889072  63.4059545  46.9699777  47.3265992  69.8349693
  46.7782974  47.3421126  70.6849116  47.8198373  47.5229666  69.8116348
  47.0675499  47.3580343  69.9572988  41.3546690  49.8556973  67.8133509
  41.2132181  49.0040914  67.9378017  41.6387253  49.8985634  66.9895715
  41.3754536  49.7356723  67.7101133  51.5085282  51.6924064  61.9577998
  51.2619996  51.6119815  62.7914787  51.8370405  50.9077531  61.7640525
  51.5206526  51.5650329  62.0525521  49.6402227  53.6270951  69.1526112
  48.8925541  53.8201965  68.7474390  49.7943752  52.8016170  68.9150234
  49.5524654  53.5336062  69.0571518  56.8986704  57.7585677  56.5081278
  56.5193512  56.9722815  56.5010567  56.2352949  58.3072534  56.3652922
  56.7445178  57.7230501  56.4862075  49.8804004  47.5221501  70.0421516
  50.3376618  48.2545476  70.1694308  49.9560332  47.0987967  70.8008772
  49.9594973  47.5678739  70.1722593  42.1236995  47.7687321  71.1310960
  41.5879184  47.1567679  71.4471727  42.1854760  48.3435457  71.7844626
  42.0532628  47.7634249  71.2746387  54.3531330  40.7011377  63.9115359
  54.4714898  41.1587840  63.1782662  54.1793505  39.8956638  63.6251577
  54.3450501  40.6505149  63.7616293  49.7233612  61.3099196  60.3470104
  50.4883503  61.0408840  60.0252769  49.6211702  60.8249206  61.0640167
  49.8215107  61.1988760  60.4049932  47.7586382  49.5123605  66.8863340
  46.9682456  49.3315065  67.2080676  48.1547004  48.7350558  66.8693635
  47.7003258  49.3711066  66.9315888  52.2452272  58.3411380  52.3270054
  53.0125257  58.4011505  51.9175905  51.7983581  57.7691821  51.8426372
  52.2925700  58.2647955  52.1947764  53.1430068  57.1466035  64.6122786
  52.4675070  56.9151268  65.1136173  53.1522444  56.5387218  63.9864891
  53.0448572  57.0224961  64.5938938  50.2724212  51.9883864  71.3686839
  50.2083353  52.8493821  71.2406976  50.4121400  51.6715858  70.5682390
  50.2839682  52.0684031  71.2315052  55.1446802  60.0031168  56.8432964
  55.2266640  60.8098154  56.5194415  55.6296545  60.0227127  57.5673737
  55.2283960  60.1251830  56.9019863  48.9543306  54.6816004  65.5103042
  48.5305555  54.8820503  64.7742060  48.7788161  53.8344852  65.6227342
  48.8654186  54.5864785  65.4176732  44.2425751  55.1768055  60.9431014
  44.3990370  55.1114858  61.7987006  44.5826344  55.9516608  60.7309694
  44.3158986  55.2817253  61.0385609  50.7804895  54.5525939  59.8124378
  51.3220441  54.0496320  60.2762998  51.0951454  54.4991133  59.0013863
  50.9069292  54.4705360  59.7608190  48.9491345  59.9443290  57.0964406
  49.0184165  59.0857829  57.2357406  49.7279800  60.1615171  56.7683430
  49.0744195  59.8496154  57.0681563  51.9294165  49.4462243  69.8646678
  52.1436134  48.8073157  69.3110032  51.3128064  49.8908067  69.4354540
  51.8699494  49.4172387  69.7197109  53.3398833  62.3680992  61.3100899
  52.9478624  62.0647707  60.5923765  53.4951905  63.2050081  61.1205853
  53.3052422  62.4464828  61.1757396  40.8160012  52.3603006  61.2591782
  41.1958977  52.7787551  60.5952049  40.2415377  52.9416461  61.5660625
  40.7871337  52.5080864  61.2068523  53.5038507  58.9330980  61.2506930
  53.1453162  59.1045623  62.0270962  53.0177218  59.3944186  60.6934928
  53.3797204  59.0269951  61.2832199  51.3208893  42.5562179  64.8534021
  50.4502451  42.5300900  64.8067330  51.5749235  42.3839371  64.0359867
  51.2302453  42.5272323  64.7254158  48.2926873  54.6130146  53.7907164
  48.5819398  55.3895028  54.0650738  48.3798672  54.1018877  54.4921663
  48.3481129  54.6522064  53.9349662  48.3458034  44.5668407  66.3107491
  47.8296522  43.8748599  66.4359070  47.7851963  45.2339184  66.2570090
  48.1864547  44.5631665  66.3213557  50.4150267  45.1061367  68.1400344
  50.0282020  45.1310399  68.9213874  49.9283205  44.5403046  67.6874860
  50.2862776  45.0257118  68.1888248  56.3900247  51.6724022  66.7640046
  55.9627855  51.5850371  66.0088146  55.7526300  51.7801798  67.3494890
  56.2329854  51.6756682  66.7385488  50.0807409  41.9928353  70.4310604
  50.7100527  42.5288653  70.1531674  50.2493272  41.9005712  71.2824169
  50.1985204  42.0589715  70.5159132  49.8821324  46.7799548  72.7037015
  50.7094753  46.5084696  72.7595630  49.9029170  47.5760389  73.0600833
  50.0074174  46.8579302  72.7652198  44.4590814  53.9263410  65.8907276
  43.6178820  53.8267285  66.0986170  44.6680822  54.6958891  66.2421597
  44.3655506  54.0255454  65.9734591  41.9366381  51.5482947  63.7192027
  41.5423078  51.6225959  62.9442136  41.3806498  51.9340894  64.2700388
  41.7969193  51.6164722  63.6859686  53.5731327  44.5264241  63.3995906
  53.7780921  44.4586549  64.2452903  53.2457751  45.3323063  63.3317083
  53.5546575  44.6350182  63.5155561  48.2707479  51.8544810  65.1404874
  47.9670616  51.3000798  65.7415281  47.5686899  52.0337020  64.6532908
  48.1223688  51.7989592  65.1574579  56.8265015  45.0796006  62.8798671
  56.2139329  45.5666408  63.2652403  56.9229190  44.4039496  63.4236322
  56.7502913  45.0514314  63.0177529  50.8284096  46.8358847  57.9796170
  51.2827843  47.0069407  58.7044015  51.3024142  46.2226957  57.5793946
  50.9652416  46.7709732  58.0269932  44.3499622  56.3207173  67.3098909
  43.7587555  56.9616671  67.2801924  45.1120645  56.7444790  67.2830208
  44.3747882  56.4783011  67.3014056  44.7460244  47.4809170  67.9766927
  45.2061726  47.5548100  68.7142050  44.7916351  48.2790424  67.6266748
  44.8210800  47.6103317  68.0339683  46.3943594  48.1475865  72.5438954
  46.0029159  47.5009212  72.9794731  46.5629457  48.7387301  73.1633209
  46.3614504  48.1390133  72.7001660  48.1697116  53.5401381  59.0841178
  48.9139161  53.9275657  59.3224128  48.3157812  52.6958806  59.2481665
  48.3007701  53.4731854  59.1435147  50.0876692  45.3351640  64.1173039
  49.2412737  45.5074448  63.9914389  50.0847824  44.5300984  64.4538867
  49.9623842  45.2412669  64.1484166  51.1574992  49.1126854  64.9835097
  50.6834946  48.5868616  65.4940408  51.5293128  48.5656327  64.4149959
  51.1424881  48.9542851  64.9750244  41.5348022  51.1098361  70.3518643
  42.3973635  51.0094070  70.2655973  41.2039805  50.5293070  69.7904215
  41.6133219  51.0089988  70.2564049  57.4211723  54.1729230  66.3941878
  57.1809946  53.3335645  66.3984304  57.9003730  54.2529397  67.1182651
  57.4563906  54.0610630  66.5016680  53.0858492  50.0063409  58.0460851
  52.5581510  50.0892153  57.3566560  53.5454200  50.7481280  58.0425495
  53.0760342  50.1284071  57.9435546  59.4216910  50.9530687  64.3471137
  59.1826680  50.9126521  63.5091921  59.5850811  51.8001839  64.4736858
  59.4107213  51.0722772  64.2424619  44.8949808  49.9340810  67.0129061
  44.2702878  49.9459202  66.4055014  44.5595403  50.4100985  67.6620301
  44.7535300  50.0059327  67.0185629  41.6075484  57.9941270  68.4532825
  41.0775408  57.3033709  68.5027800  41.8800577  57.9851456  67.6245534
  41.5700206  57.8908402  68.3380241  52.6395574  58.5766973  57.1770508
  53.3629773  59.0425086  57.0335081  52.1996165  58.6440582  56.4268105
  52.6811266  58.6550809  57.0455289  51.8081729  55.4364515  68.4271197
  51.1938722  54.8922565  68.7219832  52.3249014  54.9228751  67.9477013
  51.7937392  55.2800924  68.3995425  51.0478026  56.5068785  66.1615495
  50.6205634  55.8818503  65.7280931  51.0402971  56.2243707  66.9874503
  50.9837168  56.3721565  66.2195323  44.1640554  51.5433958  69.2303929
  44.3234040  50.7877282  69.6355651  43.9833447  52.0924897  69.8844667
  44.1605913  51.5127772  69.3866635  52.1060857  43.7095193  69.7854719
  51.6101418  43.9058868  69.0946286  52.8629919  44.1087862  69.6143521
  52.1447681  43.7972927  69.6574856  49.3763736  47.3837539  66.3758029
  49.4006223  46.8497652  65.6870809  49.6275210  46.8754848  67.0383620
  49.4173655  47.2298443  66.3722674  36.8871326  54.6669034  65.8101174
  36.7814775  54.6215879  64.9453258  36.1371546  55.0122815  66.0915458
  36.7606929  54.7109942  65.7238503  45.6565058  46.1108358  65.7563774
  45.6963430  46.6117564  66.4698481  44.8314723  46.2018751  65.4869697
  45.5404584  46.1990174  65.8214312  47.0779422  52.6268867  68.0537673
  46.2471351  52.7942685  67.8472921  47.0230939  52.2504818  68.8386558
  46.9468837  52.5958599  68.1386201  44.8863205  46.1177760  73.6894083
  45.5115908  45.5739893  73.9623516  44.4313685  45.6372678  73.1201874
  44.9111466  45.9667242  73.6455677  52.4553826  47.0877739  68.2489288
  52.8808897  46.6350266  67.6372815  51.8410819  46.5337810  68.5254076
  52.4282471  46.9391716  68.1994314  41.9868676  53.9659411  59.1809913
  42.4960905  54.5623918  59.5621219  42.4602948  53.6985384  58.4986333
  42.1312052  54.0145226  59.1364436  52.8999424  62.6387677  57.3368569
  52.1828734  62.4648540  56.8715806  53.5506161  62.4040250  56.8044055
  52.8901274  62.5783470  57.1897787  50.8948049  43.5592839  61.6579865
  50.2516367  43.4090486  62.2265004  50.5547456  43.3135184  60.8928970
  50.7493126  43.5004962  61.6282881  55.4847395  51.5152266  61.0809874
  54.8138585  52.0581968  60.9522940  56.1787145  51.9847121  60.8391569
  55.4876263  51.6650537  61.0265402  55.6475523  47.9708150  63.9900247
  56.0003133  47.5437873  64.6646046  54.7890324  47.8858993  64.1201324
  55.5724967  47.8952890  64.1095258  53.6458788  51.2343518  67.9385089
  53.6256716  51.0526813  68.7919868  53.6937989  52.1055537  67.9144673
  53.6493429  51.3360056  68.0608384  48.1812586  63.8749436  63.7658717
  47.7672984  63.2123566  63.3762559  48.8659960  64.0227295  63.2454411
  48.2210957  63.7990094  63.6315214  51.5477880  63.0339521  64.5182333
  51.1494163  63.1441792  63.7503154  50.9329099  63.2421588  65.1008893
  51.3976769  63.0813089  64.4913633  50.1205782  49.6413669  57.3856473
  49.5270621  49.9630666  56.8341040  50.1581060  48.7954765  57.1777579
  50.0380171  49.5637997  57.2739244  57.0799583  43.0926561  64.9184560
  56.5730447  42.3855701  64.8505737  57.8767016  42.7619750  65.0485636
  57.1226822  42.9399713  64.9283555  52.9963599  49.5993174  60.8158223
  52.7677292  49.6225875  59.9736582  53.2561675  48.7750641  60.9353234
  53.0009787  49.4809254  60.7083421  47.2782827  51.4527647  70.4183324
  46.7661730  50.8448830  70.7768355  47.1062323  52.1684239  70.8857299
  47.1772464  51.4690946  70.5399547  42.1248542  49.8965222  73.0685685
  41.9551132  50.5566597  72.5233892  41.6814492  50.1071783  73.7898175
  42.0347875  50.0251204  73.0947315  59.2819723  57.6091488  57.9025424
  59.6653328  58.3582844  58.1323521  58.4863836  57.8557308  57.6437413
  59.2213505  57.7561182  57.8982998  51.1551897  49.3751891  72.8585579
  51.7123327  49.1465701  72.2264045  50.8312962  50.1357557  72.5820792
  51.1898307  49.4535728  72.7242076  39.0250606  52.8012088  68.3274175
  38.4777326  52.1312733  68.4455044  39.8142984  52.4341936  68.3917643
  39.0602790  52.6477074  68.3542876  48.0935014  50.2810920  55.4785803
  48.4733979  50.2990549  54.6936918  47.3527610  50.7264909  55.3576650
  48.0403852  50.3492694  55.3449371  55.7220305  48.5893111  61.0661382
  55.7214531  48.4341768  61.9245658  55.5176485  49.4356098  61.0102767
  55.6920083  48.6913732  61.1849321  37.7837576  52.0132895  65.4820198
  37.6059337  51.5609504  66.2075114  37.4956598  52.8159057  65.6658676
  37.7150529  52.0655453  65.6163701  53.4461157  53.2690613  64.7197589
  53.9414822  52.5513608  64.6801609  52.6360932  52.9661410  64.6052076
  53.4005050  53.1188259  64.6971314  48.8919768  57.1188426  56.8694593
  48.0831091  56.7955100  56.8227903  49.3994677  56.4121648  56.8022842
  48.8469435  56.9669742  56.8524887  39.5210046  54.5460619  62.5941957
  38.6555565  54.5346310  62.4824729  39.6208861  54.3590842  63.4413097
  39.4084212  54.5166680  62.7030902  55.5112976  56.0194300  67.4074717
  55.9368047  55.4968722  66.8545142  55.1469895  56.6175138  66.8863340
  55.5199578  56.0304527  67.2483727  45.1467055  64.3158518  66.1672063
  45.4613614  65.1294906  66.1749845  45.5560469  63.9308736  66.8354222
  45.2535153  64.3787220  66.2676155  52.0991575  59.7328565  63.7375875
  52.5702753  60.4468827  63.9065860  52.4351754  59.1327315  64.2735744
  52.2186690  59.7500029  63.8408251  49.0161070  44.5056035  70.6933970
  49.1488976  43.7087029  71.0214945  49.4006223  45.0322438  71.2732245
  49.0917399  44.4655952  70.8277473  52.0893425  41.4286361  67.2915063
  51.2839389  41.3184091  67.6082901  51.9600161  41.5298817  66.4344929
  51.9513558  41.4270031  67.2123103  55.5459386  47.5931853  67.8854760
  54.9622375  48.0941060  67.4732327  55.8663680  47.0861409  67.2519083
  55.5072561  47.5923688  67.7313267  46.6749517  44.5015210  68.9411863
  47.2193930  44.1606337  69.5316205  46.7286453  45.3600672  69.0833148
  46.7638636  44.5770470  69.0493737  42.4880076  58.2631626  65.8150671
  43.0924933  58.2227460  65.1864492  42.2807388  59.1102778  65.8454727
  42.5468973  58.3819629  65.7266788  37.7231358  57.2466244  65.6849594
  37.6255636  56.4362515  65.9939651  38.5060228  57.2258037  65.2995863
  37.8247494  57.1233334  65.6736457  57.1401419  72.0070380  56.8793588
  56.5558634  72.5120412  57.2859452  56.7371514  71.7812767  56.1390180
  56.9940723  72.0478629  56.8298613  61.5978634  68.2536032  55.3562508
  61.8374637  68.4614016  54.5437852  61.9194475  67.4493541  55.4651453
  61.6815791  68.1650134  55.2523061  56.9068924  60.1829428  59.2022046
  57.6614892  60.5507745  58.9639097  56.7296458  60.5568983  59.9701226
  56.9923402  60.2927616  59.2806935  55.2625988  62.5899747  55.9000159
  55.0801562  62.8071628  55.0741152  56.1251601  62.7038760  55.9558774
  55.3630578  62.6389645  55.7854646  60.9425708  59.5926158  58.9349183
  61.6711868  59.4142113  58.4887339  61.0320601  60.4344238  59.1456361
  61.0632370  59.6910036  58.9002701  64.6768724  70.6214433  53.9745642
  64.5948886  70.6916620  54.8400629  65.3148444  71.1844177  53.7829383
  64.7588561  70.7153404  54.0735592  46.7553426  67.5853008  61.9429504
  46.8413678  67.2084877  62.7243034  47.3829223  67.2113454  61.4649462
  46.8609977  67.4738491  61.9874981  58.2919557  69.3358695  56.4501450
  58.6764710  69.1166401  57.2017995  58.0431177  70.1621640  56.5802526
  58.3121630  69.4256841  56.5802526  56.0119994  61.0055631  61.7810231
  55.1442420  61.0778231  61.8467840  56.2995199  61.8077710  61.9698206
  55.9259743  61.1349778  61.8184997  53.9387346  64.4813891  59.2227107
  53.6512142  64.1115161  58.4859054  54.6257815  64.9508746  58.9610812
  53.9976244  64.4960860  59.0742183  63.1803804  61.5816015  60.7818812
  63.8830157  61.3823763  60.3038771  62.9147993  60.8091957  61.0887656
  63.2450436  61.4378981  60.7564254  51.5115541  65.2595103  60.0712388
  51.6131678  66.0621265  60.3993363  52.3071428  65.0582439  59.7735468
  51.6443447  65.3481002  60.0747743  51.7892596  67.8788314  61.2591782
  52.1691561  68.2972858  60.5952049  51.2147961  68.4601769  61.5660625
  51.7603921  68.0266172  61.2068523  59.2659456  70.1315454  53.7907164
  59.5551981  70.9080336  54.0650738  59.3531255  69.6204185  54.4921663
  59.3213713  70.1707372  53.9349662  58.3006159  64.6830637  59.7049575
  58.5765894  63.9649550  59.2927143  58.9004829  65.2815557  59.4970681
  58.4299424  64.6651008  59.6130337  61.8016680  62.3544155  57.9796170
  62.2560426  62.5254715  58.7044015  62.2756726  61.7412265  57.5793946
  61.9385000  62.2895040  58.0269932  56.0524140  63.7951237  53.0701746
  55.7036945  64.4470962  53.5333295  55.5720586  63.7808350  52.3425617
  55.9294384  63.8894290  53.0312837  56.4248049  66.4209767  58.5827790
  56.5651010  66.9182231  59.2856432  56.9230582  65.7196061  58.7242004
  56.5189130  66.3911746  58.7079369  56.4548272  67.2876878  55.9120367
  57.0893351  67.8837303  55.8469829  56.5373882  66.9880336  56.7266237
  56.5604823  67.3317786  56.0223454  58.0327254  63.2190853  55.8865809
  58.3543095  62.7393936  55.2325072  58.2954198  64.0290499  55.6956621
  58.1193280  63.2680751  55.7621301  52.9601259  69.4844719  59.1809913
  53.4693489  70.0809226  59.5621219  53.4335532  69.2170692  58.4986333
  53.1044635  69.5330534  59.1364436  61.8680632  59.0778147  61.6579865
  61.2248950  58.9275793  62.2265004  61.5280039  58.8320492  60.8928970
  61.7225710  59.0190270  61.6282881  61.0938366  65.1598977  57.3856473
  60.5003205  65.4815974  56.8341040  61.1313643  64.3140073  57.1777579
  61.0112755  65.0823305  57.2739244  59.0667598  65.7996228  55.4785803
  59.4466563  65.8175857  54.6936918  58.3260194  66.2450217  55.3576650
  59.0136436  65.8678002  55.3449371  59.0586768  62.0257756  58.1613435
  59.8802463  62.1956069  57.9195129  58.5956419  62.1805017  57.4379732
  59.1117931  62.0739489  58.0185079  35.5490571  -1.4315370  46.9295832
  35.5184576  -0.5770733  47.1014101  36.1471920  -1.7320077  47.4881975
  35.6327729  -1.3498873  47.0370634  28.7490256  -2.3439718  51.6848762
  27.8928152  -2.1831220  51.7357879  28.7957910  -3.2147655  51.7053823
  28.6289368  -2.4488917  51.6954828  23.1331396   7.1922999  47.4485994
  22.3814295   6.8138538  47.2202039  23.5817408   7.2241433  46.7004804
  23.0881063   7.1408607  47.3043496  32.0583973   3.9246807  61.2909218
  32.7650740   3.4298838  61.4196153  32.2471908   4.3655889  60.5611876
  32.1911878   3.9165157  61.2018264  28.5856356   7.6148369  42.8771541
  28.2507724   8.2925290  42.4415763  29.0983226   7.2253680  42.2888413
  28.6121937   7.6572947  42.7258332  28.1260647   9.5662638  48.8182653
  28.5100026  10.1349536  48.2787428  28.0619788   8.8412148  48.3388469
  28.1734074   9.5438101  48.6676515  31.5942077  -0.2847675  54.3280414
  32.1398037   0.3937412  54.3874384  31.5358953  -0.4260214  53.4681995
  31.6657991  -0.2055673  54.2092474  24.7116152   7.2041392  49.7148766
  24.8126515   6.3941745  50.0245894  24.1157897   7.1098338  49.0848445
  24.6388691   7.0706420  49.6675005  33.3707146   1.1436933  45.2014142
  33.2546672   1.8944619  45.6306280  34.1663032   0.8860886  45.4510229
  33.4711735   1.2171779  45.3018233  24.5516892  12.1218981  51.1163622
  25.1954347  12.5632145  51.5059781  24.8773147  11.3172407  51.0293881
  24.6948720  12.0684175  51.1609100  17.9081196   3.2261678  49.3401100
  17.6731381   2.3929330  49.2333369  18.0466837   3.5066344  48.5262301
  17.8936859   3.1445182  49.2043455  25.2537471   5.1330956  46.4883484
  25.5753312   5.6736163  45.8844792  25.9009568   4.5627727  46.6205774
  25.3963527   5.1290131  46.4190519  27.3039179  -2.8653050  46.5717871
  28.0019344  -2.6864922  47.0639334  27.6191512  -3.3882710  45.9488260
  27.4534517  -2.9159277  46.5519881  27.4927115   3.5217396  46.5597662
  27.9320750   2.9134496  47.0052435  27.3431778   3.1424769  45.7883127
  27.5348580   3.3755867  46.5116830  24.9598758   2.1161407  53.7616488
  25.6047760   1.6233850  53.4427436  25.2000535   2.2586194  54.5882566
  25.0909343   2.0638850  53.8366021  27.4984849   4.9616313  53.4123380
  27.7808092   4.1667719  53.1910136  28.2271010   5.4396901  53.4328441
  27.6474413   4.9150910  53.3826396  31.0936451   1.8744577  43.5128432
  31.0087746   2.7305543  43.6578000  31.5820835   1.5988901  44.1810591
  31.1525349   1.9601898  43.6330513  32.0254885  -1.5070629  45.0126167
  31.4966356  -1.2910995  45.6723473  32.5479904  -0.8134491  44.9327136
  32.0243338  -1.3727492  45.0981766  37.4802937   4.0675675  50.3859211
  36.6500641   4.2786319  50.5492628  37.4312190   3.2412730  50.1101495
  37.3509673   3.9765282  50.3696577  23.9154492   2.3892588  43.8133635
  23.3311708   2.8942619  44.2199499  23.5124588   2.1634975  43.0730227
  23.7693796   2.4300836  43.7638660  19.4698521   8.1047349  50.6157306
  18.9866099   8.8297839  50.5916890  20.2821839   8.4023479  50.7267464
  19.5189269   8.2549703  50.6284585  25.5412675   6.8979530  53.2207121
  25.0239617   6.5386945  52.6168429  26.2387066   6.3741704  53.2313187
  25.5678256   6.7677218  53.1337379  29.1976267   7.3474344  59.1823294
  29.2859613   7.1600484  60.0301504  29.6265980   6.7011773  58.7828140
  29.2738369   7.2237351  59.2495045  26.7646727   6.6305504  58.1640956
  26.2017562   6.2178113  58.6880617  27.5267750   6.5558409  58.5834099
  26.7941175   6.5582904  58.3033956  28.3731707  -1.3641760  42.2902555
  28.6127710  -1.1563776  41.4777898  28.6947548  -2.1684251  42.3991500
  28.4568865  -1.4527659  42.1863108  22.3242718   8.6203525  50.7677586
  23.0263298   8.1055514  50.8250343  22.2440201   8.9477676  51.5724461
  22.4166479   8.5917751  50.8950378  21.6493494   4.8109877  50.2763194
  22.4882393   5.0432810  50.3236956  21.6805263   3.9414188  50.2070229
  21.7775211   4.7166823  50.2727839  22.2746197   5.2310752  54.5776500
  22.8144422   5.0881883  55.2479872  21.5916143   5.6307503  54.9460526
  22.2538351   5.2690423  54.7310921  31.6987082   0.9101753  49.7721524
  32.4544597   1.3433267  49.8110433  31.8049406   0.2606522  50.3456160
  31.8257252   0.8779236  49.8619550  34.7367253   4.7375030  50.5223927
  34.3002485   4.7411772  51.2782898  34.4030168   5.4180529  50.0903504
  34.6229873   4.8387486  50.5704759  29.3096326   6.7783363  61.8467077
  30.0936743   6.8914210  62.2122819  29.1092921   5.9524500  62.0425763
  29.3962352   6.6730082  61.9301463  29.4666720   8.6893465  55.4933533
  28.6681965   8.4492965  55.7507401  29.9152731   8.7407858  56.2400580
  29.4141331   8.6615856  55.6418457  37.8711599   1.4555950  49.4143564
  38.5328033   0.8946618  49.3139473  37.2303011   0.9607980  49.7396255
  37.8740466   1.2992359  49.4475904  28.7588407   4.7526081  41.7224487
  29.1739555   4.4211105  41.0308983  27.9280336   4.5194983  41.5944624
  28.6976415   4.6697337  41.6015335  18.0876755   2.2369822  52.0122665
  17.9052329   2.2116708  51.1594958  18.8226424   2.7068760  52.0511574
  18.1690819   2.3031184  51.8920584  34.1576430   2.4721332  49.1555553
  34.3932019   2.6166531  48.3282404  34.3065993   3.2363740  49.5487067
  34.2142233   2.6060387  49.0919157  35.9866886   1.3122998  46.9925157
  36.3175103   1.8450638  46.3865252  36.5599974   1.3661886  47.6487108
  36.1200565   1.3992567  47.0002938  31.1998775  -0.8412099  47.6748737
  31.2945630  -0.1022805  48.1288362  30.5757619  -1.2694624  48.1083301
  31.1207806  -0.7950779  47.8056884  29.4551249   2.3374113  58.3239018
  30.0290111   1.7001358  58.4787582  29.3766053   2.3378196  57.4548675
  29.5284484   2.2439225  58.2185429  31.4521797   1.0036641  40.9085689
  31.3701959   1.0738828  41.7740676  32.0901517   1.5666385  40.7169430
  31.5341634   1.0975612  41.0075638  24.8114968   0.7697379  50.3760215
  24.5534212  -0.0630887  50.3491515  24.8663451   0.9954992  49.5352716
  24.7814746   0.6795150  50.2480352  23.7849680  -1.6764859  50.8625110
  23.2099271  -1.5172691  51.4989071  23.4085356  -2.3129450  50.3993560
  23.6452492  -1.7467046  50.8879668  28.5561907   1.0257095  43.9194295
  29.3702546   1.3171988  43.8077067  28.4921048   0.3716957  43.3452588
  28.6664646   0.9722290  43.8183133  34.7771397   3.7083091  58.3323871
  34.5410035   2.8771156  58.2135932  35.4214626   3.6568698  58.9178715
  34.8366068   3.5780779  58.4009765  24.4269815   4.4978612  49.0466607
  25.0643762   4.2590360  49.5918401  24.8524887   4.7015771  48.3119768
  24.5845981   4.4929623  49.0183765  19.1182458   6.7366949  52.9300911
  19.1586603   7.0081800  52.1020691  19.6776982   7.2608857  53.3458699
  19.2065804   6.8542704  52.8692799  25.0672630  -0.2819098  43.3841497
  25.4517783  -0.5011391  44.1358042  24.8184251   0.5443848  43.5142573
  25.0874703  -0.1920952  43.5142573  35.8007818   3.4927540  54.3952165
  35.4953635   4.2255597  54.7565481  35.0814033   3.0865469  54.1144952
  35.6495160   3.5409273  54.4065303  26.8091287   4.9751035  50.7260394
  26.8830295   4.8126207  51.5802244  27.6260794   5.1641225  50.4820875
  26.9407646   4.9787777  50.8158419  41.5009610   0.1320540  53.7220510
  41.4334110   0.1516500  52.8523096  41.4865272   0.9750868  53.9476180
  41.4888366   0.2594275  53.6272987  20.5697044   5.3208898  47.7554837
  19.7435162   5.5670635  47.6289116  20.6309035   5.2420979  48.6216895
  20.4571211   5.3453847  47.8643782  25.3495873   7.9385778  45.4573867
  25.6394171   7.5474759  44.7333094  26.0799354   8.1202483  45.8979142
  25.5002757   7.9079592  45.4156674  25.9390618   2.7403524  56.5426998
  25.4402312   3.4519292  56.6211886  26.7490842   3.0604191  56.5045160
  25.9846725   2.8930373  56.5483566  23.2901788   9.9153160  48.5234017
  23.0702084   9.6250515  49.3160684  23.0696311   9.2568115  47.9951929
  23.2249383   9.7752869  48.5622925  22.2018736   2.0026477  50.7889718
  21.9131984   1.3763948  51.3235446  23.0702084   1.9446764  50.8554399
  22.2878988   1.9014021  50.8780673  32.9896633  -2.8538740  51.1071700
  32.6461399  -3.5748404  51.4578950  33.0889676  -3.0624888  50.2650059
  32.9538676  -2.9914536  51.0343380  25.4569744  11.2882550  47.3064709
  26.1093802  10.7558993  47.5355735  24.7595353  10.9351203  47.6932583
  25.4500462  11.1572073  47.3976877  22.4051009   3.6421728  46.7132083
  23.1596977   4.0234767  46.9267546  21.8121622   4.0932872  47.1678780
  22.4287723   3.7650555  46.8114962  33.4509663   3.6086964  46.6495688
  34.0167695   4.2680174  46.5654231  32.8037566   3.9536662  47.1212091
  33.4388419   3.7568906  46.7068445  23.7249236   4.8130289  52.0872199
  23.2029989   4.9530581  52.7724064  24.1123256   4.0540954  52.2774316
  23.7052937   4.7215813  52.2173275  29.9216241   6.5525749  46.0732768
  29.6802917   5.8193609  45.6659833  30.1017574   7.1012606  45.4199101
  29.9123865   6.5248140  45.9162991  25.1515561   1.8434308  47.4853690
  24.9558344   2.4509043  46.8913993  25.3749907   1.1502252  47.0045364
  25.1550202   1.8311834  47.3269771  23.5494091  -1.2710954  47.6034558
  24.2716743  -1.1069796  47.1438364  23.0702084  -0.5501289  47.4973898
  23.5857822  -1.1412724  47.5200172  35.3845123   0.2720832  50.2692485
  35.2979097   0.4276258  51.1227264  34.9295603   0.9158907  49.8951890
  35.3048379   0.3896587  50.3399592  29.2570939  -2.4068421  48.8918044
  29.0105653  -2.4872670  49.7254833  29.5856062  -3.1914953  48.6980572
  29.2692182  -2.5342156  48.9865568  33.1518988   4.3014938  52.6804826
  33.0133347   4.9995984  53.1853568  32.3718985   4.1463595  52.3241007
  33.0162214   4.3815105  52.7031100  31.4897073   0.6011314  58.9327207
  31.4845111  -0.2708870  58.9369634  32.1958067   0.7999483  58.4596663
  31.5942077   0.5015188  58.8634243  27.3887883  -0.4721534  56.0866159
  26.6411197  -0.2790520  55.6814437  27.5429409  -1.2976315  55.8490280
  27.3010311  -0.5656423  55.9911565  24.2895721   8.5191069  55.1702054
  24.4385285   7.9593985  54.5175459  25.0695723   8.5983071  55.5534573
  24.4269815   8.4476635  55.1299004  34.6472360   3.6593192  43.4421325
  34.2679169   2.8730330  43.4350614  33.9838606   4.2080049  43.2992969
  34.4930835   3.6238016  43.4202122  26.8149022   8.6905712  56.4486545
  26.7392693   8.0214523  57.0037333  26.7438881   9.3923500  56.9627211
  26.7929629   8.6950620  56.6063393  27.4719269   7.2106711  47.2810151
  28.2369160   6.9416355  46.9592815  27.3697359   6.7256721  47.9980214
  27.5700764   7.0996276  47.3389979  25.5072038  -4.5868879  53.8203387
  24.7168113  -4.7677419  54.1420723  25.9032661  -5.3641927  53.8033681
  25.4488915  -4.7281419  53.8655935  29.9937929   4.2418895  39.2610100
  30.7610914   4.3019020  38.8515952  29.5469238   3.6699336  38.7766419
  30.0411356   4.1655471  39.1287811  30.8915725   3.0473551  51.5462833
  30.2160726   2.8158783  52.0476220  30.9008101   2.4394734  50.9204938
  30.7934229   2.9232476  51.5278985  32.8932459   5.9038683  43.7773011
  32.9752297   6.7105669  43.4534462  33.3782201   5.9234642  44.5013784
  32.9769617   6.0259345  43.8359909  26.7028963   0.5823519  52.4443089
  26.2791212   0.7828018  51.7082107  26.5273818  -0.2647633  52.5567389
  26.6139843   0.4872300  52.3516779  26.2040656  12.0974032  54.9064546
  26.6936586  11.3984821  54.7240211  25.6324888  11.7997902  55.4940603
  26.1925186  11.9500256  54.9665587  21.9911407   1.0775570  47.8771061
  22.1476027   1.0122373  48.7327053  22.3312001   1.8524123  47.6649741
  22.0644642   1.1824769  47.9725655  28.5290552   0.4533454  46.7464424
  29.0706098  -0.0496165  47.2103045  28.8437111   0.3998649  45.9353910
  28.6554949   0.3712875  46.6948237  26.6977002   5.8450806  44.0304452
  26.7669822   4.9865344  44.1697453  27.4765457   6.0622686  43.7023477
  26.8229852   5.7503670  44.0021610  31.0884489   8.2688507  48.2440946
  30.6964281   7.9655222  47.5263812  31.2437562   9.1057597  48.0545900
  31.0538079   8.3472344  48.1097443  31.2524164   4.8338496  48.1846976
  30.8938819   5.0053139  48.9611009  30.7662875   5.2951701  47.6274975
  31.1282861   4.9277467  48.2172245  26.0412530   0.5137661  40.7247211
  26.3305054   1.2902544  40.9990785  26.1284328   0.0026393  41.4261710
  26.0966786   0.5529579  40.8689709  32.4128904   5.7242392  59.1314177
  33.0508624   5.2302587  58.7976633  31.7702995   5.6519792  58.5466404
  32.4123130   5.6401400  58.9956532  34.1385904  -2.4268462  53.6980093
  33.7113512  -2.5142114  52.9428192  33.5011957  -2.3190687  54.2834937
  33.9815511  -2.4235803  53.6725534  32.4683160   6.4162200  55.7719534
  33.2575538   6.0651265  55.8921616  32.6426758   7.2298588  55.5096168
  32.6103442   6.4848057  55.7507402  22.2076471  -0.1729074  52.8247323
  21.3664477  -0.2725200  53.0326217  22.4166478   0.5966406  53.1761643
  22.1141163  -0.0737031  52.9074638  26.0193135  -2.2447675  52.0744920
  25.7156273  -2.7991687  52.6755328  25.3172556  -2.0655465  51.5872955
  25.8709345  -2.3002893  52.0914626  25.0759232  -4.9347155  46.6389622
  25.3518967  -5.6528243  46.2267190  25.6757902  -4.3362235  46.4310728
  25.2052497  -4.9526785  46.5470383  24.0811486   4.9702046  56.7817018
  23.9731841   4.9804108  57.6479076  24.2907268   5.7956826  56.5921972
  24.0961597   5.0943120  56.8821110  22.0985278   2.2214688  54.2438956
  21.5073212   2.8624186  54.2141971  22.8606302   2.6452305  54.2170255
  22.1233539   2.3790526  54.2354103  38.2175700   2.0520458  55.2416234
  38.2758824   2.5007106  55.9876210  37.5842168   2.4619270  54.8046314
  38.1326995   2.1794192  55.2868782  31.8574795   7.6724000  51.6770980
  31.6594483   8.1614814  50.9827192  31.2362506   7.8765241  52.2555114
  31.7362359   7.7740538  51.6594203  25.9182773  -0.5591104  46.0181224
  26.6624818  -0.1716827  46.2564174  26.0643469  -1.4033678  46.1821712
  26.0493358  -0.6260631  46.0775194  35.1697379   0.0736745  53.3281924
  34.9295602  -0.7656839  53.3324351  35.6489387   0.1536912  54.0522698
  35.2049563  -0.0381855  53.4356727  30.8344148  -4.0929076  44.9800898
  30.3067167  -4.0100332  44.2906606  31.2939857  -3.3511204  44.9765542
  30.8245999  -3.9708413  44.8775593  33.7748597   1.2388152  57.2116229
  34.4982795   0.7860678  57.0327248  33.5098559   1.5192818  56.4288556
  33.8429870   1.2139120  57.0694944  19.3561140   3.8948786  55.3872872
  18.8261065   3.2041224  55.4367847  19.6286234   3.8858971  54.5585581
  19.3185863   3.7915917  55.2720288  30.3881231   4.4774488  44.1110555
  31.1115430   4.9432601  43.9675128  29.9481822   4.5448097  43.3608152
  30.4296923   4.5558325  43.9795336  29.5567386   1.3372030  55.3611244
  28.9424379   0.7930080  55.6559879  30.0734671   0.8236267  54.8817060
  29.5423048   1.1808439  55.3335472  28.7963683   2.4076300  53.0955542
  28.3691291   1.7826019  52.6620978  28.7888628   2.1251222  53.9214549
  28.7322824   2.2729081  53.1535370  24.8265079  -1.4723617  54.9877720
  23.9957008  -1.3049799  54.7812968  24.7716596  -1.8487666  55.7726605
  24.6954493  -1.5033886  55.0726248  23.2001122  -3.1968026  45.5167837
  23.3404083  -2.6995561  46.2196479  23.6983655  -3.8981731  45.6582051
  23.2942203  -3.2266047  45.6419416  23.2301345  -2.3300915  42.8460414
  23.8646424  -1.7340490  42.7809876  23.3126956  -2.6297457  43.6606284
  23.3357896  -2.2860007  42.9563501  36.2083911   0.2014563  55.7146778
  36.8001751   0.8411813  55.7464976  36.6442905  -0.4962401  56.0038845
  36.3602342   0.1932913  55.7627611  28.0377300   4.6231935  56.3404672
  27.5302391   5.1767782  56.7845303  27.7403947   4.6840225  55.5223447
  27.9182185   4.7138246  56.2853129  19.7354333  -0.1333074  46.1149960
  20.2446562   0.4631434  46.4961266  20.2088605  -0.4007100  45.4326380
  19.8797708  -0.0847258  46.0704483  30.6485081   8.5395193  44.2708616
  29.9314390   8.3656055  43.8055853  31.2991818   8.3047765  43.7384102
  30.6386931   8.4790985  44.1237834  33.2333052  -2.5840219  48.0149921
  32.5624242  -2.0410516  47.8862986  33.9272802  -2.1145363  47.7731616
  33.2361919  -2.4341947  47.9605449  27.2819786   9.5556493  53.2461679
  27.0585440   8.7975323  53.6145705  26.7929629   9.5854515  52.5242119
  27.1763235   9.4478718  53.1938420  22.0944864  -3.4976815  48.9823141
  21.3756853  -3.0812683  49.2496004  22.4657227  -2.9322577  48.4314779
  22.0436796  -3.3527534  48.9405948  31.3944445  -2.8648966  54.8725136
  31.3742372  -3.0465671  55.7259915  31.4423646  -1.9936948  54.8484720
  31.3979086  -2.7632428  54.9948431  29.3390775   3.7238226  60.7973613
  29.2986630   3.0787903  60.2118769  30.1514093   3.6674843  61.1099025
  29.4533929   3.6197192  60.7570562  25.9298243   9.7756951  50.6998764
  25.5158641   9.1131082  50.3102605  26.6145617   9.9234810  50.1794458
  25.9696614   9.6997610  50.5655261  29.2963537   8.9347037  51.4522380
  28.8979820   9.0449307  50.6843201  28.6814756   9.1429103  52.0348940
  29.1462426   8.9820605  51.4253680  27.8691439  -4.4578815  44.3196520
  27.2756278  -4.1361819  43.7681087  27.9066716  -5.3037720  44.1117626
  27.7865828  -4.5354487  44.2079291  37.0305379   3.5099003  44.8365471
  37.4138985   4.2590360  45.0663568  36.2349493   3.7564823  44.5777460
  36.9699162   3.6568697  44.8323044  25.8420671  -3.8181565  42.4125850
  26.2219636  -3.8001936  41.6276965  25.1013267  -3.3727576  42.2916697
  25.7889509  -3.7499790  42.2789418  31.1946814  -0.8301872  51.6537635
  31.6900479  -1.5478877  51.6141656  30.3846589  -1.1331074  51.5392122
  31.1490707  -0.9804226  51.6311361  26.6405425   3.0195941  43.8034640
  25.8316748   2.6962615  43.7567949  27.1480334   2.3129163  43.7362889
  26.5955092   2.8677258  43.7864934  17.2695702   0.4468135  49.5282004
  16.4041222   0.4353825  49.4164775  17.3694518   0.2598357  50.3753143
  17.1569869   0.4174196  49.6370949  33.2598632   1.9201816  54.3414764
  33.6853704   1.3976237  53.7885189  32.8955552   2.5182653  53.8203387
  33.2685235   1.9312043  54.1823774  22.8952712  10.2166033  53.1012110
  23.2099271  11.0302422  53.1089891  23.3046126   9.8316252  53.7694269
  23.0020810  10.2794736  53.2016201  29.8477232   5.6336080  50.6715922
  30.3188410   6.3476342  50.8405907  30.1837410   5.0334830  51.2075791
  29.9672347   5.6507544  50.7748298  31.9354216   7.2437393  62.8507994
  32.0451182   6.4545954  63.2064741  32.2645113   7.1543329  62.0482332
  32.0006622   7.1143246  62.7850384  30.4851178   5.4254014  57.4343614
  29.9372124   4.8011898  57.1663680  30.9464207   5.6148286  56.7187694
  30.4718388   5.3613064  57.2894045  20.2365732   4.1639142  52.7490718
  20.8410590   4.1234976  52.1204539  20.0293045   5.0110294  52.7794774
  20.2954630   4.2827144  52.6606835  30.0509504   6.4305087  53.9652956
  30.8707878   6.2868053  54.2269251  29.7703582   7.0551286  54.5069393
  30.1306248   6.5015439  54.0840895  15.4717015   3.1473759  52.6189641
  15.3741293   2.3370031  52.9279698  16.2545884   3.1265552  52.2335909
  15.5733151   3.0240849  52.6076504  46.5223155  14.0869938  46.9295832
  46.4917159  14.9414575  47.1014101  47.1204504  13.7865231  47.4881975
  46.6060313  14.1686435  47.0370634  39.7222840  13.1745589  51.6848762
  38.8660735  13.3354088  51.7357879  39.7690493  12.3037653  51.7053823
  39.6021951  13.0696391  51.6954828  34.1063979  22.7108307  47.4485994
  33.3546879  22.3323846  47.2202039  34.5549991  22.7426741  46.7004804
  34.0613646  22.6593914  47.3043496  43.0316556  19.4432115  61.2909218
  43.7383324  18.9484146  61.4196153  43.2204492  19.8841197  60.5611876
  43.1644462  19.4350465  61.2018264  42.5674661  15.2337633  54.3280414
  43.1130621  15.9122720  54.3874384  42.5091537  15.0925094  53.4681995
  42.6390575  15.3129635  54.2092474  35.6848736  22.7226699  49.7148766
  35.7859099  21.9127053  50.0245894  35.0890481  22.6283646  49.0848445
  35.6121274  22.5891728  49.6675005  44.3439729  16.6622240  45.2014142
  44.2279255  17.4129927  45.6306280  45.1395616  16.4046194  45.4510229
  44.4444319  16.7357087  45.3018233  28.8813780  18.7446986  49.3401100
  28.6463964  17.9114638  49.2333369  29.0199421  19.0251652  48.5262301
  28.8669442  18.6630489  49.2043455  31.1803867  10.9132717  52.2385408
  30.5608899  10.3225364  52.0695422  31.0787731  11.5044152  51.6049731
  31.0741543  10.9136799  52.1190397  36.2270055  20.6516263  46.4883484
  36.5485896  21.1921471  45.8844792  36.8742151  20.0813035  46.6205774
  36.3696110  20.6475439  46.4190519  38.2771763  12.6532258  46.5717871
  38.9751928  12.8320386  47.0639334  38.5924095  12.1302598  45.9488260
  38.4267100  12.6026031  46.5519881  30.9073000  14.4584998  54.4828977
  30.7831697  15.0447444  55.1178796  31.5591285  13.9645194  54.7841252
  30.9846650  14.4723803  54.6214906  35.9331341  17.6346715  53.7616488
  36.5780344  17.1419158  53.4427436  36.1733118  17.7771502  54.5882566
  36.0641926  17.5824158  53.8366021  38.4717433  20.4801621  53.4123380
  38.7540676  19.6853027  53.1910136  39.2003593  20.9582209  53.4328441
  38.6206996  20.4336218  53.3826396  36.4498627   8.0224655  50.6539145
  36.1201957   8.4735799  49.9842844  35.7743628   7.9440818  51.2012152
  36.3009063   8.0775790  50.6362369  43.6575034   4.0110178  48.8988756
  43.3428475   4.7013657  49.3309178  43.1401976   3.9554960  48.1974257
  43.5339505   4.1045067  48.8585705  42.9987468  14.0114679  45.0126167
  42.4698940  14.2274312  45.6723473  43.5212488  14.7050817  44.9327136
  42.9975921  14.1457816  45.0981766  48.4535521  19.5860983  50.3859211
  47.6233224  19.7971627  50.5492628  48.4044773  18.7598038  50.1101495
  48.3242256  19.4950590  50.3696577  34.8887076  17.9077896  43.8133635
  34.3044291  18.4127927  44.2199499  34.4857171  17.6820283  43.0730227
  34.7426380  17.9486144  43.7638660  30.4431105  23.6232657  50.6157306
  29.9598683  24.3483146  50.5916890  31.2554423  23.9208787  50.7267464
  30.4921852  23.7735011  50.6284585  36.5145259  22.4164838  53.2207121
  35.9972200  22.0572253  52.6168429  37.2119650  21.8927012  53.2313187
  36.5410840  22.2862525  53.1337379  40.1708851  22.8659652  59.1823294
  40.2592196  22.6785792  60.0301504  40.5998563  22.2197081  58.7828140
  40.2470953  22.7422659  59.2495045  37.7379310  22.1490812  58.1640956
  37.1750145  21.7363421  58.6880617  38.5000334  22.0743717  58.5834099
  37.7673759  22.0768212  58.3033956  39.3464290  14.1543548  42.2902555
  39.5860294  14.3621532  41.4777898  39.6680131  13.3501056  42.3991500
  39.4301448  14.0657649  42.1863108  34.6554581   6.0836943  46.1362093
  35.4100549   6.4515261  45.8979143  34.4782115   6.4576498  46.9041273
  34.7409059   6.1935131  46.2146982  33.2975302  24.1388833  50.7677586
  33.9995881  23.6240822  50.8250343  33.2172785  24.4662984  51.5724461
  33.3899062  24.1103059  50.8950378  47.9489479  12.2331384  54.1809632
  47.1117900  12.3033571  54.4157227  47.9177710  12.2355879  53.3083935
  47.8207762  12.2441611  54.0869180  34.3454208  14.3764420  59.8958001
  34.5174712  14.2670314  60.7443283  34.8823566  15.0218825  59.6589193
  34.4499212  14.4556421  59.9863098  33.0111645   8.4907262  42.8340206
  32.8287218   8.7079143  42.0081199  33.8737258   8.6046275  42.8898821
  33.1116235   8.5397160  42.7194693  32.6226077  20.3295185  50.2763194
  33.4614977  20.5618118  50.3236956  32.6537846  19.4599496  50.2070229
  32.7507795  20.2352131  50.2727839  33.2478780  20.7496060  54.5776500
  33.7877005  20.6067191  55.2479872  32.5648727  21.1492811  54.9460526
  33.2270934  20.7875731  54.7310921  38.6911364   5.4933673  45.8689230
  39.4197525   5.3149628  45.4227386  38.7806257   6.3351753  46.0796408
  38.8118027   5.5917552  45.8342748  42.6719665  16.4287061  49.7721524
  43.4277180  16.8618575  49.8110433  42.7781990  15.7791830  50.3456160
  42.7989836  16.3964544  49.8619550  40.2828910  22.2968671  61.8467077
  41.0669326  22.4099518  62.2122819  40.0825504  21.4709808  62.0425763
  40.3694935  22.1915390  61.9301463  28.6515925  16.9696351  54.7310921
  28.3854341  16.1535467  54.8901911  28.6654489  17.0149506  53.8606437
  28.6140648  16.8553256  54.6264403  45.6297319   7.2974166  52.7653355
  46.2723228   7.3672270  53.3515270  45.8820340   6.6303389  52.2632897
  45.7619451   7.2100514  52.7780634  32.5573672  11.7681435  41.3462679
  31.8431849  11.4819615  41.7585112  33.0417641  12.1078061  41.9869067
  32.5233036  11.7763085  41.5018314  33.4014532  10.5074729  57.3777929
  32.7086328  10.0371709  57.6238660  34.0174859  10.2813034  57.9519636
  33.3899062  10.4041861  57.4987081  40.4399303  24.2078773  55.4933533
  39.6414549  23.9678273  55.7507401  40.8885315  24.2593166  56.2400580
  40.3873914  24.1801164  55.6418457  48.8444182  16.9741258  49.4143564
  49.5060617  16.4131926  49.3139473  48.2035594  16.4793288  49.7396255
  48.8473050  16.8177667  49.4475904  29.0609339  17.7555130  52.0122665
  28.8784912  17.7302016  51.1594958  29.7959008  18.2254068  52.0511574
  29.1423403  17.8216492  51.8920584  45.1309013  17.9906640  49.1555553
  45.3664602  18.1351839  48.3282404  45.2798577  18.7549048  49.5487067
  45.1874816  18.1245694  49.0919157  32.1255091  14.4740133  58.5204774
  32.8495063  14.4593164  59.0069669  32.2271227  15.1835488  58.0226742
  32.2473300  14.5764836  58.5183561  46.9599470  16.8308306  46.9925157
  47.2907687  17.3635946  46.3865252  47.5332558  16.8847194  47.6487108
  47.0933149  16.9177875  47.0002938  39.5000040  17.9539218  63.3853721
  38.7073021  18.2682729  63.5706341  39.6148967  18.1690686  62.5474506
  39.3995451  18.0323054  63.2892056  42.1731359  14.6773209  47.6748737
  42.2678213  15.4162503  48.1288362  41.5490203  14.2490684  48.1083301
  42.0940389  14.7234529  47.8056884  40.4283833  17.8559421  58.3239018
  41.0022695  17.2186666  58.4787582  40.3498637  17.8563504  57.4548675
  40.5017068  17.7624533  58.2185429  29.0280249  14.6348631  52.1621732
  29.6053752  14.4985082  52.8013977  28.3294311  14.1784415  52.4167316
  29.0101271  14.5470897  52.2944022  35.7847551  16.2882686  50.3760215
  35.5266796  15.4554421  50.3491515  35.8396034  16.5140299  49.5352716
  35.7547329  16.1980458  50.2480352  40.8648602   8.3911137  50.4764308
  40.1604928   7.9020323  50.6348227  40.9133576   8.4033612  49.6052752
  40.7678653   8.3200785  50.3703648  34.7582264  13.8420449  50.8625110
  34.1831855  14.0012617  51.4989071  34.3817940  13.2055858  50.3993560
  34.6185076  13.7718262  50.8879668  38.4255552  12.3143798  55.7217488
  38.0369985  11.8898016  55.0669680  37.7610251  12.5625948  56.2294515
  38.2702480  12.2882519  55.7005356  48.0678821  12.0718803  48.4965318
  47.8115386  11.2598744  48.3063201  48.9108135  12.0796370  48.2695506
  48.1544847  11.9530800  48.4350135  24.5039083  13.4860524  48.8769551
  24.5899334  13.1092392  49.6583080  25.1314880  13.1120969  48.3989509
  24.6095634  13.3746006  48.9215028  42.2481914   6.0118427  53.2341473
  42.6292426   5.3296598  53.6209347  41.4445198   5.7228029  53.0517137
  42.1858376   5.8685475  53.2645528  45.7503981  19.2268399  58.3323871
  45.5142618  18.3956464  58.2135932  46.3947210  19.1754006  58.9178715
  45.8098651  19.0966087  58.4009765  35.4002399  20.0163920  49.0466607
  36.0376346  19.7775668  49.5918401  35.8257470  20.2201079  48.3119768
  35.5578565  20.0114930  49.0183765  30.0915041  22.2552257  52.9300911
  30.1319186  22.5267108  52.1020691  30.6509565  22.7794165  53.3458699
  30.1798387  22.3728012  52.8692799  36.0405214  15.2366210  43.3841497
  36.4250367  15.0173917  44.1358042  35.7916834  16.0629155  43.5142573
  36.0607286  15.3264356  43.5142573  36.2073754   8.5172625  63.1004081
  35.8927195   9.2872188  62.8373644  35.8863687   7.9542881  62.5156308
  36.1132673   8.5482894  62.9745431  46.7740401  19.0112848  54.3952165
  46.4686218  19.7440905  54.7565481  46.0546617  18.6050777  54.1144952
  46.6227744  19.0594581  54.4065303  37.7823871  20.4936343  50.7260394
  37.8562879  20.3311515  51.5802244  38.5993377  20.6826532  50.4820875
  37.9140229  20.4973085  50.8158419  52.4742193  15.6505848  53.7220510
  52.4066694  15.6701808  52.8523096  52.4597856  16.4936176  53.9476180
  52.4620950  15.7779583  53.6272987  31.5429627  20.8394206  47.7554837
  30.7167745  21.0855943  47.6289116  31.6041619  20.7606287  48.6216895
  31.4303794  20.8639155  47.8643782  33.7605651   6.9063147  48.7150277
  32.8928077   6.9785746  48.7807887  34.0480856   7.7085226  48.9038252
  33.6745399   7.0357294  48.7525044  42.8838540   7.0541006  57.0461599
  43.6292132   6.8650816  56.6325025  42.4675845   7.5799244  56.4875455
  42.9323514   7.1043151  56.9026172  50.2600811  14.4250235  51.9967104
  50.8108732  13.7918304  52.2364196  50.2444926  14.9565627  52.6882608
  50.3386007  14.4099183  52.1345962  36.9123202  18.2588832  56.5426998
  36.4134895  18.9704600  56.6211886  37.7223426  18.5789498  56.5045160
  36.9579308  18.4115680  56.5483566  33.1751319  17.5211785  50.7889718
  32.8864568  16.8949256  51.3235446  34.0434667  17.4632072  50.8554399
  33.2611571  17.4199329  50.8780673  43.9629217  12.6646568  51.1071700
  43.6193983  11.9436903  51.4578950  44.0622260  12.4560419  50.2650059
  43.9271260  12.5270772  51.0343380  33.3783593  19.1607036  46.7132083
  34.1329561  19.5420075  46.9267546  32.7854205  19.6118180  47.1678780
  33.4020306  19.2835863  46.8114962  35.8390260  11.1169876  61.8389296
  35.0290035  11.4227656  61.7279138  36.3164946  11.8375459  61.9541880
  35.7893738  11.2684477  61.8396367  34.6981819  20.3315597  52.0872199
  34.1762573  20.4715889  52.7724064  35.0855840  19.5726262  52.2774316
  34.6785520  20.2401121  52.2173275  31.6873003  10.3821406  46.1567154
  31.3997799  10.0122676  45.4199101  32.3743471  10.8516261  45.8950858
  31.7461901  10.3968375  46.0082229  36.1248145  17.3619616  47.4853690
  35.9290927  17.9694351  46.8913993  36.3482490  16.6687560  47.0045364
  36.1282786  17.3497142  47.3269771  34.5226675  14.2474354  47.6034558
  35.2449327  14.4115512  47.1438364  34.0434668  14.9684019  47.4973898
  34.5590406  14.3772584  47.5200172  42.4820182  10.5838153  52.9831243
  41.6431283  10.6099432  52.7469506  42.5524550  11.2308888  53.5636590
  42.3688576  10.6834279  53.0340360  32.1734292  16.6532427  56.7088698
  32.6855388  16.9316680  56.0597458  31.8870634  17.3921721  57.0751511
  32.2069155  16.8034780  56.6678576  40.9289461   7.4823530  47.7158859
  41.6315814   7.2831278  47.2378817  40.6633649   6.7099472  48.0227703
  40.9936093   7.3386496  47.6904301  46.3577706  15.7906140  50.2692485
  46.2711681  15.9461566  51.1227264  45.9028186  16.4344215  49.8951890
  46.2780963  15.9081895  50.3399592  29.2601198  11.1602618  47.0052435
  29.3617334  11.9628780  47.3333410  30.0557085  10.9589954  46.7075515
  29.3929103  11.2488517  47.0087790  35.6918017   8.7458815  56.7689740
  35.5001214   8.7613950  57.6189163  36.5416613   8.9422490  56.7456395
  35.7893739   8.7773166  56.8913034  30.0764930  11.2749797  54.7473556
  29.9350422  10.4233737  54.8718064  30.3605493  11.3178457  53.9235762
  30.0972776  11.1549547  54.6441180  40.2303522  13.1116887  48.8918044
  39.9838237  13.0312638  49.7254833  40.5588645  12.3270355  48.6980572
  40.2424766  12.9843152  48.9865568  44.1251571  19.8200246  52.6804826
  43.9865930  20.5181292  53.1853568  43.3451569  19.6648903  52.3241007
  43.9894798  19.9000413  52.7031100  42.4629656  16.1196622  58.9327207
  42.4577695  15.2476438  58.9369634  43.1690650  16.3184791  58.4596663
  42.5674660  16.0200496  58.8634243  36.1900550  15.8473605  58.3041028
  36.3343925  16.4274814  57.6684138  36.5376198  16.2249902  59.0090882
  36.2628011  15.9894310  58.3140022  38.3620467  15.0463774  56.0866159
  37.6143781  15.2394788  55.6814437  38.5161992  14.2208993  55.8490280
  38.2742895  14.9528885  55.9911565  35.2628305  24.0376377  55.1702054
  35.4117868  23.4779293  54.5175459  36.0428307  24.1168379  55.5534573
  35.4002398  23.9661943  55.1299004  37.7881605  24.2091020  56.4486545
  37.7125276  23.5399831  57.0037333  37.7171464  24.9108808  56.9627211
  37.7662212  24.2135928  56.6063393  38.6022244   8.9414325  56.9761563
  39.0594858   9.6738299  57.1034355  38.6778573   8.5180790  57.7348819
  38.6813214   8.9871563  57.1062639  30.8455235   9.1880144  58.0651007
  30.3097425   8.5760502  58.3811774  30.9073000   9.7628280  58.7184673
  30.7750868   9.1827072  58.2086433  43.0749570   2.1204200  50.8455406
  43.1933138   2.5780663  50.1122709  42.9011746   1.3149461  50.5591623
  43.0668741   2.0697972  50.6956339  36.4804622  10.9316429  53.8203387
  35.6900697  10.7507889  54.1420723  36.8765245  10.1543381  53.8033681
  36.4221498  10.7903889  53.8655935  41.8648308  18.5658859  51.5462833
  41.1893310  18.3344091  52.0476220  41.8740684  17.9580042  50.9204938
  41.7666813  18.4417784  51.5278985  38.9942452  13.4076688  58.3026886
  38.9301593  14.2686644  58.1747023  39.1339640  13.0908681  57.5022437
  39.0057922  13.4876854  58.1655099  37.6761546  16.1008827  52.4443089
  37.2523795  16.3013326  51.7082107  37.5006401  15.2537675  52.5567389
  37.5872427  16.0057608  52.3516779  32.9643991  16.5960878  47.8771061
  33.1208610  16.5307681  48.7327053  33.3044584  17.3709431  47.6649741
  33.0377226  16.7010077  47.9725655  39.5023136  15.9718762  46.7464424
  40.0438681  15.4689143  47.2103045  39.8169695  15.9183957  45.9353910
  39.6287533  15.8898183  46.6948237  43.3740243  20.1821409  63.8591337
  44.1875108  19.9106558  64.0196469  43.2135209  19.8828949  63.0551533
  43.4710192  20.0976335  63.7636743  40.6512405  10.8655066  56.7986725
  40.8654375  10.2265981  56.2450079  40.0346304  11.3100890  56.3694587
  40.5917734  10.8365210  56.6537156  29.5378253  13.7795829  48.1931828
  29.9177217  14.1980374  47.5292096  28.9633617  14.3609285  48.5000672
  29.5089577  13.9273688  48.1408569  42.8151493  12.4744132  57.7370032
  42.0028175  12.1670022  57.8183205  43.2741428  11.9943132  58.3012744
  42.7631878  12.3580624  57.8324626  42.2256748  20.3523804  48.1846976
  41.8671402  20.5238447  48.9611009  41.7395459  20.8137009  47.6274975
  42.1015445  20.4462775  48.2172245  40.0427134   3.9755002  51.7874068
  39.1720692   3.9493723  51.7407377  40.2967475   3.8032194  50.9699913
  39.9520694   3.9465146  51.6594204  37.0145113  16.0322969  40.7247211
  37.3037638  16.8087852  40.9990785  37.1016912  15.5211700  41.4261710
  37.0699369  16.0714887  40.8689709  39.9105001  13.8804203  62.5198734
  40.3804632  14.5046319  62.9066608  39.9566881  13.2121179  63.0791949
  39.9872876  13.8738883  62.6598806  37.0676274   5.9861231  53.2447538
  36.5514763   5.2941422  53.3699117  36.5070203   6.6532008  53.1910137
  36.9082787   5.9824488  53.2553604  39.1368508   6.5254191  55.0740391
  38.7500261   6.5503222  55.8553921  38.6501445   5.9595869  54.6214907
  39.0081017   6.4449941  55.1228294  43.3861487  21.2427700  59.1314177
  44.0241208  20.7487895  58.7976633  42.7435579  21.1705100  58.5466404
  43.3855714  21.1586708  58.9956532  45.1118487  13.0916846  53.6980093
  44.6846095  13.0043194  52.9428192  44.4744540  13.1994621  54.2834937
  44.9548094  13.0949505  53.6725534  38.8025649   3.4121176  57.3650651
  39.4318767   3.9481476  57.0871721  38.9711512   3.3198535  58.2164216
  38.9203444   3.4782538  57.4499179  38.6039564   8.1992371  59.6377062
  39.4312994   7.9277520  59.6935677  38.6247410   8.9953213  59.9940880
  38.7292414   8.2772125  59.6992245  43.4415744  21.9347508  55.7719534
  44.2308122  21.5836573  55.8921616  43.6159342  22.7483896  55.5096168
  43.5836025  22.0033365  55.7507402  33.1809054  15.3456234  52.8247323
  32.3397061  15.2460108  53.0326217  33.3899062  16.1151714  53.1761643
  33.0873747  15.4448277  52.9074638  30.6584621  12.9675771  50.6532073
  30.2641319  13.0418782  49.8782183  30.1024738  13.3533717  51.2040435
  30.5187433  13.0357545  50.6199733  42.2949568   5.9457065  50.3335952
  42.4999161   5.8779372  51.1792950  41.9675992   6.7515886  50.2657130
  42.2764816   6.0543005  50.4495608  36.9925719  13.2737633  52.0744920
  36.6888856  12.7193621  52.6755328  36.2905140  13.4529843  51.5872955
  36.8441929  13.2182415  52.0914626  36.0491816  10.5838153  46.6389622
  36.3251550   9.8657065  46.2267190  36.6490485  11.1823073  46.4310728
  36.1785081  10.5658523  46.5470383  35.0544070  20.4887353  56.7817018
  34.9464425  20.4989416  57.6479076  35.2639851  21.3142134  56.5921972
  35.0694181  20.6128428  56.8821110  45.5483256   6.4988829  49.8138718
  44.9357569   6.9859231  50.1992450  45.6447430   5.8232320  50.3576369
  45.4721153   6.4707138  49.9517576  39.5502337   8.2551670  44.9136217
  40.0046083   8.4262230  45.6384062  40.0242382   7.6419781  44.5133993
  39.6870657   8.1902555  44.9609979  33.0717862  17.7399996  54.2438956
  32.4805795  18.3809494  54.2141971  33.8338886  18.1637613  54.2170255
  33.0966123  17.8975834  54.2354103  33.4678485   8.9001994  54.9106973
  33.9279966   8.9740923  55.6482097  33.5134591   9.6983248  54.5606795
  33.5429040   9.0296141  54.9679730  35.1161834   9.5668689  59.4779000
  34.7247400   8.9202036  59.9134778  35.2847697  10.1580124  60.0973256
  35.0832745   9.5582956  59.6341706  49.1908284  17.5705766  55.2416234
  49.2491407  18.0192414  55.9876210  48.5574751  17.9804578  54.8046314
  49.1059579  17.6979500  55.2868782  42.8307378  23.1909308  51.6770980
  42.6327067  23.6800122  50.9827192  42.2095089  23.3950549  52.2555114
  42.7094943  23.2925846  51.6594203  36.8915357  14.9594204  46.0181224
  37.6357401  15.3468481  46.2564174  37.0376053  14.1151630  46.1821712
  37.0225942  14.8924677  46.0775194  38.8094932   6.7544463  51.0513086
  37.9630977   6.9267271  50.9254436  38.8066064   5.9493807  51.3878914
  38.6842082   6.6605492  51.0824213  39.8793232  10.5319678  51.9175144
  39.4053187  10.0061440  52.4280455  40.2511368   9.9849150  51.3490005
  39.8643121  10.3735674  51.9090291  30.2566263  12.5291184  57.2858690
  31.1191876  12.4286894  57.1996019  29.9258046  11.9485894  56.7244262
  30.3351459  12.4282811  57.1904095  46.1429963  15.5922053  53.3281924
  45.9028186  14.7528468  53.3324351  46.6221970  15.6722220  54.0522698
  46.1782147  15.4803453  53.4356727  41.8076732  11.4256232  44.9800898
  41.2799751  11.5084976  44.2906606  42.2672440  12.1674104  44.9765542
  41.7978583  11.5476895  44.8775593  48.1435150  12.3723511  51.2811183
  47.9044920  12.3319345  50.4431968  48.3069051  13.2194663  51.4076905
  48.1325453  12.4915596  51.1764665  44.7481180  16.7573460  57.2116229
  45.4715379  16.3045986  57.0327248  44.4831142  17.0378125  56.4288556
  44.8162453  16.7324428  57.0694944  33.6168049  11.3533633  53.9469108
  32.9921119  11.3652025  53.3395060  33.2813643  11.8293808  54.5960348
  33.4753540  11.4252150  53.9525676  33.8009797   9.6958752  40.0041793
  33.4522602  10.3478477  40.4673342  33.3206243   9.6815865  39.2765664
  33.6780041   9.7901805  39.9652884  30.3293724  19.4134093  55.3872872
  29.7993649  18.7226532  55.4367847  30.6018817  19.4044279  54.5585581
  30.2918446  19.3101225  55.2720288  40.5299970  16.8557338  55.3611244
  39.9156963  16.3115388  55.6559879  41.0467255  16.3421575  54.8817060
  40.5155632  16.6993747  55.3335472  39.7696267  17.9261608  53.0955542
  39.3423875  17.3011327  52.6620978  39.7621211  17.6436530  53.9214549
  39.7055408  17.7914389  53.1535370  32.8858794  12.9626781  56.1643976
  33.0452281  12.2070105  56.5695698  32.7051688  13.5117721  56.8184714
  32.8824153  12.9320595  56.3206682  40.8279097   5.1288017  56.7194766
  40.3319658   5.3251691  56.0286332  41.5848159   5.5280685  56.5483567
  40.8665922   5.2165751  56.5914902  38.0981976   8.8030363  53.3098076
  38.1224464   8.2690475  52.6210856  38.3493450   8.2947671  53.9723667
  38.1391895   8.6491267  53.3062721  25.6089566  16.0861858  52.7441220
  25.5033015  16.0408702  51.8793304  24.8589786  16.4315638  53.0255505
  25.4825169  16.1302766  52.6578550  34.3783299   7.5301181  52.6903821
  34.4181670   8.0310387  53.4038528  33.5532963   7.6211575  52.4209744
  34.2622825   7.6182997  52.7554359  36.5612912  17.0961921  60.7924115
  35.7108542  17.2333635  60.9281760  36.7241039  16.3625699  61.2371817
  36.4596775  17.0076022  60.8779714  35.7997662  14.0461691  54.9877720
  34.9689592  14.2135509  54.7812968  35.7449179  13.6697641  55.7726605
  35.6687077  14.0151422  55.0726248  33.6081445   7.5370584  60.6234130
  34.2334149   6.9932716  60.8963563  33.1531925   7.0565501  60.0541921
  33.6329706   7.3860065  60.5795724  34.1733706  12.3217282  45.5167837
  34.3136667  12.8189746  46.2196479  34.6716239  11.6203577  45.6582051
  34.2674787  12.2919261  45.6419416  34.2033928  13.1884393  42.8460414
  34.8379008  13.7844818  42.7809876  34.2859539  12.8887851  43.6606284
  34.3090479  13.2325301  42.9563501  47.1816494  15.7199871  55.7146778
  47.7734334  16.3597121  55.7464976  47.6175489  15.0222907  56.0038845
  47.3334925  15.7118221  55.7627611  35.7812911   9.1198369  42.8205856
  36.1028752   8.6401451  42.1665118  36.0439855   9.9298015  42.6296668
  35.8678937   9.1688267  42.6961348  39.0109884  20.1417243  56.3404672
  38.5034975  20.6953090  56.7845303  38.7136530  20.2025533  55.5223447
  38.8914769  20.2323554  56.2853129  41.1772066   8.5070563  55.1829335
  41.6027138   8.0543089  54.5712862  40.5629059   7.9530633  55.4594123
  41.1500712   8.3584539  55.1334360  30.7086916  15.3852234  46.1149960
  31.2179146  15.9816742  46.4961266  31.1821188  15.1178208  45.4326380
  30.8530292  15.4338049  46.0704483  39.6166289   4.9785662  48.5919912
  38.9734607   4.8283309  49.1605051  39.2765696   4.7328008  47.8269017
  39.4711366   4.9197785  48.5622927  44.2065635  12.9345089  48.0149921
  43.5356825  13.4774791  47.8862986  44.9005386  13.4039945  47.7731616
  44.2094503  13.0843360  47.9605449  44.3693763   9.3900973  50.9240294
  44.7221373   8.9630696  51.5986093  43.5108564   9.3051816  51.0541370
  44.2943208   9.3145714  51.0435304  33.0677448  12.0208493  48.9823141
  32.3489437  12.4372625  49.2496004  33.4389810  12.5862731  48.4314779
  33.0169380  12.1657774  48.9405948  42.3677029  12.6536341  54.8725136
  42.3474956  12.4719637  55.7259915  42.4156229  13.5248360  54.8484720
  42.3711670  12.7552880  54.9948431  40.3123359  19.2423533  60.7973613
  40.2719213  18.5973210  60.2118769  41.1246677  19.1860151  61.1099025
  40.4266512  19.1382500  60.7570562  38.8424022  11.0606492  44.3196520
  38.2488862  11.3823489  43.7681087  38.8799300  10.2147588  44.1117626
  38.7598411  10.9830821  44.2079291  45.8017823   4.5119385  51.8524607
  45.2948688   3.8048524  51.7845784  46.5985257   4.1812574  51.9825683
  45.8445062   4.3592536  51.8623601  41.7181839  11.0185997  47.7498270
  41.4895532  11.0418698  46.9076628  41.9779915  10.1943464  47.8693281
  41.7228027  10.9002077  47.6423468  36.0001067  12.8720470  57.3523370
  35.4879970  12.2641653  57.7108402  35.8280563  13.5877063  57.8197346
  35.8990704  12.8883769  57.4739594  30.8466782  11.3158045  60.0025732
  30.6769372  11.9759420  59.4573939  30.4032732  11.5264607  60.7238221
  30.7566116  11.4444027  60.0287362  34.7726601   9.5562543  49.0452466
  35.2483968   9.9179623  48.4102647  34.2715201  10.2119011  49.3252609
  34.7691960   9.7056732  48.9929207  39.8770138  10.7944715  59.7925626
  40.4341568  10.5658524  59.1604091  39.5531203  11.5550380  59.5160838
  39.9116548  10.8728551  59.6582123  27.7468847  14.2204911  55.2614222
  27.1995566  13.5505556  55.3795090  28.5361225  13.8534759  55.3257689
  27.7821030  14.0669897  55.2882923  37.5953255  13.8812368  60.7577633
  38.3464582  14.1964045  61.0717187  37.7875831  13.6791539  59.9311555
  37.7344669  13.8979750  60.6821029  36.8153255  11.7003743  42.4125850
  37.1952219  11.7183372  41.6276965  36.0745851  12.1457732  42.2916697
  36.7622092  11.7685518  42.2789418  44.4438545  10.0085934  48.0001429
  44.4432771   9.8534591  48.8585705  44.2394725  10.8548921  47.9442814
  44.4138323  10.1106555  48.1189368  26.5055816  13.4325719  52.4160245
  26.3277577  12.9802328  53.1415161  26.2174838  14.2351880  52.5998723
  26.4368769  13.4848277  52.5503748  42.1679397  14.6883436  51.6537635
  42.6633062  13.9706431  51.6141656  41.3579173  14.3854234  51.5392122
  42.1223290  14.5381082  51.6311361  28.2428286  15.9653442  49.5282004
  27.3773805  15.9539133  49.4164775  28.3427102  15.7783665  50.3753143
  28.1302453  15.9359504  49.6370949  44.2331216  17.4387124  54.3414764
  44.6586288  16.9161545  53.7885189  43.8688136  18.0367961  53.8203387
  44.2417819  17.4497351  54.1823774  33.8685296  25.7351341  53.1012110
  34.1831855  26.5487729  53.1089891  34.2778709  25.3501560  53.7694269
  33.9753394  25.7980043  53.2016201  40.8209815  21.1521388  50.6715922
  41.2920994  21.8661650  50.8405907  41.1569994  20.5520138  51.2075791
  40.9404930  21.1692852  50.7748298  42.9086800  22.7622701  62.8507994
  43.0183765  21.9731262  63.2064741  43.2377697  22.6728637  62.0482332
  42.9739206  22.6328554  62.7850384  37.7379310   5.9248858  57.6274016
  37.8707216   5.1279852  57.9554992  38.1224463   6.4515261  58.2072292
  37.8135639   5.8848775  57.7617519  41.4583762  20.9439322  57.4343614
  40.9104708  20.3197206  57.1663680  41.9196790  21.1333594  56.7187694
  41.4450971  20.8798372  57.2894045  40.8111666   2.8479185  54.2255110
  40.0057629   2.7376914  54.5422948  40.6818401   2.9491640  53.3684976
  40.6731798   2.8462855  54.1463150  44.2677626   9.0124676  54.8194807
  43.6840615   9.5133883  54.4072374  44.5881920   8.5054233  54.1859130
  44.2290801   9.0116511  54.6653314  36.8072425   7.9265271  45.0953481
  37.6288120   8.0963584  44.8535176  36.3442076   8.0812532  44.3719779
  36.8603588   7.9747004  44.9525126  35.3967757   5.9208033  55.8751910
  35.9412170   5.5799160  56.4656252  35.4504693   6.7793495  56.0173195
  35.4856877   5.9963293  55.9833784  31.2098316  19.6824449  52.7490718
  31.8143173  19.6420284  52.1204539  31.0025628  20.5295602  52.7794774
  31.2687213  19.8012452  52.6606835  41.0242088  21.9490395  53.9652956
  41.8440462  21.8053361  54.2269251  40.7436166  22.5736594  54.5069393
  41.1038831  22.0200747  54.0840895  26.4449598  18.6659067  52.6189641
  26.3473876  17.8555339  52.9279698  27.2278468  18.6450860  52.2335909
  26.5465735  18.5426157  52.6076504  54.0049140  34.9617423  61.2909218
  54.7115907  34.4669454  61.4196153  54.1937075  35.4026504  60.5611876
  54.1377045  34.9535773  61.2018264  54.6307618  19.5295486  48.8988756
  54.3161059  20.2198965  49.3309178  54.1134560  19.4740268  48.1974257
  54.5072088  19.6230374  48.8585705  56.6029903  22.8159474  52.7653355
  57.2455811  22.8857578  53.3515270  56.8552923  22.1488696  52.2632897
  56.7352035  22.7285822  52.7780634  53.2214497  21.5303735  53.2341473
  53.6025009  20.8481906  53.6209347  52.4177782  21.2413337  53.0517137
  53.1590959  21.3870783  53.2645528  56.7236564  34.7453707  58.3323871
  56.4875202  33.9141772  58.2135932  57.3679793  34.6939314  58.9178715
  56.7831235  34.6151395  58.4009765  47.1806338  24.0357933  63.1004081
  46.8659779  24.8057496  62.8373644  46.8596270  23.4728189  62.5156308
  47.0865257  24.0668202  62.9745431  57.7472985  34.5298156  54.3952165
  57.4418802  35.2626212  54.7565481  57.0279201  34.1236085  54.1144952
  57.5960327  34.5779889  54.4065303  63.4474777  31.1691156  53.7220510
  63.3799277  31.1887115  52.8523096  63.4330439  32.0121484  53.9476180
  63.4353534  31.2964891  53.6272987  53.8571124  22.5726314  57.0461599
  54.6024716  22.3836124  56.6325025  53.4408428  23.0984552  56.4875455
  53.9056098  22.6228459  56.9026172  61.2333394  29.9435543  51.9967104
  61.7841316  29.3103612  52.2364196  61.2177510  30.4750935  52.6882608
  61.3118591  29.9284491  52.1345962  46.8122843  26.6355184  61.8389296
  46.0022619  26.9412964  61.7279138  47.2897530  27.3560767  61.9541880
  46.7626322  26.7869785  61.8396367  46.6650601  24.2644123  56.7689740
  46.4733798  24.2799258  57.6189163  47.5149196  24.4607797  56.7456395
  46.7626322  24.2958474  56.8913034  53.4362240  31.6381930  58.9327207
  53.4310278  30.7661746  58.9369634  54.1423234  31.8370099  58.4596663
  53.5407244  31.5385804  58.8634243  49.5754828  24.4599632  56.9761563
  50.0327442  25.1923607  57.1034355  49.6511156  24.0366098  57.7348819
  49.6545797  24.5056871  57.1062639  41.8187819  24.7065452  58.0651007
  41.2830008  24.0945810  58.3811774  41.8805584  25.2813588  58.7184673
  41.7483451  24.7012380  58.2086433  54.0482153  17.6389508  50.8455406
  54.1665722  18.0965971  50.1122709  53.8744329  16.8334769  50.5591623
  54.0401324  17.5883280  50.6956339  54.3472827  35.7006717  63.8591337
  55.1607692  35.4291866  64.0196469  54.1867793  35.4014257  63.0551533
  54.4442775  35.6161643  63.7636743  51.6244989  26.3840374  56.7986725
  51.8386958  25.7451289  56.2450079  51.0078888  26.8286198  56.3694587
  51.5650318  26.3550518  56.6537156  53.7884077  27.9929440  57.7370032
  52.9760758  27.6855330  57.8183205  54.2474011  27.5128440  58.3012744
  53.7364461  27.8765932  57.8324626  51.0159717  19.4940310  51.7874068
  50.1453275  19.4679031  51.7407377  51.2700059  19.3217502  50.9699913
  50.9253277  19.4650454  51.6594204  50.8837584  29.3989511  62.5198734
  51.3537215  30.0231627  62.9066608  50.9299464  28.7306487  63.0791949
  50.9605460  29.3924191  62.6598806  48.0408858  21.5046538  53.2447538
  47.5247346  20.8126730  53.3699117  47.4802787  22.1717316  53.1910137
  47.8815371  21.5009796  53.2553604  50.1101091  22.0439499  55.0740391
  49.7232844  22.0688530  55.8553921  49.6234029  21.4781177  54.6214907
  49.9813600  21.9635249  55.1228294  49.7758233  18.9306484  57.3650651
  50.4051351  19.4666784  57.0871721  49.9444096  18.8383843  58.2164216
  49.8936028  18.9967846  57.4499179  49.5772148  23.7177679  59.6377062
  50.4045577  23.4462828  59.6935677  49.5979994  24.5138520  59.9940880
  49.7024998  23.7957433  59.6992245  53.2682151  21.4642372  50.3335952
  53.4731745  21.3964680  51.1792950  52.9408575  22.2701194  50.2657130
  53.2497399  21.5728313  50.4495608  56.5215839  22.0174137  49.8138718
  55.9090153  22.5044539  50.1992450  56.6180014  21.3417628  50.3576369
  56.4453737  21.9892445  49.9517576  44.4411068  24.4187302  54.9106973
  44.9012550  24.4926231  55.6482097  44.4867175  25.2168556  54.5606795
  44.5161624  24.5481449  54.9679730  46.0894418  25.0853996  59.4779000
  45.6979983  24.4387344  59.9134778  46.2580281  25.6765432  60.0973256
  46.0565328  25.0768264  59.6341706  60.1640867  33.0891074  55.2416234
  60.2223991  33.5377722  55.9876210  59.5307335  33.4989886  54.8046314
  60.0792162  33.2164808  55.2868782  55.7213764  32.2758768  57.2116229
  56.4447963  31.8231294  57.0327248  55.4563726  32.5563433  56.4288556
  55.7895037  32.2509736  57.0694944  44.5900632  26.8718941  53.9469108
  43.9653702  26.8837333  53.3395060  44.2546227  27.3479116  54.5960348
  44.4486124  26.9437458  53.9525676  51.8011680  20.6473325  56.7194766
  51.3052242  20.8436999  56.0286332  52.5580743  21.0465993  56.5483567
  51.8398505  20.7351058  56.5914902  44.5814029  23.0555892  60.6234130
  45.2066732  22.5118024  60.8963563  44.1264509  22.5750809  60.0541921
  44.6062290  22.9045373  60.5795724  58.1549078  31.2385179  55.7146778
  58.7466918  31.8782429  55.7464976  58.5908072  30.5408215  56.0038845
  58.3067509  31.2303529  55.7627611  52.1504650  24.0255871  55.1829335
  52.5759721  23.5728397  54.5712862  51.5361643  23.4715941  55.4594123
  52.1233295  23.8769847  55.1334360  51.2855942  34.7608841  60.7973613
  51.2451797  34.1158518  60.2118769  52.0979260  34.7045459  61.1099025
  51.3999096  34.6567808  60.7570562  56.7750407  20.0304693  51.8524607
  56.2681271  19.3233832  51.7845784  57.5717840  19.6997881  51.9825683
  56.8177646  19.8777844  51.8623601  41.8199366  26.8343353  60.0025732
  41.6501956  27.4944728  59.4573939  41.3765315  27.0449914  60.7238221
  41.7298699  26.9629335  60.0287362  50.8502721  26.3130023  59.7925626
  51.4074151  26.0843832  59.1604091  50.5263786  27.0735688  59.5160838
  50.8849131  26.3913859  59.6582123  53.8819384  38.2808009  62.8507994
  53.9916349  37.4916570  63.2064741  54.2110280  38.1913945  62.0482332
  53.9471789  38.1513862  62.7850384  48.7111894  21.4434166  57.6274016
  48.8439800  20.6465160  57.9554992  49.0957047  21.9700569  58.2072292
  48.7868223  21.4034083  57.7617519  51.7844249  18.3664492  54.2255110
  50.9790213  18.2562222  54.5422948  51.6550985  18.4676948  53.3684976
  51.6464382  18.3648163  54.1463150  46.3700341  21.4393341  55.8751910
  46.9144754  21.0984468  56.4656252  46.4237276  22.2978803  56.0173195
  46.4589460  21.5148601  55.9833784  68.4688322  45.1240554  46.9295832
  68.4382326  45.9785191  47.1014101  69.0669671  44.8235847  47.4881975
  68.5525480  45.2057051  47.0370634  61.6688007  44.2116205  51.6848762
  60.8125902  44.3724704  51.7357879  61.7155661  43.3408269  51.7053823
  61.5487118  44.1067007  51.6954828  56.0529147  53.7478923  47.4485994
  55.3012046  53.3694462  47.2202039  56.5015158  53.7797357  46.7004804
  56.0078813  53.6964530  47.3043496  64.9781723  50.4802731  61.2909218
  65.6848491  49.9854762  61.4196153  65.1669659  50.9211812  60.5611876
  65.1109629  50.4721081  61.2018264  61.5054106  54.1704293  42.8771541
  61.1705475  54.8481214  42.4415763  62.0180977  53.7809604  42.2888413
  61.5319688  54.2128871  42.7258332  61.0458398  56.1218561  48.8182653
  61.4297777  56.6905460  48.2787428  60.9817539  55.3968072  48.3388469
  61.0931825  56.0994025  48.6676515  64.5139828  46.2708249  54.3280414
  65.0595788  46.9493336  54.3874384  64.4556704  46.1295710  53.4681995
  64.5855742  46.3500251  54.2092474  57.6313903  53.7597315  49.7148766
  57.7324266  52.9497669  50.0245894  57.0355648  53.6654262  49.0848445
  57.5586441  53.6262343  49.6675005  66.2904897  47.6992856  45.2014142
  66.1744422  48.4500542  45.6306280  67.0860783  47.4416810  45.4510229
  66.3909486  47.7727703  45.3018233  57.4714642  58.6774904  51.1163622
  58.1152098  59.1188069  51.5059781  57.7970898  57.8728331  51.0293881
  57.6146471  58.6240099  51.1609100  50.8278947  49.7817602  49.3401100
  50.5929131  48.9485254  49.2333369  50.9664588  50.0622268  48.5262301
  50.8134609  49.7001105  49.2043455  58.1735222  51.6886879  46.4883484
  58.4951063  52.2292087  45.8844792  58.8207319  51.1183651  46.6205774
  58.3161277  51.6846055  46.4190519  52.8538167  45.4955614  54.4828977
  52.7296864  46.0818060  55.1178796  53.5056452  45.0015810  54.7841252
  52.9311817  45.5094419  54.6214906  57.8796508  48.6717331  53.7616488
  58.5245511  48.1789774  53.4427436  58.1198286  48.8142118  54.5882566
  58.0107094  48.6194773  53.8366021  60.4182600  51.5172237  53.4123380
  60.7005843  50.7223643  53.1910136  61.1468760  51.9952824  53.4328441
  60.5672164  51.4706834  53.3826396  64.0134202  48.4300501  43.5128432
  63.9285497  49.2861467  43.6578000  64.5018585  48.1544825  44.1810591
  64.0723099  48.5157822  43.6330513  65.6040201  35.0480794  48.8988756
  65.2893642  35.7384272  49.3309178  65.0867143  34.9925576  48.1974257
  65.4804672  35.1415682  48.8585705  64.9452635  45.0485295  45.0126167
  64.4164107  45.2644928  45.6723473  65.4677655  45.7421433  44.9327136
  64.9441088  45.1828432  45.0981766  70.4000688  50.6231599  50.3859211
  69.5698391  50.8342243  50.5492628  70.3509940  49.7968654  50.1101495
  70.2707424  50.5321206  50.3696577  56.8352243  48.9448512  43.8133635
  56.2509458  49.4498543  44.2199499  56.4322338  48.7190898  43.0730227
  56.6891547  48.9856760  43.7638660  52.3896272  54.6603273  50.6157306
  51.9063850  55.3853762  50.5916890  53.2019590  54.9579403  50.7267464
  52.4387019  54.8105626  50.6284585  58.4610426  53.4535453  53.2207121
  57.9437367  53.0942868  52.6168429  59.1584817  52.9297628  53.2313187
  58.4876007  53.3233141  53.1337379  62.1174018  53.9030267  59.1823294
  62.2057364  53.7156408  60.0301504  62.5463730  53.2567697  58.7828140
  62.1936120  53.7793275  59.2495045  59.6844477  53.1861427  58.1640956
  59.1215312  52.7734037  58.6880617  60.4465501  53.1114333  58.5834099
  59.7138926  53.1138828  58.3033956  61.2929458  45.1914164  42.2902555
  61.5325461  45.3992147  41.4777898  61.6145298  44.3871672  42.3991500
  61.3766615  45.1028265  42.1863108  55.2440469  55.1759449  50.7677586
  55.9461048  54.6611438  50.8250343  55.1637952  55.5033600  51.5724461
  55.3364229  55.1473675  50.8950378  69.8954646  43.2702000  54.1809632
  69.0583068  43.3404187  54.4157227  69.8642877  43.2726495  53.3083935
  69.7672929  43.2812227  54.0869180  56.2919376  45.4135036  59.8958001
  56.4639879  45.3040930  60.7443283  56.8288733  46.0589441  59.6589193
  56.3964379  45.4927037  59.9863098  54.5691244  51.3665801  50.2763194
  55.4080144  51.5988733  50.3236956  54.6003014  50.4970112  50.2070229
  54.6972962  51.2722747  50.2727839  55.1943947  51.7866676  54.5776500
  55.7342172  51.6437807  55.2479872  54.5113894  52.1863427  54.9460526
  55.1736101  51.8246347  54.7310921  64.6184832  47.4657676  49.7721524
  65.3742347  47.8989191  49.8110433  64.7247157  46.8162446  50.3456160
  64.7455003  47.4335160  49.8619550  67.6565003  51.2930954  50.5223927
  67.2200235  51.2967696  51.2782898  67.3227919  51.9736453  50.0903504
  67.5427623  51.3943409  50.5704759  62.2294077  53.3339286  61.8467077
  63.0134494  53.4470134  62.2122819  62.0290672  52.5080424  62.0425763
  62.3160102  53.2286006  61.9301463  50.5981092  48.0066967  54.7310921
  50.3319508  47.1906083  54.8901911  50.6119657  48.0520122  53.8606437
  50.5605815  47.8923871  54.6264403  67.5762486  38.3344781  52.7653355
  68.2188395  38.4042886  53.3515270  67.8285507  37.6674004  52.2632897
  67.7084618  38.2471130  52.7780634  55.3479699  41.5445345  57.3777929
  54.6551496  41.0742325  57.6238660  55.9640026  41.3183649  57.9519636
  55.3364229  41.4412477  57.4987081  62.3864470  55.2449389  55.4933533
  61.5879716  55.0048889  55.7507401  62.8350482  55.2963781  56.2400580
  62.3339082  55.2171780  55.6418457  70.7909350  48.0111874  49.4143564
  71.4525784  47.4502542  49.3139473  70.1500762  47.5163904  49.7396255
  70.7938217  47.8548283  49.4475904  61.6786157  51.3082005  41.7224487
  62.0937306  50.9767029  41.0308983  60.8478087  51.0750907  41.5944624
  61.6174166  51.2253261  41.6015335  51.0074506  48.7925746  52.0122665
  50.8250079  48.7672632  51.1594958  51.7424175  49.2624684  52.0511574
  51.0888570  48.8587108  51.8920584  67.0774180  49.0277256  49.1555553
  67.3129769  49.1722455  48.3282404  67.2263744  49.7919664  49.5487067
  67.1339984  49.1616310  49.0919157  54.0720258  45.5110749  58.5204774
  54.7960230  45.4963779  59.0069669  54.1736394  46.2206104  58.0226742
  54.1938467  45.6135452  58.5183561  68.9064637  47.8678922  46.9925157
  69.2372854  48.4006562  46.3865252  69.4797725  47.9217810  47.6487108
  69.0398316  47.9548491  47.0002938  61.4465207  48.9909833  63.3853721
  60.6538188  49.3053345  63.5706341  61.5614134  49.2061302  62.5474506
  61.3460618  49.0693670  63.2892056  64.1196526  45.7143825  47.6748737
  64.2143381  46.4533119  48.1288362  63.4955370  45.2861300  48.1083301
  64.0405556  45.7605145  47.8056884  62.3749000  48.8930037  58.3239018
  62.9487862  48.2557281  58.4787582  62.2963804  48.8934120  57.4548675
  62.4482235  48.7995149  58.2185429  50.9745416  45.6719247  52.1621732
  51.5518919  45.5355697  52.8013977  50.2759478  45.2155031  52.4167316
  50.9566438  45.5841513  52.2944022  64.3719547  47.5592564  40.9085689
  64.2899710  47.6294752  41.7740676  65.0099268  48.1222308  40.7169430
  64.4539385  47.6531535  41.0075638  57.7312719  47.3253302  50.3760215
  57.4731963  46.4925037  50.3491515  57.7861201  47.5510915  49.5352716
  57.7012497  47.2351074  50.2480352  56.7047431  44.8791065  50.8625110
  56.1297022  45.0383233  51.4989071  56.3283107  44.2426474  50.3993560
  56.5650243  44.8088878  50.8879668  60.3720719  43.3514414  55.7217488
  59.9835152  42.9268632  55.0669680  59.7075418  43.5996564  56.2294515
  60.2167647  43.3253135  55.7005356  70.0143989  43.1089419  48.4965318
  69.7580553  42.2969360  48.3063201  70.8573303  43.1166986  48.2695506
  70.1010014  42.9901416  48.4350135  64.1947081  37.0489043  53.2341473
  64.5757593  36.3667214  53.6209347  63.3910365  36.7598645  53.0517137
  64.1323543  36.9056091  53.2645528  61.4759658  47.5813019  43.9194295
  62.2900297  47.8727911  43.8077067  61.4118799  46.9272881  43.3452588
  61.5862397  47.5278213  43.8183133  67.6969148  50.2639015  58.3323871
  67.4607785  49.4327080  58.2135932  68.3412377  50.2124622  58.9178715
  67.7563819  50.1336703  58.4009765  57.3467566  51.0534536  49.0466607
  57.9841513  50.8146284  49.5918401  57.7722638  51.2571695  48.3119768
  57.5043732  51.0485546  49.0183765  52.0380208  53.2922873  52.9300911
  52.0784354  53.5637724  52.1020691  52.5974732  53.8164781  53.3458699
  52.1263554  53.4098628  52.8692799  57.9870381  46.2736826  43.3841497
  58.3715534  46.0544533  44.1358042  57.7382001  47.0999771  43.5142573
  58.0072454  46.3634972  43.5142573  58.1538921  39.5543241  63.1004081
  57.8392362  40.3242804  62.8373644  57.8328854  38.9913497  62.5156308
  58.0597840  39.5853510  62.9745431  68.7205568  50.0483464  54.3952165
  68.4151386  50.7811520  54.7565481  68.0011784  49.6421393  54.1144952
  68.5692911  50.0965197  54.4065303  59.7289038  51.5306959  50.7260394
  59.8028046  51.3682131  51.5802244  60.5458544  51.7197148  50.4820875
  59.8605397  51.5343701  50.8158419  74.4207361  46.6876464  53.7220510
  74.3531861  46.7072423  52.8523096  74.4063023  47.5306791  53.9476180
  74.4086117  46.8150199  53.6272987  53.4894795  51.8764822  47.7554837
  52.6632912  52.1226559  47.6289116  53.5506786  51.7976902  48.6216895
  53.3768962  51.9009771  47.8643782  64.8303707  38.0911622  57.0461599
  65.5757299  37.9021432  56.6325025  64.4141012  38.6169860  56.4875455
  64.8788681  38.1413767  56.9026172  58.2693624  54.4941702  45.4573867
  58.5591922  54.1030683  44.7333094  58.9997104  54.6758407  45.8979142
  58.4200508  54.4635516  45.4156674  72.2065978  45.4620850  51.9967104
  72.7573900  44.8288919  52.2364196  72.1910093  45.9936243  52.6882608
  72.2851174  45.4469799  52.1345962  58.8588369  49.2959448  56.5426998
  58.3600062  50.0075215  56.6211886  59.6688593  49.6160114  56.5045160
  58.9044476  49.4486296  56.5483566  56.2099539  56.4709084  48.5234017
  55.9899835  56.1806439  49.3160684  55.9894061  55.8124039  47.9951929
  56.1447133  56.3308793  48.5622925  55.1216486  48.5582401  50.7889718
  54.8329735  47.9319872  51.3235446  55.9899834  48.5002688  50.8554399
  55.2076738  48.4569945  50.8780673  65.9094384  43.7017184  51.1071700
  65.5659150  42.9807519  51.4578950  66.0087427  43.4931035  50.2650059
  65.8736427  43.5641387  51.0343380  58.3767495  57.8438474  47.3064709
  59.0291553  57.3114916  47.5355735  57.6793104  57.4907126  47.6932583
  58.3698213  57.7127997  47.3976877  55.3248760  50.1977652  46.7132083
  56.0794728  50.5790691  46.9267546  54.7319372  50.6488795  47.1678780
  55.3485473  50.3206479  46.8114962  66.3707413  50.1642888  46.6495688
  66.9365446  50.8236098  46.5654231  65.7235317  50.5092586  47.1212091
  66.3586170  50.3124829  46.7068445  57.7855427  42.1540492  61.8389296
  56.9755203  42.4598272  61.7279138  58.2630114  42.8746074  61.9541880
  57.7358906  42.3055093  61.8396367  56.6446986  51.3686213  52.0872199
  56.1227740  51.5086505  52.7724064  57.0321007  50.6096877  52.2774316
  56.6250687  51.2771737  52.2173275  62.8413991  53.1081672  46.0732768
  62.6000667  52.3749533  45.6659833  63.0215324  53.6568529  45.4199101
  62.8321615  53.0804064  45.9162991  58.0713312  48.3990232  47.4853690
  57.8756095  49.0064967  46.8913993  58.2947658  47.7058176  47.0045364
  58.0747953  48.3867758  47.3269771  64.4285350  41.6208769  52.9831243
  63.5896450  41.6470048  52.7469506  64.4989717  42.2679504  53.5636590
  64.3153743  41.7204895  53.0340360  54.1199459  47.6903042  56.7088698
  54.6320556  47.9687296  56.0597458  53.8335801  48.4292337  57.0751511
  54.1534322  47.8405396  56.6678576  68.3042873  46.8276756  50.2692485
  68.2176848  46.9832182  51.1227264  67.8493353  47.4714831  49.8951890
  68.2246130  46.9452511  50.3399592  57.6383184  39.7829431  56.7689740
  57.4466381  39.7984565  57.6189163  58.4881780  39.9793105  56.7456395
  57.7358906  39.8143782  56.8913034  52.0230097  42.3120413  54.7473556
  51.8815589  41.4604353  54.8718064  52.3070661  42.3549073  53.9235762
  52.0437943  42.1920163  54.6441180  66.0716738  50.8570862  52.6804826
  65.9331098  51.5551908  53.1853568  65.2916736  50.7019519  52.3241007
  65.9359965  50.9371029  52.7031100  64.4094823  47.1567237  58.9327207
  64.4042862  46.2847054  58.9369634  65.1155817  47.3555407  58.4596663
  64.5139827  47.0571112  58.8634243  58.1365717  46.8844221  58.3041028
  58.2809093  47.4645429  57.6684138  58.4841365  47.2620518  59.0090882
  58.2093178  47.0264925  58.3140022  60.3085634  46.0834390  56.0866159
  59.5608948  46.2765404  55.6814437  60.4627159  45.2579609  55.8490280
  60.2208062  45.9899501  55.9911565  57.2093472  55.0746993  55.1702054
  57.3583035  54.5149909  54.5175459  57.9893474  55.1538995  55.5534573
  57.3467565  55.0032559  55.1299004  67.5670111  50.2149116  43.4421325
  67.1876920  49.4286254  43.4350614  66.9036357  50.7635973  43.2992969
  67.4128586  50.1793940  43.4202122  59.7346772  55.2461636  56.4486545
  59.6590443  54.5770447  57.0037333  59.6636632  55.9479424  56.9627211
  59.7127379  55.2506543  56.6063393  60.5487411  39.9784940  56.9761563
  61.0060025  40.7108915  57.1034355  60.6243740  39.5551406  57.7348819
  60.6278381  40.0242179  57.1062639  65.0214737  33.1574816  50.8455406
  65.1398305  33.6151279  50.1122709  64.8476913  32.3520077  50.5591623
  65.0133908  33.1068588  50.6956339  60.3917019  53.7662635  47.2810151
  61.1566910  53.4972279  46.9592815  60.2895109  53.2812645  47.9980214
  60.4898515  53.6552200  47.3389979  58.4269789  41.9687044  53.8203387
  57.6365864  41.7878504  54.1420723  58.8230412  41.1913997  53.8033681
  58.3686665  41.8274505  53.8655935  62.9135680  50.7974819  39.2610100
  63.6808665  50.8574944  38.8515952  62.4666989  50.2255260  38.7766419
  62.9609107  50.7211394  39.1287811  63.8113475  49.6029475  51.5462833
  63.1358477  49.3714707  52.0476220  63.8205851  48.9950657  50.9204938
  63.7131980  49.4788400  51.5278985  60.9407619  44.4447303  58.3026886
  60.8766761  45.3057260  58.1747023  61.0804807  44.1279297  57.5022437
  60.9523089  44.5247470  58.1655099  65.8130210  52.4594607  43.7773011
  65.8950047  53.2661593  43.4534462  66.2979952  52.4790566  44.5013784
  65.8967368  52.5815269  43.8359909  59.6226713  47.1379443  52.4443089
  59.1988962  47.3383942  51.7082107  59.4471568  46.2908291  52.5567389
  59.5337594  47.0428224  52.3516779  59.1238407  58.6529956  54.9064546
  59.6134337  57.9540745  54.7240211  58.5522639  58.3553826  55.4940603
  59.1122937  58.5056179  54.9665587  54.9109158  47.6331494  47.8771061
  55.0673777  47.5678297  48.7327053  55.2509751  48.4080047  47.6649741
  54.9842393  47.7380692  47.9725655  61.4488303  47.0089378  46.7464424
  61.9903848  46.5059759  47.2103045  61.7634862  46.9554573  45.9353910
  61.5752700  46.9268799  46.6948237  65.3205410  51.2192025  63.8591337
  66.1340276  50.9477174  64.0196469  65.1600377  50.9199565  63.0551533
  65.4175359  51.1346951  63.7636743  59.6174753  52.4006729  44.0304452
  59.6867573  51.5421268  44.1697453  60.3963208  52.6178610  43.7023477
  59.7427603  52.3059593  44.0021610  62.5977572  41.9025682  56.7986725
  62.8119542  41.2636597  56.2450079  61.9811471  42.3471506  56.3694587
  62.5382901  41.8735826  56.6537156  64.0082240  54.8244431  48.2440946
  63.6162032  54.5211146  47.5263812  64.1635312  55.6613521  48.0545900
  63.9735830  54.9028267  48.1097443  64.7616660  43.5114748  57.7370032
  63.9493342  43.2040638  57.8183205  65.2206595  43.0313748  58.3012744
  64.7097045  43.3951240  57.8324626  64.1721915  51.3894419  48.1846976
  63.8136570  51.5609062  48.9611009  63.6860626  51.8507625  47.6274975
  64.0480612  51.4833391  48.2172245  61.9892301  35.0125618  51.7874068
  61.1185859  34.9864339  51.7407377  62.2432642  34.8402810  50.9699913
  61.8985861  34.9835762  51.6594204  58.9610280  47.0693585  40.7247211
  59.2502805  47.8458467  40.9990785  59.0482079  46.5582316  41.4261710
  59.0164537  47.1085503  40.8689709  61.8570168  44.9174819  62.5198734
  62.3269799  45.5416935  62.9066608  61.9032048  44.2491794  63.0791949
  61.9338044  44.9109499  62.6598806  61.0833675  37.5624806  55.0740391
  60.6965428  37.5873838  55.8553921  60.5966612  36.9966485  54.6214907
  60.9546184  37.4820557  55.1228294  65.3326654  52.2798315  59.1314177
  65.9706375  51.7858511  58.7976633  64.6900746  52.2075716  58.5466404
  65.3320881  52.1957324  58.9956532  67.0583654  44.1287461  53.6980093
  66.6311262  44.0413810  52.9428192  66.4209707  44.2365237  54.2834937
  66.9013262  44.1320121  53.6725534  60.7490817  34.4491792  57.3650651
  61.3783934  34.9852092  57.0871721  60.9176679  34.3569151  58.2164216
  60.8668611  34.5153154  57.4499179  60.5504731  39.2362987  59.6377062
  61.3778161  38.9648136  59.6935677  60.5712577  40.0323828  59.9940880
  60.6757581  39.3142741  59.6992245  65.3880911  52.9718124  55.7719534
  66.1773289  52.6207188  55.8921616  65.5624509  53.7854512  55.5096168
  65.5301192  53.0403981  55.7507402  55.1274221  46.3826849  52.8247323
  54.2862228  46.2830724  53.0326217  55.3364229  47.1522330  53.1761643
  55.0338914  46.4818893  52.9074638  64.2414735  36.9827680  50.3335952
  64.4464328  36.9149988  51.1792950  63.9141159  37.7886502  50.2657130
  64.2229983  37.0913621  50.4495608  58.9390886  44.3108249  52.0744920
  58.6354024  43.7564237  52.6755328  58.2370307  44.4900459  51.5872955
  58.7907096  44.2553031  52.0914626  57.0009237  51.5257969  56.7817018
  56.8929592  51.5360031  57.6479076  57.2105019  52.3512750  56.5921972
  57.0159348  51.6499044  56.8821110  67.4948423  37.5359445  49.8138718
  66.8822736  38.0229847  50.1992450  67.5912598  36.8602936  50.3576369
  67.4186320  37.5077753  49.9517576  55.0183029  48.7770612  54.2438956
  54.4270962  49.4180110  54.2141971  55.7804053  49.2008229  54.2170255
  55.0431290  48.9346450  54.2354103  57.0627002  40.6039304  59.4779000
  56.6712567  39.9572651  59.9134778  57.2312864  41.1950740  60.0973256
  57.0297912  40.5953572  59.6341706  71.1373451  48.6076381  55.2416234
  71.1956574  49.0563030  55.9876210  70.5039918  49.0175194  54.8046314
  71.0524746  48.7350116  55.2868782  64.7772545  54.2279923  51.6770980
  64.5792234  54.7170738  50.9827192  64.1560256  54.4321165  52.2555114
  64.6560110  54.3296462  51.6594203  58.8380524  45.9964820  46.0181224
  59.5822569  46.3839096  46.2564174  58.9841220  45.1522246  46.1821712
  58.9691109  45.9295293  46.0775194  52.2031430  43.5661800  57.2858690
  53.0657043  43.4657509  57.1996019  51.8723213  42.9856509  56.7244262
  52.2816626  43.4653427  57.1904095  68.0895130  46.6292669  53.3281924
  67.8493353  45.7899084  53.3324351  68.5687137  46.7092836  54.0522698
  68.1247314  46.5174069  53.4356727  70.0900317  43.4094126  51.2811183
  69.8510087  43.3689960  50.4431968  70.2534218  44.2565278  51.4076905
  70.0790621  43.5286211  51.1764665  66.6946347  47.7944076  57.2116229
  67.4180546  47.3416602  57.0327248  66.4296310  48.0748741  56.4288556
  66.7627621  47.7695044  57.0694944  52.2758891  50.4504709  55.3872872
  51.7458816  49.7597148  55.4367847  52.5483985  50.4414895  54.5585581
  52.2383614  50.3471841  55.2720288  63.3078982  51.0330412  44.1110555
  64.0313181  51.4988525  43.9675128  62.8679573  51.1004021  43.3608152
  63.3494674  51.1114248  43.9795336  62.4765137  47.8927954  55.3611244
  61.8622130  47.3486004  55.6559879  62.9932422  47.3792190  54.8817060
  62.4620799  47.7364363  55.3335472  61.7161434  48.9632224  53.0955542
  61.2889042  48.3381943  52.6620978  61.7086378  48.6807146  53.9214549
  61.6520575  48.8285005  53.1535370  54.8323961  43.9997397  56.1643976
  54.9917448  43.2440721  56.5695698  54.6516855  44.5488337  56.8184714
  54.8289320  43.9691211  56.3206682  62.7744264  36.1658633  56.7194766
  62.2784825  36.3622307  56.0286332  63.5313326  36.5651301  56.5483567
  62.8131089  36.2536366  56.5914902  60.0447144  39.8400978  53.3098076
  60.0689631  39.3061091  52.6210856  60.2958617  39.3318287  53.9723667
  60.0857062  39.6861882  53.3062721  58.5078079  48.1332537  60.7924115
  57.6573709  48.2704251  60.9281760  58.6706206  47.3996315  61.2371817
  58.4061942  48.0446638  60.8779714  57.7462829  45.0832307  54.9877720
  56.9154759  45.2506124  54.7812968  57.6914346  44.7068257  55.7726605
  57.6152244  45.0522038  55.0726248  55.5546613  38.5741199  60.6234130
  56.1799316  38.0303332  60.8963563  55.0997092  38.0936117  60.0541921
  55.5794873  38.4230681  60.5795724  69.1281661  46.7570486  55.7146778
  69.7199502  47.3967737  55.7464976  69.5640656  46.0593523  56.0038845
  69.2800092  46.7488837  55.7627611  60.9575051  51.1787859  56.3404672
  60.4500142  51.7323706  56.7845303  60.6601697  51.2396149  55.5223447
  60.8379936  51.2694170  56.2853129  63.1237233  39.5441178  55.1829335
  63.5492305  39.0913705  54.5712862  62.5094226  38.9901249  55.4594123
  63.0965879  39.3955155  55.1334360  52.6552083  46.4222850  46.1149960
  53.1644313  47.0187357  46.4961266  53.1286356  46.1548824  45.4326380
  52.7995459  46.4708665  46.0704483  63.5682831  55.0951117  44.2708616
  62.8512141  54.9211979  43.8055853  64.2189569  54.8603689  43.7384102
  63.5584682  55.0346909  44.1237834  66.1530803  43.9715705  48.0149921
  65.4821993  44.5145407  47.8862986  66.8470553  44.4410560  47.7731616
  66.1559670  44.1213976  47.9605449  60.2017536  56.1112417  53.2461679
  59.9783191  55.3531246  53.6145705  59.7127380  56.1410438  52.5242119
  60.0960985  56.0034642  53.1938420  66.3158930  40.4271589  50.9240294
  66.6686540  40.0001312  51.5986093  65.4573732  40.3422432  51.0541370
  66.2408375  40.3516329  51.0435304  64.3142196  43.6906957  54.8725136
  64.2940123  43.5090252  55.7259915  64.3621397  44.5618976  54.8484720
  64.3176837  43.7923496  54.9948431  62.2588526  50.2794149  60.7973613
  62.2184381  49.6343826  60.2118769  63.0711844  50.2230767  61.1099025
  62.3731679  50.1753116  60.7570562  58.8495993  56.3312875  50.6998764
  58.4356392  55.6687005  50.3102605  59.5343368  56.4790734  50.1794458
  58.8894365  56.2553533  50.5655261  62.2161287  55.4902960  51.4522380
  61.8177571  55.6005231  50.6843201  61.6012507  55.6985027  52.0348940
  62.0660177  55.5376529  51.4253680  67.7482990  35.5490001  51.8524607
  67.2413855  34.8419140  51.7845784  68.5450424  35.2183189  51.9825683
  67.7910229  35.3963152  51.8623601  57.9466234  43.9091086  57.3523370
  57.4345138  43.3012269  57.7108402  57.7745731  44.6247678  57.8197346
  57.8455871  43.9254385  57.4739594  52.7931949  42.3528661  60.0025732
  52.6234539  43.0130036  59.4573939  52.3497899  42.5635222  60.7238221
  52.7031283  42.4814643  60.0287362  69.9503130  50.0654927  44.8365471
  70.3336736  50.8146283  45.0663568  69.1547243  50.3120747  44.5777460
  69.8896912  50.2124621  44.8323044  61.8235305  41.8315331  59.7925626
  62.3806735  41.6029140  59.1604091  61.4996370  42.5920996  59.5160838
  61.8581715  41.9099167  59.6582123  49.6934014  45.2575527  55.2614222
  49.1460733  44.5876172  55.3795090  50.4826392  44.8905375  55.3257689
  49.7286197  45.1040513  55.2882923  59.5418422  44.9182984  60.7577633
  60.2929749  45.2334661  61.0717187  59.7340999  44.7162155  59.9311555
  59.6809836  44.9350366  60.6821029  66.3903712  41.0456550  48.0001429
  66.3897939  40.8905207  48.8585705  66.1859892  41.8919537  47.9442814
  66.3603490  41.1477171  48.1189368  64.1144564  45.7254052  51.6537635
  64.6098230  45.0077047  51.6141656  63.3044340  45.4224850  51.5392122
  64.0688458  45.5751698  51.6311361  59.5603176  49.5751865  43.8034640
  58.7514499  49.2518539  43.7567949  60.0678085  48.8685087  43.7362889
  59.5152843  49.4233182  43.7864934  66.1796383  48.4757739  54.3414764
  66.6051455  47.9532161  53.7885189  65.8153303  49.0738577  53.8203387
  66.1882986  48.4867966  54.1823774  55.8150463  56.7721957  53.1012110
  56.1297022  57.5858345  53.1089891  56.2243876  56.3872176  53.7694269
  55.9218561  56.8350659  53.2016201  62.7674983  52.1892004  50.6715922
  63.2386161  52.9032266  50.8405907  63.1035161  51.5890754  51.2075791
  62.8870098  52.2063468  50.7748298  64.8551967  53.7993317  62.8507994
  64.9648933  53.0101878  63.2064741  65.1842864  53.7099253  62.0482332
  64.9204373  53.6699170  62.7850384  59.6844478  36.9619474  57.6274016
  59.8172383  36.1650468  57.9554992  60.0689630  37.4885877  58.2072292
  59.7600806  36.9219391  57.7617519  63.4048929  51.9809938  57.4343614
  62.8569875  51.3567821  57.1663680  63.8661958  52.1704210  56.7187694
  63.3916138  51.9168988  57.2894045  62.7576833  33.8849800  54.2255110
  61.9522796  33.7747530  54.5422948  62.6283568  33.9862256  53.3684976
  62.6196966  33.8833470  54.1463150  66.2142793  40.0495292  54.8194807
  65.6305782  40.5504499  54.4072374  66.5347087  39.5424848  54.1859130
  66.1755969  40.0487127  54.6653314  57.3432924  36.9578649  55.8751910
  57.8877337  36.6169776  56.4656252  57.3969860  37.8164111  56.0173195
  57.4322044  37.0333909  55.9833784  53.1563483  50.7195065  52.7490718
  53.7608340  50.6790899  52.1204539  52.9490796  51.5666217  52.7794774
  53.2152380  50.8383068  52.6606835  62.9707255  52.9861011  53.9652956
  63.7905629  52.8423977  54.2269251  62.6901333  53.6107209  54.5069393
  63.0503999  53.0571363  54.0840895  48.3914765  49.7029683  52.6189641
  48.2939043  48.8925954  52.9279698  49.1743635  49.6821476  52.2335909
  48.4930902  49.5796773  52.6076504  72.6420590  59.7301513  51.6848762
  71.7858486  59.8910011  51.7357879  72.6888244  58.8593577  51.7053823
  72.5219702  59.6252315  51.6954828  67.0261730  69.2664231  47.4485994
  66.2744630  68.8879769  47.2202039  67.4747742  69.2982665  46.7004804
  66.9811397  69.2149838  47.3043496  75.4872411  61.7893557  54.3280414
  76.0328371  62.4678644  54.3874384  75.4289288  61.6481018  53.4681995
  75.5588326  61.8685559  54.2092474  68.6046486  69.2782623  49.7148766
  68.7056849  68.4682977  50.0245894  68.0088232  69.1839570  49.0848445
  68.5319025  69.1447651  49.6675005  61.8011531  65.3002910  49.3401100
  61.5661715  64.4670562  49.2333369  61.9397171  65.5807576  48.5262301
  61.7867193  65.2186413  49.2043455  64.1001618  57.4688640  52.2385408
  63.4806650  56.8781288  52.0695422  63.9985482  58.0600076  51.6049731
  63.9939294  57.4692723  52.1190397  69.1467806  67.2072187  46.4883484
  69.4683647  67.7477395  45.8844792  69.7939902  66.6368959  46.6205774
  69.2893861  67.2031362  46.4190519  71.1969514  59.2088182  46.5717871
  71.8949678  59.3876310  47.0639334  71.5121846  58.6858522  45.9488260
  71.3464851  59.1581954  46.5519881  63.8270751  61.0140922  54.4828977
  63.7029448  61.6003368  55.1178796  64.4789036  60.5201118  54.7841252
  63.9044400  61.0279727  54.6214906  71.3857449  65.5958627  46.5597662
  71.8251085  64.9875728  47.0052435  71.2362112  65.2166001  45.7883127
  71.4278915  65.4497098  46.5116830  68.8529092  64.1902639  53.7616488
  69.4978095  63.6975082  53.4427436  69.0930869  64.3327426  54.5882566
  68.9839677  64.1380081  53.8366021  71.3915183  67.0357545  53.4123380
  71.6738426  66.2408951  53.1910136  72.1201344  67.5138132  53.4328441
  71.5404747  66.9892142  53.3826396  69.3696377  54.5780579  50.6539145
  69.0399707  55.0291722  49.9842844  68.6941379  54.4996742  51.2012152
  69.2206814  54.6331714  50.6362369  74.9866786  63.9485809  43.5128432
  74.9018081  64.8046775  43.6578000  75.4751169  63.6730133  44.1810591
  75.0455683  64.0343130  43.6330513  67.8084827  64.4633819  43.8133635
  67.2242042  64.9683851  44.2199499  67.4054922  64.2376206  43.0730227
  67.6624130  64.5042068  43.7638660  63.3628855  70.1788581  50.6157306
  62.8796434  70.9039070  50.5916890  64.1752174  70.4764711  50.7267464
  63.4119603  70.3290934  50.6284585  69.4343009  68.9720761  53.2207121
  68.9169951  68.6128176  52.6168429  70.1317401  68.4482936  53.2313187
  69.4608590  68.8418449  53.1337379  72.2662041  60.7099472  42.2902555
  72.5058045  60.9177455  41.4777898  72.5877882  59.9056980  42.3991500
  72.3499199  60.6213573  42.1863108  67.5752331  52.6392867  46.1362093
  68.3298299  53.0071184  45.8979143  67.3979866  53.0132422  46.9041273
  67.6606810  52.7491055  46.2146982  66.2173053  70.6944757  50.7677586
  66.9193632  70.1796746  50.8250343  66.1370536  71.0218908  51.5724461
  66.3096813  70.6658983  50.8950378  65.9309396  55.0463186  42.8340206
  65.7484969  55.2635067  42.0081199  66.7935009  55.1602199  42.8898821
  66.0313985  55.0953084  42.7194693  65.5423828  66.8851109  50.2763194
  66.3812727  67.1174041  50.3236956  65.5735597  66.0155420  50.2070229
  65.6705546  66.7908055  50.2727839  66.1676531  67.3051984  54.5776500
  66.7074756  67.1623115  55.2479872  65.4846477  67.7048734  54.9460526
  66.1468685  67.3431655  54.7310921  71.6109115  52.0489597  45.8689230
  72.3395276  51.8705552  45.4227386  71.7004008  52.8907677  46.0796408
  71.7315777  52.1473475  45.8342748  61.5713676  63.5252275  54.7310921
  61.3052091  62.7091391  54.8901911  61.5852240  63.5705430  53.8606437
  61.5338398  63.4109179  54.6264403  65.4771423  58.3237359  41.3462679
  64.7629600  58.0375538  41.7585112  65.9615392  58.6633985  41.9869067
  65.4430786  58.3319009  41.5018314  66.3212282  57.0630653  57.3777929
  65.6284079  56.5927632  57.6238660  66.9372610  56.8368957  57.9519636
  66.3096812  56.9597785  57.4987081  72.6518741  66.8267313  41.7224487
  73.0669889  66.4952337  41.0308983  71.8210671  66.5936215  41.5944624
  72.5906750  66.7438569  41.6015335  61.9807090  64.3111054  52.0122665
  61.7982663  64.2857940  51.1594958  62.7156759  64.7809992  52.0511574
  62.0621154  64.3772416  51.8920584  65.0452841  61.0296057  58.5204774
  65.7692814  61.0149087  59.0069669  65.1468978  61.7391412  58.0226742
  65.1671050  61.1320760  58.5183561  75.0929110  61.2329133  47.6748737
  75.1875964  61.9718427  48.1288362  74.4687953  60.8046608  48.1083301
  75.0138140  61.2790453  47.8056884  61.9478000  61.1904555  52.1621732
  62.5251503  61.0541005  52.8013977  61.2492062  60.7340339  52.4167316
  61.9299021  61.1026821  52.2944022  75.3452131  63.0777872  40.9085689
  75.2632294  63.1480059  41.7740676  75.9831852  63.6407616  40.7169430
  75.4271968  63.1716843  41.0075638  68.7045302  62.8438610  50.3760215
  68.4464547  62.0110345  50.3491515  68.7593785  63.0696223  49.5352716
  68.6745080  62.7536382  50.2480352  73.7846352  54.9467061  50.4764308
  73.0802679  54.4576246  50.6348227  73.8331327  54.9589535  49.6052752
  73.6876404  54.8756709  50.3703648  67.6780014  60.3976373  50.8625110
  67.1029606  60.5568541  51.4989071  67.3015691  59.7611782  50.3993560
  67.5382827  60.3274186  50.8879668  71.3453303  58.8699722  55.7217488
  70.9567736  58.4453940  55.0669680  70.6808001  59.1181872  56.2294515
  71.1900231  58.8438443  55.7005356  57.4236833  60.0416447  48.8769551
  57.5097085  59.6648316  49.6583080  58.0512631  59.6676893  48.3989509
  57.5293384  59.9301930  48.9215028  75.1679665  52.5674351  53.2341473
  75.5490176  51.8852522  53.6209347  74.3642949  52.2783953  53.0517137
  75.1056126  52.4241399  53.2645528  72.4492241  63.0998327  43.9194295
  73.2632880  63.3913219  43.8077067  72.3851383  62.4458189  43.3452588
  72.5594980  63.0463521  43.8183133  68.3200150  66.5719844  49.0466607
  68.9574096  66.3331592  49.5918401  68.7455221  66.7757003  48.3119768
  68.4776316  66.5670854  49.0183765  63.0112792  68.8108181  52.9300911
  63.0516937  69.0823032  52.1020691  63.5707316  69.3350089  53.3458699
  63.0996138  68.9283936  52.8692799  68.9602965  61.7922134  43.3841497
  69.3448117  61.5729841  44.1358042  68.7114585  62.6185079  43.5142573
  68.9805037  61.8820280  43.5142573  70.7021621  67.0492267  50.7260394
  70.7760630  66.8867439  51.5802244  71.5191128  67.2382456  50.4820875
  70.8337980  67.0529009  50.8158419  64.4627378  67.3950129  47.7554837
  63.6365496  67.6411867  47.6289116  64.5239369  67.3162210  48.6216895
  64.3501545  67.4195078  47.8643782  66.6803402  53.4619071  48.7150277
  65.8125827  53.5341670  48.7807887  66.9678606  54.2641149  48.9038252
  66.5943150  53.5913218  48.7525044  66.0949070  64.0767709  50.7889718
  65.8062319  63.4505180  51.3235446  66.9632418  64.0187996  50.8554399
  66.1809322  63.9755253  50.8780673  66.2981343  65.7162960  46.7132083
  67.0527311  66.0975999  46.9267546  65.7051956  66.1674103  47.1678780
  66.3218057  65.8391787  46.8114962  67.6179570  66.8871521  52.0872199
  67.0960323  67.0271813  52.7724064  68.0053590  66.1282185  52.2774316
  67.5983271  66.7957045  52.2173275  64.6070754  56.9377330  46.1567154
  64.3195550  56.5678600  45.4199101  65.2941222  57.4072185  45.8950858
  64.6659651  56.9524299  46.0082229  69.0445896  63.9175540  47.4853690
  68.8488678  64.5250275  46.8913993  69.2680241  63.2243484  47.0045364
  69.0480537  63.9053066  47.3269771  67.4424426  60.8030278  47.6034558
  68.1647077  60.9671436  47.1438364  66.9632418  61.5239943  47.4973898
  67.4788156  60.9328508  47.5200172  75.4017933  57.1394077  52.9831243
  74.5629034  57.1655356  52.7469506  75.4722300  57.7864812  53.5636590
  75.2886327  57.2390203  53.0340360  65.0932042  63.2088350  56.7088698
  65.6053139  63.4872604  56.0597458  64.8068385  63.9477644  57.0751511
  65.1266905  63.3590704  56.6678576  73.8487211  54.0379454  47.7158859
  74.5513564  53.8387202  47.2378817  73.5831400  53.2655396  48.0227703
  73.9133844  53.8942420  47.6904301  62.1798949  57.7158542  47.0052435
  62.2815085  58.5184704  47.3333410  62.9754835  57.5145878  46.7075515
  62.3126854  57.8044441  47.0087790  68.6115768  55.3014739  56.7689740
  68.4198965  55.3169873  57.6189163  69.4614364  55.4978413  56.7456395
  68.7091490  55.3329090  56.8913034  62.9962681  57.8305720  54.7473556
  62.8548173  56.9789661  54.8718064  63.2803244  57.8734381  53.9235762
  63.0170527  57.7105470  54.6441180  73.1501273  59.6672811  48.8918044
  72.9035987  59.5868562  49.7254833  73.4786396  58.8826279  48.6980572
  73.1622517  59.5399076  48.9865568  71.5219995  55.4970248  56.9761563
  71.9792609  56.2294223  57.1034355  71.5976323  55.0736714  57.7348819
  71.6010965  55.5427486  57.1062639  63.7652986  55.7436068  58.0651007
  63.2295175  55.1316426  58.3811774  63.8270751  56.3184204  58.7184673
  63.6948619  55.7382996  58.2086433  75.9947321  48.6760124  50.8455406
  76.1130889  49.1336587  50.1122709  75.8209496  47.8705385  50.5591623
  75.9866492  48.6253896  50.6956339  69.4002373  57.4872352  53.8203387
  68.6098447  57.3063812  54.1420723  69.7962995  56.7099305  53.8033681
  69.3419249  57.3459813  53.8655935  74.7846059  65.1214782  51.5462833
  74.1091061  64.8900015  52.0476220  74.7938435  64.5135965  50.9204938
  74.6864563  64.9973708  51.5278985  70.5959297  62.6564751  52.4443089
  70.1721546  62.8569250  51.7082107  70.4204152  61.8093599  52.5567389
  70.5070177  62.5613532  52.3516779  65.8841742  63.1516802  47.8771061
  66.0406361  63.0863605  48.7327053  66.2242335  63.9265355  47.6649741
  65.9574977  63.2566000  47.9725655  72.4220886  62.5274686  46.7464424
  72.9636432  62.0245067  47.2103045  72.7367445  62.4739880  45.9353910
  72.5485283  62.4454107  46.6948237  70.5907336  67.9192037  44.0304452
  70.6600156  67.0606576  44.1697453  71.3695791  68.1363918  43.7023477
  70.7160186  67.8244901  44.0021610  73.5710156  57.4210990  56.7986725
  73.7852125  56.7821904  56.2450079  72.9544055  57.8656814  56.3694587
  73.5115485  57.3921134  56.6537156  62.4576003  60.3351753  48.1931828
  62.8374968  60.7536298  47.5292096  61.8831368  60.9165208  48.5000672
  62.4287328  60.4829611  48.1408569  72.9624884  50.5310926  51.7874068
  72.0918442  50.5049647  51.7407377  73.2165226  50.3588118  50.9699913
  72.8718445  50.5021070  51.6594204  69.9342864  62.5878893  40.7247211
  70.2235389  63.3643775  40.9990785  70.0214663  62.0767624  41.4261710
  69.9897120  62.6270811  40.8689709  69.9874025  52.5417154  53.2447538
  69.4712513  51.8497346  53.3699117  69.4267954  53.2087931  53.1910137
  69.8280538  52.5380412  53.2553604  72.0566258  53.0810114  55.0740391
  71.6698012  53.1059146  55.8553921  71.5699196  52.5151793  54.6214907
  71.9278767  53.0005865  55.1228294  71.7223400  49.9677100  57.3650651
  72.3516518  50.5037400  57.0871721  71.8909263  49.8754459  58.2164216
  71.8401195  50.0338462  57.4499179  71.5237315  54.7548295  59.6377062
  72.3510744  54.4833443  59.6935677  71.5445161  55.5509136  59.9940880
  71.6490165  54.8328049  59.6992245  66.1006805  61.9012157  52.8247323
  65.2594811  61.8016032  53.0326217  66.3096813  62.6707638  53.1761643
  66.0071497  62.0004201  52.9074638  63.5782372  59.5231694  50.6532073
  63.1839070  59.5974706  49.8782183  63.0222489  59.9089641  51.2040435
  63.4385184  59.5913469  50.6199733  75.2147319  52.5012988  50.3335952
  75.4196912  52.4335296  51.1792950  74.8873743  53.3071810  50.2657130
  75.1962566  52.6098929  50.4495608  69.9123470  59.8293557  52.0744920
  69.6086607  59.2749545  52.6755328  69.2102890  60.0085767  51.5872955
  69.7639679  59.7738339  52.0914626  68.9689567  57.1394076  46.6389622
  69.2449301  56.4212989  46.2267190  69.5688236  57.7378996  46.4310728
  69.0982831  57.1214447  46.5470383  72.4700087  54.8107594  44.9136217
  72.9243834  54.9818154  45.6384062  72.9440133  54.1975704  44.5133993
  72.6068407  54.7458479  44.9609979  65.9915613  64.2955920  54.2438956
  65.4003546  64.9365418  54.2141971  66.7536636  64.7193537  54.2170255
  66.0163873  64.4531758  54.2354103  66.3876235  55.4557917  54.9106973
  66.8477717  55.5296847  55.6482097  66.4332342  56.2539171  54.5606795
  66.4626791  55.5852065  54.9679730  68.0359585  56.1224612  59.4779000
  67.6445150  55.4757959  59.9134778  68.2045448  56.7136048  60.0973256
  68.0030496  56.1138880  59.6341706  69.8113107  61.5150128  46.0181224
  70.5555152  61.9024404  46.2564174  69.9573803  60.6707553  46.1821712
  69.9423692  61.4480601  46.0775194  71.7292683  53.3100387  51.0513086
  70.8828728  53.4823195  50.9254436  71.7263815  52.5049731  51.3878914
  71.6039833  53.2161416  51.0824213  72.7990983  57.0875601  51.9175144
  72.3250937  56.5617363  52.4280455  73.1709119  56.5405074  51.3490005
  72.7840872  56.9291598  51.9090291  63.1764013  59.0847108  57.2858690
  64.0389626  58.9842817  57.1996019  62.8455796  58.5041817  56.7244262
  63.2549210  58.9838735  57.1904095  74.7274483  57.9812156  44.9800898
  74.1997501  58.0640900  44.2906606  75.1870191  58.7230027  44.9765542
  74.7176333  58.1032818  44.8775593  66.5365799  57.9089557  53.9469108
  65.9118869  57.9207949  53.3395060  66.2011394  58.3849732  54.5960348
  66.3951291  57.9808074  53.9525676  66.7207548  56.2514676  40.0041793
  66.3720352  56.9034401  40.4673342  66.2403994  56.2371789  39.2765664
  66.5977792  56.3457729  39.9652884  63.2491475  65.9690017  55.3872872
  62.7191399  65.2782456  55.4367847  63.5216568  65.9600203  54.5585581
  63.2116197  65.8657149  55.2720288  73.4497720  63.4113262  55.3611244
  72.8354713  62.8671312  55.6559879  73.9665005  62.8977498  54.8817060
  73.4353383  63.2549671  55.3335472  72.6894018  64.4817532  53.0955542
  72.2621626  63.8567250  52.6620978  72.6818962  64.1992454  53.9214549
  72.6253159  64.3470312  53.1535370  65.8056545  59.5182705  56.1643976
  65.9650031  58.7626029  56.5695698  65.6249438  60.0673644  56.8184714
  65.8021904  59.4876519  56.3206682  73.7476848  51.6843940  56.7194766
  73.2517409  51.8807615  56.0286332  74.5045910  52.0836609  56.5483567
  73.7863672  51.7721674  56.5914902  71.0179727  55.3586286  53.3098076
  71.0422214  54.8246399  52.6210856  71.2691201  54.8503595  53.9723667
  71.0589646  55.2047190  53.3062721  58.5287317  62.6417781  52.7441220
  58.4230766  62.5964626  51.8793304  57.7787537  62.9871562  53.0255505
  58.4022920  62.6858690  52.6578550  67.2981049  54.0857105  52.6903821
  67.3379421  54.5866311  53.4038528  66.4730714  54.1767498  52.4209744
  67.1820575  54.1738921  52.7554359  68.7195413  60.6017614  54.9877720
  67.8887342  60.7691432  54.7812968  68.6646930  60.2253565  55.7726605
  68.5884828  60.5707346  55.0726248  66.5279196  54.0926507  60.6234130
  67.1531899  53.5488640  60.8963563  66.0729676  53.6121425  60.0541921
  66.5527457  53.9415989  60.5795724  67.0931457  58.8773206  45.5167837
  67.2334418  59.3745670  46.2196479  67.5913989  58.1759500  45.6582051
  67.1872538  58.8475185  45.6419416  67.1231679  59.7440317  42.8460414
  67.7576759  60.3400742  42.7809876  67.2057290  59.4443775  43.6606284
  67.2288230  59.7881225  42.9563501  68.7010662  55.6754292  42.8205856
  69.0226503  55.1957375  42.1665118  68.9637606  56.4853938  42.6296668
  68.7876687  55.7244190  42.6961348  74.0969817  55.0626486  55.1829335
  74.5224888  54.6099013  54.5712862  73.4826810  54.5086557  55.4594123
  74.0698462  54.9140463  55.1334360  63.6284667  61.9408158  46.1149960
  64.1376896  62.5372665  46.4961266  64.1018939  61.6734131  45.4326380
  63.7728043  61.9893973  46.0704483  72.5364040  51.5341586  48.5919912
  71.8932358  51.3839233  49.1605051  72.1963447  51.2883931  47.8269017
  72.3909117  51.4753709  48.5622927  65.9875199  58.5764416  48.9823141
  65.2687188  58.9928549  49.2496004  66.3587561  59.1418655  48.4314779
  65.9367130  58.7213698  48.9405948  75.2874779  59.2092265  54.8725136
  75.2672707  59.0275560  55.7259915  75.3353980  60.0804284  54.8484720
  75.2909420  59.3108804  54.9948431  71.7621773  57.6162416  44.3196520
  71.1686612  57.9379413  43.7681087  71.7997051  56.7703512  44.1117626
  71.6796162  57.5386744  44.2079291  74.6379590  57.5741921  47.7498270
  74.4093283  57.5974622  46.9076628  74.8977666  56.7499388  47.8693281
  74.6425778  57.4558001  47.6423468  68.9198818  59.4276394  57.3523370
  68.4077721  58.8197577  57.7108402  68.7478314  60.1432986  57.8197346
  68.8188455  59.4439693  57.4739594  63.7664533  57.8713969  60.0025732
  63.5967123  58.5315344  59.4573939  63.3230483  58.0820530  60.7238221
  63.6763866  57.9999951  60.0287362  67.6924352  56.1118467  49.0452466
  68.1681718  56.4735547  48.4102647  67.1912952  56.7674935  49.3252609
  67.6889711  56.2612656  48.9929207  60.6666597  60.7760835  55.2614222
  60.1193317  60.1061480  55.3795090  61.4558975  60.4090683  55.3257689
  60.7018781  60.6225821  55.2882923  69.7351005  58.2559667  42.4125850
  70.1149970  58.2739296  41.6276965  68.9943601  58.7013656  42.2916697
  69.6819843  58.3241441  42.2789418  59.4253567  59.9881642  52.4160245
  59.2475328  59.5358251  53.1415161  59.1372589  60.7907804  52.5998723
  59.3566520  60.0404200  52.5503748  75.0877148  61.2439360  51.6537635
  75.5830813  60.5262355  51.6141656  74.2776924  60.9410158  51.5392122
  75.0421041  61.0937006  51.6311361  70.5335759  65.0937173  43.8034640
  69.7247082  64.7703847  43.7567949  71.0410668  64.3870395  43.7362889
  70.4885426  64.9418489  43.7864934  61.1626037  62.5209366  49.5282004
  60.2971556  62.5095057  49.4164775  61.2624853  62.3339589  50.3753143
  61.0500204  62.4915427  49.6370949  70.6577061  52.4804782  57.6274016
  70.7904967  51.6835776  57.9554992  71.0422214  53.0071185  58.2072292
  70.7333390  52.4404699  57.7617519  73.7309416  49.4035108  54.2255110
  72.9255380  49.2932838  54.5422948  73.6016152  49.5047564  53.3684976
  73.5929549  49.4018778  54.1463150  69.7270176  54.4821195  45.0953481
  70.5485870  54.6519508  44.8535176  69.2639827  54.6368456  44.3719779
  69.7801338  54.5302928  44.9525126  68.3165508  52.4763957  55.8751910
  68.8609921  52.1355084  56.4656252  68.3702444  53.3349419  56.0173195
  68.4054627  52.5519217  55.9833784  64.1296067  66.2380373  52.7490718
  64.7340924  66.1976207  52.1204539  63.9223379  67.0851525  52.7794774
  64.1884964  66.3568376  52.6606835  59.3647349  65.2214991  52.6189641
  59.2671627  64.4111262  52.9279698  60.1476219  65.2006784  52.2335909
  59.4663485  65.0982081  52.6076504  33.8014803  -0.3513561  34.3826041
  33.0497703  -0.7298023  34.1542086  34.2500815  -0.3195128  33.6344851
  33.7564470  -0.4027954  34.2383543  39.2539763   0.0711808  29.8111588
  38.9191132   0.7488730  29.3755810  39.7666634  -0.3182881  29.2228459
  39.2805344   0.1136386  29.6598379  38.7944055   2.0226077  35.7522699
  39.1783434   2.5912975  35.2127475  38.7303196   1.2975587  35.2728515
  38.8417482   2.0001540  35.6016562  35.3799560  -0.3395169  36.6488813
  35.4809922  -1.1494815  36.9585941  34.7841305  -0.4338223  36.0188492
  35.3072098  -0.4730141  36.6015052  35.2200299   4.5782420  38.0503669
  35.8637755   5.0195584  38.4399828  35.5456555   3.7735846  37.9633928
  35.3632128   4.5247615  38.0949146  28.5764604  -4.3174883  36.2741147
  28.3414788  -5.1507230  36.1673416  28.7150245  -4.0370217  35.4602348
  28.5620266  -4.3991379  36.1383502  30.1381928   0.5610788  37.5497353
  29.6549507   1.2861278  37.5256937  30.9505247   0.8586918  37.6607511
  30.1872676   0.7113142  37.5624632  36.2096083  -0.6457031  40.1547167
  35.6923024  -1.0049616  39.5508476  36.9070474  -1.1694857  40.1653234
  36.2361664  -0.7759343  40.0677426  39.8659675  -0.1962217  46.1163340
  39.9543020  -0.3836077  46.9641551  40.2949387  -0.8424788  45.7168187
  39.9421777  -0.3199210  46.1835092  37.4330134  -0.9131057  45.0981003
  36.8700969  -1.3258447  45.6220664  38.1951158  -0.9878152  45.5174146
  37.4624583  -0.9853657  45.2374003  32.9926126   1.0766964  37.7017633
  33.6946705   0.5618953  37.7590389  32.9123609   1.4041115  38.5064508
  33.0849886   1.0481190  37.8290425  32.3176901  -2.7326684  37.2103241
  33.1565801  -2.5003751  37.2577002  32.3488670  -3.6022373  37.1410276
  32.4458619  -2.8269738  37.2067886  32.9429604  -2.3125809  41.5116546
  33.4827829  -2.4554678  42.1819919  32.2599550  -1.9129058  41.8800573
  32.9221758  -2.2746138  41.6650968  40.1350127   1.1456904  42.4273580
  39.3365373   0.9056404  42.6847448  40.5836139   1.1971297  43.1740627
  40.0824738   1.1179295  42.5758504  29.7865865  -0.8069612  39.8640958
  29.8270010  -0.5354761  39.0360738  30.3460389  -0.2827704  40.2798746
  29.8749211  -0.6893857  39.8032846  31.2380451  -2.2227663  34.6894884
  30.4118569  -1.9765926  34.5629163  31.2992443  -2.3015582  35.5556942
  31.1254618  -2.1982714  34.7983828  36.0179280   0.3949217  32.3913914
  36.3077579   0.0038198  31.6673140  36.7482761   0.5765922  32.8319189
  36.1686165   0.3643031  32.3496721  33.9585196   2.3716600  35.4574064
  33.7385491   2.0813954  36.2500731  33.7379718   1.7131555  34.9291976
  33.8932790   2.2316308  35.4962972  36.1253152   3.7445989  34.2404756
  36.7777210   3.2122432  34.4695782  35.4278760   3.3914642  34.6272630
  36.1183870   3.6135512  34.3316924  34.9579129   0.9754508  42.1042101
  35.1068692   0.4157424  41.4515506  35.7379131   1.0546510  42.4874620
  35.0953222   0.9040074  42.0639050  37.4832429   1.1469151  43.3826592
  37.4076100   0.4777962  43.9377380  37.4122288   1.8486940  43.8967258
  37.4613036   1.1514059  43.5403440  38.1402676  -0.3329850  34.2150198
  38.9052567  -0.6020206  33.8932862  38.0380766  -0.8179839  34.9320261
  38.2384172  -0.4440285  34.2730026  36.8724063   4.5537471  41.8404593
  37.3619994   3.8548260  41.6580257  36.3008296   4.2561341  42.4280650
  36.8608593   4.4063695  41.9005634  41.7567897   0.7251946  35.1780993
  41.3647689   0.4218661  34.4603859  41.9120969   1.5621036  34.9885946
  41.7221487   0.8035783  35.0437490  34.7494894  -2.5734515  43.7157065
  34.6415249  -2.5632453  44.5819123  34.9590675  -1.7479735  43.5262019
  34.7645005  -2.4493441  43.8161157  42.5258202   0.1287439  38.6111027
  42.3277891   0.6178253  37.9167238  41.9045913   0.3328680  39.1895160
  42.4045767   0.2303977  38.5934250  30.0244548  -3.6487775  42.3212919
  29.4944473  -4.3395336  42.3707894  30.2969641  -3.6577590  41.4925627
  29.9869270  -3.7520644  42.2060335  41.3168488   0.9958632  31.2048663
  40.5997798   0.8219494  30.7395900  41.9675226   0.7611204  30.6724149
  41.3070339   0.9354424  31.0577880  37.9503193   2.0119932  40.1801726
  37.7268848   1.2538762  40.5485752  37.4613036   2.0417954  39.4582166
  37.8446642   1.9042157  40.1278467  36.5981650   2.2320391  37.6338811
  36.1842049   1.5694521  37.2442652  37.2829024   2.3798249  37.1134505
  36.6380022   2.1561049  37.4995308  39.9646944   1.3910476  38.3862427
  39.5663227   1.5012746  37.6183247  39.3498164   1.5992542  38.9688987
  39.8145834   1.4384044  38.3593726  33.5636120   2.6729472  40.0352157
  33.8782679   3.4865861  40.0429938  33.9729533   2.2879691  40.7034316
  33.6704218   2.7358175  40.1356248  30.9049140  -3.3797419  39.6830765
  31.5093997  -3.4201585  39.0544586  30.6976452  -2.5326267  39.7134821
  30.9638037  -3.2609417  39.5946881  26.1400422  -4.3962802  39.5529688
  26.0424700  -5.2066530  39.8619745  26.9229292  -4.4171008  39.1675956
  26.2416559  -4.5195712  39.5416551  57.1906562   6.5433378  33.8635879
  57.1600567   7.3978014  34.0354148  57.7887911   6.2428670  34.4222022
  57.2743720   6.6249874  33.9710681  50.3906247   5.6309029  38.6188809
  49.5344143   5.7917527  38.6697926  50.4373901   4.7601093  38.6393870
  50.2705359   5.5259830  38.6294875  53.6999964  11.8995554  48.2249265
  54.4066731  11.4047585  48.3536200  53.8887899  12.3404636  47.4951923
  53.8327869  11.8913905  48.1358311  53.2358068   7.6901072  41.2620461
  53.7814028   8.3686159  41.3214430  53.1774945   7.5488533  40.4022042
  53.3073983   7.7693074  41.1432521  55.0123137   9.1185680  32.1354189
  54.8962663   9.8693366  32.5646327  55.8079024   8.8609633  32.3850276
  55.1127726   9.1920526  32.2358280  39.5497187  11.2010425  36.2741147
  39.3147372  10.3678078  36.1673416  39.6882828  11.4815091  35.4602348
  39.5352850  11.1193929  36.1383502  48.9455170   5.1095698  33.5057918
  49.6435335   5.2883825  33.9979381  49.2607503   4.5866037  32.8828307
  49.0950508   5.0589470  33.4859928  41.5756408   6.9148437  41.4169024
  41.4515105   7.5010883  42.0518842  42.2274692   6.4208633  41.7181298
  41.6530057   6.9287242  41.5554953  49.1343106  11.4966143  33.4937709
  49.5736741  10.8883243  33.9392482  48.9847769  11.1173516  32.7223174
  49.1764572  11.3504614  33.4456876  46.6014749  10.0910154  40.6956535
  47.2463751   9.5982598  40.3767483  46.8416526  10.2334941  41.5222613
  46.7325334  10.0387597  40.7706068  49.1400840  12.9365060  40.3463427
  49.4224083  12.1416466  40.1250183  49.8687001  13.4145648  40.3668488
  49.2890404  12.8899657  40.3166442  52.7352442   9.8493324  30.4468478
  52.6503738  10.7054291  30.5918047  53.2236826   9.5737648  31.1150637
  52.7941340   9.9350645  30.5670560  53.6670876   6.4678118  31.9466213
  53.1382347   6.6837752  32.6063520  54.1895896   7.1614257  31.8667183
  53.6659329   6.6021255  32.0321813  59.1218929  12.0424422  37.3199258
  58.2916632  12.2535066  37.4832674  59.0728181  11.2161477  37.0441542
  58.9925664  11.9514029  37.3036623  45.5570483  10.3641335  30.7473681
  44.9727699  10.8691366  31.1539545  45.1540579  10.1383722  30.0070273
  45.4109787  10.4049583  30.6978707  50.8392258  15.3223091  46.1163340
  50.9275604  15.1349231  46.9641551  51.2681971  14.6760520  45.7168187
  50.9154360  15.1986098  46.1835092  48.4062718  14.6054251  45.0981003
  47.8433553  14.1926860  45.6220664  49.1683741  14.5307156  45.5174146
  48.4357166  14.5331651  45.2374003  50.0147698   6.6106987  29.2242602
  50.2543702   6.8184971  28.4117945  50.3363539   5.8064496  29.3331547
  50.0984856   6.5221088  29.1203155  45.0137616   6.8327859  46.8298048
  45.1858120   6.7233753  47.6783329  45.5506973   7.4782264  46.5929240
  45.1182620   6.9119860  46.9203145  43.6795053   0.9470702  29.7680253
  43.4970626   1.1642582  28.9421246  44.5420666   1.0609714  29.8238867
  43.7799642   0.9960600  29.6534740  43.2909485  12.7858624  37.2103241
  44.1298384  13.0181557  37.2577002  43.3221254  11.9162935  37.1410276
  43.4191202  12.6915570  37.2067886  43.9162188  13.2059499  41.5116546
  44.4560413  13.0630630  42.1819919  43.2332134  13.6056250  41.8800573
  43.8954342  13.2439170  41.6650968  53.3403073   8.8850500  36.7061571
  54.0960588   9.3182014  36.7450479  53.4465397   8.2355269  37.2796207
  53.4673243   8.8527984  36.7959596  56.3783244  12.7123777  37.4563974
  55.9418476  12.7160519  38.2122945  56.0446159  13.3929276  37.0243551
  56.2645864  12.8136233  37.5044806  50.9512317  14.7532110  48.7807124
  51.7352734  14.8662958  49.1462866  50.7508912  13.9273247  48.9765810
  51.0378343  14.6478829  48.8641510  39.3199333   9.4259790  41.6650968
  39.0537748   8.6098907  41.8241958  39.3337897   9.4712945  40.7946483
  39.2824055   9.3116695  41.5604450  43.2257080   4.2244874  28.2802726
  42.5115257   3.9383054  28.6925159  43.7101048   4.5641500  28.9209113
  43.1916443   4.2326524  28.4358361  44.0697939   2.9638168  44.3117976
  43.3769736   2.4935148  44.5578707  44.6858267   2.7376473  44.8859683
  44.0582469   2.8605300  44.4327128  59.5127590   9.4304697  36.3483611
  60.1744024   8.8695365  36.2479519  58.8719002   8.9356728  36.6736302
  59.5156457   9.2741106  36.3815951  50.4004398  12.7274828  28.6564534
  50.8155546  12.3959852  27.9649030  49.5696327  12.4943730  28.5284671
  50.3392406  12.6446084  28.5355382  39.7292746  10.2118569  38.9462712
  39.5468320  10.1865455  38.0935004  40.4642415  10.6817507  38.9851621
  39.8106810  10.2779931  38.8260631  55.7992421  10.4470079  36.0895600
  56.0348010  10.5915278  35.2622450  55.9481984  11.2112487  36.4827113
  55.8558224  10.5809134  36.0259204  42.7938498   6.9303572  45.4544821
  43.5178470   6.9156603  45.9409716  42.8954635   7.6398927  44.9566789
  42.9156707   7.0328275  45.4523608  57.6282877   9.2871745  33.9265204
  57.9591095   9.8199385  33.3205298  58.2015966   9.3410633  34.5827155
  57.7616557   9.3741314  33.9342985  50.1683448  10.4102657  50.3193768
  49.3756428  10.7246169  50.5046388  50.2832375  10.6254125  49.4814552
  50.0678858  10.4886493  50.2232103  52.8414767   7.1336648  34.6088784
  52.9361621   7.8725942  35.0628409  52.2173610   6.7054123  35.0423348
  52.7623797   7.1797968  34.7396931  51.0967240  10.3122860  45.2579065
  51.6706102   9.6750105  45.4127628  51.0182044  10.3126943  44.3888722
  51.1700475  10.2187972  45.1525475  39.6963657   7.0912070  39.0961779
  40.2737159   6.9548521  39.7354024  38.9977719   6.6347854  39.3507363
  39.6784678   7.0034336  39.2284068  53.0937788   8.9785388  27.8425736
  53.0117950   9.0487575  28.7080723  53.7317508   9.5415132  27.6509476
  53.1757625   9.0724359  27.9415685  46.4530959   8.7446126  37.3100262
  46.1950203   7.9117860  37.2831561  46.5079442   8.9703739  36.4692762
  46.4230737   8.6543897  37.1820399  45.4265671   6.2983888  37.7965157
  44.8515262   6.4576056  38.4329118  45.0501347   5.6619297  37.3333607
  45.2868484   6.2281701  37.8219715  49.0938960   4.7707237  42.6557535
  48.7053393   4.3461455  42.0009726  48.4293658   5.0189387  43.1634562
  48.9385888   4.7445958  42.6345403  35.1722490   5.9423963  35.8109597
  35.2582742   5.5655831  36.5923127  35.7998288   5.5684408  35.3329556
  35.2779041   5.8309445  35.8555075  50.1977898   9.0005842  30.8534342
  51.0118537   9.2920735  30.7417113  50.1337039   8.3465704  30.2792635
  50.3080637   8.9471037  30.7523179  56.4187388  11.6831838  45.2663918
  56.1826026  10.8519903  45.1475978  57.0630617  11.6317445  45.8518762
  56.4782059  11.5529526  45.3349811  46.0685806  12.4727359  35.9806654
  46.7059753  12.2339107  36.5258448  46.4940878  12.6764518  35.2459815
  46.2261973  12.4678370  35.9523812  40.7598449  14.7115696  39.8640958
  40.8002594  14.9830547  39.0360738  41.3192973  15.2357604  40.2798746
  40.8481795  14.8291451  39.8032846  46.7088621   7.6929649  30.3181544
  47.0933774   7.4737356  31.0698089  46.4600242   8.5192595  30.4482620
  46.7290694   7.7827795  30.4482620  57.4423809  11.4676287  41.3292212
  57.1369626  12.2004344  41.6905528  56.7230025  11.0614216  41.0484998
  57.2911151  11.5158020  41.3405349  48.4507278  12.9499782  37.6600440
  48.5246287  12.7874954  38.5142290  49.2676785  13.1389972  37.4160922
  48.5823637  12.9536524  37.7498466  63.1425601   8.1069287  40.6560556
  63.0750101   8.1265247  39.7863143  63.1281263   8.9499615  40.8816227
  63.1304357   8.2343022  40.5613033  42.2113035  13.2957645  34.6894884
  41.3851153  13.5419382  34.5629163  42.2725026  13.2169726  35.5556942
  42.0987202  13.3202594  34.7983828  47.5806609  10.7152271  43.4767044
  47.0818303  11.4268039  43.5551933  48.3906833  11.0352938  43.4385207
  47.6262716  10.8679120  43.4823613  43.8434727   9.9775224  37.7229765
  43.5547975   9.3512695  38.2575493  44.7118075   9.9195511  37.7894446
  43.9294979   9.8762768  37.8120720  54.6312625   5.1210007  38.0411747
  54.2877390   4.4000343  38.3918997  54.7305667   4.9123859  37.1990105
  54.5954667   4.9834211  37.9683427  44.0467000  11.6170475  33.6472130
  44.8012968  11.9983514  33.8607593  43.4537613  12.0681619  34.1018827
  44.0703714  11.7399302  33.7455009  55.0925654  11.5835711  33.5835735
  55.6583686  12.2428921  33.4994278  54.4453557  11.9285410  34.0552137
  55.0804410  11.7317653  33.6408492  46.5073667   3.5733315  48.7729343
  45.6973443   3.8791095  48.6619185  46.9848354   4.2938898  48.8881927
  46.4577146   3.7247917  48.7736414  45.3665227  12.7879036  39.0212246
  44.8445980  12.9279328  39.7064110  45.7539247  12.0289701  39.2114363
  45.3468928  12.6964560  39.1513322  42.3556411   2.8384845  33.0907200
  42.0681207   2.4686116  32.3539148  43.0426879   3.3079700  32.8290905
  42.4145308   2.8531814  32.9422276  51.5632232  14.5274496  33.0072814
  51.3218908  13.7942356  32.5999879  51.7433565  15.0761353  32.3539148
  51.5539856  14.4996887  32.8503037  46.7931552   9.8183055  34.4193737
  46.5974335  10.4257790  33.8254040  47.0165898   9.1250999  33.9385411
  46.7966193   9.8060581  34.2609818  45.1910082   6.7037793  34.5374605
  45.9132734   6.8678951  34.0778411  44.7118075   7.4247458  34.4313945
  45.2273813   6.8336023  34.4540219  42.8417699   9.1095866  43.6428745
  43.3538796   9.3880119  42.9937505  42.5554042   9.8485160  44.0091558
  42.8752562   9.2598219  43.6018623  57.0261114   8.2469579  37.2032532
  56.9395088   8.4025005  38.0567311  56.5711594   8.8907654  36.8291937
  56.9464370   8.3645334  37.2739639  39.9284605   3.6166058  33.9392481
  40.0300742   4.4192219  34.2673457  40.7240492   3.4153393  33.6415562
  40.0612511   3.7051956  33.9427837  46.3601424   1.2022254  43.7029787
  46.1684621   1.2177389  44.5529210  47.2100020   1.3985929  43.6796441
  46.4577146   1.2336606  43.8253081  40.7448337   3.7313236  41.6813603
  40.6033829   2.8797176  41.8058111  41.0288901   3.7741896  40.8575809
  40.7656184   3.6112986  41.5781227  50.8986930   5.5680326  35.8258091
  50.6521644   5.4876077  36.6594880  51.2272053   4.7833794  35.6320619
  50.9108173   5.4406591  35.9205614  54.7934979  12.2763685  39.6144873
  54.6549338  12.9744731  40.1193615  54.0134977  12.1212342  39.2581054
  54.6578206  12.3563852  39.6371147  53.1313064   8.5760061  45.8667254
  53.1261102   7.7039877  45.8709681  53.8374058   8.7748230  45.3936710
  53.2358068   8.4763935  45.7974290  46.8583957   8.3037045  45.2381074
  47.0027333   8.8838253  44.6024184  47.2059606   8.6813341  45.9430929
  46.9311418   8.4457749  45.2480069  49.0303874   7.5027213  43.0206206
  48.2827189   7.6958227  42.6154484  49.1845400   6.6772433  42.7830327
  48.9426302   7.4092324  42.9251612  56.2888352  11.6341939  30.3761372
  55.9095160  10.8479077  30.3690661  55.6254597  12.1828796  30.2333016
  56.1346826  11.5986763  30.3542169  41.5138643   1.6443583  44.9991053
  40.9780832   1.0323942  45.3151821  41.5756407   2.2191719  45.6524720
  41.4434275   1.6390511  45.1426480  47.1488029   3.3879868  40.7543434
  46.3584104   3.2071328  41.0760770  47.5448652   2.6106820  40.7373728
  47.0904906   3.2467329  40.7995982  51.6353920  12.2167642  26.1950147
  52.4026905  12.2767767  25.7855999  51.1885229  11.6448083  25.7106466
  51.6827347  12.1404218  26.0627858  52.5331716  11.0222298  38.4802880
  51.8576718  10.7907530  38.9816267  52.5424092  10.4143481  37.8544985
  52.4350220  10.8981223  38.4619032  49.6625860   5.8640127  45.2366933
  49.5985001   6.7250083  45.1087069  49.8023047   5.5472120  44.4362484
  49.6741330   5.9440293  45.0995145  54.5348450  13.8787430  30.7113058
  54.6168288  14.6854416  30.3874508  55.0198192  13.8983389  31.4353831
  54.6185608  14.0008093  30.7699956  48.3444954   8.5572266  39.3783136
  47.9207203   8.7576765  38.6422154  48.1689809   7.7101114  39.4907435
  48.2555834   8.4621048  39.2856826  43.6327399   9.0524318  34.8111108
  43.7892018   8.9871120  35.6667100  43.9727992   9.8272870  34.5989788
  43.7060633   9.1573516  34.9065702  50.1706543   8.4282201  33.6804471
  50.7122089   7.9252582  34.1443092  50.4853102   8.3747396  32.8693957
  50.2970940   8.3461622  33.6288283  54.0423651  12.6384848  50.7931383
  54.8558516  12.3669997  50.9536516  53.8818617  12.3392388  49.9891579
  54.1393599  12.5539774  50.6976789  52.7300480  16.2437254  35.1780993
  52.3380272  15.9403969  34.4603859  52.8853553  17.0806344  34.9885946
  52.6954070  16.3221091  35.0437490  40.2061660   6.2359268  35.1271875
  40.5860625   6.6543813  34.4632143  39.6317025   6.8172724  35.4340719
  40.1772985   6.3837127  35.0748616  53.4834901   4.9307571  44.6710079
  52.6711582   4.6233461  44.7523252  53.9424835   4.4506571  45.2352791
  53.4315285   4.8144063  44.7664673  52.8940155  12.8087243  35.1187023
  52.5354810  12.9801886  35.8951056  52.4078866  13.2700448  34.5615022
  52.7698852  12.9026214  35.1512292  47.6828521   8.4886408  27.6587258
  47.9721045   9.2651291  27.9330832  47.7700319   7.9775140  28.3601757
  47.7382777   8.5278327  27.8029755  50.5788408   6.3367642  49.4538781
  51.0488039   6.9609759  49.8406655  50.6250288   5.6684618  50.0131996
  50.6556284   6.3302322  49.5938853  54.0544895  13.6991139  46.0654224
  54.6924615  13.2051334  45.7316680  53.4118986  13.6268539  45.4806451
  54.0539121  13.6150147  45.9296579  55.7801895   5.5480285  40.6320140
  55.3529503   5.4606633  39.8768239  55.1427948   5.6558060  41.2174984
  55.6231502   5.5512945  40.6065581  54.1099151  14.3910947  42.7059581
  54.8991529  14.0400012  42.8261662  54.2842749  15.2047335  42.4436215
  54.2519433  14.4596804  42.6847449  43.8492462   7.8019673  39.7587370
  43.0080468   7.7023547  39.9666264  44.0582470   8.5715153  40.1101690
  43.7557154   7.9011716  39.8414685  41.3268029   5.4239210  37.5872120
  40.9324726   5.4982221  36.8122230  40.7708145   5.8097156  38.1380482
  41.1870841   5.4920984  37.5539780  47.6609126   5.7301072  39.0084967
  47.3572264   5.1757060  39.6095375  46.9588547   5.9093282  38.5213001
  47.5125336   5.6745854  39.0254673  46.7175224   3.0401592  33.5729669
  46.9934958   2.3220504  33.1607237  47.3173893   3.6386512  33.3650775
  46.8468488   3.0221962  33.4810430  45.7227477  12.9450793  43.7157065
  45.6147832  12.9552855  44.5819123  45.9323259  13.7705573  43.5262019
  45.7377589  13.0691867  43.8161157  43.7401269  10.1963435  41.1779003
  43.1489203  10.8372933  41.1482018  44.5022293  10.6201052  41.1510302
  43.7649530  10.3539273  41.1694150  44.1361892   1.3565433  41.8447020
  44.5963374   1.4304362  42.5822144  44.1817999   2.1546687  41.4946842
  44.2112448   1.4859580  41.9019777  45.7845242   2.0232128  46.4119047
  45.3930807   1.3765475  46.8474825  45.9531105   2.6143563  47.0313303
  45.7516152   2.0146396  46.5681753  59.8591691  10.0269205  42.1756281
  59.9174815  10.4755853  42.9216257  59.2258159  10.4368018  41.7386361
  59.7742986  10.1542939  42.2208829  47.5598764   7.4157643  32.9521271
  48.3040809   7.8031920  33.1904221  47.7059460   6.5715069  33.1161759
  47.6909349   7.3488116  33.0115241  40.9249670   4.9854623  44.2198736
  41.7875283   4.8850333  44.1336066  40.5941453   4.4049333  43.6584309
  41.0034866   4.8846250  44.1244142  56.8113371   8.0485492  40.2621971
  56.5711593   7.2091908  40.2664398  57.2905378   8.1285659  40.9862745
  56.8465554   7.9366892  40.3696773  52.4760140   3.8819671  31.9140944
  51.9483158   3.9648415  31.2246653  52.9355848   4.6237543  31.9105589
  52.4661990   4.0040334  31.8115640  55.4164588   9.2136899  44.1456275
  56.1398787   8.7609425  43.9667295  55.1514550   9.4941565  43.3628603
  55.4845861   9.1887867  44.0034991  44.2851456   3.8097072  40.8809155
  43.6604526   3.8215464  40.2735107  43.9497051   4.2857248  41.5300395
  44.1436948   3.8815589  40.8865723  44.4693205   2.1522191  26.9381840
  44.1206009   2.8041916  27.4013389  43.9889651   2.1379304  26.2105711
  44.3463449   2.2465244  26.8992931  40.9977132  11.8697533  42.3212919
  40.4677056  11.1789971  42.3707894  41.2702225  11.8607718  41.4925627
  40.9601854  11.7664664  42.2060335  52.0297222  12.4523235  31.0450601
  52.7531421  12.9181348  30.9015175  51.5897813  12.5196845  30.2948198
  52.0712914  12.5307072  30.9135383  51.1983377   9.3120777  42.2951290
  50.5840370   8.7678827  42.5899926  51.7150662   8.7985014  41.8157107
  51.1839040   9.1557186  42.2675519  50.4379674  10.3825047  40.0295589
  50.0107282   9.7574766  39.5961024  50.4304619  10.0999969  40.8554596
  50.3738816  10.2477828  40.0875417  43.5542201   5.4190220  43.0984023
  43.7135688   4.6633544  43.5035745  43.3735095   5.9681160  43.7524761
  43.5507560   5.3884034  43.2546729  36.2772974   8.5425297  39.6781267
  36.1716423   8.4972141  38.8133351  35.5273194   8.8879077  39.9595552
  36.1508577   8.5866205  39.5918597  47.2296319   9.5525360  47.7264162
  46.3791950   9.6897074  47.8621807  47.3924447   8.8189138  48.1711864
  47.1280183   9.4639461  47.8119761  46.4681070   6.5025130  41.9217766
  45.6372999   6.6698948  41.7153015  46.4132587   6.1261081  42.7066652
  46.3370485   6.4714861  42.0066295  44.8417113   4.7780721  32.4507884
  44.9820075   5.2753186  33.1536525  45.3399646   4.0767016  32.5922098
  44.9358194   4.7482700  32.5759463  44.8717336   5.6447832  29.7800461
  45.5062415   6.2408257  29.7149923  44.9542947   5.3451290  30.5946331
  44.9773887   5.6888741  29.8903548  57.8499902   8.1763310  42.6486825
  58.4417742   8.8160560  42.6805023  58.2858896   7.4786346  42.9378892
  58.0018333   8.1681660  42.6967658  49.6793291  12.5980682  43.2744719
  49.1718383  13.1516529  43.7185350  49.3819938  12.6588972  42.4563494
  49.5598176  12.6886993  43.2193176  41.3770324   7.8415673  33.0490007
  41.8862553   8.4380181  33.4301312  41.8504596   7.5741647  32.3666427
  41.5213699   7.8901489  33.0044530  52.2901072  16.5143940  31.2048663
  51.5730381  16.3404802  30.7395900  52.9407809  16.2796512  30.6724149
  52.2802922  16.4539732  31.0577880  54.8749043   5.3908528  34.9489968
  54.2040233   5.9338231  34.8203033  55.5688793   5.8603384  34.7071662
  54.8777911   5.5406800  34.8945495  43.7360855   4.4771932  35.9163187
  43.0172845   4.8936064  36.1836051  44.1073218   5.0426170  35.3654826
  43.6852787   4.6221213  35.8745994  53.0360436   5.1099781  41.8065183
  53.0158364   4.9283076  42.6599962  53.0839637   5.9811799  41.7824767
  53.0395077   5.2116319  41.9288478  50.9806766  11.6986973  47.7313660
  50.9402621  11.0536650  47.1458816  51.7930084  11.6423590  48.0439072
  51.0949920  11.5945939  47.6910609  49.5107430   3.5169932  31.2536567
  48.9172269   3.8386928  30.7021134  49.5482708   2.6711027  31.0457673
  49.4281819   3.4394260  31.1419338  46.6684475   5.3283909  44.2863417
  46.1563378   4.7205092  44.6448449  46.4963971   6.0440502  44.7537393
  46.5674112   5.3447208  44.4079641  41.5150190   3.7721484  46.9365779
  41.3452780   4.4322859  46.3913986  41.0716139   3.9828046  47.6578268
  41.4249523   3.9007467  46.9627409  45.4410009   2.0125982  35.9792513
  45.9167375   2.3743062  35.3442694  44.9398609   2.6682450  36.2592655
  45.4375368   2.1620171  35.9269254  58.6721370  11.4847750  31.7705518
  59.0554976  12.2339107  32.0003615  57.8765484  11.7313570  31.5117507
  58.6115153  11.6317444  31.7663091  50.5453545   3.2508154  46.7265673
  51.1024975   3.0221963  46.0944138  50.2214610   4.0113819  46.4500885
  50.5799955   3.3291990  46.5922170  38.4152254   6.6768350  42.1954269
  37.8678973   6.0068996  42.3135137  39.2044632   6.3098198  42.2597736
  38.4504438   6.5233336  42.2222969  48.2636662   6.3375807  47.6917680
  49.0147989   6.6527484  48.0057234  48.4559239   6.1354978  46.8651602
  48.4028077   6.3543189  47.6161076  47.4836662   4.1567182  29.3465897
  47.8635627   4.1746811  28.5617011  46.7429258   4.6021171  29.2256744
  47.4305500   4.2248957  29.2129465  37.1739224   5.8889158  39.3500292
  36.9960985   5.4365767  40.0755208  36.8858246   6.6915319  39.5338769
  37.1052177   5.9411716  39.4843795  52.8362805   7.1446875  38.5877682
  53.3316470   6.4269870  38.5481703  52.0262580   6.8417673  38.4732169
  52.7906698   6.9944521  38.5651408  48.2821416  10.9944688  30.7374687
  47.4732739  10.6711362  30.6907996  48.7896325  10.2877911  30.6702935
  48.2371083  10.8426005  30.7204981  38.9111693   8.4216882  36.4622051
  38.0457213   8.4102572  36.3504822  39.0110509   8.2347104  37.3093190
  38.7985860   8.3922943  36.5710995  54.9014624   9.8950563  41.2754811
  55.3269695   9.3724985  40.7225236  54.5371543  10.4931400  40.7543434
  54.9101226   9.9060790  41.1163821  51.4893223  13.6084827  37.6055968
  51.9604401  14.3225090  37.7745954  51.8253401  13.0083577  38.1415838
  51.6088338  13.6256291  37.7088344  53.5770208  15.2186140  49.7848041
  53.6867173  14.4294701  50.1404788  53.9061104  15.1292076  48.9822379
  53.6422613  15.0891993  49.7190431  52.1267169  13.4002761  44.3683661
  51.5788115  12.7760645  44.1003726  52.5880198  13.5897033  43.6527741
  52.1134379  13.3361811  44.2234092  41.8781723  12.1387889  39.6830765
  42.4826581  12.0983723  39.0544586  41.6709036  12.9859041  39.7134821
  41.9370621  12.2575891  39.5946881  37.1133006  11.1222506  39.5529688
  37.0157284  10.3118778  39.8619745  37.8961875  11.1014300  39.1675956
  37.2149142  10.9989596  39.5416551  68.1639146  22.0618685  33.8635879
  68.1333150  22.9163322  34.0354148  68.7620495  21.7613978  34.4222022
  68.2476304  22.1435182  33.9710681  61.3638831  21.1494336  38.6188809
  60.5076726  21.3102835  38.6697926  61.4106485  20.2786400  38.6393870
  61.2437942  21.0445138  38.6294875  64.6732547  27.4180862  48.2249265
  65.3799315  26.9232893  48.3536200  64.8620483  27.8589944  47.4951923
  64.8060453  27.4099212  48.1358311  61.2004930  31.1082424  29.8111588
  60.8656299  31.7859345  29.3755810  61.7131801  30.7187735  29.2228459
  61.2270512  31.1507002  29.6598379  64.2090652  23.2086380  41.2620461
  64.7546612  23.8871467  41.3214430  64.1507528  23.0673841  40.4022042
  64.2806566  23.2878382  41.1432521  65.9855720  24.6370987  32.1354189
  65.8695246  25.3878674  32.5646327  66.7811607  24.3794941  32.3850276
  66.0860310  24.7105834  32.2358280  57.8686046  28.6265011  33.4223531
  58.1901887  29.1670218  32.8184839  58.5158143  28.0561782  33.5545821
  58.0112101  28.6224186  33.3530566  59.9187754  20.6281005  33.5057918
  60.6167919  20.8069133  33.9979381  60.2340087  20.1051345  32.8828307
  60.0683091  20.5774778  33.4859928  60.1075689  27.0151451  33.4937709
  60.5469325  26.4068551  33.9392482  59.9580352  26.6358824  32.7223174
  60.1497155  26.8689922  33.4456876  58.0914618  15.9973402  37.5879192
  57.7617948  16.4484546  36.9182891  57.4159619  15.9189565  38.1352199
  57.9425054  16.0524537  37.5702416  63.7085026  25.3678632  30.4468478
  63.6236321  26.2239598  30.5918047  64.1969409  25.0922956  31.1150637
  63.7673923  25.4535953  30.5670560  65.2991025  11.9858925  35.8328803
  64.9844466  12.6762404  36.2649225  64.7817967  11.9303707  35.1314304
  65.1755496  12.0793814  35.7925752  64.6403459  21.9863426  31.9466213
  64.1114931  22.2023059  32.6063520  65.1628479  22.6799564  31.8667183
  64.6391912  22.1206563  32.0321813  70.0951512  27.5609730  37.3199258
  69.2649215  27.7720374  37.4832674  70.0460764  26.7346785  37.0441542
  69.9658248  27.4699337  37.3036623  61.8124842  30.8408399  46.1163340
  61.9008188  30.6534539  46.9641551  62.2414554  30.1945828  45.7168187
  61.8886944  30.7171406  46.1835092  60.9880281  22.1292295  29.2242602
  61.2276285  22.3370279  28.4117945  61.3096122  21.3249803  29.3331547
  61.0717439  22.0406396  29.1203155  56.2970572  14.0585691  33.0702140
  57.0516540  14.4264008  32.8319190  56.1198106  14.4325245  33.8381320
  56.3825050  14.1683878  33.1487028  69.5905470  20.2080131  41.1149679
  68.7533891  20.2782318  41.3497274  69.5593701  20.2104626  40.2423982
  69.4623753  20.2190358  41.0209227  55.9870199  22.3513167  46.8298048
  56.1590703  22.2419061  47.6783329  56.5239557  22.9967572  46.5929240
  56.0915203  22.4305168  46.9203145  54.6527636  16.4656010  29.7680253
  54.4703210  16.6827890  28.9421246  55.5153249  16.5795022  29.8238867
  54.7532226  16.5145907  29.6534740  60.3327356  13.4682420  32.8029277
  61.0613516  13.2898375  32.3567433  60.4222248  14.3100500  33.0136455
  60.4534018  13.5666299  32.7682794  64.3135656  24.4035808  36.7061571
  65.0693171  24.8367322  36.7450479  64.4197981  23.7540577  37.2796207
  64.4405827  24.3713291  36.7959596  67.3515827  28.2309085  37.4563974
  66.9151059  28.2345827  38.2122945  67.0178743  28.9114584  37.0243551
  67.2378447  28.3321541  37.5044806  61.9244901  30.2717418  48.7807124
  62.7085318  30.3848265  49.1462866  61.7241496  29.4458555  48.9765810
  62.0110926  30.1664137  48.8641510  67.2713310  15.2722913  39.6993402
  67.9139219  15.3421017  40.2855317  67.5236331  14.6052136  39.1972944
  67.4035442  15.1849261  39.7120681  54.1989663  19.7430182  28.2802726
  53.4847841  19.4568362  28.6925159  54.6833632  20.0826808  28.9209113
  54.1649027  19.7511832  28.4358361  55.0430523  18.4823476  44.3117976
  54.3502320  18.0120456  44.5578707  55.6590850  18.2561781  44.8859683
  55.0315053  18.3790608  44.4327128  70.4860174  24.9490005  36.3483611
  71.1476608  24.3880673  36.2479519  69.8451586  24.4542035  36.6736302
  70.4889041  24.7926414  36.3815951  61.3736981  28.2460136  28.6564534
  61.7888130  27.9145160  27.9649030  60.5428911  28.0129038  28.5284671
  61.3124990  28.1631392  28.5355382  66.7725004  25.9655387  36.0895600
  67.0080593  26.1100586  35.2622450  66.9214568  26.7297795  36.4827113
  66.8290808  26.0994442  36.0259204  68.6015461  24.8057053  33.9265204
  68.9323678  25.3384693  33.3205298  69.1748549  24.8595941  34.5827155
  68.7349140  24.8926622  33.9342985  61.1416031  25.9287965  50.3193768
  60.3489012  26.2431476  50.5046388  61.2564958  26.1439433  49.4814552
  61.0411442  26.0071801  50.2232103  63.8147350  22.6521956  34.6088784
  63.9094205  23.3911250  35.0628409  63.1906194  22.2239431  35.0423348
  63.7356380  22.6983276  34.7396931  62.0699824  25.8308168  45.2579065
  62.6438686  25.1935413  45.4127628  61.9914628  25.8312251  44.3888722
  62.1433059  25.7373280  45.1525475  64.0670371  24.4970696  27.8425736
  63.9850534  24.5672883  28.7080723  64.7050092  25.0600439  27.6509476
  64.1490209  24.5909667  27.9415685  62.5064593  16.3659884  37.4104355
  61.8020919  15.8769070  37.5688274  62.5549567  16.3782359  36.5392799
  62.4094644  16.2949532  37.3043694  69.7094813  20.0467550  35.4305365
  69.4531377  19.2347491  35.2403248  70.5524126  20.0545117  35.2035553
  69.7960838  19.9279547  35.3690182  63.8897905  13.9867174  40.1681519
  64.2708417  13.3045345  40.5549394  63.0861189  13.6976776  39.9857184
  63.8274367  13.8434223  40.1985575  61.1710482  24.5191150  30.8534342
  61.9851120  24.8106043  30.7417113  61.1069623  23.8651012  30.2792635
  61.2813221  24.4656345  30.7523179  67.3919972  27.2017146  45.2663918
  67.1558609  26.3705211  45.1475978  68.0363201  27.1502753  45.8518762
  67.4514643  27.0714834  45.3349811  57.6821205  23.2114957  30.3181544
  58.0666358  22.9922664  31.0698089  57.4332825  24.0377902  30.4482620
  57.7023278  23.3013103  30.4482620  57.8489745  16.4921372  50.0344128
  57.5343186  17.2620935  49.7713691  57.5279678  15.9291628  49.4496355
  57.7548664  16.5231641  49.9085478  68.4156392  26.9861595  41.3292212
  68.1102209  27.7189652  41.6905528  67.6962608  26.5799524  41.0484998
  68.2643735  27.0343328  41.3405349  74.1158185  23.6254595  40.6560556
  74.0482685  23.6450555  39.7863143  74.1013847  24.4684923  40.8816227
  74.1036941  23.7528330  40.5613033  55.4021642  14.8811894  35.6490324
  54.5344068  14.9534493  35.7147933  55.6896847  15.6833973  35.8378299
  55.3161390  15.0106041  35.6865091  64.5254531  15.0289753  43.9801646
  65.2708123  14.8399564  43.5665071  64.1091836  15.5547991  43.4215502
  64.5739505  15.0791899  43.8366219  71.9016802  22.3998982  38.9307151
  72.4524723  21.7667051  39.1704243  71.8860917  22.9314374  39.6222655
  71.9801998  22.3847930  39.0686009  65.6045208  20.6395315  38.0411747
  65.2609974  19.9185650  38.3918997  65.7038251  20.4309166  37.1990105
  65.5687251  20.5019519  37.9683427  66.0658237  27.1021019  33.5835735
  66.6316270  27.7614229  33.4994278  65.4186141  27.4470717  34.0552137
  66.0536994  27.2502961  33.6408492  57.4806251  19.0918623  48.7729343
  56.6706026  19.3976403  48.6619185  57.9580937  19.8124206  48.8881927
  57.4309730  19.2433224  48.7736414  53.3288994  18.3570153  33.0907200
  53.0413790  17.9871423  32.3539148  54.0159463  18.8265008  32.8290905
  53.3877892  18.3717122  32.9422276  62.5364815  30.0459804  33.0072814
  62.2951491  29.3127664  32.5999879  62.7166148  30.5946661  32.3539148
  62.5272439  30.0182195  32.8503037  64.1236174  18.5586900  39.9171290
  63.2847274  18.5848179  39.6809553  64.1940541  19.2057635  40.4976637
  64.0104567  18.6583026  39.9680407  62.5705452  15.4572277  34.6498906
  63.2731805  15.2580025  34.1718864  62.3049641  14.6848219  34.9567749
  62.6352084  15.3135243  34.6244348  67.9993697  23.7654887  37.2032532
  67.9127672  23.9210313  38.0567311  67.5444177  24.4092962  36.8291937
  67.9196954  23.8830642  37.2739639  57.3334008  16.7207562  43.7029787
  57.1417205  16.7362697  44.5529210  58.1832604  16.9171237  43.6796441
  57.4309730  16.7521913  43.8253081  61.8719513  21.0865634  35.8258091
  61.6254228  21.0061385  36.6594880  62.2004636  20.3019102  35.6320619
  61.8840757  20.9591899  35.9205614  65.7667562  27.7948993  39.6144873
  65.6281922  28.4930039  40.1193615  64.9867560  27.6397650  39.2581054
  65.6310789  27.8749160  39.6371147  64.1045647  24.0945369  45.8667254
  64.0993686  23.2225185  45.8709681  64.8106641  24.2933538  45.3936710
  64.2090651  23.9949243  45.7974290  67.2620935  27.1527247  30.3761372
  66.8827744  26.3664385  30.3690661  66.5987181  27.7014104  30.2333016
  67.1079410  27.1172071  30.3542169  60.2438235  16.9163072  43.9101610
  60.7010849  17.6487046  44.0374402  60.3194564  16.4929537  44.6688866
  60.3229205  16.9620310  44.0402686  64.7165561  10.0952947  37.7795453
  64.8349129  10.5529410  37.0462755  64.5427737   9.2898208  37.4931670
  64.7084732  10.0446719  37.6296386  62.6086504  27.7352950  26.1950147
  63.3759489  27.7953075  25.7855999  62.1617813  27.1633391  25.7106466
  62.6559931  27.6589526  26.0627858  60.6358443  21.3825435  45.2366933
  60.5717584  22.2435391  45.1087069  60.7755631  21.0657428  44.4362484
  60.6473913  21.4625601  45.0995145  65.5081034  29.3972738  30.7113058
  65.5900871  30.2039724  30.3874508  65.9930776  29.4168697  31.4353831
  65.5918192  29.5193400  30.7699956  61.1439127  23.9467509  33.6804471
  61.6854672  23.4437890  34.1443092  61.4585686  23.8932704  32.8693957
  61.2703524  23.8646930  33.6288283  65.0156234  28.1570156  50.7931383
  65.8291099  27.8855305  50.9536516  64.8551201  27.8577696  49.9891579
  65.1126183  28.0725082  50.6976789  59.3125576  29.3384861  30.9644499
  59.3818397  28.4799399  31.1037500  60.0914032  29.5556741  30.6363524
  59.4378427  29.2437725  30.9361657  62.2928396  18.8403814  43.7326772
  62.5070366  18.2014728  43.1790126  61.6762295  19.2849637  43.3034633
  62.2333725  18.8113957  43.5877203  63.7033064  31.7622562  35.1780993
  63.3112856  31.4589277  34.4603859  63.8586136  32.5991652  34.9885946
  63.6686654  31.8406399  35.0437490  64.4567484  20.4492879  44.6710079
  63.6444166  20.1418769  44.7523252  64.9157419  19.9691879  45.2352791
  64.4047869  20.3329371  44.7664673  63.8672739  28.3272551  35.1187023
  63.5087394  28.4987194  35.8951056  63.3811450  28.7885756  34.5615022
  63.7431436  28.4211522  35.1512292  61.6843125  11.9503749  38.7214115
  60.8136683  11.9242470  38.6747424  61.9383466  11.7780941  37.9039960
  61.5936685  11.9213893  38.5934251  58.6561104  24.0071716  27.6587258
  58.9453629  24.7836599  27.9330832  58.7432903  23.4960448  28.3601757
  58.7115360  24.0463634  27.8029755  61.5520992  21.8552950  49.4538781
  62.0220623  22.4795067  49.8406655  61.5982872  21.1869926  50.0131996
  61.6288867  21.8487630  49.5938853  58.7092265  13.9609978  40.1787585
  58.1930754  13.2690169  40.3039164  58.1486194  14.6280755  40.1250184
  58.5498779  13.9573235  40.1893651  60.7784499  14.5002938  42.0080438
  60.3916252  14.5251969  42.7893967  60.2917436  13.9344616  41.5554954
  60.6497008  14.4198689  42.0568341  65.0277478  29.2176447  46.0654224
  65.6657199  28.7236642  45.7316680  64.3851570  29.1453847  45.4806451
  65.0271705  29.1335455  45.9296579  66.7534478  21.0665593  40.6320140
  66.3262086  20.9791941  39.8768239  66.1160531  21.1743368  41.2174984
  66.5964086  21.0698252  40.6065581  60.4441640  11.3869923  44.2990697
  61.0734758  11.9230223  44.0211768  60.6127503  11.2947282  45.1504263
  60.5619435  11.4531285  44.3839226  60.2455555  16.1741118  46.5717109
  61.0728985  15.9026267  46.6275723  60.2663401  16.9701960  46.9280927
  60.3708405  16.2520872  46.6332292  65.0831735  29.9096255  42.7059581
  65.8724113  29.5585320  42.8261662  65.2575333  30.7232643  42.4436215
  65.2252016  29.9782112  42.6847449  63.9365559  13.9205812  37.2675999
  64.1415152  13.8528119  38.1132996  63.6091983  14.7264633  37.1997177
  63.9180807  14.0291752  37.3835654  57.6907807  18.5586900  33.5729669
  57.9667541  17.8405812  33.1607237  58.2906476  19.1571820  33.3650775
  57.8201072  18.5407270  33.4810430  67.1899247  14.4737576  36.7478765
  66.5773560  14.9607978  37.1332497  67.2863422  13.7981067  37.2916416
  67.1137144  14.4455885  36.8857623  61.1918328  16.2300417  31.8476264
  61.6462074  16.4010977  32.5724109  61.6658373  15.6168528  31.4474040
  61.3286648  16.1651302  31.8950026  55.1094476  16.8750741  41.8447020
  55.5695957  16.9489670  42.5822144  55.1550583  17.6731995  41.4946842
  55.1845031  17.0044888  41.9019777  56.7577826  17.5417436  46.4119047
  56.3663391  16.8950783  46.8474825  56.9263688  18.1328871  47.0313303
  56.7248736  17.5331703  46.5681753  70.8324275  25.5454513  42.1756281
  70.8907398  25.9941161  42.9216257  70.1990742  25.9553325  41.7386361
  70.7475570  25.6728247  42.2208829  58.5331348  22.9342951  32.9521271
  59.2773393  23.3217228  33.1904221  58.6792044  22.0900377  33.1161759
  58.6641933  22.8673424  33.0115241  60.4510923  14.7293210  37.9853133
  59.6046968  14.9016018  37.8594483  60.4482056  13.9242554  38.3218961
  60.3258073  14.6354239  38.0164260  61.5209224  18.5068425  38.8515191
  61.0469178  17.9810187  39.3620502  61.8927359  17.9597898  38.2830052
  61.5059112  18.3484421  38.8430338  67.7845954  23.5670800  40.2621971
  67.5444177  22.7277215  40.2664398  68.2637961  23.6470967  40.9862745
  67.8198138  23.4552200  40.3696773  63.4492723  19.4004979  31.9140944
  62.9215742  19.4833723  31.2246653  63.9088431  20.1422851  31.9105589
  63.4394574  19.5225642  31.8115640  69.7851141  20.3472258  38.2151230
  69.5460911  20.3068092  37.3772015  69.9485042  21.1943410  38.3416951
  69.7741445  20.4664343  38.1104712  66.3897171  24.7322207  44.1456275
  67.1131370  24.2794733  43.9667295  66.1247134  25.0126873  43.3628603
  66.4578445  24.7073175  44.0034991  55.4425788  17.6707499  26.9381840
  55.0938593  18.3227224  27.4013389  54.9622234  17.6564612  26.2105711
  55.3196032  17.7650552  26.8992931  63.0029806  27.9708543  31.0450601
  63.7264005  28.4366656  30.9015175  62.5630397  28.0382152  30.2948198
  63.0445498  28.0492380  30.9135383  62.4695088  13.1036764  43.6534813
  61.9735649  13.3000438  42.9626379  63.2264150  13.5029432  43.4823614
  62.5081913  13.1914498  43.5254949  59.7397968  16.7779110  40.2438123
  59.7640455  16.2439222  39.5550903  59.9909441  16.2696418  40.9063714
  59.7807886  16.6240014  40.2402768  56.0199290  15.5049928  39.6243867
  56.0597661  16.0059134  40.3378575  55.1948954  15.5960322  39.3549790
  55.9038816  15.5931744  39.6894406  55.2497436  15.5119331  47.5574177
  55.8750140  14.9681463  47.8303609  54.7947916  15.0314248  46.9881967
  55.2745697  15.3608812  47.5135771  55.8149697  20.2966029  32.4507884
  55.9552658  20.7938493  33.1536525  56.3132230  19.5952324  32.5922098
  55.9090778  20.2668008  32.5759463  55.8449919  21.1633140  29.7800461
  56.4794999  21.7593565  29.7149923  55.9275530  20.8636598  30.5946331
  55.9506470  21.2074048  29.8903548  68.8232485  23.6948618  42.6486825
  69.4150325  24.3345868  42.6805023  69.2591480  22.9971654  42.9378892
  68.9750916  23.6866968  42.6967658  57.4228902  17.0947116  29.7545903
  57.7444743  16.6150198  29.1005165  57.6855846  17.9046762  29.5636715
  57.5094928  17.1437014  29.6301395  62.8188057  16.4819310  42.1169382
  63.2443129  16.0291836  41.5052908  62.2045050  15.9279380  42.3934169
  62.7916703  16.3333286  42.0674407  63.2633655  32.0329248  31.2048663
  62.5462965  31.8590110  30.7395900  63.9140393  31.7981820  30.6724149
  63.2535506  31.9725040  31.0577880  61.2582280  12.9534409  35.5259959
  60.6150598  12.8032056  36.0945097  60.9181687  12.7076755  34.7609064
  61.1127357  12.8946532  35.4962974  65.8481627  20.9093836  34.9489968
  65.1772816  21.4523539  34.8203033  66.5421377  21.3788692  34.7071662
  65.8510494  21.0592107  34.8945495  66.0109754  17.3649720  37.8580341
  66.3637364  16.9379443  38.5326140  65.1524556  17.2800563  37.9881417
  65.9359199  17.2894461  37.9775351  64.0093020  20.6285088  41.8065183
  63.9890947  20.4468384  42.6599962  64.0572221  21.4997107  41.7824767
  64.0127661  20.7301627  41.9288478  61.9539350  27.2172280  47.7313660
  61.9135205  26.5721957  47.1458816  62.7662668  27.1608898  48.0439072
  62.0682503  27.1131247  47.6910609  60.4840013  19.0355239  31.2536567
  59.8904853  19.3572236  30.7021134  60.5215291  18.1896335  31.0457673
  60.4014403  18.9579568  31.1419338  67.4433814  12.4868132  38.7864653
  66.9364679  11.7797271  38.7185831  68.2401248  12.1561321  38.9165730
  67.4861053  12.3341283  38.7963648  63.3597830  18.9934744  34.6838317
  63.1311523  19.0167445  33.8416675  63.6195906  18.1692211  34.8033328
  63.3644018  18.8750824  34.5763515  56.4142592  17.5311290  35.9792513
  56.8899959  17.8928370  35.3442694  55.9131192  18.1867758  36.2592655
  56.4107951  17.6805479  35.9269254  69.6453954  27.0033058  31.7705518
  70.0287560  27.7524415  32.0003615  68.8498067  27.2498878  31.5117507
  69.5847736  27.1502752  31.7663091  61.5186129  18.7693462  46.7265673
  62.0757559  18.5407271  46.0944138  61.1947194  19.5299127  46.4500885
  61.5532539  18.8477298  46.5922170  59.2369246  21.8561115  47.6917680
  59.9880573  22.1712792  48.0057234  59.4291823  21.6540286  46.8651602
  59.3760660  21.8728497  47.6161076  58.4569246  19.6752490  29.3465897
  58.8368210  19.6932119  28.5617011  57.7161842  20.1206479  29.2256744
  58.4038083  19.7434265  29.2129465  66.0854536  17.9834681  34.9341475
  66.0848763  17.8283338  35.7925752  65.8810716  18.8297668  34.8782861
  66.0554314  18.0855302  35.0529415  63.8095388  22.6632183  38.5877682
  64.3049054  21.9455178  38.5481703  62.9995164  22.3602981  38.4732169
  63.7639281  22.5129829  38.5651408  59.2554000  26.5129996  30.7374687
  58.4465322  26.1896670  30.6907996  59.7628909  25.8063218  30.6702935
  59.2103667  26.3611313  30.7204981  65.8747207  25.4135871  41.2754811
  66.3002279  24.8910292  40.7225236  65.5104127  26.0116708  40.7543434
  65.8833810  25.4246098  41.1163821  64.5502791  30.7371448  49.7848041
  64.6599757  29.9480009  50.1404788  64.8793688  30.6477384  48.9822379
  64.6155197  30.6077301  49.7190431  59.3795301  13.8997605  44.5614063
  59.5123207  13.1028599  44.8895039  59.7640454  14.4264008  45.1412339
  59.4551630  13.8597522  44.6957566  62.4527657  10.8227932  41.1595157
  61.6473620  10.7125661  41.4762995  62.3234392  10.9240387  40.3025022
  62.3147790  10.8211602  41.0803197  65.9093617  16.9873423  41.7534853
  65.3256606  17.4882630  41.3412421  66.2297911  16.4802980  41.1199177
  65.8706793  16.9865258  41.5993361  58.4488416  15.9014018  32.0293528
  59.2704111  16.0712331  31.7875223  57.9858067  16.0561279  31.3059826
  58.5019579  15.9495751  31.8865173  57.0383748  13.8956781  42.8091957
  57.5828161  13.5547907  43.3996299  57.0920684  14.7542242  42.9513242
  57.1272868  13.9712040  42.9173830  72.3371414  36.6679644  38.6188809
  71.4809310  36.8288143  38.6697926  72.3839068  35.7971708  38.6393870
  72.2170526  36.5630446  38.6294875  66.7212554  46.2042362  34.3826041
  65.9695454  45.8257901  34.1542086  67.1698566  46.2360796  33.6344851
  66.6762221  46.1527969  34.2383543  72.1737514  46.6267732  29.8111588
  71.8388882  47.3044653  29.3755810  72.6864384  46.2373043  29.2228459
  72.2003095  46.6692310  29.6598379  71.7141805  48.5782000  35.7522699
  72.0981185  49.1468899  35.2127475  71.6500946  47.8531511  35.2728515
  71.7615232  48.5557464  35.6016562  75.1823235  38.7271688  41.2620461
  75.7279195  39.4056775  41.3214430  75.1240112  38.5859149  40.4022042
  75.2539150  38.8063690  41.1432521  68.2997310  46.2160754  36.6488813
  68.4007673  45.4061108  36.9585941  67.7039056  46.1217701  36.0188492
  68.2269849  46.0825783  36.6015052  68.1398050  51.1338344  38.0503669
  68.7835505  51.5751508  38.4399828  68.4654305  50.3291770  37.9633928
  68.2829879  51.0803538  38.0949146  61.4962355  42.2381041  36.2741147
  61.2612539  41.4048693  36.1673416  61.6347995  42.5185707  35.4602348
  61.4818017  42.1564544  36.1383502  68.8418630  44.1450318  33.4223531
  69.1634471  44.6855526  32.8184839  69.4890726  43.5747090  33.5545821
  68.9844685  44.1409494  33.3530566  70.8920338  36.1466313  33.5057918
  71.5900502  36.3254441  33.9979381  71.2072670  35.6236653  32.8828307
  71.0415675  36.0960086  33.4859928  71.0808273  42.5336758  33.4937709
  71.5201909  41.9253859  33.9392482  70.9312936  42.1544132  32.7223174
  71.1229739  42.3875230  33.4456876  68.5479916  41.1280770  40.6956535
  69.1928919  40.6353213  40.3767483  68.7881693  41.2705557  41.5222613
  68.6790501  41.0758212  40.7706068  71.0866007  43.9735676  40.3463427
  71.3689250  43.1787082  40.1250183  71.8152168  44.4516264  40.3668488
  71.2355571  43.9270273  40.3166442  69.0647201  31.5158710  37.5879192
  68.7350531  31.9669854  36.9182891  68.3892203  31.4374873  38.1352199
  68.9157638  31.5709845  37.5702416  74.6817610  40.8863940  30.4468478
  74.5968905  41.7424906  30.5918047  75.1701993  40.6108264  31.1150637
  74.7406507  40.9721261  30.5670560  75.6136043  37.5048734  31.9466213
  75.0847514  37.7208367  32.6063520  76.1361063  38.1984872  31.8667183
  75.6124496  37.6391871  32.0321813  67.5035651  41.4011951  30.7473681
  66.9192866  41.9061982  31.1539545  67.1005746  41.1754338  30.0070273
  67.3574954  41.4420199  30.6978707  63.0579679  47.1166712  37.5497353
  62.5747257  47.8417201  37.5256937  63.8702997  47.4142842  37.6607511
  63.1070427  47.2669065  37.5624632  69.1293833  45.9098892  40.1547167
  68.6120775  45.5506308  39.5508476  69.8268225  45.3861067  40.1653234
  69.1559414  45.7796580  40.0677426  72.7857425  46.3593707  46.1163340
  72.8740771  46.1719847  46.9641551  73.2147138  45.7131136  45.7168187
  72.8619528  46.2356714  46.1835092  70.3527885  45.6424867  45.0981003
  69.7898720  45.2297476  45.6220664  71.1148909  45.5677772  45.5174146
  70.3822334  45.5702267  45.2374003  71.9612865  37.6477603  29.2242602
  72.2008869  37.8555586  28.4117945  72.2828706  36.8435111  29.3331547
  72.0450023  37.5591704  29.1203155  67.2703155  29.5770998  33.0702140
  68.0249123  29.9449316  32.8319190  67.0930690  29.9510553  33.8381320
  67.3557634  29.6869186  33.1487028  65.9123877  47.6322888  37.7017633
  66.6144456  47.1174877  37.7590389  65.8321360  47.9597039  38.5064508
  66.0047637  47.6037114  37.8290425  66.9602783  37.8698475  46.8298048
  67.1323287  37.7604369  47.6783329  67.4972141  38.5152880  46.5929240
  67.0647787  37.9490476  46.9203145  65.6260220  31.9841317  29.7680253
  65.4435793  32.2013198  28.9421246  66.4885833  32.0980330  29.8238867
  65.7264809  32.0331215  29.6534740  65.2374652  43.8229240  37.2103241
  66.0763551  44.0552172  37.2577002  65.2686421  42.9533551  37.1410276
  65.3656370  43.7286186  37.2067886  65.8627355  44.2430115  41.5116546
  66.4025580  44.1001246  42.1819919  65.1797301  44.6426866  41.8800573
  65.8419509  44.2809786  41.6650968  71.3059939  28.9867728  32.8029277
  72.0346100  28.8083683  32.3567433  71.3954832  29.8285808  33.0136455
  71.4266601  29.0851607  32.7682794  75.2868240  39.9221116  36.7061571
  76.0425755  40.3552630  36.7450479  75.3930564  39.2725885  37.2796207
  75.4138410  39.8898599  36.7959596  72.8977485  45.7902726  48.7807124
  73.6817901  45.9033573  49.1462866  72.6974079  44.9643863  48.9765810
  72.9843510  45.6849445  48.8641510  65.1722247  35.2615490  28.2802726
  64.4580424  34.9753670  28.6925159  65.6566216  35.6012116  28.9209113
  65.1381610  35.2697140  28.4358361  66.0163106  34.0008784  44.3117976
  65.3234903  33.5305764  44.5578707  66.6323434  33.7747088  44.8859683
  66.0047636  33.8975916  44.4327128  73.0547878  47.7012828  42.4273580
  72.2563124  47.4612328  42.6847448  73.5033889  47.7527221  43.1740627
  73.0022489  47.6735219  42.5758504  72.3469565  43.7645444  28.6564534
  72.7620713  43.4330468  27.9649030  71.5161495  43.5314346  28.5284671
  72.2857574  43.6816700  28.5355382  61.6757914  41.2489185  38.9462712
  61.4933487  41.2236071  38.0935004  62.4107583  41.7188123  38.9851621
  61.7571978  41.3150547  38.8260631  72.1148615  41.4473273  50.3193768
  71.3221596  41.7616784  50.5046388  72.2297542  41.6624741  49.4814552
  72.0144025  41.5257109  50.2232103  74.7879934  38.1707264  34.6088784
  74.8826788  38.9096558  35.0628409  74.1638777  37.7424739  35.0423348
  74.7088964  38.2168584  34.7396931  73.0432408  41.3493476  45.2579065
  73.6171269  40.7120721  45.4127628  72.9647211  41.3497559  44.3888722
  73.1165642  41.2558588  45.1525475  75.0402955  40.0156003  27.8425736
  74.9583118  40.0858191  28.7080723  75.6782675  40.5785747  27.6509476
  75.1222792  40.1094975  27.9415685  68.3996126  39.7816741  37.3100262
  68.1415370  38.9488476  37.2831561  68.4544609  40.0074354  36.4692762
  68.3695904  39.6914513  37.1820399  73.4797176  31.8845192  37.4104355
  72.7753503  31.3954378  37.5688274  73.5282151  31.8967667  36.5392799
  73.3827228  31.8134840  37.3043694  67.3730838  37.3354504  37.7965157
  66.7980430  37.4946672  38.4329118  66.9966515  36.6989913  37.3333607
  67.2333651  37.2652317  37.8219715  71.0404127  35.8077853  42.6557535
  70.6518560  35.3832071  42.0009726  70.3758825  36.0560003  43.1634562
  70.8851055  35.7816574  42.6345403  74.8630489  29.5052482  40.1681519
  75.2441000  28.8230653  40.5549394  74.0593773  29.2162084  39.9857184
  74.8006950  29.3619530  40.1985575  72.1443065  40.0376458  30.8534342
  72.9583704  40.3291351  30.7417113  72.0802206  39.3836320  30.2792635
  72.2545804  39.9841653  30.7523179  68.0150973  43.5097975  35.9806654
  68.6524920  43.2709723  36.5258448  68.4406045  43.7135134  35.2459815
  68.1727140  43.5048985  35.9523812  62.7063616  45.7486312  39.8640958
  62.7467761  46.0201163  39.0360738  63.2658140  46.2728220  40.2798746
  62.7946962  45.8662067  39.8032846  68.6553789  38.7300265  30.3181544
  69.0398941  38.5107972  31.0698089  68.4065409  39.5563210  30.4482620
  68.6755861  38.8198411  30.4482620  68.8222329  32.0106680  50.0344128
  68.5075770  32.7806243  49.7713691  68.5012261  31.4476936  49.4496355
  68.7281248  32.0416949  49.9085478  70.3972445  43.9870398  37.6600440
  70.4711454  43.8245570  38.5142290  71.2141952  44.1760587  37.4160922
  70.5288804  43.9907140  37.7498466  64.1578202  44.3328261  34.6894884
  63.3316320  44.5789998  34.5629163  64.2190193  44.2540342  35.5556942
  64.0452369  44.3573210  34.7983828  66.3754226  30.3997202  35.6490324
  65.5076651  30.4719801  35.7147933  66.6629430  31.2019281  35.8378299
  66.2893974  30.5291349  35.6865091  75.4987115  30.5475061  43.9801646
  76.2440707  30.3584871  43.5665071  75.0824419  31.0733299  43.4215502
  75.5472089  30.5977206  43.8366219  68.9377031  46.9505141  32.3913914
  69.2275330  46.5594122  31.6673140  69.6680512  47.1321846  32.8319189
  69.0883915  46.9198955  32.3496721  69.5271776  41.7522887  43.4767044
  69.0283470  42.4638655  43.5551933  70.3372001  42.0723553  43.4385207
  69.5727883  41.9049735  43.4823613  66.8782947  48.9272523  35.4574064
  66.6583242  48.6369878  36.2500731  66.6577469  48.2687478  34.9291976
  66.8130541  48.7872232  35.4962972  65.7899894  41.0145840  37.7229765
  65.5013143  40.3883311  38.2575493  66.6583242  40.9566127  37.7894446
  65.8760146  40.9133384  37.8120720  69.0450902  50.3001913  34.2404756
  69.6974960  49.7678356  34.4695782  68.3476511  49.9470566  34.6272630
  69.0381620  50.1691436  34.3316924  65.9932167  42.6541091  33.6472130
  66.7478135  43.0354130  33.8607593  65.4002780  43.1052235  34.1018827
  66.0168881  42.7769918  33.7455009  68.4538834  34.6103931  48.7729343
  67.6438610  34.9161711  48.6619185  68.9313521  35.3309514  48.8881927
  68.4042313  34.7618532  48.7736414  67.3130394  43.8249652  39.0212246
  66.7911147  43.9649944  39.7064110  67.7004414  43.0660317  39.2114363
  67.2934095  43.7335176  39.1513322  64.3021578  33.8755461  33.0907200
  64.0146374  33.5056731  32.3539148  64.9892046  34.3450316  32.8290905
  64.3610475  33.8902430  32.9422276  73.5097399  45.5645111  33.0072814
  73.2684075  44.8312972  32.5999879  73.6898732  46.1131968  32.3539148
  73.5005023  45.5367503  32.8503037  68.7396720  40.8553671  34.4193737
  68.5439502  41.4628406  33.8254040  68.9631065  40.1621615  33.9385411
  68.7431361  40.8431197  34.2609818  67.1375250  37.7408409  34.5374605
  67.8597901  37.9049567  34.0778411  66.6583242  38.4618074  34.4313945
  67.1738980  37.8706639  34.4540219  75.0968757  34.0772208  39.9171290
  74.2579858  34.1033487  39.6809553  75.1673124  34.7242943  40.4976637
  74.9837151  34.1768334  39.9680407  73.5438035  30.9757585  34.6498906
  74.2464388  30.7765333  34.1718864  73.2782224  30.2033527  34.9567749
  73.6084668  30.8320551  34.6244348  61.8749773  34.6536673  33.9392481
  61.9765909  35.4562835  34.2673457  62.6705659  34.4524009  33.6415562
  62.0077678  34.7422572  33.9427837  68.3066592  32.2392870  43.7029787
  68.1149789  32.2548005  44.5529210  69.1565188  32.4356544  43.6796441
  68.4042314  32.2707221  43.8253081  72.8452097  36.6050942  35.8258091
  72.5986811  36.5246693  36.6594880  73.1737220  35.8204410  35.6320619
  72.8573341  36.4777207  35.9205614  75.0778231  39.6130677  45.8667254
  75.0726269  38.7410493  45.8709681  75.7839225  39.8118846  45.3936710
  75.1823235  39.5134551  45.7974290  68.8049124  39.3407660  45.2381074
  68.9492500  39.9208869  44.6024184  69.1524773  39.7183957  45.9430929
  68.8776586  39.4828364  45.2480069  70.9769042  38.5397829  43.0206206
  70.2292356  38.7328843  42.6154484  71.1310567  37.7143048  42.7830327
  70.8891469  38.4462940  42.9251612  67.8776879  47.5310432  42.1042101
  68.0266443  46.9713348  41.4515506  68.6576881  47.6102434  42.4874620
  68.0150973  47.4595998  42.0639050  70.4030180  47.7025075  43.3826592
  70.3273851  47.0333886  43.9377380  70.3320039  48.4042863  43.8967258
  70.3810787  47.7069982  43.5403440  71.2170819  32.4348380  43.9101610
  71.6743433  33.1672354  44.0374402  71.2927147  32.0114845  44.6688866
  71.2961789  32.4805618  44.0402686  75.6898145  25.6138255  37.7795453
  75.8081713  26.0714718  37.0462755  75.5160320  24.8083516  37.4931670
  75.6817316  25.5632027  37.6296386  71.0600427  46.2226074  34.2150198
  71.8250318  45.9535718  33.8932862  70.9578517  45.7376084  34.9320261
  71.1581922  46.1115639  34.2730026  69.0953197  34.4250483  40.7543434
  68.3049271  34.2441944  41.0760770  69.4913819  33.6477436  40.7373728
  69.0370073  34.2837944  40.7995982  73.5819087  43.2538258  26.1950147
  74.3492072  43.3138383  25.7855999  73.1350396  42.6818699  25.7106466
  73.6292515  43.1774833  26.0627858  74.4796883  42.0592914  38.4802880
  73.8041885  41.8278146  38.9816267  74.4889259  41.4514097  37.8544985
  74.3815387  41.9351839  38.4619032  71.6091027  36.9010743  45.2366933
  71.5450168  37.7620699  45.1087069  71.7488215  36.5842736  44.4362484
  71.6206497  36.9810909  45.0995145  69.7921814  51.1093395  41.8404593
  70.2817745  50.4104184  41.6580257  69.2206046  50.8117265  42.4280650
  69.7806344  50.9619619  41.9005634  65.5792566  40.0894933  34.8111108
  65.7357185  40.0241736  35.6667100  65.9193159  40.8643486  34.5989788
  65.6525801  40.1944131  34.9065702  72.1171710  39.4652817  33.6804471
  72.6587256  38.9623198  34.1443092  72.4318269  39.4118012  32.8693957
  72.2436107  39.3832238  33.6288283  70.2858160  44.8570168  30.9644499
  70.3550980  43.9984707  31.1037500  71.0646615  45.0742049  30.6363524
  70.4111010  44.7623032  30.9361657  73.2660980  34.3589121  43.7326772
  73.4802949  33.7200036  43.1790126  72.6494879  34.8034945  43.3034633
  73.2066309  34.3299265  43.5877203  74.6765648  47.2807870  35.1780993
  74.2845439  46.9774585  34.4603859  74.8318720  48.1176960  34.9885946
  74.6419237  47.3591706  35.0437490  62.1526827  37.2729884  35.1271875
  62.5325792  37.6914429  34.4632143  61.5782192  37.8543340  35.4340719
  62.1238152  37.4207743  35.0748616  75.4300068  35.9678187  44.6710079
  74.6176749  35.6604077  44.7523252  75.8890002  35.4877187  45.2352791
  75.3780452  35.8514679  44.7664673  74.8405322  43.8457859  35.1187023
  74.4819977  44.0172501  35.8951056  74.3544033  44.3071064  34.5615022
  74.7164019  43.9396830  35.1512292  72.6575708  27.4689057  38.7214115
  71.7869266  27.4427778  38.6747424  72.9116050  27.2966249  37.9039960
  72.5669268  27.4399201  38.5934251  69.6293688  39.5257024  27.6587258
  69.9186213  40.3021907  27.9330832  69.7165487  39.0145755  28.3601757
  69.6847944  39.5648942  27.8029755  72.5253575  37.3738258  49.4538781
  72.9953206  37.9980374  49.8406655  72.5715455  36.7055234  50.0131996
  72.6021451  37.3672938  49.5938853  69.6824849  29.4795286  40.1787585
  69.1663337  28.7875477  40.3039164  69.1218778  30.1466063  40.1250184
  69.5231362  29.4758543  40.1893651  71.7517082  30.0188246  42.0080438
  71.3648835  30.0437277  42.7893967  71.2650020  29.4529924  41.5554954
  71.6229591  29.9383996  42.0568341  71.4174224  26.9055231  44.2990697
  72.0467342  27.4415531  44.0211768  71.5860087  26.8132590  45.1504263
  71.5352019  26.9716593  44.3839226  71.2188139  31.6926426  46.5717109
  72.0461568  31.4211575  46.6275723  71.2395985  32.4887267  46.9280927
  71.3440989  31.7706180  46.6332292  65.7957629  38.8390289  39.7587370
  64.9545635  38.7394163  39.9666264  66.0047637  39.6085769  40.1101690
  65.7022321  38.9382332  39.8414685  74.9098143  29.4391120  37.2675999
  75.1147736  29.3713427  38.1132996  74.5824566  30.2449941  37.1997177
  74.8913390  29.5477060  37.3835654  69.6074294  36.7671688  39.0084967
  69.3037431  36.2127676  39.6095375  68.9053714  36.9463898  38.5213001
  69.4590503  36.7116470  39.0254673  68.6640391  34.0772208  33.5729669
  68.9400125  33.3591120  33.1607237  69.2639060  34.6757127  33.3650775
  68.7933655  34.0592578  33.4810430  67.6692645  43.9821408  43.7157065
  67.5613000  43.9923471  44.5819123  67.8788426  44.8076189  43.5262019
  67.6842756  44.1062483  43.8161157  72.1650911  31.7485725  31.8476264
  72.6194658  31.9196285  32.5724109  72.6390957  31.1353836  31.4474040
  72.3019231  31.6836610  31.8950026  65.6866437  41.2334051  41.1779003
  65.0954370  41.8743549  41.1482018  66.4487460  41.6571668  41.1510302
  65.7114697  41.3909889  41.1694150  67.7310409  33.0602743  46.4119047
  67.3395974  32.4136091  46.8474825  67.8996272  33.6514179  47.0313303
  67.6981319  33.0517011  46.5681753  75.4455953  46.6843362  38.6111027
  75.2475642  47.1734177  37.9167238  74.8243664  46.8884604  39.1895160
  75.3243517  46.7859901  38.5934250  69.5063931  38.4528259  32.9521271
  70.2505976  38.8402536  33.1904221  69.6524627  37.6085685  33.1161759
  69.6374516  38.3858732  33.0115241  71.4243507  30.2478518  37.9853133
  70.5779552  30.4201326  37.8594483  71.4214639  29.4427862  38.3218961
  71.2990657  30.1539547  38.0164260  72.4941807  34.0253733  38.8515191
  72.0201761  33.4995495  39.3620502  72.8659943  33.4783205  38.2830052
  72.4791696  33.8669729  38.8430338  74.4225307  34.9190287  31.9140944
  73.8948325  35.0019031  31.2246653  74.8821015  35.6608159  31.9105589
  74.4127157  35.0410950  31.8115640  66.2316623  34.8467688  40.8809155
  65.6069693  34.8586080  40.2735107  65.8962218  35.3227863  41.5300395
  66.0902115  34.9186205  40.8865723  66.4158372  33.1892807  26.9381840
  66.0671176  33.8412532  27.4013389  65.9354818  33.1749920  26.2105711
  66.2928616  33.2835860  26.8992931  62.9442299  42.9068148  42.3212919
  62.4142223  42.2160587  42.3707894  63.2167392  42.8978334  41.4925627
  62.9067021  42.8035280  42.2060335  73.9762389  43.4893851  31.0450601
  74.6996588  43.9551964  30.9015175  73.5362980  43.5567460  30.2948198
  74.0178081  43.5677687  30.9135383  73.1448544  40.3491393  42.2951290
  72.5305537  39.8049443  42.5899926  73.6615829  39.8355629  41.8157107
  73.1304207  40.1927802  42.2675519  72.3844841  41.4195663  40.0295589
  71.9572450  40.7945382  39.5961024  72.3769786  41.1370585  40.8554596
  72.3203983  41.2848444  40.0875417  73.4427672  28.6222072  43.6534813
  72.9468233  28.8185746  42.9626379  74.1996734  29.0214740  43.4823614
  73.4814496  28.7099805  43.5254949  70.7130551  32.2964418  40.2438123
  70.7373038  31.7624530  39.5550903  70.9642025  31.7881726  40.9063714
  70.7540470  32.1425322  40.2402768  66.9931873  31.0235236  39.6243867
  67.0330245  31.5244442  40.3378575  66.1681538  31.1145629  39.3549790
  66.8771399  31.1117052  39.6894406  69.1761486  40.5895976  47.7264162
  68.3257117  40.7267690  47.8621807  69.3389614  39.8559754  48.1711864
  69.0745350  40.5010077  47.8119761  68.4146237  37.5395746  41.9217766
  67.5838166  37.7069564  41.7153015  68.3597754  37.1631696  42.7066652
  68.2835652  37.5085477  42.0066295  66.2230020  31.0304639  47.5574177
  66.8482723  30.4866771  47.8303609  65.7680500  30.5499556  46.9881967
  66.2478281  30.8794120  47.5135771  66.7882281  35.8151337  32.4507884
  66.9285242  36.3123801  33.1536525  67.2864813  35.1137632  32.5922098
  66.8823362  35.7853316  32.5759463  66.8182503  36.6818448  29.7800461
  67.4527582  37.2778873  29.7149923  66.9008114  36.3821906  30.5946331
  66.9239054  36.7259356  29.8903548  68.3961486  32.6132424  29.7545903
  68.7177327  32.1335506  29.1005165  68.6588430  33.4232070  29.5636715
  68.4827511  32.6622322  29.6301395  71.6258459  43.6351298  43.2744719
  71.1183550  44.1887145  43.7185350  71.3285105  43.6959588  42.4563494
  71.5063344  43.7257609  43.2193176  73.7920641  32.0004618  42.1169382
  74.2175712  31.5477144  41.5052908  73.1777634  31.4464688  42.3934169
  73.7649286  31.8518594  42.0674407  63.3235491  38.8786289  33.0490007
  63.8327720  39.4750797  33.4301312  63.7969763  38.6112263  32.3666427
  63.4678867  38.9272104  33.0044530  74.2366239  47.5514556  31.2048663
  73.5195549  47.3775418  30.7395900  74.8872977  47.3167128  30.6724149
  74.2268089  47.4910348  31.0577880  70.8700944  48.5675856  40.1801726
  70.6466598  47.8094685  40.5485752  70.3810787  48.5973877  39.4582166
  70.7644393  48.4598081  40.1278467  65.6826023  35.5142548  35.9163187
  64.9638012  35.9306680  36.1836051  66.0538385  36.0796786  35.3654826
  65.6317954  35.6591829  35.8745994  74.9825603  36.1470396  41.8065183
  74.9623531  35.9653692  42.6599962  75.0304804  37.0182415  41.7824767
  74.9860244  36.2486935  41.9288478  72.9271933  42.7357588  47.7313660
  72.8867788  42.0907265  47.1458816  73.7395252  42.6794206  48.0439072
  73.0415087  42.6316555  47.6910609  69.5179401  48.7876314  37.6338811
  69.1039799  48.1250445  37.2442652  70.2026775  48.9354173  37.1134505
  69.5577773  48.7116972  37.4995308  72.8844695  47.9466400  38.3862427
  72.4860978  48.0568670  37.6183247  72.2695915  48.1548466  38.9688987
  72.7343584  47.9939968  38.3593726  71.4572597  34.5540547  31.2536567
  70.8637436  34.8757544  30.7021134  71.4947875  33.7081643  31.0457673
  71.3746986  34.4764876  31.1419338  74.3330414  34.5120052  34.6838317
  74.1044107  34.5352753  33.8416675  74.5928490  33.6877519  34.8033328
  74.3376602  34.3936132  34.5763515  68.6149642  36.3654525  44.2863417
  68.1028545  35.7575708  44.6448449  68.4429138  37.0811118  44.7537393
  68.5139279  36.3817824  44.4079641  63.4615357  34.8092100  46.9365779
  63.2917947  35.4693475  46.3913986  63.0181307  35.0198662  47.6578268
  63.3714690  34.9378082  46.9627409  67.3875176  33.0496598  35.9792513
  67.8632542  33.4113678  35.3442694  66.8863776  33.7053066  36.2592655
  67.3840535  33.1990787  35.9269254  72.4918712  34.2878770  46.7265673
  73.0490142  34.0592579  46.0944138  72.1679777  35.0484435  46.4500885
  72.5265123  34.3662606  46.5922170  70.2101830  37.3746423  47.6917680
  70.9613157  37.6898100  48.0057234  70.4024406  37.1725594  46.8651602
  70.3493244  37.3913805  47.6161076  69.4301829  35.1937798  29.3465897
  69.8100794  35.2117427  28.5617011  68.6894425  35.6391787  29.2256744
  69.3770667  35.2619573  29.2129465  74.7827972  38.1817491  38.5877682
  75.2781637  37.4640486  38.5481703  73.9727748  37.8788289  38.4732169
  74.7371865  38.0315137  38.5651408  70.2286583  42.0315304  30.7374687
  69.4197906  41.7081978  30.6907996  70.7361492  41.3248526  30.6702935
  70.1836250  41.8796621  30.7204981  60.8576861  39.4587497  36.4622051
  59.9922380  39.4473188  36.3504822  60.9575676  39.2717720  37.3093190
  60.7451028  39.4293559  36.5710995  66.4833870  49.2285396  40.0352157
  66.7980429  50.0421784  40.0429938  66.8927284  48.8435615  40.7034316
  66.5901968  49.2914098  40.1356248  73.4358390  44.6455443  37.6055968
  73.9069568  45.3595705  37.7745954  73.7718569  44.0454193  38.1415838
  73.5553505  44.6626907  37.7088344  75.5235375  46.2556756  49.7848041
  75.6332340  45.4665317  50.1404788  75.8526271  46.1662692  48.9822379
  75.5887780  46.1262609  49.7190431  70.3527885  29.4182913  44.5614063
  70.4855791  28.6213907  44.8895039  70.7373038  29.9449316  45.1412339
  70.4284214  29.3782830  44.6957566  74.0732336  44.4373377  44.3683661
  73.5253282  43.8131261  44.1003726  74.5345365  44.6267649  43.6527741
  74.0599546  44.3732427  44.2234092  73.4260240  26.3413239  41.1595157
  72.6206204  26.2310969  41.4762995  73.2966976  26.4425695  40.3025022
  73.2880373  26.3396910  41.0803197  69.4221000  31.4199326  32.0293528
  70.2436694  31.5897639  31.7875223  68.9590651  31.5746587  31.3059826
  69.4752162  31.4681059  31.8865173  68.0116332  29.4142088  42.8091957
  68.5560745  29.0733215  43.3996299  68.0653268  30.2727550  42.9513242
  68.1005451  29.4897348  42.9173830  63.8246891  43.1758504  39.6830765
  64.4291748  43.1354339  39.0544586  63.6174203  44.0229656  39.7134821
  63.8835788  43.2946507  39.5946881  73.6390663  45.4424450  40.8993002
  74.4589037  45.2987416  41.1609297  73.3584740  46.0670649  41.4409440
  73.7187406  45.5134802  41.0180942  72.4694938  57.7566349  36.2741147
  72.2345123  56.9234001  36.1673416  72.6080579  58.0371015  35.4602348
  72.4550601  57.6749852  36.1383502  74.7685026  49.9252080  39.1725455
  74.1490057  49.3344727  39.0035469  74.6668889  50.5163515  38.5389778
  74.6622701  49.9256162  39.0530444  74.4954159  53.4704361  41.4169024
  74.3712855  54.0566807  42.0518842  75.1472443  52.9764557  41.7181298
  74.5727808  53.4843166  41.5554953  74.0312263  62.6352020  37.5497353
  73.5479841  63.3602509  37.5256937  74.8435581  62.9328150  37.6607511
  74.0803011  62.7854373  37.5624632  72.2397084  55.9815714  41.6650968
  71.9735499  55.1654830  41.8241958  72.2535648  56.0268869  40.7946483
  72.2021806  55.8672618  41.5604450  72.6490497  56.7674493  38.9462712
  72.4666070  56.7421379  38.0935004  73.3840166  57.2373431  38.9851621
  72.7304561  56.8335855  38.8260631  72.6161408  53.6467994  39.0961779
  73.1934910  53.5104444  39.7354024  71.9175469  53.1903778  39.3507363
  72.5982429  53.5590260  39.2284068  68.0920241  52.4979887  35.8109597
  68.1780493  52.1211755  36.5923127  68.7196038  52.1240332  35.3329556
  68.1976792  52.3865369  35.8555075  73.6796199  61.2671620  39.8640958
  73.7200345  61.5386471  39.0360738  74.2390724  61.7913528  40.2798746
  73.7679545  61.3847375  39.8032846  75.1310786  59.8513569  34.6894884
  74.3048903  60.0975306  34.5629163  75.1922777  59.7725649  35.5556942
  75.0184953  59.8758518  34.7983828  75.2754162  49.3940769  33.0907200
  74.9878957  49.0242039  32.3539148  75.9624630  49.8635624  32.8290905
  75.3343059  49.4087738  32.9422276  72.8482356  50.1721981  33.9392481
  72.9498493  50.9748143  34.2673457  73.6438243  49.9709317  33.6415562
  72.9810262  50.2607880  33.9427837  73.6646088  50.2869160  41.6813603
  73.5231580  49.4353100  41.8058111  73.9486652  50.3297820  40.8575809
  73.6853934  50.1668910  41.5781227  74.4336393  48.1999507  44.9991053
  73.8978583  47.5879865  45.3151821  74.4954158  48.7747643  45.6524720
  74.3632026  48.1946435  45.1426480  73.1259411  52.7915192  35.1271875
  73.5058376  53.2099737  34.4632143  72.5514776  53.3728647  35.4340719
  73.0970736  52.9393051  35.0748616  74.2465779  51.9795133  37.5872120
  73.8522477  52.0538145  36.8122230  73.6905896  52.3653080  38.1380482
  74.1068592  52.0476908  37.5539780  73.8447421  51.5410547  44.2198736
  74.7073034  51.4406256  44.1336066  73.5139204  50.9605257  43.6584309
  73.9232617  51.4402174  44.1244142  73.9174882  58.4253456  42.3212919
  73.3874807  57.7345895  42.3707894  74.1899976  58.4163642  41.4925627
  73.8799605  58.3220588  42.2060335  69.1970725  55.0981220  39.6781267
  69.0914174  55.0528065  38.8133351  68.4470945  55.4435001  39.9595552
  69.0706327  55.1422129  39.5918597  74.2968074  54.3971597  33.0490007
  74.8060304  54.9936104  33.4301312  74.7702347  54.1297571  32.3666427
  74.4411450  54.4457412  33.0044530  74.4347940  50.3277408  46.9365779
  74.2650531  50.9878783  46.3913986  73.9913890  50.5383969  47.6578268
  74.3447274  50.4563390  46.9627409  71.3350005  53.2324274  42.1954269
  70.7876724  52.5624919  42.3135137  72.1242383  52.8654122  42.2597736
  71.3702188  53.0789260  42.2222969  70.0936974  52.4445082  39.3500292
  69.9158735  51.9921691  40.0755208  69.8055996  53.2471243  39.5338769
  70.0249927  52.4967639  39.4843795  71.8309444  54.9772805  36.4622051
  70.9654964  54.9658496  36.3504822  71.9308260  54.7903028  37.3093190
  71.7183611  54.9478867  36.5710995  74.7979474  58.6943812  39.6830765
  75.4024332  58.6539647  39.0544586  74.5906787  59.5414964  39.7134821
  74.8568371  58.8131815  39.5946881  70.0330756  57.6778430  39.5529688
  69.9355034  56.8674701  39.8619745  70.8159626  57.6570223  39.1675956
  70.1346893  57.5545520  39.5416551  55.4430794   7.6235186  21.3166087
  54.6913694   7.2450724  21.0882133  55.8916806   7.6553619  20.5684898
  55.3980461   7.5720793  21.1723590  60.8955754   8.0460555  16.7451635
  60.5607123   8.7237477  16.3095857  61.4082625   7.6565866  16.1568506
  60.9221335   8.0885133  16.5938426  60.4360046   9.9974824  22.6862746
  60.8199425  10.5661722  22.1467521  60.3719187   9.2724334  22.2068562
  60.4833473   9.9750287  22.5356609  57.0215551   7.6353578  23.5828860
  57.1225914   6.8253932  23.8925988  56.4257296   7.5410524  22.9528538
  56.9488089   7.5018606  23.5355098  56.8616290  12.5531167  24.9843716
  57.5053746  12.9944331  25.3739874  57.1872546  11.7484593  24.8973975
  57.0048119  12.4996362  25.0289193  50.2180595   3.6573864  23.2081194
  49.9830779   2.8241517  23.1013462  50.3566236   3.9378530  22.3942395
  50.2036257   3.5757368  23.0723549  51.7797920   8.5359535  24.4837400
  51.2965498   9.2610025  24.4596983  52.5921238   8.8335665  24.5947557
  51.8288667   8.6861889  24.4964679  57.8512074   7.3291716  27.0887214
  57.3339015   6.9699131  26.4848522  58.5486465   6.8053890  27.0993280
  57.8777655   7.1989404  27.0017473  61.5075666   7.7786530  33.0503387
  61.5959011   7.5912670  33.8981598  61.9365378   7.1323959  32.6508234
  61.5837768   7.6549538  33.1175139  59.0746125   7.0617690  32.0321049
  58.5116960   6.6490300  32.5560711  59.8367149   6.9870595  32.4514193
  59.1040574   6.9895090  32.1714050  54.6342117   9.0515711  24.6357680
  55.3362696   8.5367700  24.6930436  54.5539600   9.3789862  25.4404555
  54.7265877   9.0229937  24.7630472  53.9592892   5.2422063  24.1443288
  54.7981792   5.4744996  24.1917049  53.9904661   4.3726374  24.0750323
  54.0874610   5.1479009  24.1407932  54.5845595   5.6622938  28.4456593
  55.1243820   5.5194069  29.1159966  53.9015542   6.0619689  28.8140619
  54.5637749   5.7002609  28.5991015  61.7766118   9.1205651  29.3613626
  60.9781364   8.8805151  29.6187495  62.2252130   9.1720044  30.1080674
  61.7240729   9.0928042  29.5098551  50.3976154   2.6682008  25.8802759
  50.2151727   2.6428894  25.0275051  51.1325823   3.1380946  25.9191668
  50.4790218   2.7343371  25.7600677  51.4281856   7.1679135  26.7981005
  51.4686001   7.4393986  25.9700784  51.9876380   7.6921043  27.2138793
  51.5165202   7.2854890  26.7372893  52.8796442   5.7521084  21.6234931
  52.0534560   5.9982821  21.4969210  52.9408434   5.6733165  22.4896989
  52.7670609   5.7766033  21.7323875  57.6595271   8.3697964  19.3253961
  57.9493570   7.9786945  18.6013187  58.3898752   8.5514669  19.7659236
  57.8102156   8.3391778  19.2836768  55.6001187  10.3465347  22.3914110
  55.3801482  10.0562701  23.1840777  55.3795709   9.6880302  21.8632023
  55.5348781  10.2065055  22.4303019  57.7669143  11.7194737  21.1744803
  58.4193201  11.1871179  21.4035829  57.0694752  11.3663389  21.5612677
  57.7599861  11.5884260  21.2656971  54.7150408   4.0733914  20.5812177
  55.4696376   4.4546953  20.7947640  54.1221020   4.5245058  21.0358874
  54.7387121   4.1962742  20.6795056  56.5995120   8.9503255  29.0382148
  56.7484683   8.3906171  28.3855552  57.3795122   9.0295257  29.4214667
  56.7369213   8.8788821  28.9979097  59.1248420   9.1217898  30.3166639
  59.0492091   8.4526709  30.8717427  59.0538279   9.8235687  30.8307305
  59.1029027   9.1262806  30.4743487  59.7818667   7.6418897  21.1490245
  60.5468558   7.3728541  20.8272909  59.6796757   7.1568908  21.8660308
  59.8800163   7.5308462  21.2070072  58.5140055  12.5286218  28.7744640
  59.0035985  11.8297007  28.5920304  57.9424287  12.2310088  29.3620697
  58.5024585  12.3812442  28.8345680  63.3983888   8.7000693  22.1121039
  63.0063680   8.3967408  21.3943906  63.5536960   9.5369783  21.9225993
  63.3637478   8.7784530  21.9777537  56.3910885   5.4014232  30.6497112
  56.2831240   5.4116294  31.5159170  56.6006666   6.2269012  30.4602066
  56.4060996   5.5255307  30.7501203  64.1674193   8.1036186  25.5451074
  63.9693882   8.5927000  24.8507285  63.5461904   8.3077427  26.1235207
  64.0461758   8.2052724  25.5274297  51.6660539   4.3260972  29.2552966
  51.1360464   3.6353411  29.3047940  51.9385632   4.3171157  28.4265674
  51.6285261   4.2228103  29.1400382  62.9584479   8.9707379  18.1388709
  62.2413789   8.7968241  17.6735947  63.6091217   8.7359951  17.6064195
  62.9486330   8.9103171  17.9917927  59.5919184   9.9868679  27.1141773
  59.3684839   9.2287509  27.4825799  59.1029028  10.0166701  26.3922212
  59.4862633   9.8790904  27.0618514  58.2397641  10.2069138  24.5678857
  57.8258040   9.5443268  24.1782699  58.9245015  10.3546996  24.0474552
  58.2796013  10.1309796  24.4335354  61.6062935   9.3659223  25.3202474
  61.2079219   9.4761493  24.5523294  60.9914155   9.5741289  25.9029034
  61.4561825   9.4132791  25.2933773  55.2052111  10.6478219  26.9692203
  55.5198670  11.4614608  26.9769985  55.6145524  10.2628438  27.6374362
  55.3120209  10.7106922  27.0696295  52.5465131   4.5951328  26.6170812
  53.1509988   4.5547162  25.9884632  52.3392443   5.4422480  26.6474868
  52.6054028   4.7139330  26.5286928  47.7816413   3.5785945  26.4869735
  47.6840691   2.7682217  26.7959792  48.5645283   3.5577739  26.1016003
  47.8832550   3.4553035  26.4756598  72.0322238  13.6057776  25.5528856
  71.1760134  13.7666274  25.6037973  72.0789892  12.7349840  25.5733917
  71.9121350  13.5008577  25.5634922  66.4163378  23.1420493  21.3166087
  65.6646278  22.7636032  21.0882133  66.8649390  23.1738927  20.5684898
  66.3713045  23.0906101  21.1723590  75.3415955  19.8744301  35.1589312
  76.0482722  19.3796332  35.2876246  75.5303890  20.3153383  34.4291970
  75.4743860  19.8662652  35.0698357  71.8688338  23.5645863  16.7451635
  71.5339706  24.2422785  16.3095857  72.3815208  23.1751174  16.1568506
  71.8953919  23.6070441  16.5938426  71.4092629  25.5160132  22.6862746
  71.7932009  26.0847030  22.1467521  71.3451770  24.7909642  22.2068562
  71.4566056  25.4935595  22.5356609  74.8774059  15.6649820  28.1960508
  75.4230019  16.3434906  28.2554477  74.8190936  15.5237280  27.3362089
  74.9489974  15.7441821  28.0772568  67.9948134  23.1538886  23.5828860
  68.0958497  22.3439240  23.8925988  67.3989879  23.0595832  22.9528538
  67.9220673  23.0203914  23.5355098  67.8348874  28.0716475  24.9843716
  68.4786329  28.5129639  25.3739874  68.1605129  27.2669901  24.8973975
  67.9780702  28.0181670  25.0289193  61.1913178  19.1759172  23.2081194
  60.9563363  18.3426825  23.1013462  61.3298819  19.4563838  22.3942395
  61.1768841  19.0942676  23.0723549  63.4903266  11.3444903  26.1065501
  62.8708298  10.7537550  25.9375516  63.3887130  11.9356338  25.4729825
  63.3840941  11.3448985  25.9870491  68.5369454  21.0828450  20.3563578
  68.8585295  21.6233657  19.7524886  69.1841550  20.5125221  20.4885868
  68.6795509  21.0787625  20.2870613  70.5871162  13.0844445  20.4397964
  71.2851326  13.2632572  20.9319428  70.9023494  12.5614784  19.8168354
  70.7366499  13.0338217  20.4199975  63.2172399  14.8897184  28.3509070
  63.0931096  15.4759630  28.9858889  63.8690683  14.3957380  28.6521345
  63.2946048  14.9035989  28.4895000  70.7759097  19.4714890  20.4277756
  71.2152732  18.8631990  20.8732529  70.6263760  19.0922263  19.6563221
  70.8180563  19.3253361  20.3796923  68.2430740  18.0658901  27.6296581
  68.8879742  17.5731345  27.3107530  68.4832517  18.2083688  28.4562660
  68.3741325  18.0136344  27.7046115  70.7816831  20.9113807  27.2803474
  71.0640074  20.1165213  27.0590230  71.5102992  21.3894395  27.3008535
  70.9306395  20.8648404  27.2506489  67.1986475  18.3390082  17.6813728
  66.6143690  18.8440113  18.0879592  66.7956570  18.1132469  16.9410320
  67.0525778  18.3798330  17.6318753  62.7530503  24.0544843  24.4837400
  62.2698081  24.7795333  24.4596983  63.5653821  24.3520973  24.5947557
  62.8021251  24.2047197  24.4964679  68.8244657  22.8477024  27.0887214
  68.3071599  22.4884439  26.4848522  69.5219048  22.3239198  27.0993280
  68.8510238  22.7174712  27.0017473  72.4808249  23.2971838  33.0503387
  72.5691595  23.1097978  33.8981598  72.9097962  22.6509267  32.6508234
  72.5570352  23.1734845  33.1175139  70.0478709  22.5802998  32.0321049
  69.4849544  22.1675608  32.5560711  70.8099732  22.5055903  32.4514193
  70.0773158  22.5080398  32.1714050  65.6074700  24.5701019  24.6357680
  66.3095280  24.0553008  24.6930436  65.5272184  24.8975170  25.4404555
  65.6998461  24.5415245  24.7630472  66.6553607  14.8076606  33.7638095
  66.8274111  14.6982500  34.6123376  67.1922964  15.4531011  33.5269287
  66.7598611  14.8868607  33.8543191  65.3211044   8.9219449  16.7020300
  65.1386617   9.1391329  15.8761293  66.1836657   9.0358461  16.7578914
  65.4215633   8.9709347  16.5874787  64.9325476  20.7607371  24.1443288
  65.7714375  20.9930304  24.1917049  64.9637245  19.8911682  24.0750323
  65.0607193  20.6664317  24.1407932  65.5578179  21.1808246  28.4456593
  66.0976404  21.0379377  29.1159966  64.8748125  21.5804997  28.8140619
  65.5370333  21.2187917  28.5991015  74.9819064  16.8599247  23.6401618
  75.7376579  17.2930761  23.6790526  75.0881388  16.2104016  24.2136254
  75.1089234  16.8276731  23.7299643  72.5928308  22.7280857  35.7147171
  73.3768725  22.8411705  36.0802913  72.3924903  21.9021994  35.9105857
  72.6794334  22.6227576  35.7981557  60.9615324  17.4008537  28.5991015
  60.6953739  16.5847654  28.7582005  60.9753888  17.4461692  27.7286530
  60.9240046  17.2865442  28.4944497  64.8673071  12.1993621  15.2142773
  64.1531248  11.9131801  15.6265205  65.3517040  12.5390247  15.8549160
  64.8332434  12.2075271  15.3698408  65.7113930  10.9386915  31.2458022
  65.0185727  10.4683895  31.4918754  66.3274258  10.7125220  31.8199730
  65.6998460  10.8354047  31.3667175  72.7498702  24.6390959  29.3613626
  71.9513948  24.3990459  29.6187495  73.1984713  24.6905352  30.1080674
  72.6973313  24.6113350  29.5098551  72.0420389  20.7023575  15.5904581
  72.4571537  20.3708599  14.8989077  71.2112318  20.4692477  15.4624718
  71.9808398  20.6194831  15.4695428  61.3708738  18.1867316  25.8802759
  61.1884311  18.1614202  25.0275051  62.1058407  18.6566254  25.9191668
  61.4522801  18.2528678  25.7600677  64.4354489  14.9052319  32.3884868
  65.1594462  14.8905350  32.8749762  64.5370626  15.6147674  31.8906836
  64.5572698  15.0077022  32.3863654  71.8099439  18.3851404  37.2533815
  71.0172419  18.6994916  37.4386434  71.9248366  18.6002872  36.4154599
  71.7094849  18.4635240  37.1572149  74.4830758  15.1085395  21.5428830
  74.5777612  15.8474689  21.9968456  73.8589601  14.6802870  21.9763395
  74.4039788  15.1546715  21.6736978  72.7383231  18.2871607  32.1919111
  73.3122093  17.6498852  32.3467675  72.6598035  18.2875690  31.3228769
  72.8116466  18.1936719  32.0865522  61.3379648  15.0660817  26.0301826
  61.9153151  14.9297268  26.6694071  60.6393710  14.6096601  26.2847410
  61.3200669  14.9783083  26.1624115  68.0946950  16.7194873  24.2440309
  67.8366194  15.8866607  24.2171608  68.1495433  16.9452486  23.4032809
  68.0646728  16.6292644  24.1160446  67.0681662  14.2732635  24.7305204
  66.4931254  14.4324803  25.3669164  66.6917339  13.6368044  24.2673654
  66.9284475  14.2030448  24.7559762  70.7354951  12.7455984  29.5897582
  70.3469384  12.3210202  28.9349773  70.0709649  12.9938134  30.0974609
  70.5801879  12.7194705  29.5685450  56.8138481  13.9172710  22.7449644
  56.8998733  13.5404578  23.5263174  57.4414279  13.5433155  22.2669602
  56.9195032  13.8058192  22.7895121  71.8393889  16.9754589  17.7874389
  72.6534528  17.2669482  17.6757160  71.7753030  16.3214451  17.2132682
  71.9496628  16.9219784  17.6863226  67.7101797  20.4476106  22.9146701
  68.3475744  20.2087854  23.4598494  68.1356869  20.6513265  22.1799862
  67.8677964  20.4427117  22.8863858  62.4014440  22.6864443  26.7981005
  62.4418585  22.9579294  25.9700784  62.9608964  23.2106351  27.2138793
  62.4897786  22.8040198  26.7372893  68.3504612  15.6678396  17.2521590
  68.7349765  15.4486103  18.0038136  68.1016233  16.4941342  17.3822667
  68.3706685  15.7576542  17.3822667  70.0923269  20.9248529  24.5940487
  70.1662278  20.7623701  25.4482337  70.9092776  21.1138719  24.3500969
  70.2239628  20.9285271  24.6838513  63.8529026  21.2706392  21.6234931
  63.0267144  21.5168129  21.4969210  63.9141017  21.1918473  22.4896989
  63.7403193  21.2951341  21.7323875  68.6327855  23.8883272  19.3253961
  68.9226153  23.4972253  18.6013187  69.3631336  24.0699977  19.7659236
  68.7834739  23.8577086  19.2836768  69.2222600  18.6901018  30.4107091
  68.7234294  19.4016786  30.4891980  70.0322825  19.0101685  30.3725254
  69.2678707  18.8427867  30.4163660  66.5733771  25.8650655  22.3914110
  66.3534066  25.5748009  23.1840777  66.3528293  25.2065610  21.8632023
  66.5081365  25.7250363  22.4303019  65.4850718  17.9523971  24.6569812
  65.1963966  17.3261442  25.1915539  66.3534066  17.8944258  24.7234493
  65.5710970  17.8511515  24.7460767  68.7401726  27.2380044  21.1744803
  69.3925784  26.7056487  21.4035829  68.0427335  26.8848697  21.5612677
  68.7332444  27.1069567  21.2656971  65.6882991  19.5919222  20.5812177
  66.4428959  19.9732261  20.7947640  65.0953604  20.0430366  21.0358874
  65.7119705  19.7148049  20.6795056  68.1489658  11.5482062  35.7069389
  67.3389434  11.8539842  35.5959232  68.6264345  12.2687645  35.8221974
  68.0993137  11.6996664  35.7076461  67.0081218  20.7627783  25.9552293
  66.4861971  20.9028075  26.6404157  67.3955238  20.0038448  26.1454410
  66.9884919  20.6713307  26.0853369  63.9972402  10.8133592  20.0247247
  63.7097198  10.4434863  19.2879195  64.6842870  11.2828447  19.7630952
  64.0561299  10.8280562  19.8762323  73.2048223  22.5023243  19.9412861
  72.9634899  21.7691103  19.5339926  73.3849556  23.0510100  19.2879195
  73.1955847  22.4745634  19.7843084  68.4347543  17.7931802  21.3533784
  68.2390326  18.4006537  20.7594087  68.6581889  17.0999746  20.8725458
  68.4382184  17.7809328  21.1949864  66.8326073  14.6786540  21.4714652
  67.5548725  14.8427698  21.0118458  66.3534066  15.3996205  21.3653992
  66.8689804  14.8084770  21.3880266  64.4833690  17.0844613  30.5768792
  64.9954787  17.3628866  29.9277552  64.1970033  17.8233907  30.9431605
  64.5168553  17.2346966  30.5358670  61.5700596  11.5914805  20.8732528
  61.6716733  12.3940966  21.2013504  62.3656483  11.3902141  20.5755609
  61.7028502  11.6800703  20.8767884  68.0017416   9.1771001  30.6369833
  67.8100613   9.1926136  31.4869257  68.8516012   9.3734676  30.6136488
  68.0993137   9.2085353  30.7593128  62.3864329  11.7061983  28.6153650
  62.2449820  10.8545923  28.7398158  62.6704892  11.7490643  27.7915856
  62.4072175  11.5861733  28.5121274  72.5402921  13.5429073  22.7598138
  72.2937635  13.4624824  23.5934927  72.8688044  12.7582541  22.5660666
  72.5524165  13.4155338  22.8545661  74.7729055  16.5508808  32.8007301
  74.7677093  15.6788624  32.8049728  75.4790049  16.7496977  32.3276757
  74.8774059  16.4512682  32.7314336  68.4999948  16.2785792  32.1721121
  68.6443324  16.8587000  31.5364231  68.8475597  16.6562088  32.8770976
  68.5727410  16.4206496  32.1820116  70.6719866  15.4775960  29.9546253
  69.9243180  15.6706974  29.5494531  70.8261391  14.6521180  29.7170374
  70.5842293  15.3841071  29.8591659  67.5727703  24.4688563  29.0382148
  67.7217267  23.9091479  28.3855552  68.3527705  24.5480565  29.4214667
  67.7101797  24.3974129  28.9979097  70.0981004  24.6403206  30.3166639
  70.0224675  23.9712017  30.8717427  70.0270863  25.3420994  30.8307305
  70.0761611  24.6448114  30.4743487  63.1554634   9.6192330  31.9331100
  62.6196823   9.0072689  32.2491867  63.2172399  10.1940466  32.5864767
  63.0850266   9.6139258  32.0766527  70.7551251  23.1604205  21.1490245
  71.5201142  22.8913849  20.8272909  70.6529341  22.6754216  21.8660308
  70.8532746  23.0493770  21.2070072  68.7904021  11.3628615  27.6883481
  68.0000095  11.1820075  28.0100816  69.1864643  10.5855567  27.6713775
  68.7320897  11.2216076  27.7336029  74.1747707  18.9971045  25.4142926
  73.4992709  18.7656277  25.9156313  74.1840083  18.3892228  24.7885031
  74.0766211  18.8729970  25.3959079  71.3041851  13.8388874  32.1706979
  71.2400992  14.6998830  32.0427116  71.4439039  13.5220867  31.3702531
  71.3157321  13.9189040  32.0335192  69.9860945  16.5321013  26.3123182
  69.5623194  16.7325512  25.5762201  69.8105800  15.6849861  26.4247482
  69.8971825  16.4369795  26.2196872  69.4872638  28.0471526  28.7744640
  69.9768568  27.3482315  28.5920304  68.9156870  27.7495396  29.3620697
  69.4757168  27.8997750  28.8345680  65.2743390  17.0273065  21.7451155
  65.4308009  16.9619867  22.6007147  65.6143983  17.8021617  21.5329835
  65.3476625  17.1322263  21.8405749  71.8122534  16.4030948  20.6144518
  72.3538080  15.9001329  21.0783139  72.1269093  16.3496143  19.8034003
  71.9386931  16.3210369  20.5628330  69.9808984  21.7948300  17.8984546
  70.0501804  20.9362838  18.0377547  70.7597439  22.0120181  17.5703571
  70.1061834  21.7001164  17.8701703  72.9611804  11.2967253  30.6666819
  73.1753773  10.6578167  30.1130173  72.3445703  11.7413076  30.2374680
  72.9017133  11.2677396  30.5217250  74.3716472  24.2186001  22.1121039
  73.9796263  23.9152716  21.3943906  74.5269544  25.0555091  21.9225993
  74.3370061  24.2969838  21.9777537  61.8477651  14.2108015  22.0611922
  62.2276616  14.6292560  21.3972189  61.2733016  14.7921471  22.3680765
  61.8188976  14.3585874  22.0088663  75.1250892  12.9056318  31.6050126
  74.3127573  12.5982208  31.6863298  75.5840826  12.4255318  32.1692838
  75.0731276  12.7892810  31.7004720  74.5356146  20.7835990  22.0527070
  74.1770801  20.9550633  22.8291102  74.0494857  21.2449195  21.4955068
  74.4114843  20.8774961  22.0852339  69.3244512  16.4635155  14.5927304
  69.6137037  17.2400038  14.8670879  69.4116311  15.9523887  15.2941804
  69.3798768  16.5027074  14.7369802  72.2204399  14.3116389  36.3878828
  72.6904030  14.9358506  36.7746702  72.2666279  13.6433365  36.9472043
  72.2972275  14.3051070  36.5278899  65.4908453  15.7768420  26.6927416
  64.6496459  15.6772294  26.9006310  65.6998461  16.5463900  27.0441737
  65.3973145  15.8760463  26.7754731  62.9684020  13.3987957  24.5212167
  62.5740717  13.4730969  23.7462277  62.4124137  13.7845903  25.0720529
  62.8286832  13.4669731  24.4879827  69.3025118  13.7049819  25.9425014
  68.9988255  13.1505807  26.5435422  68.6004538  13.8842029  25.4553048
  69.1541327  13.6494601  25.9594720  68.3591215  11.0150339  20.5069716
  68.6350949  10.2969251  20.0947283  68.9589884  11.6135259  20.2990822
  68.4884479  10.9970709  20.4150477  67.3643469  20.9199540  30.6497112
  67.2563823  20.9301602  31.5159170  67.5739250  21.7454320  30.4602066
  67.3793580  21.0440614  30.7501203  65.3817261  18.1712182  28.1119049
  64.7905194  18.8121680  28.0822064  66.1438284  18.5949799  28.0850349
  65.4065521  18.3288020  28.1034197  65.7777883   9.3314180  28.7787067
  66.2379365   9.4053109  29.5162191  65.8233990  10.1295434  28.4286888
  65.8528439   9.4608327  28.8359823  67.4261233   9.9980875  33.3459094
  67.0346798   9.3514222  33.7814872  67.5947096  10.5892310  33.9653349
  67.3932143   9.9895143  33.5021800  75.1406777  23.6221494  25.5451074
  74.9426465  24.1112308  24.8507285  74.5194488  23.8262735  26.1235207
  75.0194341  23.7238032  25.5274297  69.2014755  15.3906390  19.8861318
  69.9456800  15.7780667  20.1244268  69.3475451  14.5463816  20.0501806
  69.3325340  15.3236863  19.9455288  72.1892631  10.9631864  25.7855237
  71.7152585  10.4373626  26.2960548  72.5610767  10.4161337  25.2170099
  72.1742520  10.8047860  25.7770385  62.5665661  12.9603370  31.1538783
  63.4291274  12.8599080  31.0676113  62.2357444  12.3798080  30.5924355
  62.6450858  12.8594997  31.0584189  65.9267447  11.7845819  27.8149201
  65.3020517  11.7964211  27.2075154  65.5913042  12.2605995  28.4640442
  65.7852939  11.8564336  27.8205770  62.6393123  19.8446280  29.2552966
  62.1093047  19.1538719  29.3047940  62.9118216  19.8356465  28.4265674
  62.6017845  19.7413411  29.1400382  73.6713213  20.4271982  17.9790648
  74.3947412  20.8930095  17.8355222  73.2313804  20.4945592  17.2288245
  73.7128905  20.5055819  17.8475430  72.8399368  17.2869524  29.2291337
  72.2256361  16.7427574  29.5239973  73.3566653  16.7733761  28.7497153
  72.8255031  17.1305933  29.2015566  72.0795665  18.3573794  26.9635636
  71.6523273  17.7323513  26.5301071  72.0720610  18.0748716  27.7894643
  72.0154807  18.2226575  27.0215463  65.1958193  13.3938967  30.0324070
  65.3551679  12.6382291  30.4375792  65.0151086  13.9429907  30.6864808
  65.1923551  13.3632781  30.1886776  57.9188965  16.5174044  26.6121314
  57.8132414  16.4720888  25.7473398  57.1689185  16.8627824  26.8935599
  57.7924568  16.5614952  26.5258644  68.8712310  17.5274107  34.6604209
  68.0207941  17.6645821  34.7961854  69.0340438  16.7937885  35.1051910
  68.7696174  17.4388208  34.7459808  68.1097061  14.4773877  28.8557813
  67.2788990  14.6447695  28.6493061  68.0548578  14.1009828  29.6406699
  67.9786476  14.4463608  28.9406341  66.4833105  12.7529468  19.3847931
  66.6236066  13.2501933  20.0876572  66.9815637  12.0515763  19.5262145
  66.5774185  12.7231447  19.5099510  66.5133327  13.6196579  16.7140508
  67.1478406  14.2157004  16.6489970  66.5958938  13.3200037  17.5286378
  66.6189878  13.6637488  16.8243594  71.3209283  20.5729429  30.2084766
  70.8134374  21.1265276  30.6525396  71.0235929  20.6337719  29.3903540
  71.2014168  20.6635740  30.1533223  63.0186315  15.8164420  19.9830054
  63.5278544  16.4128928  20.3641359  63.4920587  15.5490394  19.3006473
  63.1629690  15.8650236  19.9384576  73.9317063  24.4892687  18.1388709
  73.2146373  24.3153549  17.6735947  74.5823800  24.2545259  17.6064195
  73.9218913  24.4288479  17.9917927  70.5651768  25.5053987  27.1141773
  70.3417422  24.7472817  27.4825799  70.0761611  25.5352009  26.3922212
  70.4595217  25.3976212  27.0618514  65.3776847  12.4520679  22.8503234
  64.6588836  12.8684811  23.1176098  65.7489209  13.0174917  22.2994872
  65.3268778  12.5969960  22.8086041  74.6776427  13.0848528  28.7405230
  74.6574355  12.9031823  29.5940009  74.7255628  13.9560546  28.7164814
  74.6811068  13.1865066  28.8628525  72.6222757  19.6735720  34.6653706
  72.5818612  19.0285397  34.0798862  73.4346075  19.6172337  34.9779118
  72.7365911  19.5694686  34.6250656  69.2130225  25.7254445  24.5678857
  68.7990623  25.0628576  24.1782699  69.8977599  25.8732304  24.0474552
  69.2528596  25.6495104  24.4335354  72.5795519  24.8844531  25.3202474
  72.1811802  24.9946801  24.5523294  71.9646738  25.0926597  25.9029034
  72.4294408  24.9318099  25.2933773  68.3100466  13.3032656  31.2203464
  67.7979369  12.6953839  31.5788495  68.1379962  14.0189249  31.6877440
  68.2090103  13.3195955  31.3419688  63.1566181  11.7470231  33.8705826
  62.9868771  12.4071606  33.3254033  62.7132131  11.9576793  34.5918315
  63.0665514  11.8756214  33.8967455  67.0826000   9.9874729  22.9132560
  67.5583366  10.3491809  22.2782741  66.5814600  10.6431197  23.1932702
  67.0791359  10.1368918  22.8609301  72.1869536  11.2256901  33.6605720
  72.7440966  10.9970710  33.0284185  71.8630601  11.9862566  33.3840932
  72.2215946  11.3040737  33.5262217  60.0568245  14.6517097  29.1294316
  59.5094965  13.9817743  29.2475184  60.8460623  14.2846945  29.1937783
  60.0920429  14.4982083  29.1563016  69.9052654  14.3124554  34.6257727
  70.6563981  14.6276231  34.9397281  70.0975230  14.1103725  33.7991649
  70.0444068  14.3291936  34.5501123  58.8155215  13.8637905  26.2840339
  58.6376976  13.4114514  27.0095254  58.5274237  14.6664066  26.4678816
  58.7468168  13.9160463  26.4183842  74.4778796  15.1195622  25.5217729
  74.9732461  14.4018617  25.4821749  73.6678571  14.8166420  25.4072216
  74.4322689  14.9693268  25.4991455  69.9237407  18.9693435  17.6714734
  69.1148730  18.6460109  17.6248043  70.4312316  18.2626658  17.6042982
  69.8787074  18.8174752  17.6545028  60.5527685  16.3965629  23.3962098
  59.6873204  16.3851319  23.2844869  60.6526500  16.2095851  24.2433237
  60.4401851  16.3671690  23.5051042  66.1784694  26.1663527  26.9692203
  66.4931253  26.9799916  26.9769985  66.5878108  25.7813746  27.6374362
  66.2852792  26.2292230  27.0696295  73.1309214  21.5833574  24.5396015
  73.6020392  22.2973837  24.7086001  73.4669393  20.9832324  25.0755885
  73.2504329  21.6005038  24.6428391  75.2186199  23.1934887  36.7188087
  75.3283164  22.4043448  37.0744835  75.5477095  23.1040824  35.9162425
  75.2838604  23.0640740  36.6530478  73.7683160  21.3751508  31.3023708
  73.2204106  20.7509392  31.0343773  74.2296189  21.5645780  30.5867787
  73.7550370  21.3110558  31.1574139  63.5197715  20.1136636  26.6170812
  64.1242572  20.0732470  25.9884632  63.3125027  20.9607788  26.6474868
  63.5786612  20.2324638  26.5286928  73.3341487  22.3802581  27.8333049
  74.1539860  22.2365547  28.0949344  73.0535564  23.0048780  28.3749487
  73.4138230  22.4512933  27.9520989  58.7548997  19.0971253  26.4869735
  58.6573275  18.2867525  26.7959792  59.5377867  19.0763047  26.1016003
  58.8565133  18.9738343  26.4756598  72.1645762  34.6944480  23.2081194
  71.9295946  33.8612132  23.1013462  72.3031403  34.9749146  22.3942395
  72.1501425  34.6127984  23.0723549  74.4635850  26.8630211  26.1065501
  73.8440881  26.2722858  25.9375516  74.3619713  27.4541646  25.4729825
  74.3573525  26.8634293  25.9870491  74.1904983  30.4082492  28.3509070
  74.0663679  30.9944938  28.9858889  74.8423267  29.9142688  28.6521345
  74.2678632  30.4221297  28.4895000  73.7263087  39.5730151  24.4837400
  73.2430665  40.2980641  24.4596983  74.5386405  39.8706281  24.5947557
  73.7753834  39.7232505  24.4964679  71.9347907  32.9193845  28.5991015
  71.6686323  32.1032961  28.7582005  71.9486472  32.9647000  27.7286530
  71.8972630  32.8050750  28.4944497  72.3441321  33.7052624  25.8802759
  72.1616894  33.6799510  25.0275051  73.0790990  34.1751562  25.9191668
  72.4255385  33.7713986  25.7600677  75.4087073  30.4237627  32.3884868
  76.1327045  30.4090658  32.8749762  75.5103209  31.1332982  31.8906836
  75.5305282  30.5262330  32.3863654  72.3112231  30.5846125  26.0301826
  72.8885734  30.4482576  26.6694071  71.6126293  30.1281909  26.2847410
  72.2933253  30.4968391  26.1624115  67.7871065  29.4358018  22.7449644
  67.8731317  29.0589886  23.5263174  68.4146862  29.0618463  22.2669602
  67.8927616  29.3243500  22.7895121  73.3747023  38.2049751  26.7981005
  73.4151169  38.4764602  25.9700784  73.9341547  38.7291659  27.2138793
  73.4630369  38.3225506  26.7372893  74.8261610  36.7891700  21.6234931
  73.9999727  37.0353437  21.4969210  74.8873601  36.7103781  22.4896989
  74.7135777  36.8136649  21.7323875  74.9704985  26.3318900  20.0247247
  74.6829781  25.9620171  19.2879195  75.6575454  26.8013755  19.7630952
  75.0293883  26.3465869  19.8762323  75.4566274  32.6029921  30.5768792
  75.9687371  32.8814174  29.9277552  75.1702616  33.3419215  30.9431605
  75.4901137  32.7532274  30.5358670  72.5433180  27.1100113  20.8732528
  72.6449317  27.9126274  21.2013504  73.3389067  26.9087448  20.5755609
  72.6761086  27.1986011  20.8767884  73.3596912  27.2247291  28.6153650
  73.2182404  26.3731231  28.7398158  73.6437476  27.2675951  27.7915856
  73.3804758  27.1047041  28.5121274  74.1287217  25.1377638  31.9331100
  73.5929407  24.5257997  32.2491867  74.1904982  25.7125774  32.5864767
  74.0582850  25.1324566  32.0766527  72.8210235  29.7293323  22.0611922
  73.2009200  30.1477868  21.3972189  72.2465600  30.3106779  22.3680765
  72.7921560  29.8771182  22.0088663  73.9416603  28.9173265  24.5212167
  73.5473301  28.9916276  23.7462277  73.3856720  29.3031211  25.0720529
  73.8019416  28.9855039  24.4879827  73.5398245  28.4788678  31.1538783
  74.4023858  28.3784388  31.0676113  73.2090028  27.8983388  30.5924355
  73.6183441  28.3780305  31.0584189  73.6125706  35.3631588  29.2552966
  73.0825631  34.6724026  29.3047940  73.8850800  35.3541773  28.4265674
  73.5750429  35.2598719  29.1400382  68.8921548  32.0359352  26.6121314
  68.7864998  31.9906196  25.7473398  68.1421768  32.3813132  26.8935599
  68.7657151  32.0800260  26.5258644  73.9918898  31.3349728  19.9830054
  74.5011128  31.9314236  20.3641359  74.4653171  31.0675702  19.3006473
  74.1362274  31.3835544  19.9384576  74.1298764  27.2655539  33.8705826
  73.9601354  27.9256914  33.3254033  73.6864714  27.4762101  34.5918315
  74.0398098  27.3941522  33.8967455  71.0300829  30.1702405  29.1294316
  70.4827548  29.5003051  29.2475184  71.8193207  29.8032253  29.1937783
  71.0653012  30.0167391  29.1563016  69.7887798  29.3823213  26.2840339
  69.6109559  28.9299822  27.0095254  69.5006820  30.1849374  26.4678816
  69.7200751  29.4345771  26.4183842  71.5260268  31.9150936  23.3962098
  70.6605788  31.9036627  23.2844869  71.6259084  31.7281159  24.2433237
  71.4134435  31.8856998  23.5051042  74.4930298  35.6321944  26.6170812
  75.0975155  35.5917778  25.9884632  74.2857611  36.4793096  26.6474868
  74.5519195  35.7509946  26.5286928  69.7281580  34.6156561  26.4869735
  69.6305858  33.8052833  26.7959792  70.5110450  34.5948354  26.1016003
  69.8297717  34.4923651  26.4756598   3.3207530  21.3573155  59.7221145
   3.2901534  22.2117791  59.8939415   3.9188879  21.0568447  60.2807289
   3.4044688  21.4389651  59.8295948   1.1424104  23.9325457  57.9939455
   1.0263630  24.6833143  58.4231593   1.9379991  23.6749410  58.2435542
   1.2428694  24.0060303  58.0943547   5.6428557  24.2444474  62.2068878
   6.3044992  23.6835142  62.1064786   5.0019969  23.7496505  62.5321569
   5.6457425  24.0880883  62.2401218   1.9293388  25.2609856  61.9480867
   2.1648977  25.4055055  61.1207717   2.0782952  26.0252264  62.3412380
   1.9859191  25.3948911  61.8844470   3.7583845  24.1011522  59.7850470
   4.0892062  24.6339162  59.1790565   4.3316933  24.1550410  60.4412421
   3.8917524  24.1881091  59.7928252   1.2226621  26.3975488  59.4421002
   1.7884654  27.0568698  59.3579545   0.5754525  26.7425187  59.9137404
   1.2105378  26.5457430  59.4993759   2.4189319  26.4481716  56.2346639
   2.0396128  25.6618854  56.2275928   1.7555564  26.9968573  56.0918283
   2.2647794  26.4126540  56.2127435   0.6649418  28.6927207  56.5698324
   0.7469255  29.4994193  56.2459775   1.1499160  28.7123166  57.2939098
   0.7486576  28.8147870  56.6285223   4.8022338  26.2987527  57.6290785
   5.1855944  27.0478884  57.8588882   4.0066451  26.5453347  57.3702774
   4.7416120  26.4457221  57.6248358  14.2940113  36.8758462  59.7221145
  14.2634118  37.7303099  59.8939415  14.8921462  36.5753755  60.2807289
  14.3777271  36.9574959  59.8295948   7.4939798  35.9634113  64.4774076
   6.6377694  36.1242612  64.5283193   7.5407452  35.0926177  64.4979137
   7.3738910  35.8584915  64.4880142   1.8780938  45.4996831  60.2411307
   1.1263838  45.1212370  60.0127353   2.3266950  45.5315265  59.4930118
   1.8330605  45.4482438  60.0968810  10.8033515  42.2320639  74.0834532
  11.5100282  41.7372670  74.2121466  10.9921450  42.6729721  73.3537190
  10.9361420  42.2238989  73.9943578   7.3305898  45.9222201  55.6696855
   6.9957266  46.5999122  55.2341077   7.8432768  45.5327512  55.0813726
   7.3571479  45.9646779  55.5183646   6.8710189  47.8736470  61.6107966
   7.2549569  48.4423368  61.0712741   6.8069330  47.1485980  61.1313782
   6.9183616  47.8511933  61.4601829  10.3391619  38.0226157  67.1205728
  10.8847579  38.7011244  67.1799697  10.2808496  37.8813618  66.2607309
  10.4107534  38.1018159  67.0017788   3.4565694  45.5115224  62.5074080
   3.5576057  44.7015577  62.8171208   2.8607439  45.4172170  61.8773759
   3.3838233  45.3780252  62.4600318  12.1156688  39.4510764  57.9939455
  11.9996214  40.2018451  58.4231593  12.9112575  39.1934718  58.2435542
  12.2161277  39.5245611  58.0943547   3.2966434  50.4292813  63.9088936
   3.9403889  50.8705977  64.2985094   3.6222689  49.6246239  63.8219195
   3.4398262  50.3758007  63.9534413   3.9987014  43.4404788  59.2808798
   4.3202855  43.9809995  58.6770106   4.6459110  42.8701559  59.4131088
   4.1413069  43.4363963  59.2115833   6.0488722  35.4420782  59.3643184
   6.7468886  35.6208910  59.8564648   6.3641054  34.9191122  58.7413574
   6.1984059  35.3914555  59.3445195   6.2376657  41.8291227  59.3522976
   6.6770292  41.2208328  59.7977749   6.0881320  41.4498601  58.5808441
   6.2798123  41.6829699  59.3042143   3.7048300  40.4235239  66.5541801
   4.3497302  39.9307682  66.2352750   3.9450077  40.5660026  67.3807880
   3.8358885  40.3712682  66.6291335   6.2434391  43.2690145  66.2048694
   6.5257634  42.4741551  65.9835450   6.9720552  43.7470733  66.2253755
   6.3923955  43.2224742  66.1751709   4.2215585  30.8113179  63.4464459
   3.8918915  31.2624323  62.7768158   3.5460587  30.7329342  63.9937466
   4.0726021  30.8664314  63.4287682   9.8385994  40.1818409  56.3053745
   9.7537289  41.0379375  56.4503314  10.3270377  39.9062733  56.9735904
   9.8974891  40.2675730  56.4255827  11.4291993  26.7998702  61.6914070
  11.1145434  27.4902181  62.1234492  10.9118935  26.7443484  60.9899570
  11.3056463  26.8933591  61.6511019  10.7704427  36.8003203  57.8051480
  10.2415898  37.0162836  58.4648787  11.2929447  37.4939341  57.7252450
  10.7692880  36.9346340  57.8907079  16.2252480  42.3749507  63.1784525
  15.3950183  42.5860151  63.3417941  16.1761732  41.5486562  62.9026808
  16.0959215  42.2839114  63.1621890   2.6604035  40.6966420  56.6058948
   2.0761250  41.2016451  57.0124812   2.2574130  40.4708807  55.8655540
   2.5143338  40.7374668  56.5563973   4.2862217  45.2053362  66.0132434
   3.7689159  44.8460777  65.4093742   4.9836608  44.6815536  66.0238500
   4.3127798  45.0751050  65.9262693   7.1181249  36.9432072  55.0827869
   7.3577253  37.1510056  54.2703212   7.4397090  36.1389580  55.1916813
   7.2018407  36.8546173  54.9788422   2.4271539  28.8725468  58.9287407
   3.1817507  29.2403785  58.6904457   2.2499074  29.2465022  59.6966586
   2.5126018  28.9823655  59.0072295   1.0692260  46.9277357  63.5602900
   1.7712840  46.4129346  63.6175656   0.9889744  47.2551508  64.3649775
   1.1616021  46.8991583  63.6875692  15.7206438  35.0219908  66.9734946
  14.8834859  35.0922095  67.2082541  15.6894669  35.0244403  66.1009248
  15.5924720  35.0330135  66.8794494   0.7828604  31.2795787  55.6265520
   0.6004177  31.4967667  54.8006513   1.6454217  31.3934799  55.6824134
   0.8833193  31.3285684  55.5120007   6.4628323  28.2822197  58.6614544
   7.1914484  28.1038152  58.2152700   6.5523216  29.1240277  58.8721722
   6.5834985  28.3806076  58.6268061  10.4436624  39.2175585  62.5646838
  11.1994139  39.6507099  62.6035746  10.5498948  38.5680354  63.1381474
  10.5706794  39.1853068  62.6544863  13.4816795  43.0448862  63.3149241
  13.0452027  43.0485604  64.0708212  13.1479710  43.7254361  62.8828818
  13.3679415  43.1461318  63.3630073  13.4014278  30.0862690  65.5578668
  14.0440186  30.1560794  66.1440584  13.6537298  29.4191913  65.0558210
  13.5336410  29.9989038  65.5705948   8.2116262  46.9967297  68.2858846
   7.4131508  46.7566797  68.5432715   8.6602273  47.0481690  69.0325894
   8.1590873  46.9689688  68.4343771  16.6161141  39.7629782  62.2068878
  17.2777575  39.2020450  62.1064786  15.9752553  39.2681812  62.5321569
  16.6190009  39.6066191  62.2401218   7.5037949  43.0599913  54.5149801
   7.9189097  42.7284937  53.8234297   6.6729878  42.8268815  54.3869938
   7.4425958  42.9771169  54.3940648  12.9025972  40.7795164  61.9480867
  13.1381561  40.9240363  61.1207717  13.0515535  41.5437572  62.3412380
  12.9591775  40.9134219  61.8844470  14.7316429  39.6196830  59.7850470
  15.0624646  40.1524470  59.1790565  15.3049517  39.6735718  60.4412421
  14.8650108  39.7066399  59.7928252   9.9448318  37.4661733  60.4674050
  10.0395172  38.2051027  60.9213676   9.3207161  37.0379208  60.9008615
   9.8657348  37.5123053  60.5982198   8.2000791  40.6447945  71.1164331
   8.7739653  40.0075190  71.2712895   8.1215595  40.6452028  70.2473989
   8.2734026  40.5513057  71.0110742  10.1971339  39.3110473  53.7011002
  10.1151501  39.3812660  54.5665989  10.8351059  39.8740216  53.5094743
  10.2791176  39.4049444  53.8000952   3.5564510  39.0771210  63.1685529
   3.2983754  38.2442945  63.1416828   3.6112993  39.3028823  62.3278029
   3.5264288  38.9868982  63.0405666   8.6365560  31.1799661  63.2689621
   7.9321887  30.6908847  63.4273541   8.6850535  31.1922136  62.3978066
   8.5395612  31.1089309  63.1628961   2.5299222  36.6308973  63.6550424
   1.9548814  36.7901141  64.2914385   2.1534899  35.9944382  63.1918874
   2.3902035  36.5606786  63.6804982   6.1972511  35.1032322  68.5142802
   5.8086944  34.6786540  67.8594993   5.5327209  35.3514472  69.0219829
   6.0419439  35.0771043  68.4930670  15.8395780  34.8607327  61.2890632
  15.5832345  34.0487268  61.0988515  16.6825094  34.8684894  61.0620819
  15.9261805  34.7419324  61.2275449  10.0198872  28.8006951  66.0266786
  10.4009384  28.1185122  66.4134660   9.2162157  28.5116553  65.8442451
   9.9575334  28.6574000  66.0570842   7.3011449  39.3330927  56.7119609
   8.1152088  39.6245820  56.6002380   7.2370590  38.6790789  56.1377902
   7.4114188  39.2796122  56.6108446  13.5220939  42.0156923  71.1249185
  13.2859577  41.1844988  71.0061245  14.1664168  41.9642530  71.7104029
  13.5815610  41.8854611  71.1935078   3.1719357  42.8052444  61.8391921
   3.8093304  42.5664192  62.3843714   3.5974429  43.0089603  61.1045082
   3.3295524  42.8003454  61.8109078   3.8122172  38.0254734  56.1766810
   4.1967325  37.8062441  56.9283356   3.5633793  38.8517679  56.3067887
   3.8324245  38.1152880  56.3067887  14.5457360  41.8001372  67.1877479
  14.2403177  42.5329429  67.5490795  13.8263576  41.3939301  66.9070265
  14.3944702  41.8483105  67.1990616   5.5540829  43.2824867  63.5185707
   5.6279838  43.1200039  64.3727557   6.3710336  43.4715056  63.2746189
   5.6857188  43.2861609  63.6083733  20.2459152  38.4394372  66.5145823
  20.1783652  38.4590332  65.6448410  20.2314814  39.2824700  66.7401494
  20.2337909  38.5668107  66.4198300   1.5322610  29.6951671  61.5075591
   0.6645035  29.7674270  61.5733200   1.8197814  30.4973750  61.6963566
   1.4462358  29.8245818  61.5450358   4.0945415  46.2459610  58.2499181
   4.3843713  45.8548591  57.5258407   4.8248896  46.4276315  58.6904456
   4.2452299  46.2153424  58.2081988  18.0317769  37.2138759  64.7892418
  18.5825691  36.5806828  65.0289510  18.0161885  37.7454151  65.4807922
  18.1102966  37.1987707  64.9271276   4.6840160  41.0477356  69.3352311
   4.1851854  41.7593124  69.4137200   5.4940385  41.3678022  69.2970474
   4.7296267  41.2004204  69.3408880   2.0351331  48.2226992  61.3159330
   1.8151626  47.9324347  62.1085997   1.8145853  47.5641947  60.7877243
   1.9698925  48.0826701  61.3548239   0.9468278  40.3100309  63.5815032
   0.6581526  39.6837780  64.1160759   1.8151626  40.2520596  63.6479713
   1.0328530  40.2087853  63.6705987  11.7346176  35.4535092  63.8997014
  11.3910942  34.7325427  64.2504264  11.8339218  35.2448943  63.0575372
  11.6988218  35.3159296  63.8268694   4.2019286  49.5956382  60.0990023
   4.8543344  49.0632825  60.3281049   3.5044895  49.2425035  60.4857897
   4.1950004  49.4645905  60.1902191   1.1500551  41.9495560  59.5057397
   1.9046519  42.3308599  59.7192860   0.5571164  42.4006704  59.9604094
   1.1737265  42.0724387  59.6040276  12.1959205  41.9160796  59.4421002
  12.7617237  42.5754006  59.3579545  11.5487108  42.2610494  59.9137404
  12.1837961  42.0642738  59.4993759   2.4698778  43.1204121  64.8797513
   1.9479531  43.2604413  65.5649377   2.8572798  42.3614786  65.0699630
   2.4502479  43.0289645  65.0098589   8.6665783  44.8599581  58.8658081
   8.4252459  44.1267441  58.4585146   8.8467116  45.4086438  58.2124415
   8.6573407  44.8321972  58.7088304   3.8965103  40.1508140  60.2779004
   3.7007886  40.7582875  59.6839307   4.1199449  39.4576084  59.7970678
   3.8999744  40.1385666  60.1195084   2.2943633  37.0362878  60.3959872
   3.0166285  37.2004036  59.9363678   1.8151626  37.7572543  60.2899212
   2.3307364  37.1661108  60.3125486  10.2537141  33.3726677  65.7756557
   9.4148242  33.3987956  65.5394820  10.3241508  34.0197412  66.3561903
  10.1405535  33.4722803  65.8265674   8.7006419  30.2712054  60.5084173
   9.4032772  30.0719802  60.0304131   8.4350608  29.4987996  60.8153016
   8.7653052  30.1275020  60.4829614  14.1294665  38.5794664  63.0617799
  14.0428639  38.7350090  63.9152577  13.6745145  39.2232739  62.6877204
  14.0497922  38.6970419  63.1324905   8.0020481  35.9005411  61.6843358
   7.7555195  35.8201162  62.5180147   8.3305604  35.1158879  61.4905886
   8.0141725  35.7731676  61.7790881  11.8968530  42.6088770  65.4730139
  11.7582889  43.3069816  65.9778882  11.1168528  42.4537427  65.1166321
  11.7611757  42.6888937  65.4956414  10.2346615  38.9085146  71.7252521
  10.2294653  38.0364962  71.7294948  10.9407609  39.1073315  71.2521977
  10.3391619  38.8089020  71.6559556   6.1337426  37.8352298  68.8791473
   5.3860740  38.0283312  68.4739751   6.2878951  37.0097517  68.6415594
   6.0459853  37.7417409  68.7836879  13.3921903  41.9667024  56.2346639
  13.0128711  41.1804162  56.2275928  12.7288148  42.5153881  56.0918283
  13.2380377  41.9311848  56.2127435  10.8466529  24.9092724  63.6380719
  10.9650097  25.3669187  62.9048022  10.6728704  24.1037985  63.3516937
  10.8385700  24.8586496  63.4881653   6.2168811  45.5180543  60.0735465
   6.9818702  45.2490187  59.7518129   6.1146901  45.0330553  60.7905528
   6.3150306  45.4070108  60.1315292   4.2521581  33.7204953  66.6128701
   3.4617655  33.5396413  66.9346036   4.6482203  32.9431905  66.5958995
   4.1938457  33.5792413  66.6581249   8.7387471  42.5492727  52.0535414
   9.5060456  42.6092852  51.6441266   8.2918780  41.9773168  51.5691733
   8.7860899  42.4729303  51.9213124   9.6365267  41.3547383  64.3388146
   8.9610269  41.1232615  64.8401533   9.6457643  40.7468566  63.7130251
   9.5383771  41.2306308  64.3204299  11.6382001  44.2112515  56.5698324
  11.7201839  45.0179501  56.2459775  12.1231744  44.2308474  57.2939098
  11.7219159  44.3333177  56.6285223   5.4478505  38.8897351  65.2368402
   5.0240754  39.0901850  64.5007421   5.2723360  38.0426199  65.3492702
   5.3589385  38.7946132  65.1442092   0.7360950  39.3849402  60.6696375
   0.8925569  39.3196205  61.5252367   1.0761543  40.1597955  60.4575055
   0.8094185  39.4898601  60.7650969   7.2740094  38.7607286  59.5389738
   7.8155640  38.2577667  60.0028359   7.5886653  38.7072481  58.7279223
   7.4004491  38.6786707  59.4873550   5.4426544  44.1524638  56.8229766
   5.5119364  43.2939176  56.9622767   6.2214999  44.3696518  56.4948791
   5.5679394  44.0577502  56.7946923   8.4229364  33.6543590  69.5912039
   8.6371333  33.0154505  69.0375393   7.8063263  34.0989414  69.1619900
   8.3634693  33.6253734  69.4462470   9.8334032  46.5762339  61.0366259
   9.4413823  46.2729054  60.3189126   9.9887104  47.4131429  60.8471213
   9.7987621  46.6546176  60.9022757  10.5868452  35.2632656  70.5295346
   9.7745133  34.9558546  70.6108518  11.0458386  34.7831656  71.0938058
  10.5348836  35.1469148  70.6249940   9.9973706  43.1412328  60.9772290
   9.6388361  43.3126971  61.7536322   9.5112417  43.6025533  60.4200288
   9.8732403  43.2351299  61.0097559   7.8144092  26.7643526  64.5799381
   6.9437650  26.7382247  64.5332691   8.0684434  26.5920718  63.7625227
   7.7237652  26.7353670  64.4519518   4.7862072  38.8211493  53.5172524
   5.0754597  39.5976376  53.7916099   4.8733871  38.3100225  54.2187024
   4.8416328  38.8603411  53.6615022  11.1578446  44.0316224  71.9239491
  11.7958166  43.5376419  71.5901947  10.5152537  43.9593624  71.3391718
  11.1572672  43.9475232  71.7881846  12.8835446  35.8805370  66.4905406
  12.4563054  35.7931718  65.7353506  12.2461499  35.9883145  67.0760251
  12.7265053  35.8838029  66.4650848  11.2132702  44.7236032  68.5644848
  12.0025080  44.3725097  68.6846929  11.3876300  45.5372420  68.3021481
  11.3552984  44.7921889  68.5432716  10.0666526  28.7345589  63.1261266
  10.2716120  28.6667896  63.9718263   9.7392950  29.5404410  63.0582443
  10.0481774  28.8431529  63.2420921   4.7642678  36.0626157  64.8670234
   4.4605815  35.5082145  65.4680642   4.0622098  36.2418367  64.3798268
   4.6158887  36.0070939  64.8839940   3.8208775  33.3726677  59.4314936
   4.0968509  32.6545589  59.0192503   4.4207444  33.9711597  59.2236042
   3.9502039  33.3547047  59.3395697  13.3200214  29.2877353  62.6064031
  12.7074528  29.7747755  62.9917763  13.4164389  28.6120844  63.1501683
  13.2438112  29.2595662  62.7442890   7.3219295  31.0440194  57.7061531
   7.7763042  31.2150754  58.4309375   7.7959341  30.4308305  57.3059307
   7.4587615  30.9791079  57.7535292  16.9625242  40.3594290  68.0341548
  17.0208366  40.8080938  68.7801524  16.3291710  40.7693102  67.5971628
  16.8776537  40.4868024  68.0794096  10.6024337  45.9797832  64.4696294
  10.4044025  46.4688646  63.7752505   9.9812048  46.1839073  65.0480427
  10.4811901  46.0814370  64.4519517   4.6632315  37.7482728  58.8106538
   5.4074360  38.1357005  59.0489488   4.8093011  36.9040154  58.9747026
   4.7942900  37.6813201  58.8700508   6.5811891  29.5432987  63.8438400
   5.7347936  29.7155795  63.7179749   6.5783023  28.7382331  64.1804228
   6.4559041  29.4494016  63.8749526   7.6510191  33.3208202  64.7100457
   7.1770145  32.7949964  65.2205768   8.0228327  32.7737675  64.1415319
   7.6360080  33.1624198  64.7015605  13.9146922  38.3810577  66.1207238
  13.6745144  37.5416992  66.1249664  14.3938929  38.4610744  66.8448011
  13.9499105  38.2691977  66.2282040   9.5793691  34.2144756  57.7726211
   9.0516709  34.2973500  57.0831920  10.0389399  34.9562628  57.7690856
   9.5695541  34.3365419  57.6700906  15.9152109  35.1612035  64.0736497
  15.6761879  35.1207869  63.2357282  16.0786010  36.0083187  64.2002218
  15.9042412  35.2804120  63.9689979  12.5198139  39.5461984  70.0041542
  13.2432338  39.0934510  69.8252562  12.2548101  39.8266650  69.2213870
  12.5879412  39.5212952  69.8620258   1.5726756  32.4847276  52.7967106
   1.2239560  33.1367001  53.2598656   1.0923202  32.4704389  52.0690978
   1.4497000  32.5790329  52.7578198   9.1330773  42.7848320  56.9035868
   9.8564972  43.2506433  56.7600442   8.6931364  42.8521929  56.1533465
   9.1746465  42.8632157  56.7720650   8.3016928  39.6445862  68.1536557
   7.6873921  39.1003912  68.4485193   8.8184213  39.1310099  67.6742373
   8.2872591  39.4882271  68.1260786   7.5413225  40.7150132  65.8880856
   7.1140833  40.0899851  65.4546291   7.5338170  40.4325054  66.7139863
   7.4772367  40.5802913  65.9460683   5.8698935  31.5918887  66.1023390
   5.8941422  31.0578999  65.4136170   6.1210409  31.0836195  66.7648980
   5.9108854  31.4379791  66.0988035   3.5714621  36.8350215  67.7803033
   2.7406550  37.0024033  67.5738281   3.5166138  36.4586166  68.5651919
   3.4404036  36.8039946  67.8651561   1.9450665  35.1105806  58.3093151
   2.0853626  35.6078270  59.0121792   2.4433197  34.4092101  58.4507365
   2.0391745  35.0807785  58.4344730   1.9750887  35.9772917  55.6385728
   2.6095966  36.5733342  55.5735190   2.0576498  35.6776375  56.4531598
   2.0807438  36.0213825  55.7488814  14.9533453  38.5088395  68.5072092
  15.5451293  39.1485645  68.5390290  15.3892447  37.8111431  68.7964159
  15.1051884  38.5006745  68.5552925   3.5529870  31.9086893  55.6131170
   3.8745711  31.4289975  54.9590432   3.8156814  32.7186539  55.4221981
   3.6395895  31.9576791  55.4886662   6.7826843  42.9305767  69.1329986
   6.2751934  43.4841614  69.5770616   6.4853489  42.9914057  68.3148760
   6.6631728  43.0212078  69.0778443   9.3934623  46.8469025  57.0633929
   8.6763933  46.6729887  56.5981167  10.0441360  46.6121597  56.5309415
   9.3836473  46.7864817  56.9163147   7.3883248  27.7674186  61.3845226
   6.7451566  27.6171833  61.9530364   7.0482655  27.5216532  60.6194330
   7.2428325  27.7086309  61.3548241  11.9782594  35.7233613  60.8075234
  11.3073784  36.2663316  60.6788300  12.6722344  36.1928469  60.5656929
  11.9811462  35.8731884  60.7530762   6.0269328  47.8630325  66.0386993
   5.8034982  47.1049155  66.4071019   5.5379171  47.8928346  65.3167432
   5.9212777  47.7552550  65.9863734  12.1410722  32.1789497  63.7165608
  12.4938332  31.7519220  64.3911406  11.2825523  32.0940340  63.8466684
  12.0660166  32.1034238  63.8360618  10.1393987  35.4424865  67.6650450
  10.1191915  35.2608161  68.5185229  10.1873188  36.3136884  67.6410034
  10.1428628  35.5441404  67.7873745   4.6747785  48.0830783  63.4924077
   4.2608183  47.4204914  63.1027919   5.3595159  48.2308642  62.9719772
   4.7146156  48.0071442  63.3580575   8.0413079  47.2420869  64.2447694
   7.6429362  47.3523139  63.4768514   7.4264298  47.4502935  64.8274254
   7.8911968  47.2894437  64.2178993   6.6140981  33.8495016  57.1121834
   6.0205820  34.1712013  56.5606401   6.6516259  33.0036112  56.9042940
   6.5315370  33.7719345  57.0004605  13.5734782  27.3007909  64.6449920
  13.0665646  26.5937048  64.5771098  14.3702215  26.9701098  64.7750997
  13.6162021  27.1481060  64.6548915   9.4898798  33.8074521  60.5423584
   9.2612491  33.8307222  59.7001942   9.7496874  32.9831988  60.6618594
   9.4944986  33.6890601  60.4348782  15.7754922  41.8172835  57.6290785
  16.1588527  42.5664192  57.8588882  14.9799035  42.0638655  57.3702774
  15.7148704  41.9642529  57.6248358   4.5870213  34.4892267  55.2051164
   4.9669178  34.5071896  54.4202278   3.8462809  34.9346256  55.0842011
   4.5339051  34.5574042  55.0714732  12.2155504  32.7974458  60.7926742
  12.2149730  32.6423115  61.6511019  12.0111684  33.6437445  60.7368128
  12.1855282  32.8995079  60.9114682   9.9396356  37.4771960  64.4462949
  10.4350021  36.7594955  64.4066969   9.1296131  37.1742758  64.3317436
   9.8940249  37.3269606  64.4236675   5.3854967  41.3269773  56.5959954
   4.5766290  41.0036447  56.5493263   5.8929876  40.6202995  56.5288202
   5.3404634  41.1751090  56.5790248  12.0048175  40.2275648  67.1340078
  12.4303246  39.7050069  66.5810503  11.6405094  40.8256485  66.6128701
  12.0134777  40.2385875  66.9749088   8.5926774  43.9409912  63.4641235
   9.0637952  44.6550174  63.6331221   8.9286953  43.3408662  64.0001105
   8.7121889  43.9581376  63.5673611   9.2300720  43.7327846  70.2268928
   8.6821666  43.1085730  69.9588993   9.6913749  43.9222118  69.5113007
   9.2167930  43.6686896  70.0819359  12.0394585  31.8013200  67.6120120
  11.4557574  32.3022407  67.1997688  12.3598879  31.2942757  66.9784444
  12.0007760  31.8005035  67.4578627   4.5789384  30.7153795  57.8878795
   5.4005078  30.8852108  57.6460490   4.1159035  30.8701056  57.1645093
   4.6320546  30.7635528  57.7450439   8.7959047  44.7378919  66.7578269
   9.6157420  44.5941885  67.0194564   8.5153124  45.3625118  67.2994707
   8.8755790  44.8089271  66.8766209  18.4672382  51.4819421  64.4774076
  17.6110277  51.6427920  64.5283193  18.5140036  50.6111485  64.4979137
  18.3471493  51.3770223  64.4880142  12.8513522  61.0182139  60.2411307
  12.0996421  60.6397678  60.0127353  13.2999533  61.0500573  59.4930118
  12.8063188  60.9667746  60.0968810  21.7766098  57.7505947  74.0834532
  22.4832866  57.2557978  74.2121466  21.9654034  58.1915029  73.3537190
  21.9094004  57.7424297  73.9943578  18.3038481  61.4407509  55.6696855
  17.9689850  62.1184430  55.2341077  18.8165352  61.0512820  55.0813726
  18.3304063  61.4832087  55.5183646  17.8442773  63.3921777  61.6107966
  18.2282152  63.9608676  61.0712741  17.7801914  62.6671288  61.1313782
  17.8916200  63.3697241  61.4601829  21.3124203  53.5411465  67.1205728
  21.8580163  54.2196552  67.1799697  21.2541079  53.3998926  66.2607309
  21.3840117  53.6203467  67.0017788  14.4298278  61.0300531  62.5074080
  14.5308641  60.2200885  62.8171208  13.8340023  60.9357478  61.8773759
  14.3570816  60.8965560  62.4600318  23.0889272  54.9696072  57.9939455
  22.9728797  55.7203759  58.4231593  23.8845158  54.7120026  58.2435542
  23.1893861  55.0430919  58.0943547  14.2699017  65.9478121  63.9088936
  14.9136473  66.3891285  64.2985094  14.5955273  65.1431547  63.8219195
  14.4130846  65.8943315  63.9534413   7.6263322  57.0520818  62.1326414
   7.3913506  56.2188470  62.0258682   7.7648963  57.3325484  61.3187615
   7.6118985  56.9704321  61.9968769   9.9253410  49.2206549  65.0310721
   9.3058441  48.6299196  64.8620736   9.8237273  49.8117984  64.3975045
   9.8191085  49.2210631  64.9115711  14.9719597  58.9590095  59.2808798
  15.2935438  59.4995303  58.6770106  15.6191694  58.3886867  59.4131088
  15.1145652  58.9549271  59.2115833  17.0221305  50.9606090  59.3643184
  17.7201470  51.1394218  59.8564648  17.3373638  50.4376430  58.7413574
  17.1716642  50.9099862  59.3445195  17.2109241  57.3476535  59.3522976
  17.6502876  56.7393636  59.7977749  17.0613903  56.9683909  58.5808441
  17.2530706  57.2015007  59.3042143  14.6780884  55.9420547  66.5541801
  15.3229886  55.4492990  66.2352750  14.9182661  56.0845334  67.3807880
  14.8091469  55.8897989  66.6291335  17.2166975  58.7875453  66.2048694
  17.4990218  57.9926859  65.9835450  17.9453135  59.2656041  66.2253755
  17.3656539  58.7410050  66.1751709  15.1948169  46.3298487  63.4464459
  14.8651499  46.7809631  62.7768158  14.5193171  46.2514650  63.9937466
  15.0458605  46.3849622  63.4287682  20.8118577  55.7003717  56.3053745
  20.7269872  56.5564683  56.4503314  21.3002960  55.4248041  56.9735904
  20.8707474  55.7861038  56.4255827  22.4024577  42.3184010  61.6914070
  22.0878018  43.0087489  62.1234492  21.8851518  42.2628792  60.9899570
  22.2789047  42.4118899  61.6511019  21.7437010  52.3188511  57.8051480
  21.2148482  52.5348144  58.4648787  22.2662030  53.0124649  57.7252450
  21.7425463  52.4531648  57.8907079  27.1985063  57.8934815  63.1784525
  26.3682766  58.1045459  63.3417941  27.1494316  57.0671870  62.9026808
  27.0691799  57.8024422  63.1621890  13.6336618  56.2151728  56.6058948
  13.0493833  56.7201759  57.0124812  13.2306713  55.9894115  55.8655540
  13.4875922  56.2559976  56.5563973  15.2594801  60.7238669  66.0132434
  14.7421742  60.3646084  65.4093742  15.9569192  60.2000844  66.0238500
  15.2860382  60.5936357  65.9262693  18.0913833  52.4617380  55.0827869
  18.3309836  52.6695363  54.2703212  18.4129674  51.6574888  55.1916813
  18.1750990  52.3731481  54.9788422  13.4004123  44.3910775  58.9287407
  14.1550091  44.7589093  58.6904457  13.2231657  44.7650330  59.6966586
  13.4858601  44.5008963  59.0072295  12.0424844  62.4462665  63.5602900
  12.7445423  61.9314654  63.6175656  11.9622327  62.7736816  64.3649775
  12.1348604  62.4176891  63.6875692  26.6939022  50.5405216  66.9734946
  25.8567443  50.6107403  67.2082541  26.6627252  50.5429711  66.1009248
  26.5657304  50.5515443  66.8794494  11.7561187  46.7981094  55.6265520
  11.5736761  47.0152975  54.8006513  12.6186800  46.9120107  55.6824134
  11.8565777  46.8470992  55.5120007  11.3675619  58.6369017  63.0688508
  12.2064519  58.8691949  63.1162269  11.3987389  57.7673328  62.9995543
  11.4957337  58.5425963  63.0653152  17.4360907  43.8007505  58.6614544
  18.1647067  43.6223460  58.2152700  17.5255800  44.6425585  58.8721722
  17.5567569  43.8991384  58.6268061  21.4169207  54.7360892  62.5646838
  22.1726722  55.1692407  62.6035746  21.5231532  54.0865662  63.1381474
  21.5439378  54.7038376  62.6544863  24.4549378  58.5634170  63.3149241
  24.0184610  58.5670912  64.0708212  24.1212294  59.2439669  62.8828818
  24.3411998  58.6646626  63.3630073  24.3746861  45.6047998  65.5578668
  25.0172770  45.6746102  66.1440584  24.6269882  44.9377220  65.0558210
  24.5068993  45.5174346  65.5705948  11.3023214  50.0755267  54.1387993
  10.5881392  49.7893447  54.5510425  11.7867183  50.4151893  54.7794380
  11.2682578  50.0836917  54.2943628  12.1464074  48.8148561  70.1703242
  11.4535871  48.3445541  70.4163974  12.7624401  48.5886865  70.7444950
  12.1348604  48.7115693  70.2912395  19.1848845  62.5152605  68.2858846
  18.3864091  62.2752105  68.5432715  19.6334857  62.5666998  69.0325894
  19.1323457  62.4874996  68.4343771  27.5893725  55.2815090  62.2068878
  28.2510159  54.7205758  62.1064786  26.9485137  54.7867120  62.5321569
  27.5922592  55.1251499  62.2401218  18.4770532  58.5785221  54.5149801
  18.8921681  58.2470245  53.8234297  17.6462462  58.3454123  54.3869938
  18.4158541  58.4956477  54.3940648   7.8058881  56.0628962  64.8047979
   7.6234454  56.0375848  63.9520271   8.5408550  56.5327900  64.8436888
   7.8872945  56.1290324  64.6845897  23.8758555  56.2980472  61.9480867
  24.1114145  56.4425671  61.1207717  24.0248119  57.0622880  62.3412380
  23.9324359  56.4319526  61.8844470  25.7049012  55.1382138  59.7850470
  26.0357229  55.6709778  59.1790565  26.2782100  55.1921026  60.4412421
  25.8382691  55.2251707  59.7928252  20.9180901  52.9847041  60.4674050
  21.0127756  53.7236335  60.9213676  20.2939745  52.5564516  60.9008615
  20.8389931  53.0308361  60.5982198  19.1733375  56.1633253  71.1164331
  19.7472237  55.5260498  71.2712895  19.0948179  56.1637336  70.2473989
  19.2466610  56.0698365  71.0110742   7.7729791  52.9422463  64.9547046
   8.3503294  52.8058914  65.5939291   7.0743853  52.4858247  65.2092630
   7.7550813  52.8544729  65.0869335  21.1703923  54.8295780  53.7011002
  21.0884085  54.8997968  54.5665989  21.8083643  55.3925524  53.5094743
  21.2523760  54.9234752  53.8000952  14.5297094  54.5956518  63.1685529
  14.2716338  53.7628253  63.1416828  14.5845577  54.8214131  62.3278029
  14.4996872  54.5054290  63.0405666  19.6098144  46.6984969  63.2689621
  18.9054471  46.2094155  63.4273541  19.6583118  46.7107444  62.3978066
  19.5128195  46.6274617  63.1628961  13.5031806  52.1494281  63.6550424
  12.9281397  52.3086449  64.2914385  13.1267482  51.5129690  63.1918874
  13.3634618  52.0792094  63.6804982  17.1705094  50.6217630  68.5142802
  16.7819527  50.1971848  67.8594993  16.5059793  50.8699780  69.0219829
  17.0152022  50.5956351  68.4930670  26.8128364  50.3792635  61.2890632
  26.5564928  49.5672576  61.0988515  27.6557678  50.3870202  61.0620819
  26.8994389  50.2604632  61.2275449   3.2488625  51.7934356  61.6694864
   3.3348877  51.4166224  62.4508394   3.8764422  51.4194801  61.1914822
   3.3545176  51.6819838  61.7140341  20.9931456  44.3192259  66.0266786
  21.3741968  43.6370430  66.4134660  20.1894740  44.0301861  65.8442451
  20.9307918  44.1759307  66.0570842  18.2744033  54.8516235  56.7119609
  19.0884672  55.1431128  56.6002380  18.2103174  54.1976097  56.1377902
  18.3846772  54.7981429  56.6108446  24.4953523  57.5342231  71.1249185
  24.2592160  56.7030296  71.0061245  25.1396752  57.4827838  71.7104029
  24.5548194  57.4039919  71.1935078  14.1451941  58.3237752  61.8391921
  14.7825888  58.0849500  62.3843714  14.5707013  58.5274911  61.1045082
  14.3028107  58.3188762  61.8109078  14.7854756  53.5440042  56.1766810
  15.1699909  53.3247749  56.9283356  14.5366376  54.3702987  56.3067887
  14.8056829  53.6338188  56.3067887  25.5189944  57.3186680  67.1877479
  25.2135761  58.0514736  67.5490795  24.7996159  56.9124609  66.9070265
  25.3677286  57.3668413  67.1990616  16.5273413  58.8010175  63.5185707
  16.6012421  58.6385347  64.3727557  17.3442919  58.9900364  63.2746189
  16.6589772  58.8046917  63.6083733  31.2191736  53.9579680  66.5145823
  31.1516236  53.9775639  65.6448410  31.2047398  54.8010008  66.7401494
  31.2070492  54.0853415  66.4198300  10.2879170  59.1468038  60.5480151
   9.4617287  59.3929775  60.4214430  10.3491161  59.0680119  61.4142209
  10.1753337  59.1712987  60.6569095  12.5055193  45.2136979  61.5075591
  11.6377619  45.2859578  61.5733200  12.7930398  46.0159058  61.6963566
  12.4194941  45.3431126  61.5450358  21.6288082  45.3614838  69.8386913
  22.3741674  45.1724648  69.4250338  21.2125387  45.8873076  69.2800769
  21.6773056  45.4116983  69.6951486  15.0677999  61.7644918  58.2499181
  15.3576297  61.3733899  57.5258407  15.7981480  61.9461623  58.6904456
  15.2184883  61.7338732  58.2081988  29.0050353  52.7324067  64.7892418
  29.5558275  52.0992136  65.0289510  28.9894468  53.2639459  65.4807922
  29.0835549  52.7173015  64.9271276  15.6572744  56.5662664  69.3352311
  15.1584438  57.2778432  69.4137200  16.4672968  56.8863330  69.2970474
  15.7028851  56.7189512  69.3408880  13.0083914  63.7412300  61.3159330
  12.7884210  63.4509655  62.1085997  12.7878436  63.0827255  60.7877243
  12.9431508  63.6012009  61.3548239  11.9200861  55.8285617  63.5815032
  11.6314110  55.2023088  64.1160759  12.7884210  55.7705904  63.6479713
  12.0061113  55.7273161  63.6705987  22.7078759  50.9720400  63.8997014
  22.3643525  50.2510735  64.2504264  22.8071802  50.7634251  63.0575372
  22.6720802  50.8344603  63.8268694  15.1751870  65.1141690  60.0990023
  15.8275928  64.5818133  60.3281049  14.4777479  64.7610343  60.4857897
  15.1682588  64.9831213  60.1902191  12.1233135  57.4680868  59.5057397
  12.8779103  57.8493907  59.7192860  11.5303747  57.9192012  59.9604094
  12.1469848  57.5909695  59.6040276  23.1691788  57.4346104  59.4421002
  23.7349821  58.0939314  59.3579545  22.5219692  57.7795802  59.9137404
  23.1570545  57.5828046  59.4993759  13.4431361  58.6389429  64.8797513
  12.9212115  58.7789721  65.5649377  13.8305382  57.8800094  65.0699630
  13.4235062  58.5474953  65.0098589  10.4322545  48.6895238  58.9492467
  10.1447341  48.3196508  58.2124415  11.1193014  49.1590093  58.6876172
  10.4911443  48.7042207  58.8007543  19.6398366  60.3784888  58.8658081
  19.3985042  59.6452749  58.4585146  19.8199699  60.9271745  58.2124415
  19.6305990  60.3507280  58.7088304  14.8697687  55.6693448  60.2779004
  14.6740470  56.2768183  59.6839307  15.0932033  54.9761392  59.7970678
  14.8732328  55.6570974  60.1195084  13.2676217  52.5548186  60.3959872
  13.9898869  52.7189344  59.9363678  12.7884210  53.2757851  60.2899212
  13.3039948  52.6846416  60.3125486  21.2269725  48.8911985  65.7756557
  20.3880825  48.9173264  65.5394820  21.2974092  49.5382720  66.3561903
  21.1138118  48.9908111  65.8265674  19.6739003  45.7897362  60.5084173
  20.3765356  45.5905110  60.0304131  19.4083192  45.0173304  60.8153016
  19.7385635  45.6460328  60.4829614  25.1027248  54.0979972  63.0617799
  25.0161223  54.2535398  63.9152577  24.6477728  54.7418047  62.6877204
  25.0230505  54.2155727  63.1324905   8.0050740  49.4676450  59.7977748
   8.1066877  50.2702612  60.1258724   8.8006627  49.2663786  59.5000829
   8.1378646  49.5562349  59.8013104  14.4367559  47.0532647  69.5615053
  14.2450756  47.0687782  70.4114477  15.2866155  47.2496321  69.5381708
  14.5343281  47.0846998  69.6838348   8.8214472  49.5823629  67.5398870
   8.6799964  48.7307569  67.6643378   9.1055036  49.6252289  66.7161076
   8.8422318  49.4623379  67.4366494  18.9753065  51.4190719  61.6843358
  18.7287779  51.3386470  62.5180147  19.3038188  50.6344187  61.4905886
  18.9874308  51.2916984  61.7790881  22.8701113  58.1274078  65.4730139
  22.7315473  58.8255124  65.9778882  22.0901111  57.9722735  65.1166321
  22.7344340  58.2074245  65.4956414  21.2079198  54.4270454  71.7252521
  21.2027237  53.5550270  71.7294948  21.9140192  54.6258623  71.2521977
  21.3124202  54.3274328  71.6559556  14.9350092  54.1547437  71.0966341
  15.0793468  54.7348646  70.4609451  15.2825740  54.5323734  71.8016196
  15.0077553  54.2968141  71.1065336  17.1070009  53.3537606  68.8791473
  16.3593323  53.5468620  68.4739751  17.2611534  52.5282825  68.6415594
  17.0192437  53.2602717  68.7836879  24.3654486  57.4852332  56.2346639
  23.9861295  56.6989470  56.2275928  23.7020732  58.0339189  56.0918283
  24.2112961  57.4497156  56.2127435  17.3471786  47.2488157  69.7686877
  17.8044400  47.9812131  69.8959669  17.4228115  46.8254622  70.5274132
  17.4262756  47.2945395  69.8987953  21.8199112  40.4278032  63.6380719
  21.9382680  40.8854495  62.9048022  21.6461288  39.6223293  63.3516937
  21.8118283  40.3771804  63.4881653  17.1901394  61.0365851  60.0735465
  17.9551285  60.7675495  59.7518129  17.0879484  60.5515861  60.7905528
  17.2882890  60.9255416  60.1315292  15.2254164  49.2390260  66.6128701
  14.4350239  49.0581721  66.9346036  15.6214787  48.4617213  66.5958995
  15.1671040  49.0977721  66.6581249  19.7120055  58.0678035  52.0535414
  20.4793040  58.1278160  51.6441266  19.2651364  57.4958476  51.5691733
  19.7593482  57.9914610  51.9213124  20.6097850  56.8732691  64.3388146
  19.9342852  56.6417923  64.8401533  20.6190227  56.2653874  63.7130251
  20.5116355  56.7491616  64.3204299  17.7391994  51.7150520  71.0952199
  17.6751136  52.5760476  70.9672336  17.8789182  51.3982513  70.2947751
  17.7507464  51.7950686  70.9580412  22.6114585  59.7297823  56.5698324
  22.6934422  60.5364809  56.2459775  23.0964327  59.7493782  57.2939098
  22.6951743  59.8518485  56.6285223  16.4211088  54.4082659  65.2368402
  15.9973337  54.6087158  64.5007421  16.2455943  53.5611507  65.3492702
  16.3321969  54.3131440  65.1442092  11.7093533  54.9034710  60.6696375
  11.8658152  54.8381513  61.5252367  12.0494126  55.6783263  60.4575055
  11.7826768  55.0083908  60.7650969  18.2472678  54.2792594  59.5389738
  18.7888223  53.7762975  60.0028359  18.5619237  54.2257789  58.7279223
  18.3737075  54.1972015  59.4873550  16.4159128  59.6709945  56.8229766
  16.4851948  58.8124484  56.9622767  17.1947583  59.8881826  56.4948791
  16.5411978  59.5762809  56.7946923  19.3961947  49.1728898  69.5912039
  19.6103917  48.5339813  69.0375393  18.7795846  49.6174722  69.1619900
  19.3367276  49.1439042  69.4462470  20.8066615  62.0947647  61.0366259
  20.4146407  61.7914362  60.3189126  20.9619687  62.9316737  60.8471213
  20.7720205  62.1731483  60.9022757   8.2827795  52.0869661  60.9857142
   8.6626760  52.5054206  60.3217409   7.7083160  52.6683116  61.2925985
   8.2539120  52.2347520  60.9333883  21.5601035  50.7817964  70.5295346
  20.7477717  50.4743854  70.6108518  22.0190970  50.3016964  71.0938058
  21.5081420  50.6654456  70.6249940  20.9706290  58.6597636  60.9772290
  20.6120945  58.8312278  61.7536322  20.4845001  59.1210841  60.4200288
  20.8464987  58.7536607  61.0097559  18.7876676  42.2828834  64.5799381
  17.9170234  42.2567555  64.5332691  19.0417017  42.1106026  63.7625227
  18.6970236  42.2538978  64.4519518  15.7594655  54.3396801  53.5172524
  16.0487180  55.1161683  53.7916099  15.8466454  53.8285532  54.2187024
  15.8148912  54.3788719  53.6615022  18.6554543  52.1878035  75.3124048
  19.1254174  52.8120151  75.6991922  18.7016423  51.5195011  75.8717263
  18.7322419  52.1812715  75.4524119  15.8125816  44.2935063  66.0372852
  15.2964305  43.6015254  66.1624431  15.2519745  44.9605840  65.9835450
  15.6532330  44.2898320  66.0478918  17.8818050  44.8328023  67.8665704
  17.4949803  44.8577054  68.6479234  17.3950987  44.2669701  67.4140221
  17.7530559  44.7523773  67.9153608  22.1311029  59.5501532  71.9239491
  22.7690750  59.0561727  71.5901947  21.4885121  59.4778932  71.3391718
  22.1305256  59.4660540  71.7881846  23.8568029  51.3990677  66.4905406
  23.4295637  51.3117026  65.7353506  23.2194082  51.5068453  67.0760251
  23.6997637  51.4023337  66.4650848  17.5475192  41.7195008  70.1575964
  18.1768310  42.2555308  69.8797035  17.7161054  41.6272367  71.0089530
  17.6652986  41.7856370  70.2424492  17.3489106  46.5066203  72.4302376
  18.1762536  46.2351352  72.4860990  17.3696952  47.3027044  72.7866194
  17.4741957  46.5845957  72.4917559  22.1865286  60.2421340  68.5644848
  22.9757664  59.8910405  68.6846929  22.3608884  61.0557728  68.3021481
  22.3285568  60.3107197  68.5432716  11.9258596  53.6530066  65.6172636
  11.0846603  53.5533940  65.8251530  12.1348604  54.4225546  65.9686957
  11.8323289  53.7522109  65.6999951   9.4034163  51.2749602  63.4457387
   9.0090861  51.3492614  62.6707497   8.8474280  51.6607549  63.9965749
   9.2636976  51.3431377  63.4125047  21.0399110  44.2530897  63.1261266
  21.2448703  44.1853204  63.9718263  20.7125534  45.0589718  63.0582443
  21.0214358  44.3616837  63.2420921  15.7375261  51.5811465  64.8670234
  15.4338399  51.0267453  65.4680642  15.0354682  51.7603675  64.3798268
  15.5891471  51.5256247  64.8839940  14.7941358  48.8911985  59.4314936
  15.0701093  48.1730897  59.0192503  15.3940028  49.4896904  59.2236042
  14.9234623  48.8732355  59.3395697  24.2932798  44.8062661  62.6064031
  23.6807111  45.2933063  62.9917763  24.3896973  44.1306152  63.1501683
  24.2170695  44.7780969  62.7442890  18.2951879  46.5625502  57.7061531
  18.7495625  46.7336062  58.4309375  18.7691924  45.9493613  57.3059307
  18.4320199  46.4976387  57.7535292  11.8167404  56.0473828  67.0364269
  11.2255337  56.6883326  67.0067284  12.5788428  56.4711445  67.0095569
  11.8415665  56.2049666  67.0279417  12.2128027  47.2075826  67.7032287
  12.6729509  47.2814755  68.4407411  12.2584134  48.0057080  67.3532108
  12.2878582  47.3369973  67.7605043  13.8611377  47.8742520  72.2704314
  13.4696942  47.2275868  72.7060092  14.0297239  48.4653956  72.8898569
  13.8282287  47.8656788  72.4267020  27.9357826  55.8779598  68.0341548
  27.9940949  56.3266246  68.7801524  27.3024293  56.2878410  67.5971628
  27.8509121  56.0053332  68.0794096  21.5756920  61.4983139  64.4696294
  21.3776609  61.9873954  63.7752505  20.9544631  61.7024381  65.0480427
  21.4544485  61.5999678  64.4519517  15.6364899  53.2668036  58.8106538
  16.3806944  53.6542313  59.0489488  15.7825595  52.4225462  58.9747026
  15.7675484  53.1998509  58.8700508  17.5544474  45.0618295  63.8438400
  16.7080519  45.2341103  63.7179749  17.5515607  44.2567639  64.1804228
  17.4291624  44.9679324  63.8749526  18.6242775  48.8393510  64.7100457
  18.1502729  48.3135272  65.2205768  18.9960910  48.2922982  64.1415319
  18.6092664  48.6809506  64.7015605  24.8879505  53.8995885  66.1207238
  24.6477728  53.0602300  66.1249664  25.3671512  53.9796052  66.8448011
  24.9231689  53.7877285  66.2282040  20.5526274  49.7330064  57.7726211
  20.0249293  49.8158808  57.0831920  21.0121982  50.4747936  57.7690856
  20.5428125  49.8550727  57.6700906  26.8884692  50.6797342  64.0736497
  26.6494462  50.6393177  63.2357282  27.0518593  51.5268494  64.2002218
  26.8774996  50.7989427  63.9689979  23.4930722  55.0647292  70.0041542
  24.2164921  54.6119818  69.8252562  23.2280685  55.3451957  69.2213870
  23.5611996  55.0398260  69.8620258  12.3617591  49.6607465  66.7394421
  11.7370661  49.6725857  66.1320374  12.0263186  50.1367640  67.3885662
  12.2203083  49.7325982  66.7450990  20.1063357  58.3033628  56.9035868
  20.8297556  58.7691741  56.7600442  19.6663948  58.3707237  56.1533465
  20.1479049  58.3817464  56.7720650  19.2749512  55.1631170  68.1536557
  18.6606505  54.6189220  68.4485193  19.7916797  54.6495406  67.6742373
  19.2605174  55.0067579  68.1260786  18.5145809  56.2335440  65.8880856
  18.0873417  55.6085159  65.4546291  18.5070753  55.9510362  66.7139863
  18.4504950  56.0988221  65.9460683  11.6308336  51.2700613  68.9569290
  11.7901823  50.5143937  69.3621012  11.4501230  51.8191553  69.6110028
  11.6273695  51.2394427  69.1131996  19.5728639  43.4361849  69.5120079
  19.0769200  43.6325523  68.8211646  20.3297701  43.8354517  69.3408881
  19.6115464  43.5239582  69.3840216  16.8431519  47.1104195  66.1023390
  16.8674006  46.5764307  65.4136170  17.0942992  46.6021503  66.7648980
  16.8841437  46.9565099  66.0988035  13.1232841  45.8375013  65.4829134
  13.1631213  46.3384219  66.1963842  12.2982506  45.9285406  65.2135057
  13.0072367  45.9256829  65.5479672  14.5447204  52.3535523  67.7803033
  13.7139134  52.5209341  67.5738281  14.4898721  51.9771473  68.5651919
  14.4136619  52.3225254  67.8651561  12.3530988  45.8444416  73.4159444
  12.9783691  45.3006548  73.6888876  11.8981467  45.3639333  72.8467234
  12.3779248  45.6933897  73.3721038  12.9183248  50.6291114  58.3093151
  13.0586209  51.1263578  59.0121792  13.4165781  49.9277409  58.4507365
  13.0124329  50.5993093  58.4344730  12.9483471  51.4958225  55.6385728
  13.5828550  52.0918650  55.5735190  13.0309081  51.1961683  56.4531598
  13.0540021  51.5399133  55.7488814  25.9266036  54.0273703  68.5072092
  26.5183877  54.6670953  68.5390290  26.3625031  53.3296739  68.7964159
  26.0784468  54.0192053  68.5552925  14.5262453  47.4272201  55.6131170
  14.8478294  46.9475283  54.9590432  14.7889397  48.2371847  55.4221981
  14.6128479  47.4762099  55.4886662  17.7559426  58.4491075  69.1329986
  17.2484517  59.0026922  69.5770616  17.4586072  58.5099365  68.3148760
  17.6364311  58.5397386  69.0778443  19.9221608  46.8144395  67.9754649
  20.3476680  46.3616921  67.3638175  19.3078601  46.2604465  68.2519436
  19.8950254  46.6658371  67.9259674   9.4536458  53.6926066  58.9075274
   9.9628688  54.2890573  59.2886579   9.9270731  53.4252040  58.2251693
   9.5979834  53.7411881  58.8629797  20.3667206  62.3654333  57.0633929
  19.6496516  62.1915195  56.5981167  21.0173944  62.1306905  56.5309415
  20.3569057  62.3050125  56.9163147  18.3615831  43.2859494  61.3845226
  17.7184149  43.1357141  61.9530364  18.0215238  43.0401840  60.6194330
  18.2160909  43.2271617  61.3548241  22.9515178  51.2418921  60.8075234
  22.2806368  51.7848623  60.6788300  23.6454928  51.7113777  60.5656929
  22.9544045  51.3917192  60.7530762  17.0001911  63.3815633  66.0386993
  16.7767566  62.6234462  66.4071019  16.5111755  63.4113654  65.3167432
  16.8945360  63.2737858  65.9863734  23.1143305  47.6974805  63.7165608
  23.4670915  47.2704528  64.3911406  22.2558107  47.6125648  63.8466684
  23.0392750  47.6219545  63.8360618  11.8126990  50.3282325  61.7748454
  11.0938979  50.7446457  62.0421318  12.1839352  50.8936563  61.2240092
  11.7618922  50.4731606  61.7331261  21.1126571  50.9610173  67.6650450
  21.0924498  50.7793469  68.5185229  21.1605772  51.8322192  67.6410034
  21.1161212  51.0626712  67.7873745  15.6480368  63.6016091  63.4924077
  15.2340767  62.9390222  63.1027919  16.3327743  63.7493950  62.9719772
  15.6878740  63.5256749  63.3580575  19.0145662  62.7606177  64.2447694
  18.6161946  62.8708447  63.4768514  18.3996882  62.9688243  64.8274254
  18.8644552  62.8079745  64.2178993  17.5873564  49.3680324  57.1121834
  16.9938404  49.6897321  56.5606401  17.6248842  48.5221420  56.9042940
  17.5047954  49.2904653  57.0004605  24.5467365  42.8193217  64.6449920
  24.0398230  42.1122356  64.5771098  25.3434799  42.4886406  64.7750997
  24.5894604  42.6666368  64.6548915  20.4631381  49.3259829  60.5423584
  20.2345074  49.3492530  59.7001942  20.7229457  48.5017296  60.6618594
  20.4677569  49.2075909  60.4348782  14.7450610  51.1794302  70.1448684
  14.2329513  50.5715485  70.5033715  14.5730106  51.8950895  70.6122660
  14.6440247  51.1957601  70.2664908  13.5176144  47.8636375  61.8377780
  13.9933510  48.2253455  61.2027961  13.0164743  48.5192843  62.1177922
  13.5141503  48.0130564  61.7854521  26.7487505  57.3358143  57.6290785
  27.1321111  58.0849499  57.8588882  25.9531618  57.5823963  57.3702774
  26.6881287  57.4827837  57.6248358  18.6219680  49.1018547  72.5850940
  19.1791110  48.8732356  71.9529405  18.2980745  49.8624212  72.3086152
  18.6566090  49.1802383  72.4507437  16.3402797  52.1886200  73.5502947
  17.0914124  52.5037877  73.8642501  16.5325374  51.9865371  72.7236869
  16.4794211  52.2053582  73.4746343  15.5602797  50.0077575  55.2051164
  15.9401762  50.0257204  54.4202278  14.8195393  50.4531564  55.0842011
  15.5071634  50.0759350  55.0714732  23.1888087  48.3159766  60.7926742
  23.1882314  48.1608423  61.6511019  22.9844267  49.1622753  60.7368128
  23.1587865  48.4180387  60.9114682  20.9128939  52.9957268  64.4462949
  21.4082605  52.2780263  64.4066969  20.1028715  52.6928066  64.3317436
  20.8672833  52.8454914  64.4236675  16.3587551  56.8455081  56.5959954
  15.5498874  56.5221755  56.5493263  16.8662460  56.1388303  56.5288202
  16.3137218  56.6936398  56.5790248   6.9877828  54.2727274  62.3207318
   6.1223348  54.2612965  62.2090089   7.0876644  54.0857497  63.1678457
   6.8751995  54.2433336  62.4296262  22.9780758  55.7460956  67.1340078
  23.4035830  55.2235377  66.5810503  22.6137678  56.3441793  66.6128701
  22.9867361  55.7571183  66.9749088  19.5659358  59.4595220  63.4641235
  20.0370536  60.1735482  63.6331221  19.9019536  58.8593970  64.0001105
  19.6854473  59.4766684  63.5673611  16.4828853  44.2322690  70.4199330
  16.6156758  43.4353684  70.7480306  16.8674005  44.7589093  70.9997606
  16.5585181  44.1922607  70.5542833  20.2033304  59.2513154  70.2268928
  19.6554250  58.6271038  69.9588993  20.6646333  59.4407426  69.5113007
  20.1900513  59.1872204  70.0819359  19.5561208  41.1553016  67.0180423
  18.7507171  41.0450746  67.3348262  19.4267943  41.2565472  66.1610289
  19.4181341  41.1536687  66.9388464  23.0127168  47.3198508  67.6120120
  22.4290157  47.8207715  67.1997688  23.3331462  46.8128065  66.9784444
  22.9740344  47.3190343  67.4578627  15.5521967  46.2339103  57.8878795
  16.3737662  46.4037416  57.6460490  15.0891618  46.3886364  57.1645093
  15.6053130  46.2820836  57.7450439  14.1417299  44.2281865  68.6677224
  14.6861712  43.8872992  69.2581566  14.1954235  45.0867327  68.8098508
  14.2306419  44.3037125  68.7759097  19.7691630  60.2564227  66.7578269
  20.5890004  60.1127193  67.0194564  19.4885708  60.8810425  67.2994707
  19.8488374  60.3274579  66.8766209  36.2405281  67.9129078  59.7221145
  36.2099285  68.7673715  59.8939415  36.8386629  67.6124371  60.2807289
  36.3242439  67.9945575  59.8295948  29.4404965  67.0004729  64.4774076
  28.5842861  67.1613228  64.5283193  29.4872619  66.1296793  64.4979137
  29.3204077  66.8955531  64.4880142  32.2856786  69.0596773  67.1205728
  32.8312747  69.7381860  67.1799697  32.2273663  68.9184234  66.2607309
  32.3572701  69.1388775  67.0017788  34.0621855  70.4881380  57.9939455
  33.9461381  71.2389066  58.4231593  34.8577742  70.2305334  58.2435542
  34.1626445  70.5616227  58.0943547  20.8985993  64.7391857  65.0310721
  20.2791025  64.1484504  64.8620736  20.7969857  65.3303292  64.3975045
  20.7923669  64.7395939  64.9115711  27.9953889  66.4791398  59.3643184
  28.6934053  66.6579526  59.8564648  28.3106221  65.9561738  58.7413574
  28.1449226  66.4285170  59.3445195  20.6255126  68.2844138  67.2754290
  20.5013823  68.8706584  67.9104109  21.2773411  67.7904334  67.5766565
  20.7028775  68.2982943  67.4140220  28.1841824  72.8661843  59.3522976
  28.6235460  72.2578944  59.7977749  28.0346487  72.4869217  58.5808441
  28.2263290  72.7200314  59.3042143  25.6513467  71.4605855  66.5541801
  26.2962470  70.9678298  66.2352750  25.8915244  71.6030642  67.3807880
  25.7824052  71.4083297  66.6291335  28.1899558  74.3060761  66.2048694
  28.4722801  73.5112167  65.9835450  28.9185719  74.7841348  66.2253755
  28.3389122  74.2595358  66.1751709  26.1680752  61.8483795  63.4464459
  25.8384082  62.2994939  62.7768158  25.4925754  61.7699958  63.9937466
  26.0191189  61.9034930  63.4287682  31.7851161  71.2189025  56.3053745
  31.7002456  72.0749991  56.4503314  32.2735544  70.9433349  56.9735904
  31.8440058  71.3046346  56.4255827  33.3757160  57.8369318  61.6914070
  33.0610601  58.5272796  62.1234492  32.8584102  57.7814100  60.9899570
  33.2521631  57.9304206  61.6511019  32.7169594  67.8373819  57.8051480
  32.1881065  68.0533452  58.4648787  33.2394614  68.5309957  57.7252450
  32.7158047  67.9716956  57.8907079  38.1717647  73.4120123  63.1784525
  37.3415350  73.6230767  63.3417941  38.1226899  72.5857178  62.9026808
  38.0424382  73.3209730  63.1621890  24.6069202  71.7337036  56.6058948
  24.0226417  72.2387067  57.0124812  24.2039297  71.5079422  55.8655540
  24.4608506  71.7745284  56.5563973  29.0646416  67.9802688  55.0827869
  29.3042420  68.1880671  54.2703212  29.3862257  67.1760196  55.1916813
  29.1483574  67.8916789  54.9788422  24.3736706  59.9096083  58.9287407
  25.1282674  60.2774400  58.6904457  24.1964241  60.2835638  59.6966586
  24.4591185  60.0194271  59.0072295  37.6671605  66.0590524  66.9734946
  36.8300026  66.1292711  67.2082541  37.6359836  66.0615019  66.1009248
  37.5389888  66.0700751  66.8794494  22.7293771  62.3166402  55.6265520
  22.5469344  62.5338283  54.8006513  23.5919384  62.4305415  55.6824134
  22.8298361  62.3656300  55.5120007  28.4093490  59.3192813  58.6614544
  29.1379651  59.1408768  58.2152700  28.4988383  60.1610893  58.8721722
  28.5300152  59.4176691  58.6268061  32.3901791  70.2546200  62.5646838
  33.1459306  70.6877715  62.6035746  32.4964115  69.6050970  63.1381474
  32.5171961  70.2223684  62.6544863  35.4281962  74.0819478  63.3149241
  34.9917194  74.0856220  64.0708212  35.0944877  74.7624977  62.8828818
  35.3144582  74.1831933  63.3630073  35.3479445  61.1233305  65.5578668
  35.9905353  61.1931410  66.1440584  35.6002466  60.4562528  65.0558210
  35.4801577  61.0359654  65.5705948  22.2755798  65.5940575  54.1387993
  21.5613975  65.3078755  54.5510425  22.7599767  65.9337201  54.7794380
  22.2415161  65.6022225  54.2943628  23.1196657  64.3333869  70.1703242
  22.4268454  63.8630849  70.4163974  23.7356985  64.1072173  70.7444950
  23.1081187  64.2301001  70.2912395  38.5626308  70.8000398  62.2068878
  39.2242742  70.2391066  62.1064786  37.9217720  70.3052428  62.5321569
  38.5655176  70.6436807  62.2401218  29.4503116  74.0970529  54.5149801
  29.8654264  73.7655553  53.8234297  28.6195046  73.8639431  54.3869938
  29.3891125  74.0141785  54.3940648  34.8491139  71.8165780  61.9480867
  35.0846728  71.9610979  61.1207717  34.9980703  72.5808188  62.3412380
  34.9056942  71.9504834  61.8844470  36.6781596  70.6567446  59.7850470
  37.0089813  71.1895086  59.1790565  37.2514684  70.7106334  60.4412421
  36.8115275  70.7437015  59.7928252  31.8913485  68.5032349  60.4674050
  31.9860339  69.2421643  60.9213676  31.2672328  68.0749824  60.9008615
  31.8122515  68.5493669  60.5982198  18.7462375  68.4607771  64.9547046
  19.3235878  68.3244221  65.5939291  18.0476437  68.0043555  65.2092630
  18.7283396  68.3730037  65.0869335  32.1436506  70.3481088  53.7011002
  32.0616669  70.4183276  54.5665989  32.7816227  70.9110832  53.5094743
  32.2256343  70.4420059  53.8000952  25.5029677  70.1141826  63.1685529
  25.2448922  69.2813561  63.1416828  25.5578160  70.3399439  62.3278029
  25.4729455  70.0239598  63.0405666  30.5830727  62.2170277  63.2689621
  29.8787054  61.7279463  63.4273541  30.6315702  62.2292751  62.3978066
  30.4860779  62.1459925  63.1628961  24.4764389  67.6679589  63.6550424
  23.9013981  67.8271757  64.2914385  24.1000066  67.0314998  63.1918874
  24.3367202  67.5977402  63.6804982  28.1437678  66.1402938  68.5142802
  27.7552111  65.7157156  67.8594993  27.4792376  66.3885088  69.0219829
  27.9884606  66.1141659  68.4930670  37.7860947  65.8977943  61.2890632
  37.5297512  65.0857884  61.0988515  38.6290261  65.9055510  61.0620819
  37.8726973  65.7789940  61.2275449  14.2221208  67.3119664  61.6694864
  14.3081460  66.9351532  62.4508394  14.8497006  66.9380109  61.1914822
  14.3277759  67.2005146  61.7140341  31.9664040  59.8377567  66.0266786
  32.3474551  59.1555738  66.4134660  31.1627324  59.5487169  65.8442451
  31.9040501  59.6944615  66.0570842  29.2476616  70.3701543  56.7119609
  30.0617255  70.6616435  56.6002380  29.1835758  69.7161405  56.1377902
  29.3579355  70.3166737  56.6108446  25.1184525  73.8423060  61.8391921
  25.7558471  73.6034808  62.3843714  25.5439596  74.0460219  61.1045082
  25.2760691  73.8374070  61.8109078  25.7587340  69.0625350  56.1766810
  26.1432492  68.8433057  56.9283356  25.5098960  69.8888295  56.3067887
  25.7789412  69.1523496  56.3067887  27.5005997  74.3195483  63.5185707
  27.5745005  74.1570655  64.3727557  28.3175503  74.5085672  63.2746189
  27.6322355  74.3232225  63.6083733  23.4787777  60.7322287  61.5075591
  22.6110202  60.8044886  61.5733200  23.7662981  61.5344366  61.6963566
  23.3927525  60.8616434  61.5450358  32.6020666  60.8800146  69.8386913
  33.3474258  60.6909956  69.4250338  32.1857970  61.4058384  69.2800769
  32.6505640  60.9302291  69.6951486  39.9782937  68.2509374  64.7892418
  40.5290858  67.6177444  65.0289510  39.9627052  68.7824767  65.4807922
  40.0568133  68.2358323  64.9271276  26.6305327  72.0847972  69.3352311
  26.1317021  72.7963739  69.4137200  27.4405552  72.4048638  69.2970474
  26.6761434  72.2374820  69.3408880  22.8933445  71.3470925  63.5815032
  22.6046694  70.7208396  64.1160759  23.7616793  71.2891212  63.6479713
  22.9793697  71.2458469  63.6705987  33.6811343  66.4905708  63.8997014
  33.3376109  65.7696043  64.2504264  33.7804385  66.2819559  63.0575372
  33.6453386  66.3529911  63.8268694  34.1424372  72.9531412  59.4421002
  34.7082405  73.6124622  59.3579545  33.4952275  73.2981110  59.9137404
  34.1303128  73.1013354  59.4993759  21.4055129  64.2080546  58.9492467
  21.1179925  63.8381816  58.2124415  22.0925597  64.6775401  58.6876172
  21.4644026  64.2227515  58.8007543  25.8430271  71.1878756  60.2779004
  25.6473053  71.7953491  59.6839307  26.0664616  70.4946700  59.7970678
  25.8464912  71.1756282  60.1195084  24.2408801  68.0733494  60.3959872
  24.9631453  68.2374652  59.9363678  23.7616793  68.7943159  60.2899212
  24.2772531  68.2031724  60.3125486  32.2002308  64.4097293  65.7756557
  31.3613409  64.4358572  65.5394820  32.2706675  65.0568028  66.3561903
  32.0870702  64.5093419  65.8265674  30.6471586  61.3082670  60.5084173
  31.3497939  61.1090418  60.0304131  30.3815775  60.5358612  60.8153016
  30.7118219  61.1645636  60.4829614  36.0759832  69.6165280  63.0617799
  35.9893807  69.7720706  63.9152577  35.6210312  70.2603355  62.6877204
  35.9963089  69.7341035  63.1324905  18.9783324  64.9861758  59.7977748
  19.0799460  65.7887920  60.1258724  19.7739210  64.7849094  59.5000829
  19.1111229  65.0747657  59.8013104  25.4100143  62.5717955  69.5615053
  25.2183340  62.5873090  70.4114477  26.2598739  62.7681629  69.5381708
  25.5075865  62.6032306  69.6838348  19.7947056  65.1008937  67.5398870
  19.6532548  64.2492877  67.6643378  20.0787619  65.1437597  66.7161076
  19.8154902  64.9808687  67.4366494  29.9485648  66.9376027  61.6843358
  29.7020362  66.8571778  62.5180147  30.2770771  66.1529495  61.4905886
  29.9606892  66.8102292  61.7790881  28.0802593  68.8722914  68.8791473
  27.3325907  69.0653928  68.4739751  28.2344118  68.0468133  68.6415594
  27.9925020  68.7788025  68.7836879  35.3387070  73.0037640  56.2346639
  34.9593878  72.2174778  56.2275928  34.6753315  73.5524497  56.0918283
  35.1845545  72.9682464  56.2127435  28.3204370  62.7673464  69.7686877
  28.7776984  63.4997439  69.8959669  28.3960699  62.3439930  70.5274132
  28.3995340  62.8130703  69.8987953  32.7931696  55.9463340  63.6380719
  32.9115264  56.4039803  62.9048022  32.6193871  55.1408601  63.3516937
  32.7850867  55.8957112  63.4881653  26.1986748  64.7575568  66.6128701
  25.4082822  64.5767028  66.9346036  26.5947371  63.9802521  66.5958995
  26.1403624  64.6163029  66.6581249  30.6852638  73.5863343  52.0535414
  31.4525624  73.6463468  51.6441266  30.2383947  73.0143784  51.5691733
  30.7326066  73.5099918  51.9213124  31.5830434  72.3917999  64.3388146
  30.9075436  72.1603231  64.8401533  31.5922810  71.7839181  63.7130251
  31.4848939  72.2676924  64.3204299  28.7124578  67.2335828  71.0952199
  28.6483719  68.0945784  70.9672336  28.8521766  66.9167821  70.2947751
  28.7240048  67.3135994  70.9580412  33.5847169  75.2483131  56.5698324
  33.6667006  76.0550117  56.2459775  34.0696911  75.2679090  57.2939098
  33.6684326  75.3703793  56.6285223  27.3943672  69.9267967  65.2368402
  26.9705921  70.1272466  64.5007421  27.2188527  69.0796815  65.3492702
  27.3054552  69.8316748  65.1442092  22.6826117  70.4220018  60.6696375
  22.8390736  70.3566821  61.5252367  23.0226710  71.1968571  60.4575055
  22.7559352  70.5269216  60.7650969  29.2205261  69.7977902  59.5389738
  29.7620807  69.2948283  60.0028359  29.5351820  69.7443097  58.7279223
  29.3469659  69.7157323  59.4873550  30.3694531  64.6914206  69.5912039
  30.5836500  64.0525121  69.0375393  29.7528430  65.1360030  69.1619900
  30.3099860  64.6624350  69.4462470  19.2560378  67.6054969  60.9857142
  19.6359343  68.0239514  60.3217409  18.6815743  68.1868424  61.2925985
  19.2271703  67.7532828  60.9333883  32.5333619  66.3003272  70.5295346
  31.7210301  65.9929162  70.6108518  32.9923553  65.8202272  71.0938058
  32.4814004  66.1839764  70.6249940  31.9438873  74.1782944  60.9772290
  31.5853528  74.3497586  61.7536322  31.4577584  74.6396149  60.4200288
  31.8197570  74.2721915  61.0097559  29.7609259  57.8014142  64.5799381
  28.8902817  57.7752863  64.5332691  30.0149601  57.6291334  63.7625227
  29.6702820  57.7724286  64.4519518  26.7327239  69.8582109  53.5172524
  27.0219764  70.6346991  53.7916099  26.8199038  69.3470840  54.2187024
  26.7881495  69.8974027  53.6615022  26.7858400  59.8120370  66.0372852
  26.2696889  59.1200562  66.1624431  26.2252329  60.4791148  65.9835450
  26.6264913  59.8083628  66.0478918  28.8550633  60.3513330  67.8665704
  28.4682387  60.3762362  68.6479234  28.3683571  59.7855009  67.4140221
  28.7263142  60.2709081  67.9153608  34.8300613  66.9175985  66.4905406
  34.4028221  66.8302334  65.7353506  34.1926666  67.0253761  67.0760251
  34.6730220  66.9208645  66.4650848  28.3221690  62.0251511  72.4302376
  29.1495119  61.7536660  72.4860990  28.3429536  62.8212352  72.7866194
  28.4474540  62.1031265  72.4917559  22.8991180  69.1715373  65.6172636
  22.0579186  69.0719248  65.8251530  23.1081188  69.9410854  65.9686957
  22.8055872  69.2707417  65.6999951  20.3766747  66.7934910  63.4457387
  19.9823445  66.8677922  62.6707497  19.8206864  67.1792857  63.9965749
  20.2369559  66.8616685  63.4125047  32.0131694  59.7716204  63.1261266
  32.2181287  59.7038512  63.9718263  31.6858118  60.5775026  63.0582443
  31.9946942  59.8802145  63.2420921  26.7107845  67.0996773  64.8670234
  26.4070982  66.5452761  65.4680642  26.0087265  67.2788983  64.3798268
  26.5624055  67.0441555  64.8839940  25.7673942  64.4097292  59.4314936
  26.0433676  63.6916205  59.0192503  26.3672611  65.0082212  59.2236042
  25.8967206  64.3917663  59.3395697  35.2665381  60.3247969  62.6064031
  34.6539695  60.8118371  62.9917763  35.3629556  59.6491460  63.1501683
  35.1903279  60.2966277  62.7442890  29.2684462  62.0810810  57.7061531
  29.7228209  62.2521370  58.4309375  29.7424508  61.4678921  57.3059307
  29.4052782  62.0161695  57.7535292  22.7899988  71.5659136  67.0364269
  22.1987921  72.2068634  67.0067284  23.5521011  71.9896753  67.0095569
  22.8148248  71.7234974  67.0279417  23.1860611  62.7261134  67.7032287
  23.6462092  62.8000063  68.4407411  23.2316717  63.5242388  67.3532108
  23.2611166  62.8555281  67.7605043  24.8343960  63.3927828  72.2704314
  24.4429525  62.7461176  72.7060092  25.0029823  63.9839264  72.8898569
  24.8014871  63.3842096  72.4267020  26.6097482  68.7853344  58.8106538
  27.3539527  69.1727620  59.0489488  26.7558178  67.9410770  58.9747026
  26.7408067  68.7183817  58.8700508  28.5277058  60.5803603  63.8438400
  27.6813103  60.7526411  63.7179749  28.5248190  59.7752947  64.1804228
  28.4024208  60.4864632  63.8749526  29.5975358  64.3578817  64.7100457
  29.1235312  63.8320580  65.2205768  29.9693494  63.8108290  64.1415319
  29.5825247  64.1994814  64.7015605  35.8612089  69.4181193  66.1207238
  35.6210312  68.5787608  66.1249664  36.3404096  69.4981360  66.8448011
  35.8964272  69.3062593  66.2282040  31.5258858  65.2515372  57.7726211
  30.9981876  65.3344116  57.0831920  31.9854566  65.9933244  57.7690856
  31.5160708  65.3736034  57.6700906  37.8617276  66.1982650  64.0736497
  37.6227046  66.1578485  63.2357282  38.0251177  67.0453802  64.2002218
  37.8507579  66.3174735  63.9689979  23.3350174  65.1792773  66.7394421
  22.7103244  65.1911165  66.1320374  22.9995769  65.6552948  67.3885662
  23.1935666  65.2511290  66.7450990  23.5191923  63.5217892  52.7967106
  23.1704727  64.1737617  53.2598656  23.0388369  63.5075005  52.0690978
  23.3962167  63.6160945  52.7578198  31.0795940  73.8218936  56.9035868
  31.8030139  74.2877049  56.7600442  30.6396531  73.8892545  56.1533465
  31.1211633  73.9002772  56.7720650  30.2482095  70.6816478  68.1536557
  29.6339089  70.1374528  68.4485193  30.7649380  70.1680714  67.6742373
  30.2337758  70.5252887  68.1260786  29.4878393  71.7520748  65.8880856
  29.0606001  71.1270467  65.4546291  29.4803337  71.4695670  66.7139863
  29.4237534  71.6173529  65.9460683  22.6040920  66.7885921  68.9569290
  22.7634406  66.0329245  69.3621012  22.4233813  67.3376861  69.6110028
  22.6006279  66.7579735  69.1131996  30.5461223  58.9547157  69.5120079
  30.0501784  59.1510831  68.8211646  31.3030285  59.3539825  69.3408881
  30.5848047  59.0424890  69.3840216  27.8164102  62.6289502  66.1023390
  27.8406589  62.0949615  65.4136170  28.0675576  62.1206811  66.7648980
  27.8574021  62.4750406  66.0988035  24.0965424  61.3560321  65.4829134
  24.1363796  61.8569527  66.1963842  23.2715089  61.4470714  65.2135057
  23.9804950  61.4442137  65.5479672  25.5179788  67.8720831  67.7803033
  24.6871718  68.0394649  67.5738281  25.4631305  67.4956781  68.5651919
  25.3869203  67.8410562  67.8651561  23.3263571  61.3629723  73.4159444
  23.9516275  60.8191856  73.6888876  22.8714051  60.8824641  72.8467234
  23.3511832  61.2119205  73.3721038  23.8915832  66.1476422  58.3093151
  24.0318793  66.6448886  59.0121792  24.3898364  65.4462716  58.4507365
  23.9856913  66.1178401  58.4344730  23.9216054  67.0143533  55.6385728
  24.5561134  67.6103958  55.5735190  24.0041665  66.7146991  56.4531598
  24.0272605  67.0584441  55.7488814  25.4995037  62.9457509  55.6131170
  25.8210878  62.4660591  54.9590432  25.7621981  63.7557155  55.4221981
  25.5861062  62.9947406  55.4886662  30.8954192  62.3329703  67.9754649
  31.3209263  61.8802229  67.3638175  30.2811185  61.7789773  68.2519436
  30.8682837  62.1843679  67.9259674  20.4269042  69.2111374  58.9075274
  20.9361271  69.8075881  59.2886579  20.9003314  68.9437348  58.2251693
  20.5712418  69.2597189  58.8629797  29.3348415  58.8044802  61.3845226
  28.6916733  58.6542449  61.9530364  28.9947822  58.5587148  60.6194330
  29.1893492  58.7456925  61.3548241  33.9247761  66.7604229  60.8075234
  33.2538951  67.3033931  60.6788300  34.6187511  67.2299084  60.5656929
  33.9276629  66.9102500  60.7530762  34.0875889  63.2160113  63.7165608
  34.4403499  62.7889836  64.3911406  33.2290690  63.1310956  63.8466684
  34.0125333  63.1404853  63.8360618  22.7859574  65.8467632  61.7748454
  22.0671563  66.2631765  62.0421318  23.1571936  66.4121871  61.2240092
  22.7351505  65.9916914  61.7331261  32.0859155  66.4795481  67.6650450
  32.0657082  66.2978777  68.5185229  32.1338355  67.3507500  67.6410034
  32.0893796  66.5812020  67.7873745  28.5606148  64.8865632  57.1121834
  27.9670987  65.2082629  56.5606401  28.5981426  64.0406728  56.9042940
  28.4780537  64.8089961  57.0004605  35.5199949  58.3378525  64.6449920
  35.0130813  57.6307664  64.5771098  36.3167383  58.0071713  64.7750997
  35.5627188  58.1851676  64.6548915  31.4363965  64.8445137  60.5423584
  31.2077658  64.8677838  59.7001942  31.6962041  64.0202604  60.6618594
  31.4410153  64.7261217  60.4348782  25.7183193  66.6979610  70.1448684
  25.2062096  66.0900793  70.5033715  25.5462689  67.4136202  70.6122660
  25.6172830  66.7142909  70.2664908  24.4908727  63.3821683  61.8377780
  24.9666093  63.7438763  61.2027961  23.9897327  64.0378151  62.1177922
  24.4874086  63.5315872  61.7854521  37.7220089  72.8543451  57.6290785
  38.1053695  73.6034807  57.8588882  36.9264202  73.1009271  57.3702774
  37.6613871  73.0013145  57.6248358  29.5952263  64.6203855  72.5850940
  30.1523694  64.3917664  71.9529405  29.2713328  65.3809520  72.3086152
  29.6298674  64.6987691  72.4507437  26.5335380  65.5262883  55.2051164
  26.9134345  65.5442512  54.4202278  25.7927976  65.9716872  55.0842011
  26.4804218  65.5944658  55.0714732  34.1620671  63.8345074  60.7926742
  34.1614897  63.6793731  61.6511019  33.9576851  64.6808061  60.7368128
  34.1320449  63.9365695  60.9114682  31.8861523  68.5142576  64.4462949
  32.3815188  67.7965571  64.4066969  31.0761299  68.2113374  64.3317436
  31.8405416  68.3640222  64.4236675  27.3320134  72.3640389  56.5959954
  26.5231457  72.0407063  56.5493263  27.8395043  71.6573611  56.5288202
  27.2869801  72.2121706  56.5790248  17.9610412  69.7912582  62.3207318
  17.0955931  69.7798273  62.2090089  18.0609228  69.6042805  63.1678457
  17.8484579  69.7618644  62.4296262  33.9513342  71.2646263  67.1340078
  34.3768413  70.7420685  66.5810503  33.5870262  71.8627101  66.6128701
  33.9599944  71.2756490  66.9749088  30.5391941  74.9780528  63.4641235
  31.0103119  75.6920790  63.6331221  30.8752120  74.3779278  64.0001105
  30.6587056  74.9951992  63.5673611  27.4561436  59.7507998  70.4199330
  27.5889342  58.9538992  70.7480306  27.8406589  60.2774401  70.9997606
  27.5317765  59.7107915  70.5542833  30.5293791  56.6738324  67.0180423
  29.7239755  56.5636054  67.3348262  30.4000527  56.7750780  66.1610289
  30.3913924  56.6721994  66.9388464  33.9859752  62.8383816  67.6120120
  33.4022741  63.3393023  67.1997688  34.3064046  62.3313373  66.9784444
  33.9472927  62.8375651  67.4578627  26.5254551  61.7524411  57.8878795
  27.3470245  61.9222724  57.6460490  26.0624202  61.9071672  57.1645093
  26.5785713  61.8006144  57.7450439  25.1149883  59.7467173  68.6677224
  25.6594296  59.4058300  69.2581566  25.1686819  60.6052635  68.8098508
  25.2039002  59.8222433  68.7759097  35.3469290  75.4281391  58.9287407
  36.1015258  75.7959708  58.6904457  35.1696825  75.8020946  59.6966586
  35.4323768  75.5379579  59.0072295  39.3826074  74.8378121  58.6614544
  40.1112234  74.6594076  58.2152700  39.4720967  75.6796201  58.8721722
  39.5032736  74.9361999  58.6268061  34.4520361  76.2507595  61.5075591
  33.5842786  76.3230194  61.5733200  34.7395565  77.0529673  61.6963566
  34.3660109  76.3801742  61.5450358  41.6204170  76.8267978  60.5084173
  42.3230523  76.6275726  60.0304131  41.3548359  76.0543920  60.8153016
  41.6850802  76.6830944  60.4829614  40.2417046  77.5996118  57.7061531
  40.6960792  77.7706678  58.4309375  40.7157092  76.9864228  57.3059307
  40.3785366  77.5347003  57.7535292  40.3080998  74.3230110  61.3845226
  39.6649316  74.1727757  61.9530364  39.9680405  74.0772455  60.6194330
  40.1626076  74.2642233  61.3548241  37.4987135  77.2709719  57.8878795
  38.3202829  77.4408032  57.6460490  37.0356785  77.4256980  57.1645093
  37.5518297  77.3191452  57.7450439  13.9890937  13.8136594  46.6561192
  13.9584942  14.6681230  46.8279462  14.5872286  13.5131886  47.2147336
  14.0728095  13.8953090  46.7635995   7.1890622  12.9012245  51.4114123
   6.3328518  13.0620743  51.4623240   7.2358276  12.0304309  51.4319184
   7.0689734  12.7963047  51.4220189   1.5731762  22.4374963  47.1751354
   0.8214661  22.0590501  46.9467399   2.0217774  22.4693396  46.4270165
   1.5281429  22.3860570  47.0308856  10.4984339  19.1698770  61.0174579
  11.2051106  18.6750801  61.1461513  10.6872274  19.6107852  60.2877237
  10.6312244  19.1617121  60.9283624   7.0256722  22.8600332  42.6036901
   6.6908090  23.5377254  42.1681124   7.5383592  22.4705643  42.0153773
   7.0522303  22.9024910  42.4523693   6.5661013  24.8114601  48.5448013
   6.9500392  25.3801499  48.0052788   6.5020154  24.0864111  48.0653829
   6.6134440  24.7890064  48.3941876  10.0342443  14.9604289  54.0545774
  10.5798403  15.6389375  54.1139744   9.9759320  14.8191749  53.1947356
  10.1058358  15.0396290  53.9357835   3.1516518  22.4493355  49.4414127
   3.2526881  21.6393709  49.7511255   2.5558263  22.3550301  48.8113805
   3.0789057  22.3158383  49.3940365  11.8107512  16.3888896  44.9279502
  11.6947038  17.1396582  45.3571640  12.6063399  16.1312849  45.1775589
  11.9112101  16.4623743  45.0283594   2.9917258  27.3670944  50.8428983
   3.6354713  27.8084108  51.2325141   3.3173513  26.5624370  50.7559242
   3.1349086  27.3136139  50.8874460   3.6937837  20.3782919  46.2148845
   4.0153679  20.9188126  45.6110153   4.3409934  19.8079690  46.3471134
   3.8363893  20.3742094  46.1455880   5.7439546  12.3798914  46.2983231
   6.4419710  12.5587041  46.7904695   6.0591878  11.8569253  45.6753621
   5.8934883  12.3292686  46.2785241   5.9327481  18.7669359  46.2863023
   6.3721116  18.1586459  46.7317796   5.7832144  18.3876732  45.5148488
   5.9748947  18.6207830  46.2382190   3.3999124  17.3613371  53.4881848
   4.0448126  16.8685814  53.1692797   3.6400901  17.5038157  54.3147927
   3.5309709  17.3090813  53.5631381   5.9385215  20.2068276  53.1388741
   6.2208458  19.4119682  52.9175497   6.6671376  20.6848864  53.1593802
   6.0874779  20.1602873  53.1091756   9.5336817  17.1196540  43.2393792
   9.4488113  17.9757507  43.3843361  10.0221201  16.8440864  43.9075951
   9.5925715  17.2053861  43.3595873  10.4655251  13.7381334  44.7391527
   9.9366722  13.9540968  45.3988833  10.9880271  14.4317473  44.6592496
  10.4643704  13.8724471  44.8247126  15.9203304  19.3127639  50.1124572
  15.0901007  19.5238282  50.2757988  15.8712556  18.4864693  49.8366855
  15.7910039  19.2217245  50.0961937   2.3554858  17.6344551  43.5398995
   1.7712074  18.1394582  43.9464859   1.9524954  17.4086938  42.7995587
   2.2094162  17.6752799  43.4904020   3.9813041  22.1431493  52.9472481
   3.4639983  21.7838908  52.3433789   4.6787432  21.6193667  52.9578547
   4.0078622  22.0129181  52.8602740   7.6376633  22.5926307  58.9088654
   7.7259979  22.4052447  59.7566864   8.0666346  21.9463736  58.5093501
   7.7138735  22.4689315  58.9760406   5.2047093  21.8757467  57.8906316
   4.6417928  21.4630077  58.4145978   5.9668116  21.8010372  58.3099460
   5.2341542  21.8034867  58.0299317   6.8132073  13.8810203  42.0167916
   7.0528077  14.0888187  41.2043259   7.1347914  13.0767712  42.1256860
   6.8969231  13.7924304  41.9128469   0.7643084  23.8655488  50.4942946
   1.4663664  23.3507477  50.5515703   0.6840567  24.1929639  51.2989822
   0.8566845  23.8369714  50.6215739  15.4157262  11.9598039  53.9074993
  14.5785683  12.0300226  54.1422587  15.3845493  11.9622534  53.0349295
  15.2875544  11.9708266  53.8134541  10.1387448  16.1553716  49.4986884
  10.8944963  16.5885230  49.5375793  10.2449772  15.5058485  50.0721520
  10.2657618  16.1231200  49.5884910  13.1767619  19.9826993  50.2489287
  12.7402851  19.9863735  51.0048259  12.8430534  20.6632492  49.8168865
  13.0630239  20.0839449  50.2970120   7.7496692  22.0235326  61.5732438
   8.5337109  22.1366174  61.9388180   7.5493287  21.1976463  61.7691124
   7.8362718  21.9182045  61.6566824  13.0965102   7.0240821  52.4918715
  13.7391010   7.0938925  53.0780631  13.3488122   6.3570044  51.9898257
  13.2287234   6.9367169  52.5045995   7.9067086  23.9345428  55.2198893
   7.1082332  23.6944928  55.4772762   8.3553097  23.9859821  55.9665941
   7.8541697  23.9067819  55.3683818  16.3111965  16.7007913  49.1408925
  16.9728399  16.1398581  49.0404833  15.6703377  16.2059944  49.4661616
  16.3140833  16.5444322  49.1741265   7.1988773  19.9978044  41.4489848
   7.6139921  19.6663068  40.7574344   6.3680702  19.7646947  41.3209985
   7.1376781  19.9149300  41.3280695  12.5976796  17.7173295  48.8820913
  12.8332385  17.8618494  48.0547764  12.7466359  18.4815703  49.2752427
  12.6542599  17.8512350  48.8184517  14.4267252  16.5574961  46.7190517
  14.7575470  17.0902601  46.1130612  15.0000341  16.6113849  47.3752468
  14.5600932  16.6444530  46.7268299   9.6399142  14.4039864  47.4014097
   9.7345996  15.1429158  47.8553723   9.0157985  13.9757339  47.8348662
   9.5608172  14.4501185  47.5322245   7.8951615  17.5826077  58.0504378
   8.4690477  16.9453321  58.2052942   7.8166419  17.5830159  57.1814036
   7.9684850  17.4891188  57.9450789   9.8922163  16.2488604  40.6351049
   9.8102325  16.3190791  41.5006036  10.5301883  16.8118348  40.4434790
   9.9742000  16.3427575  40.7340999   3.2515334  16.0149342  50.1025576
   2.9934578  15.1821077  50.0756875   3.3063817  16.2406955  49.2618076
   3.2215112  15.9247113  49.9745712   8.3316384   8.1177792  50.2029668
   7.6272711   7.6286978  50.3613587   8.3801359   8.1300267  49.3318113
   8.2346436   8.0467440  50.0969008   2.2250046  13.5687104  50.5890470
   1.6499637  13.7279273  51.2254431   1.8485722  12.9322513  50.1258921
   2.0852859  13.4984917  50.6145029   5.8923335  12.0410453  55.4482849
   5.5037768  11.6164671  54.7935040   5.2278033  12.2892603  55.9559875
   5.7370263  12.0149175  55.4270717  15.5346604  11.7985458  48.2230679
  15.2783169  10.9865400  48.0328562  16.3775918  11.8063025  47.9960866
  15.6212629  11.6797456  48.1615496   6.9962273  16.2709058  43.6459656
   7.8102912  16.5623951  43.5342427   6.9321414  15.6168920  43.0717949
   7.1065012  16.2174253  43.5448493  13.2171763  18.9535054  58.0589231
  12.9810401  18.1223119  57.9401292  13.8614992  18.9020661  58.6444076
  13.2766434  18.8232742  58.1275125   2.8670181  19.7430575  48.7731968
   3.5044128  19.5042323  49.3183761   3.2925253  19.9467734  48.0385128
   3.0246348  19.7381586  48.7449125   3.5072996  14.9632865  43.1106857
   3.8918149  14.7440572  43.8623402   3.2584617  15.7895811  43.2407934
   3.5275069  15.0531011  43.2407934  14.2408184  18.7379503  54.1217526
  13.9354001  19.4707560  54.4830842  13.5214400  18.3317432  53.8410312
  14.0895526  18.7861236  54.1330663   5.2491653  20.2202998  50.4525754
   5.3230662  20.0578170  51.3067604   6.0661160  20.4093188  50.2086236
   5.3808012  20.2239740  50.5423780  19.9409976  15.3772504  53.4485870
  19.8734476  15.3968463  52.5788457  19.9265638  16.2202831  53.6741541
  19.9288732  15.5046238  53.3538347   3.7896239  23.1837741  45.1839228
   4.0794537  22.7926722  44.4598454   4.5199720  23.3654446  45.6244503
   3.9403123  23.1531555  45.1422035  17.7268593  14.1516890  51.7232465
  18.2776515  13.5184959  51.9629557  17.7112709  14.6832283  52.4147969
  17.8053790  14.1365838  51.8611323   4.3790984  17.9855487  56.2692358
   3.8802678  18.6971255  56.3477246   5.1891208  18.3056154  56.2310520
   4.4247091  18.1382336  56.2748927   1.7302155  25.1605124  48.2499377
   1.5102450  24.8702478  49.0426044   1.5096677  24.5020079  47.7217290
   1.6649749  25.0204832  48.2888286  11.4297000  12.3913223  50.8337061
  11.0861765  11.6703559  51.1844310  11.5290042  12.1827075  49.9915419
  11.3939042  12.2537427  50.7608741   3.8970110  26.5334513  47.0330070
   4.5494168  26.0010956  47.2621096   3.1995719  26.1803166  47.4197944
   3.8900828  26.4024036  47.1242237  11.8910029  18.8538928  46.3761049
  12.4568061  19.5132137  46.2919592  11.2437932  19.1988626  46.8477451
  11.8788785  19.0020869  46.4333805   2.1649602  20.0582252  51.8137559
   1.6430355  20.1982544  52.4989424   2.5523622  19.2992917  52.0039677
   2.1453303  19.9667776  51.9438636   8.3616607  21.7977712  45.7998128
   8.1203283  21.0645572  45.3925193   8.5417940  22.3464569  45.1464461
   8.3524231  21.7700103  45.6428351   3.5915927  17.0886272  47.2119050
   3.3958710  17.6961006  46.6179353   3.8150273  16.3954216  46.7310724
   3.5950568  17.0763797  47.0535131   1.9894457  13.9741009  47.3299919
   2.7117109  14.1382168  46.8703725   1.5102450  14.6950674  47.2239258
   2.0258188  14.1039239  47.2465533   9.9487965  10.3104808  52.7096604
   9.1099066  10.3366087  52.4734867  10.0192332  10.9575544  53.2901950
   9.8356358  10.4100934  52.7605721   8.3957243   7.2090185  47.4424220
   9.0983596   7.0097934  46.9644178   8.1301432   6.4366128  47.7493063
   8.4603876   7.0653151  47.4169661  13.8245489  15.5172795  49.9957845
  13.7379463  15.6728221  50.8492624  13.3695969  16.1610871  49.6217250
  13.7448745  15.6348550  50.0664952   7.6971305  12.8383542  48.6183405
   7.4506019  12.7579293  49.4520194   8.0256428  12.0537010  48.4245932
   7.7092548  12.7109807  48.7130928  11.5919354  19.5466901  52.4070186
  11.4533713  20.2447947  52.9118929  10.8119352  19.3915558  52.0506368
  11.4562581  19.6267068  52.4296460   9.9297439  15.8463277  58.6592568
   9.9245477  14.9743093  58.6634994  10.6358433  16.0451446  58.1862024
  10.0342443  15.7467151  58.5899603   5.8288250  14.7730429  55.8131520
   5.0811564  14.9661443  55.4079798   5.9829775  13.9475649  55.5755641
   5.7410677  14.6795540  55.7176925   2.7296087  23.7643032  54.8967415
   2.8785651  23.2045948  54.2440819   3.5096089  23.8435034  55.2799934
   2.8670181  23.6928598  54.8564364  13.0872727  18.9045155  43.1686685
  12.7079535  18.1182293  43.1615975  12.4238972  19.4532012  43.0258330
  12.9331201  18.8689979  43.1467482   5.2549388  23.9357675  56.1751906
   5.1793059  23.2666486  56.7302694   5.1839247  24.6375464  56.6892572
   5.2329995  23.9402583  56.3328754   5.9119635  22.4558674  47.0075512
   6.6769526  22.1868318  46.6858176   5.8097725  21.9708685  47.7245574
   6.0101130  22.3448239  47.0655339   3.9472404  10.6583084  53.5468747
   3.1568479  10.4774544  53.8686083   4.3433027   9.8810036  53.5299042
   3.8889281  10.5170545  53.5921296   8.4338295  19.4870858  38.9875461
   9.2011280  19.5470983  38.5781313   7.9869604  18.9151299  38.5031779
   8.4811722  19.4107434  38.8553171   9.3316091  18.2925514  51.2728193
   8.6561093  18.0610746  51.7741580   9.3408467  17.6846697  50.6470298
   9.2334595  18.1684439  51.2544346  11.3332825  21.1490646  43.5038371
  11.4152663  21.9557632  43.1799822  11.8182568  21.1686605  44.2279145
  11.4169983  21.2711309  43.5625270   5.1429329  15.8275482  52.1708449
   4.7191578  16.0279981  51.4347468   4.9674184  14.9804330  52.2832749
   5.0540209  15.7324264  52.0782139   4.6441022  27.3425995  54.6329906
   5.1336952  26.6436784  54.4505571   4.0725254  27.0449865  55.2205964
   4.6325552  27.1952219  54.6930947   6.9690918  15.6985417  46.4729785
   7.5106464  15.1955798  46.9368405   7.2837477  15.6450612  45.6619270
   7.0955315  15.6164838  46.4213597   5.1377368  21.0902769  43.7569813
   5.2070188  20.2317307  43.8962813   5.9165823  21.3074650  43.4288838
   5.2630218  20.9955633  43.7286970   9.5284855  23.5140470  47.9706306
   9.1364647  23.2107185  47.2529172   9.6837928  24.3509560  47.7811260
   9.4938445  23.5924307  47.8362803   9.6924530  20.0790459  47.9112337
   9.3339185  20.2505102  48.6876369   9.2063241  20.5403664  47.3540335
   9.5683227  20.1729430  47.9437606   4.4812896  15.7589624  40.4512571
   4.7705421  16.5354507  40.7256145   4.5684695  15.2478356  41.1527071
   4.5367152  15.7981543  40.5955069  10.8529270  20.9694355  58.8579538
  11.4908990  20.4754550  58.5241994  10.2103361  20.8971755  58.2731765
  10.8523496  20.8853363  58.7221893  12.5786270  12.8183501  53.4245453
  12.1513878  12.7309849  52.6693553  11.9412323  12.9261276  54.0100297
  12.4215877  12.8216161  53.3990895  10.9083526  21.6614163  55.4984894
  11.6975904  21.3103228  55.6186976  11.0827124  22.4750551  55.2361528
  11.0503808  21.7300020  55.4772762   9.7617350   5.6723720  50.0601313
   9.9666944   5.6046028  50.9058310   9.4343774   6.4782541  49.9922490
   9.7432598   5.7809660  50.1760968   4.4593502  13.0004288  51.8010281
   4.1556639  12.4460276  52.4020688   3.7572922  13.1796498  51.3138315
   4.3109711  12.9449070  51.8179986   3.5159599  10.3104808  46.3654983
   3.7919333   9.5923720  45.9532550   4.1158268  10.9089728  46.1576089
   3.6452863  10.2925179  46.2735744   2.5211853  20.2154009  56.5082379
   2.4132207  20.2256071  57.3744437   2.7307634  21.0408789  56.3187332
   2.5361964  20.3395084  56.6086470  13.0151038   6.2255484  49.5404078
  12.4025352   6.7125886  49.9257810  13.1115213   5.5498975  50.0841730
  12.9388936   6.1973793  49.6782937   7.0170119   7.9818325  44.6401578
   7.4713866   8.1528886  45.3649422   7.4910165   7.3686436  44.2399353
   7.1538439   7.9169210  44.6875339  16.6576066  17.2972421  54.9681594
  16.7159190  17.7459070  55.7141571  16.0242534  17.7071234  54.5311674
  16.5727361  17.4246155  55.0134143  10.2975161  22.9175963  51.4036341
  10.0994849  23.4066777  50.7092552   9.6762872  23.1217204  51.9820474
  10.1762725  23.0192501  51.3859564   4.3583139  14.6860860  45.7446585
   5.1025184  15.0735136  45.9829535   4.5043835  13.8418285  45.9087073
   4.4893724  14.6191332  45.8040555   7.3461015  10.2586333  51.6440504
   6.8720969   9.7328095  52.1545815   7.7179151   9.7115806  51.0755366
   7.3310904  10.1002329  51.6355651  13.6097746  15.3188709  53.0547285
  13.3695968  14.4795124  53.0589711  14.0889753  15.3988875  53.7788058
  13.6449929  15.2070108  53.1622087   9.2744515  11.1522887  44.7066258
   8.7467533  11.2351631  44.0171967   9.7340223  11.8940759  44.7030903
   9.2646365  11.2743550  44.6040953  15.6102933  12.0990166  51.0076544
  15.3712703  12.0586000  50.1697328  15.7736834  12.9461318  51.1342265
  15.5993236  12.2182251  50.9030026  12.2148963  16.4840115  56.9381589
  12.9383162  16.0312641  56.7592609  11.9498925  16.7644781  56.1553917
  12.2830236  16.4591084  56.7960304   8.8281597  19.7226451  43.8375915
   9.5515796  20.1884564  43.6940488   8.3882188  19.7900061  43.0873512
   8.8697289  19.8010288  43.7060696   7.9967752  16.5823993  55.0876604
   7.3824745  16.0382044  55.3825239   8.5135037  16.0688230  54.6082420
   7.9823415  16.4260402  55.0600832   7.2364049  17.6528263  52.8220903
   6.8091657  17.0277982  52.3886338   7.2288994  17.3703185  53.6479910
   7.1723191  17.5181044  52.8800730   3.2665445  13.7728346  54.7143080
   2.4357374  13.9402164  54.5078328   3.2116962  13.3964297  55.4991965
   3.1354860  13.7418077  54.7991608   1.6401488  12.0483937  45.2433198
   1.7804450  12.5456402  45.9461839   2.1384021  11.3470232  45.3847411
   1.7342569  12.0185916  45.3684777   1.6701711  12.9151048  42.5725775
   2.3046790  13.5111474  42.5075236   1.7527322  12.6154506  43.3871645
   1.7758262  12.9591957  42.6828861  14.6484277  15.4466526  55.4412139
  15.2402117  16.0863777  55.4730337  15.0843271  14.7489563  55.7304206
  14.8002708  15.4384876  55.4892971   6.4777667  19.8683898  56.0670033
   5.9702758  20.4219745  56.5110663   6.1804313  19.9292188  55.2488807
   6.3582551  19.9590209  56.0118489   9.0885447  23.7847156  43.9973976
   8.3714757  23.6108018  43.5321213   9.7392184  23.5499728  43.4649462
   9.0787297  23.7242948  43.8503194  11.6733418  12.6611744  47.7415281
  11.0024608  13.2041447  47.6128347  12.3673168  13.1306600  47.4996976
  11.6762286  12.8110016  47.6870809   5.7220152  24.8008456  52.9727040
   5.4985806  24.0427286  53.3411066   5.2329995  24.8306478  52.2507479
   5.6163601  24.6930681  52.9203781  11.8361546   9.1167628  50.6505654
  12.1889156   8.6897351  51.3251453  10.9776347   9.0318472  50.7806731
  11.7610990   9.0412369  50.7700665   9.8344811  12.3802997  54.5990497
   9.8142739  12.1986292  55.4525276   9.8824012  13.2515015  54.5750080
   9.8379452  12.4819535  54.7213791   7.7791141  18.9690189  60.5238973
   7.7386996  18.3239866  59.9384129   8.5914459  18.9126806  60.8364385
   7.8934295  18.8649156  60.4835922   4.3698609  25.0208915  50.4264124
   3.9559007  24.3583045  50.0367966   5.0545983  25.1686773  49.9059818
   4.4096980  24.9449573  50.2920621   7.7363903  24.1799000  51.1787741
   7.3380186  24.2901270  50.4108561   7.1215122  24.3881066  51.7614301
   7.5862792  24.2272568  51.1519040   6.3091805  10.7873148  44.0461880
   5.7156644  11.1090144  43.4946447   6.3467083   9.9414243  43.8382987
   6.2266194  10.7097476  43.9344652  13.2685606   4.2386040  51.5789967
  12.7616470   3.5315180  51.5111144  14.0653039   3.9079229  51.7091044
  13.3112845   4.0859191  51.5888962  15.4705746  18.7550967  44.5630831
  15.8539351  19.5042323  44.7928928  14.6749859  19.0016786  44.3042820
  15.4099528  18.9020660  44.5588405   4.2821037  11.4270398  42.1391210
   4.6620002  11.4450027  41.3542325   3.5413633  11.8724387  42.0182058
   4.2289875  11.4952173  42.0054779  11.9106328   9.7352589  47.7266789
  11.9100554   9.5801246  48.5851065  11.7062508  10.5815577  47.6708175
  11.8806105   9.8373210  47.8454728   9.6347180  14.4150091  51.3802996
  10.1300845  13.6973086  51.3407016   8.8246955  14.1120889  51.2657483
   9.5891073  14.2647738  51.3576722   5.0805791  18.2647905  43.5300000
   4.2717114  17.9414578  43.4833310   5.5880700  17.5581127  43.4628249
   5.0355458  18.1129221  43.5130295  11.6998999  17.1653779  54.0680125
  12.1254070  16.6428201  53.5150550  11.3355918  17.7634616  53.5468748
  11.7085601  17.1764006  53.9089134   1.3353078  25.4617996  52.8277470
   1.6499637  26.2754385  52.8355252   1.7446492  25.0768215  53.4959629
   1.4421176  25.5246699  52.9281562   8.2877598  20.8788043  50.3981282
   8.7588776  21.5928306  50.5671267   8.6237776  20.2786793  50.9341152
   8.4072713  20.8959507  50.5013658  10.3754583  22.4889356  62.5773354
  10.4851548  21.6997917  62.9330101  10.7045479  22.3995293  61.7747692
  10.4406988  22.3595209  62.5115745   8.9251544  20.6705977  57.1608975
   8.3772490  20.0463861  56.8929040   9.3864573  20.8600249  56.4453054
   8.9118754  20.6065027  57.0159406  11.7345409   8.7391332  54.5460167
  11.1508397   9.2400538  54.1337734  12.0549703   8.2320888  53.9124490
  11.6958584   8.7383167  54.3918674   8.4909871  21.6757050  53.6918316
   9.3108244  21.5320016  53.9534611   8.2103948  22.3003249  54.2334754
   8.5706614  21.7467402  53.8106255  24.9623521  29.3321902  46.6561192
  24.9317525  30.1866538  46.8279462  25.5604870  29.0317194  47.2147336
  25.0460679  29.4138398  46.7635995  18.1623206  28.4197553  51.4114123
  17.3061101  28.5806051  51.4623240  18.2090860  27.5489617  51.4319184
  18.0422317  28.3148354  51.4220189  12.5464346  37.9560270  47.1751354
  11.7947245  37.5775809  46.9467399  12.9950357  37.9878704  46.4270165
  12.5014012  37.9045878  47.0308856  21.4716922  34.6884078  61.0174579
  22.1783690  34.1936109  61.1461513  21.6604858  35.1293160  60.2877237
  21.6044828  34.6802429  60.9283624  17.5393597  40.3299909  48.5448013
  17.9232976  40.8986807  48.0052788  17.4752738  39.6049419  48.0653829
  17.5867024  40.3075372  48.3941876  21.0075027  30.4789597  54.0545774
  21.5530987  31.1574683  54.1139744  20.9491903  30.3377057  53.1947356
  21.0790941  30.5581598  53.9357835  14.1249102  37.9678663  49.4414127
  14.2259465  37.1579017  49.7511255  13.5290847  37.8735609  48.8113805
  14.0521640  37.8343691  49.3940365  22.7840096  31.9074204  44.9279502
  22.6679621  32.6581890  45.3571640  23.5795982  31.6498157  45.1775589
  22.8844685  31.9809051  45.0283594  13.9649841  42.8856252  50.8428983
  14.6087297  43.3269416  51.2325141  14.2906097  42.0809678  50.7559242
  14.1081670  42.8321447  50.8874460   7.3214146  33.9898949  49.0666460
   7.0864330  33.1566602  48.9598729   7.4599787  34.2703615  48.2527661
   7.3069808  33.9082453  48.9308815   9.6204233  26.1584680  51.9650768
   9.0009265  25.5677327  51.7960783   9.5188097  26.7496115  51.3315091
   9.5141909  26.1588762  51.8455758  14.6670421  35.8968227  46.2148845
  14.9886262  36.4373434  45.6110153  15.3142518  35.3264998  46.3471134
  14.8096476  35.8927402  46.1455880  16.7172129  27.8984222  46.2983231
  17.4152294  28.0772349  46.7904695  17.0324462  27.3754561  45.6753621
  16.8667466  27.8477994  46.2785241   9.3473366  29.7036961  54.2094337
   9.2232063  30.2899407  54.8444156   9.9991651  29.2097157  54.5106612
   9.4247016  29.7175766  54.3480266  16.9060064  34.2854667  46.2863023
  17.3453700  33.6771767  46.7317796  16.7564727  33.9062040  45.5148488
  16.9481530  34.1393138  46.2382190  14.3731707  32.8798678  53.4881848
  15.0180710  32.3871122  53.1692797  14.6133485  33.0223465  54.3147927
  14.5042293  32.8276121  53.5631381  16.9117799  35.7253584  53.1388741
  17.1941042  34.9304990  52.9175497  17.6403959  36.2034172  53.1593802
  17.0607363  35.6788181  53.1091756  14.8898993  23.2676618  50.3804506
  14.5602323  23.7187762  49.7108205  14.2143994  23.1892782  50.9277512
  14.7409429  23.3227753  50.3627729  20.5069401  32.6381848  43.2393792
  20.4220696  33.4942815  43.3843361  20.9953784  32.3626172  43.9075951
  20.5658298  32.7239169  43.3595873  21.4387834  29.2566642  44.7391527
  20.9099306  29.4726276  45.3988833  21.9612854  29.9502781  44.6592496
  21.4376287  29.3909779  44.8247126  13.3287442  33.1529859  43.5398995
  12.7444657  33.6579890  43.9464859  12.9257537  32.9272246  42.7995587
  13.1826746  33.1938107  43.4904020   8.8831471  38.8684620  50.3422667
   8.3999049  39.5935110  50.3182250   9.6954789  39.1660750  50.4532824
   8.9322218  39.0186974  50.3549946  14.9545625  37.6616801  52.9472481
  14.4372566  37.3024216  52.3433789  15.6520016  37.1378975  52.9578547
  14.9811206  37.5314489  52.8602740  18.6109217  38.1111615  58.9088654
  18.6992563  37.9237755  59.7566864  19.0398929  37.4649044  58.5093501
  18.6871319  37.9874622  58.9760406  16.1779676  37.3942775  57.8906316
  15.6150511  36.9815385  58.4145978  16.9400700  37.3195680  58.3099460
  16.2074125  37.3220175  58.0299317  17.7864656  29.3995511  42.0167916
  18.0260660  29.6073495  41.2043259  18.1080497  28.5953020  42.1256860
  17.8701814  29.3109612  41.9128469  13.0954947  21.3288907  45.8627454
  13.8500915  21.6967224  45.6244504  12.9182481  21.7028461  46.6306633
  13.1809425  21.4387095  45.9412342  11.7375668  39.3840796  50.4942946
  12.4396247  38.8692785  50.5515703  11.6573151  39.7114947  51.2989822
  11.8299428  39.3555022  50.6215739  26.3889845  27.4783347  53.9074993
  25.5518267  27.5485534  54.1422587  26.3578076  27.4807842  53.0349295
  26.2608128  27.4893574  53.8134541  12.7854574  29.6216383  59.6223362
  12.9575078  29.5122277  60.4708643  13.3223932  30.2670788  59.3854554
  12.8899578  29.7008384  59.7128458  11.4512011  23.7359226  42.5605567
  11.2687585  23.9531106  41.7346559  12.3137624  23.8498238  42.6164181
  11.5516601  23.7849124  42.4460054  11.0626443  35.5747148  50.0028554
  11.9015343  35.8070081  50.0502316  11.0938213  34.7051459  49.9335590
  11.1908161  35.4804094  49.9993199  11.6879146  35.9948023  54.3041860
  12.2277371  35.8519154  54.9745232  11.0049093  36.3944774  54.6725886
  11.6671300  36.0327694  54.4576282  17.1311731  20.7385636  45.5954590
  17.8597891  20.5601591  45.1492747  17.2206623  21.5803716  45.8061769
  17.2518393  20.8369515  45.5608108  21.1120031  31.6739024  49.4986884
  21.8677546  32.1070538  49.5375793  21.2182356  31.0243793  50.0721520
  21.2390202  31.6416508  49.5884910  24.1500202  35.5012301  50.2489287
  23.7135434  35.5049043  51.0048259  23.8163118  36.1817800  49.8168865
  24.0362822  35.6024757  50.2970120  18.7229276  37.5420634  61.5732438
  19.5069693  37.6551482  61.9388180  18.5225871  36.7161771  61.7691124
  18.8095301  37.4367353  61.6566824   7.0916291  32.2148314  54.4576282
   6.8254707  31.3987431  54.6167272   7.1054856  32.2601469  53.5871797
   7.0541014  32.1005219  54.3529764  24.0697685  22.5426129  52.4918715
  24.7123594  22.6124233  53.0780631  24.3220706  21.8755352  51.9898257
  24.2019817  22.4552477  52.5045995  10.9974038  27.0133398  41.0728040
  10.2832216  26.7271578  41.4850472  11.4818007  27.3530024  41.7134427
  10.9633402  27.0215048  41.2283675  11.8414898  25.7526692  57.1043289
  11.1486695  25.2823672  57.3504021  12.4575225  25.5264997  57.6784996
  11.8299428  25.6493824  57.2252442  18.8799669  39.4530736  55.2198893
  18.0814915  39.2130236  55.4772762  19.3285681  39.5045129  55.9665941
  18.8274281  39.4253127  55.3683818  18.1721356  35.5163352  41.4489848
  18.5872505  35.1848376  40.7574344  17.3413286  35.2832254  41.3209985
  18.1109365  35.4334608  41.3280695   7.5009705  33.0007093  51.7388026
   7.3185278  32.9753979  50.8860318   8.2359374  33.4706031  51.7776935
   7.5823769  33.0668455  51.6185944  23.5709379  33.2358603  48.8820913
  23.8064968  33.3803802  48.0547764  23.7198943  34.0001011  49.2752427
  23.6275183  33.3697658  48.8184517  10.5655457  29.7192096  58.2470134
  11.2895429  29.7045127  58.7335029  10.6671593  30.4287451  57.7492103
  10.6873666  29.8216799  58.2448921  25.3999836  32.0760269  46.7190517
  25.7308053  32.6087909  46.1130612  25.9732924  32.1299157  47.3752468
  25.5333515  32.1629838  46.7268299  17.9400406  33.1991181  63.1119081
  17.1473387  33.5134693  63.2971701  18.0549333  33.4142649  62.2739866
  17.8395817  33.2775017  63.0157416  20.6131725  29.9225172  47.4014097
  20.7078580  30.6614466  47.8553723  19.9890569  29.4942647  47.8348662
  20.5340755  29.9686492  47.5322245  18.8684199  33.1011384  58.0504378
  19.4423061  32.4638629  58.2052942  18.7899003  33.1015467  57.1814036
  18.9417434  33.0076496  57.9450789   7.4680615  29.8800594  51.8887092
   8.0454118  29.7437045  52.5279338   6.7694677  29.4236378  52.1432677
   7.4501637  29.7922860  52.0209382  20.8654746  31.7673912  40.6351049
  20.7834909  31.8376099  41.5006036  21.5034467  32.3303656  40.4434790
  20.9474584  31.8612883  40.7340999  14.2247918  31.5334650  50.1025576
  13.9667162  30.7006384  50.0756875  14.2796400  31.7592263  49.2618076
  14.1947695  31.4432421  49.9745712  19.3048968  23.6363100  50.2029668
  18.6005294  23.1472286  50.3613587  19.3533942  23.6485575  49.3318113
  19.2079019  23.5652748  50.0969008  13.1982630  29.0872412  50.5890470
  12.6232221  29.2464580  51.2254431  12.8218306  28.4507821  50.1258921
  13.0585442  29.0170225  50.6145029  16.8655918  27.5595761  55.4482849
  16.4770351  27.1349979  54.7935040  16.2010617  27.8077911  55.9559875
  16.7102846  27.5334482  55.4270717  26.5079188  27.3170766  48.2230679
  26.2515752  26.5050708  48.0328562  27.3508502  27.3248333  47.9960866
  26.5945213  27.1982764  48.1615496  20.6882280  21.2570390  52.9606833
  21.0692792  20.5748561  53.3474707  19.8845564  20.9679992  52.7782497
  20.6258742  21.1137439  52.9910889  17.9694857  31.7894366  43.6459656
  18.7835495  32.0809259  43.5342427  17.9053998  31.1354228  43.0717949
  18.0797596  31.7359561  43.5448493  24.1904347  34.4720362  58.0589231
  23.9542984  33.6408427  57.9401292  24.8347576  34.4205969  58.6444076
  24.2499018  34.3418050  58.1275125  13.8402765  35.2615883  48.7731968
  14.4776712  35.0227631  49.3183761  14.2657836  35.4653042  48.0385128
  13.9978931  35.2566894  48.7449125   8.5315407  37.5004220  52.6566272
   8.5719553  37.7719071  51.8286051   9.0909931  38.0246128  53.0724060
   8.6198753  37.6179975  52.5958160  14.4805580  30.4818173  43.1106857
  14.8650733  30.2625880  43.8623402  14.2317200  31.3081119  43.2407934
  14.5007653  30.5716319  43.2407934  14.6474120  23.7624588  62.8269441
  14.3327561  24.5324151  62.5639004  14.3264053  23.1994844  62.2421668
  14.5533039  23.7934857  62.7010791  16.2224237  35.7388306  50.4525754
  16.2963245  35.5763478  51.3067604  17.0393743  35.9278496  50.2086236
  16.3540595  35.7425048  50.5423780   9.9829994  36.0846169  47.4820198
   9.1568111  36.3307906  47.3554476  10.0441985  36.0058250  48.3482256
   9.8704161  36.1091118  47.5909142  12.2006017  22.1515110  48.4415638
  11.3328443  22.2237709  48.5073247  12.4881222  22.9537189  48.6303613
  12.1145765  22.2809257  48.4790404  21.3238906  22.2992969  56.7726960
  22.0692498  22.1102780  56.3590385  20.9076211  22.8251207  56.2140816
  21.3723880  22.3495115  56.6291533  14.7628823  38.7023049  45.1839228
  15.0527121  38.3112030  44.4598454  15.4932303  38.8839754  45.6244503
  14.9135707  38.6716863  45.1422035  15.3523568  33.5040795  56.2692358
  14.8535261  34.2156563  56.3477246  16.1623792  33.8241462  56.2310520
  15.3979674  33.6567644  56.2748927  12.7034738  40.6790432  48.2499377
  12.4835034  40.3887786  49.0426044  12.4829260  40.0205387  47.7217290
  12.6382332  40.5390140  48.2888286  11.6151685  32.7663748  50.5155079
  11.3264934  32.1401219  51.0500806  12.4835033  32.7084035  50.5819759
  11.7011937  32.6651292  50.6046033  22.4029583  27.9098531  50.8337061
  22.0594349  27.1888867  51.1844310  22.5022626  27.7012383  49.9915419
  22.3671626  27.7722735  50.7608741  14.8702694  42.0519821  47.0330070
  15.5226752  41.5196264  47.2621096  14.1728303  41.6988474  47.4197944
  14.8633412  41.9209344  47.1242237  11.8183959  34.4058999  46.4397444
  12.5729927  34.7872038  46.6532906  11.2254571  34.8570143  46.8944140
  11.8420672  34.5287826  46.5380322  22.8642612  34.3724235  46.3761049
  23.4300645  35.0317445  46.2919592  22.2170516  34.7173934  46.8477451
  22.8521369  34.5206177  46.4333805  14.2790626  26.3621839  61.5654656
  13.4690402  26.6679619  61.4544499  14.7565312  27.0827422  61.6807240
  14.2294105  26.5136441  61.5661727  13.1382185  35.5767560  51.8137559
  12.6162939  35.7167852  52.4989424  13.5256206  34.8178225  52.0039677
  13.1185886  35.4853084  51.9438636  10.1273369  25.6273369  45.8832514
   9.8398165  25.2574640  45.1464461  10.8143838  26.0968224  45.6216219
  10.1862267  25.6420339  45.7347590  19.3349190  37.3163020  45.7998128
  19.0935866  36.5830880  45.3925193  19.5150523  37.8649877  45.1464461
  19.3256814  37.2885411  45.6428351  14.5648511  32.6071579  47.2119050
  14.3691294  33.2146314  46.6179353  14.7882857  31.9139523  46.7310724
  14.5683152  32.5949105  47.0535131  12.9627041  29.4926317  47.3299919
  13.6849693  29.6567475  46.8703725  12.4835034  30.2135982  47.2239258
  12.9990772  29.6224547  47.2465533  20.9220549  25.8290116  52.7096604
  20.0831649  25.8551395  52.4734867  20.9924916  26.4760852  53.2901950
  20.8088942  25.9286242  52.7605721  10.6134658  31.8984390  56.4354059
  11.1255755  32.1768643  55.7862818  10.3271000  32.6373684  56.8016872
  10.6469521  32.0486743  56.3943937  19.3689827  22.7275493  47.4424220
  20.0716180  22.5283241  46.9644178  19.1034016  21.9551436  47.7493063
  19.4336459  22.5838459  47.4169661   7.7001564  26.4054582  46.7317795
   7.8017700  27.2080743  47.0598771   8.4957451  26.2041918  46.4340876
   7.8329470  26.4940480  46.7353150  14.1318383  23.9910778  56.4955100
  13.9401580  24.0065913  57.3454524  14.9816979  24.1874453  56.4721755
  14.2294105  24.0225130  56.6178395   8.5165296  26.5201760  54.4738917
   8.3750788  25.6685700  54.5983425   8.8005859  26.5630420  53.6501123
   8.5373142  26.4001510  54.3706541  18.6703888  28.3568850  48.6183405
  18.4238603  28.2764601  49.4520194  18.9989012  27.5722318  48.4245932
  18.6825132  28.2295115  48.7130928  22.5651937  35.0652209  52.4070186
  22.4266297  35.7633255  52.9118929  21.7851935  34.9100866  52.0506368
  22.4295164  35.1452376  52.4296460  20.9030022  31.3648585  58.6592568
  20.8978061  30.4928401  58.6634994  21.6091016  31.5636754  58.1862024
  21.0075026  31.2652459  58.5899603  14.6300916  31.0925569  58.0306388
  14.7744291  31.6726777  57.3949498  14.9776564  31.4701865  58.7356243
  14.7028377  31.2346273  58.0405383  16.8020833  30.2915737  55.8131520
  16.0544147  30.4846751  55.4079798  16.9562358  29.4660957  55.5755641
  16.7143261  30.1980848  55.7176925  13.7028671  39.2828340  54.8967415
  13.8518234  38.7231256  54.2440819  14.4828673  39.3620342  55.2799934
  13.8402764  39.2113906  54.8564364  16.2281971  39.4542983  56.1751906
  16.1525642  38.7851794  56.7302694  16.1571830  40.1560771  56.6892572
  16.2062578  39.4587891  56.3328754  17.0422610  24.1866288  56.7026923
  17.4995224  24.9190262  56.8299716  17.1178939  23.7632753  57.4614179
  17.1213580  24.2323526  56.8328000   9.2855601  24.4332107  57.7916367
   8.7497791  23.8212466  58.1077134   9.3473366  25.0080243  58.4450034
   9.2151234  24.4279035  57.9351794  21.5149936  17.3656163  50.5720766
  21.6333504  17.8232626  49.8388069  21.3412112  16.5601424  50.2856984
  21.5069107  17.3149935  50.4221700  16.8852218  37.9743982  47.0075512
  17.6502109  37.7053626  46.6858176  16.7830308  37.4893993  47.7245574
  16.9833714  37.8633547  47.0655339  14.9204988  26.1768392  53.5468747
  14.1301063  25.9959852  53.8686083  15.3165611  25.3995344  53.5299042
  14.8621864  26.0355853  53.5921296  19.4070879  35.0056166  38.9875461
  20.1743864  35.0656291  38.5781313  18.9602188  34.4336607  38.5031779
  19.4544306  34.9292742  38.8553171  20.3048674  33.8110822  51.2728193
  19.6293676  33.5796054  51.7741580  20.3141050  33.2032005  50.6470298
  20.2067179  33.6869747  51.2544346  17.4342818  28.6528651  58.0292246
  17.3701960  29.5138607  57.9012383  17.5740006  28.3360644  57.2287798
  17.4458288  28.7328817  57.8920459  16.1161912  31.3460790  52.1708449
  15.6924161  31.5465289  51.4347468  15.9406767  30.4989638  52.2832749
  16.0272793  31.2509572  52.0782139  15.6173606  42.8611303  54.6329906
  16.1069536  42.1622092  54.4505571  15.0457838  42.5635173  55.2205964
  15.6058136  42.7137527  54.6930947  11.4044357  31.8412842  47.6036422
  11.5608976  31.7759644  48.4592414  11.7444950  32.6161394  47.3915101
  11.4777592  31.9462040  47.6991016  17.9423502  31.2170725  46.4729785
  18.4839047  30.7141106  46.9368405  18.2570061  31.1635920  45.6619270
  18.0687899  31.1350146  46.4213597  21.8140609  35.4273372  63.5856697
  22.6275474  35.1558521  63.7461830  21.6535576  35.1280912  62.7816893
  21.9110558  35.3428298  63.4902103  16.1109952  36.6088077  43.7569813
  16.1802772  35.7502615  43.8962813  16.8898407  36.8259958  43.4288838
  16.2362802  36.5140941  43.7286970  19.0912771  26.1107030  56.5252085
  19.3054741  25.4717944  55.9715439  18.4746670  26.5552853  56.0959947
  19.0318100  26.0817173  56.3802516  20.5017439  39.0325778  47.9706306
  20.1097231  38.7292493  47.2529172  20.6570511  39.8694868  47.7811260
  20.4671029  39.1109615  47.8362803   7.9778619  29.0247792  47.9197189
   8.3577584  29.4432337  47.2557456   7.4033983  29.6061248  48.2266032
   7.9489944  29.1725651  47.8673930  21.2551859  27.7196095  57.4635392
  20.4428541  27.4121985  57.5448565  21.7141794  27.2395095  58.0278105
  21.2032244  27.6032587  57.5589987  20.6657114  35.5975767  47.9112337
  20.3071769  35.7690410  48.6876369  20.1795825  36.0588972  47.3540335
  20.5415811  35.6914738  47.9437606  18.4827500  19.2206965  51.5139428
  17.6121058  19.1945686  51.4672738  18.7367841  19.0484157  50.6965274
  18.3921060  19.1917109  51.3859565  15.4545479  31.2774932  40.4512571
  15.7438004  32.0539815  40.7256145  15.5417278  30.7663664  41.1527071
  15.5099735  31.3166851  40.5955069  18.3505367  29.1256166  62.2464095
  18.8204998  29.7498283  62.6331969  18.3967247  28.4573142  62.8057309
  18.4273243  29.1190847  62.3864166  15.5076640  21.2313194  52.9712899
  14.9915129  20.5393385  53.0964478  14.9470569  21.8983971  52.9175497
  15.3483154  21.2276451  52.9818965  17.5768874  21.7706154  54.8005751
  17.1900627  21.7955185  55.5819281  17.0901811  21.2047832  54.3480268
  17.4481383  21.6901905  54.8493655  21.8261853  36.4879663  58.8579538
  22.4641574  35.9939858  58.5241994  21.1835945  36.4157063  58.2731765
  21.8256080  36.4038671  58.7221893  23.5518853  28.3368809  53.4245453
  23.1246461  28.2495157  52.6693553  22.9144906  28.4446584  54.0100297
  23.3948461  28.3401469  53.3990895  17.2426016  18.6573139  57.0916011
  17.8719133  19.1933439  56.8137081  17.4111878  18.5650498  57.9429577
  17.3603810  18.7234501  57.1764539  17.0439930  23.4444334  59.3642423
  17.8713360  23.1729483  59.4201037  17.0647776  24.2405176  59.7206241
  17.1692780  23.5224088  59.4257606  21.8816110  37.1799471  55.4984894
  22.6708488  36.8288536  55.6186976  22.0559708  37.9935859  55.2361528
  22.0236391  37.2485328  55.4772762  11.6209420  30.5908197  52.5512683
  10.7797427  30.4912071  52.7591577  11.8299428  31.3603677  52.9027004
  11.5274113  30.6900240  52.6339998   9.0984987  28.2127734  50.3797434
   8.7041685  28.2870746  49.6047544   8.5425104  28.5985680  50.9305796
   8.9587800  28.2809508  50.3465094  20.7349934  21.1909028  50.0601313
  20.9399527  21.1231336  50.9058310  20.4076358  21.9967849  49.9922490
  20.7165182  21.2994968  50.1760968  15.4326085  28.5189596  51.8010281
  15.1289223  27.9645584  52.4020688  14.7305506  28.6981806  51.3138315
  15.2842295  28.4634378  51.8179986  14.4892182  25.8290116  46.3654983
  14.7651917  25.1109028  45.9532550  15.0890852  26.4275036  46.1576089
  14.6185447  25.8110486  46.2735744  13.4944436  35.7339317  56.5082379
  13.3864791  35.7441379  57.3744437  13.7040218  36.5594097  56.3187332
  13.5094547  35.8580391  56.6086470  23.9883622  21.7440792  49.5404078
  23.3757935  22.2311194  49.9257810  24.0847797  21.0684283  50.0841730
  23.9121519  21.7159101  49.6782937  17.9902703  23.5003633  44.6401578
  18.4446449  23.6714194  45.3649422  18.4642748  22.8871744  44.2399353
  18.1271023  23.4354518  44.6875339  11.5118228  32.9851959  53.9704316
  10.9206161  33.6261457  53.9407331  12.2739252  33.4089576  53.9435616
  11.5366489  33.1427797  53.9619463  11.9078851  24.1453957  54.6372334
  12.3680332  24.2192886  55.3747458  11.9534958  24.9435211  54.2872155
  11.9829406  24.2748104  54.6945090  13.5562201  24.8120652  59.2044361
  13.1647766  24.1653999  59.6400139  13.7248063  25.4032087  59.8238616
  13.5233111  24.8034920  59.3607067  21.2707744  38.4361271  51.4036341
  21.0727433  38.9252085  50.7092552  20.6495455  38.6402512  51.9820474
  21.1495309  38.5377809  51.3859564  15.3315723  30.2046167  45.7446585
  16.0757768  30.5920444  45.9829535  15.4776419  29.3603593  45.9087073
  15.4626308  30.1376640  45.8040555  17.2495298  21.9996426  50.7778446
  16.4031343  22.1719234  50.6519796  17.2466431  21.1945770  51.1144275
  17.1242448  21.9057455  50.8089573  18.3193599  25.7771641  51.6440504
  17.8453553  25.2513403  52.1545815  18.6911734  25.2301114  51.0755366
  18.3043487  25.6187637  51.6355651   8.6966629  27.7743147  57.0124050
   9.5592242  27.6738857  56.9261380   8.3658412  27.1937857  56.4509622
   8.7751825  27.6734774  56.9169456  20.2477098  26.6708195  44.7066258
  19.7200117  26.7536939  44.0171967  20.7072806  27.4126067  44.7030903
  20.2378949  26.7928858  44.6040953  23.1881546  32.0025423  56.9381589
  23.9115745  31.5497949  56.7592609  22.9231509  32.2830089  56.1553917
  23.2562820  31.9776391  56.7960304  12.0568415  26.5985596  53.6734468
  11.4321485  26.6103988  53.0660421  11.7214010  27.0745772  54.3225708
  11.9153907  26.6704113  53.6791037  12.2410163  24.9410715  39.7307153
  11.8922968  25.5930440  40.1938703  11.7606609  24.9267828  39.0031024
  12.1180407  25.0353769  39.6918244   8.7694090  34.6586057  55.1138232
   8.2394015  33.9678495  55.1633207   9.0419184  34.6496242  54.2850941
   8.7318813  34.5553188  54.9985648  19.8014181  35.2411759  43.8375915
  20.5248380  35.7069872  43.6940488  19.3614772  35.3085369  43.0873512
  19.8429873  35.3195596  43.7060696  18.9700336  32.1009301  55.0876604
  18.3557329  31.5567351  55.3825239  19.4867621  31.5873538  54.6082420
  18.9555998  31.9445710  55.0600832  18.2096633  33.1713571  52.8220903
  17.7824241  32.5463290  52.3886338  18.2021577  32.8888493  53.6479910
  18.1455774  33.0366352  52.8800730  11.3259160  28.2078744  55.8909337
  11.4852647  27.4522068  56.2961059  11.1452054  28.7569684  56.5450074
  11.3224519  28.1772558  56.0472043  19.2679463  20.3739980  56.4460126
  18.7720024  20.5703654  55.7551693  20.0248525  20.7732648  56.2748928
  19.3066288  20.4617714  56.3180263  16.5382343  24.0482326  53.0363437
  16.5624830  23.5142438  52.3476217  16.7893816  23.5399635  53.6989027
  16.5792261  23.8943230  53.0328081   4.0489932  31.3313821  52.4706581
   3.9433382  31.2860665  51.6058665   3.2990152  31.6767601  52.7520866
   3.9225535  31.3754729  52.3843910  12.8183665  22.7753144  52.4169181
  12.8582036  23.2762351  53.1303888  11.9933330  22.8663538  52.1475104
  12.7023191  22.8634960  52.4819719  15.0013278  32.3413884  60.5189476
  14.1508908  32.4785598  60.6547121  15.1641405  31.6077662  60.9637177
  14.8997141  32.2527985  60.6045075  14.2398028  29.2913654  54.7143080
  13.4089958  29.4587472  54.5078328  14.1849545  28.9149605  55.4991965
  14.1087443  29.2603385  54.7991608  12.0481811  22.7822547  60.3499491
  12.6734515  22.2384680  60.6228923  11.5932291  22.3017464  59.7807281
  12.0730072  22.6312028  60.3061085  12.6134072  27.5669245  45.2433198
  12.7537033  28.0641710  45.9461839  13.1116605  26.8655540  45.3847411
  12.7075153  27.5371224  45.3684777  12.6434294  28.4336356  42.5725775
  13.2779374  29.0296781  42.5075236  12.7259905  28.1339814  43.3871645
  12.7490845  28.4777265  42.6828861  14.2213277  24.3650332  42.5471217
  14.5429118  23.8853414  41.8930479  14.4840221  25.1749978  42.3562028
  14.3079303  24.4140230  42.4226709  17.4510250  35.3869206  56.0670033
  16.9435341  35.9405053  56.5110663  17.1536896  35.4477496  55.2488807
  17.3315135  35.4775517  56.0118489  19.6172432  23.7522526  54.9094696
  20.0427504  23.2995052  54.2978222  19.0029425  23.1982596  55.1859483
  19.5901078  23.6036502  54.8599721   9.1487282  30.6304197  45.8415321
   9.6579512  31.2268705  46.2226626   9.6221555  30.3630171  45.1591740
   9.2930658  30.6790013  45.7969843  18.0566655  20.2237626  48.3185273
  17.4134973  20.0735272  48.8870411  17.7166062  19.9779971  47.5534377
  17.9111732  20.1649748  48.2888288  22.6466002  28.1797052  47.7415281
  21.9757191  28.7226755  47.6128347  23.3405752  28.6491908  47.4996976
  22.6494869  28.3295324  47.6870809  16.6952735  40.3193764  52.9727040
  16.4718390  39.5612594  53.3411066  16.2062579  40.3491786  52.2507479
  16.5896184  40.2115989  52.9203781  22.8094129  24.6352936  50.6505654
  23.1621739  24.2082659  51.3251453  21.9508931  24.5503780  50.7806731
  22.7343574  24.5597677  50.7700665  11.5077814  27.2660456  48.7088501
  10.7889803  27.6824588  48.9761365  11.8790176  27.8314694  48.1580139
  11.4569746  27.4109737  48.6671308  20.8077395  27.8988305  54.5990497
  20.7875322  27.7171600  55.4525276  20.8556596  28.7700323  54.5750080
  20.8112036  28.0004843  54.7213791  18.7523725  34.4875497  60.5238973
  18.7119580  33.8425174  59.9384129  19.5647043  34.4312114  60.8364385
  18.8666878  34.3834463  60.4835922  15.3431192  40.5394222  50.4264124
  14.9291591  39.8768353  50.0367966  16.0278567  40.6872081  49.9059818
  15.3829564  40.4634881  50.2920621  18.7096486  39.6984308  51.1787741
  18.3112770  39.8086578  50.4108561  18.0947706  39.9066374  51.7614301
  18.5595376  39.7457876  51.1519040  17.2824388  26.3058456  44.0461880
  16.6889228  26.6275452  43.4946447  17.3199666  25.4599551  43.8382987
  17.1998778  26.2282784  43.9344652  24.2418189  19.7571348  51.5789967
  23.7349054  19.0500487  51.5111144  25.0385623  19.4264537  51.7091044
  24.2845428  19.6044499  51.5888962  20.1582205  26.2637960  47.4763631
  19.9295898  26.2870662  46.6341989  20.4180281  25.4395427  47.5958641
  20.1628393  26.1454040  47.3688828  14.4401433  28.1172433  57.0788731
  13.9280337  27.5093616  57.4373762  14.2680930  28.8329026  57.5462707
  14.3391070  28.1335732  57.2004955   9.2867148  26.5610008  59.7291093
   9.1169738  27.2211383  59.1839299   8.8433098  26.7716570  60.4503582
   9.1966482  26.6895991  59.7552722  13.2126968  24.8014506  48.7717826
  13.6884334  25.1631586  48.1368007  12.7115567  25.4570974  49.0517969
  13.2092327  24.9508695  48.7194567  18.3170504  26.0396678  59.5190986
  18.8741934  25.8110487  58.8869452  17.9931569  26.8002343  59.2426199
  18.3516914  26.1180514  59.3847484   6.1869213  29.4656874  54.9879583
   5.6395932  28.7957520  55.1060451   6.9761591  29.0986722  55.0523050
   6.2221396  29.3121860  55.0148283  16.0353621  29.1264331  60.4842994
  16.7864948  29.4416008  60.7982548  16.2276198  28.9243502  59.6576915
  16.1745035  29.1431713  60.4086389  15.2553621  26.9455706  42.1391210
  15.6352586  26.9635335  41.3542325  14.5146217  27.3909695  42.0182058
  15.2022458  27.0137481  42.0054779  22.8838911  25.2537897  47.7266789
  22.8833138  25.0986554  48.5851065  22.6795091  26.1000884  47.6708175
  22.8538689  25.3558518  47.8454728   4.9456182  28.6777682  52.1425606
   4.7677943  28.2254291  52.8680521   4.6575204  29.4803843  52.3264083
   4.8769135  28.7300240  52.2769108  20.6079763  29.9335399  51.3802996
  21.1033429  29.2158394  51.3407016  19.7979539  29.6306197  51.2657483
  20.5623657  29.7833045  51.3576722  16.0538375  33.7833212  43.5300000
  15.2449697  33.4599886  43.4833310  16.5613284  33.0766435  43.4628249
  16.0088042  33.6314529  43.5130295   6.6828652  31.2105406  49.2547365
   5.8174171  31.1991096  49.1430136   6.7827468  31.0235628  50.1018504
   6.5702819  31.1811467  49.3636309  22.6731582  32.6839087  54.0680125
  23.0986654  32.1613509  53.5150550  22.3088502  33.2819924  53.5468748
  22.6818185  32.6949314  53.9089134  12.3085662  40.9803304  52.8277470
  12.6232221  41.7939693  52.8355252  12.7179075  40.5953523  53.4959629
  12.4153760  41.0432007  52.9281562  19.2610182  36.3973351  50.3981282
  19.7321360  37.1113614  50.5671267  19.5970360  35.7972101  50.9341152
  19.3805297  36.4144815  50.5013658  21.3487166  38.0074664  62.5773354
  21.4584132  37.2183225  62.9330101  21.6778063  37.9180601  61.7747692
  21.4139572  37.8780517  62.5115745  16.1779677  21.1700822  57.3539377
  16.3107582  20.3731815  57.6820352  16.5624829  21.6967225  57.9337653
  16.2536005  21.1300738  57.4882880  19.8984128  36.1891285  57.1608975
  19.3505074  35.5649169  56.8929040  20.3597157  36.3785557  56.4453054
  19.8851337  36.1250335  57.0159406  19.2512032  18.0931148  53.9520470
  18.4457995  17.9828877  54.2688308  19.1218767  18.1943603  53.0950336
  19.1132165  18.0914818  53.8728511  22.7077992  24.2576640  54.5460167
  22.1240981  24.7585846  54.1337734  23.0282286  23.7506196  53.9124490
  22.6691168  24.2568475  54.3918674  15.2472791  23.1717234  44.8218842
  16.0688486  23.3415547  44.5800537  14.7842442  23.3264495  44.0985139
  15.3003954  23.2198967  44.6790486  13.8368123  21.1659997  55.6017271
  14.3812536  20.8251123  56.1921612  13.8905059  22.0245458  55.7438555
  13.9257243  21.2415256  55.7099144   9.6498682  34.9276413  52.4756079
  10.2543539  34.8872247  51.8469899   9.4425995  35.7747565  52.5060134
   9.7087579  35.0464415  52.3872195  19.4642454  37.1942358  53.6918316
  20.2840828  37.0505324  53.9534611  19.1836532  37.8188557  54.2334754
  19.5439198  37.2652710  53.8106255   4.8849964  33.9111030  52.3455002
   4.7874242  33.1007302  52.6545058   5.6678834  33.8902824  51.9601270
   4.9866101  33.7878120  52.3341865  29.1355789  43.9382860  51.4114123
  28.2793685  44.0991359  51.4623240  29.1823443  43.0674924  51.4319184
  29.0154901  43.8333662  51.4220189  23.5196929  53.4745578  47.1751354
  22.7679829  53.0961117  46.9467399  23.9682941  53.5064012  46.4270165
  23.4746596  53.4231186  47.0308856  32.4449506  50.2069386  61.0174579
  33.1516273  49.7121417  61.1461513  32.6337441  50.6478468  60.2877237
  32.5777412  50.1987736  60.9283624  28.9721889  53.8970948  42.6036901
  28.6373257  54.5747869  42.1681124  29.4848759  53.5076259  42.0153773
  28.9987470  53.9395526  42.4523693  28.5126180  55.8485217  48.5448013
  28.8965560  56.4172115  48.0052788  28.4485322  55.1234727  48.0653829
  28.5599608  55.8260680  48.3941876  31.9807610  45.9974904  54.0545774
  32.5263570  46.6759991  54.1139744  31.9224487  45.8562365  53.1947356
  32.0523525  46.0766906  53.9357835  25.0981685  53.4863971  49.4414127
  25.1992048  52.6764324  49.7511255  24.5023431  53.3920917  48.8113805
  25.0254224  53.3528999  49.3940365  24.9382425  58.4041560  50.8428983
  25.5819880  58.8454724  51.2325141  25.2638680  57.5994986  50.7559242
  25.0814254  58.3506754  50.8874460  18.2946730  49.5084257  49.0666460
  18.0596914  48.6751909  48.9598729  18.4332370  49.7888923  48.2527661
  18.2802392  49.4267761  48.9308815  20.5936817  41.6769988  51.9650768
  19.9741849  41.0862635  51.7960783  20.4920681  42.2681423  51.3315091
  20.4874493  41.6774070  51.8455758  25.6403005  51.4153535  46.2148845
  25.9618846  51.9558742  45.6110153  26.2875101  50.8450306  46.3471134
  25.7829060  51.4112710  46.1455880  27.6904713  43.4169529  46.2983231
  28.3884877  43.5957657  46.7904695  28.0057045  42.8939869  45.6753621
  27.8400050  43.3663302  46.2785241  20.3205950  45.2222269  54.2094337
  20.1964647  45.8084715  54.8444156  20.9724235  44.7282465  54.5106612
  20.3979599  45.2361074  54.3480266  25.3464291  48.3983986  53.4881848
  25.9913294  47.9056429  53.1692797  25.5866068  48.5408773  54.3147927
  25.4774876  48.3461429  53.5631381  27.8850382  51.2438892  53.1388741
  28.1673625  50.4490298  52.9175497  28.6136543  51.7219480  53.1593802
  28.0339946  51.1973489  53.1091756  24.3020026  48.6715167  43.5398995
  23.7177241  49.1765198  43.9464859  23.8990121  48.4457554  42.7995587
  24.1559329  48.7123415  43.4904020  19.8564054  54.3869928  50.3422667
  19.3731633  55.1120418  50.3182250  20.6687373  54.6846058  50.4532824
  19.9054802  54.5372282  50.3549946  25.9278208  53.1802109  52.9472481
  25.4105150  52.8209524  52.3433789  26.6252600  52.6564283  52.9578547
  25.9543789  53.0499797  52.8602740  29.5841800  53.6296923  58.9088654
  29.6725146  53.4423063  59.7566864  30.0131513  52.9834352  58.5093501
  29.6603903  53.5059930  58.9760406  27.1512260  52.9128083  57.8906316
  26.5883095  52.5000692  58.4145978  27.9133284  52.8380988  58.3099460
  27.1806709  52.8405483  58.0299317  22.7108252  54.9026104  50.4942946
  23.4128831  54.3878093  50.5515703  22.6305735  55.2300255  51.2989822
  22.8032012  54.8740330  50.6215739  23.7587158  45.1401691  59.6223362
  23.9307662  45.0307585  60.4708643  24.2956516  45.7856096  59.3854554
  23.8632162  45.2193692  59.7128458  22.0359027  51.0932456  50.0028554
  22.8747926  51.3255389  50.0502316  22.0670796  50.2236767  49.9335590
  22.1640745  50.9989402  49.9993199  22.6611730  51.5133331  54.3041860
  23.2009955  51.3704462  54.9745232  21.9781676  51.9130082  54.6725886
  22.6403884  51.5513002  54.4576282  32.0852615  47.1924332  49.4986884
  32.8410130  47.6255846  49.5375793  32.1914939  46.5429101  50.0721520
  32.2122785  47.1601815  49.5884910  35.1232786  51.0197609  50.2489287
  34.6868018  51.0234351  51.0048259  34.7895701  51.7003108  49.8168865
  35.0095406  51.1210065  50.2970120  29.6961860  53.0605942  61.5732438
  30.4802276  53.1736789  61.9388180  29.4958454  52.2347079  61.7691124
  29.7827885  52.9552661  61.6566824  18.0648875  47.7333622  54.4576282
  17.7987290  46.9172738  54.6167272  18.0787439  47.7786777  53.5871797
  18.0273597  47.6190527  54.3529764  22.8147481  41.2712000  57.1043289
  22.1219278  40.8008980  57.3504021  23.4307809  41.0450305  57.6784996
  22.8032011  41.1679132  57.2252442  29.8532253  54.9716044  55.2198893
  29.0547499  54.7315544  55.4772762  30.3018264  55.0230437  55.9665941
  29.8006864  54.9438435  55.3683818  18.4742289  48.5192401  51.7388026
  18.2917862  48.4939287  50.8860318  19.2091958  48.9891339  51.7776935
  18.5556353  48.5853763  51.6185944  21.5388040  45.2377404  58.2470134
  22.2628013  45.2230435  58.7335029  21.6404177  45.9472759  57.7492103
  21.6606249  45.3402107  58.2448921  28.9132990  48.7176489  63.1119081
  28.1205971  49.0320000  63.2971701  29.0281917  48.9327957  62.2739866
  28.8128400  48.7960325  63.0157416  31.5864309  45.4410480  47.4014097
  31.6811163  46.1799774  47.8553723  30.9623152  45.0127955  47.8348662
  31.5073339  45.4871800  47.5322245  29.8416783  48.6196692  58.0504378
  30.4155644  47.9823937  58.2052942  29.7631586  48.6200775  57.1814036
  29.9150017  48.5261804  57.9450789  18.4413199  45.3985902  51.8887092
  19.0186702  45.2622353  52.5279338  17.7427261  44.9421686  52.1432677
  18.4234220  45.3108168  52.0209382  25.1980501  47.0519958  50.1025576
  24.9399745  46.2191692  50.0756875  25.2528984  47.2777571  49.2618076
  25.1680279  46.9617729  49.9745712  24.1715213  44.6057720  50.5890470
  23.5964805  44.7649888  51.2254431  23.7950890  43.9693129  50.1258921
  24.0318026  44.5355533  50.6145029  27.8388502  43.0781069  55.4482849
  27.4502935  42.6535287  54.7935040  27.1743200  43.3263219  55.9559875
  27.6835430  43.0519790  55.4270717  13.9172032  44.2497795  48.6034911
  14.0032284  43.8729663  49.3848441  14.5447830  43.8758240  48.1254869
  14.0228583  44.1383277  48.6480388  24.8135349  50.7801191  48.7731968
  25.4509295  50.5412939  49.3183761  25.2390420  50.9838350  48.0385128
  24.9711515  50.7752202  48.7449125  19.5047991  53.0189528  52.6566272
  19.5452136  53.2904379  51.8286051  20.0642515  53.5431436  53.0724060
  19.5931337  53.1365283  52.5958160  25.6206704  39.2809896  62.8269441
  25.3060145  40.0509459  62.5639004  25.2996637  38.7180152  62.2421668
  25.5265623  39.3120165  62.7010791  27.1956820  51.2573614  50.4525754
  27.2695829  51.0948786  51.3067604  28.0126327  51.4463804  50.2086236
  27.3273179  51.2610356  50.5423780  20.9562577  51.6031477  47.4820198
  20.1300695  51.8493214  47.3554476  21.0174568  51.5243558  48.3482256
  20.8436744  51.6276426  47.5909142  23.1738601  37.6700418  48.4415638
  22.3061026  37.7423017  48.5073247  23.4613805  38.4722497  48.6303613
  23.0878349  37.7994565  48.4790404  25.7361406  54.2208357  45.1839228
  26.0259705  53.8297338  44.4598454  26.4664887  54.4025062  45.6244503
  25.8868290  54.1902171  45.1422035  26.3256151  49.0226103  56.2692358
  25.8267845  49.7341871  56.3477246  27.1356376  49.3426770  56.2310520
  26.3712258  49.1752952  56.2748927  23.6767322  56.1975739  48.2499377
  23.4567617  55.9073094  49.0426044  23.4561844  55.5390694  47.7217290
  23.6114916  56.0575448  48.2888286  22.5884269  48.2849056  50.5155079
  22.2997518  47.6586527  51.0500806  23.4567617  48.2269343  50.5819759
  22.6744521  48.1836600  50.6046033  25.8435277  57.5705129  47.0330070
  26.4959336  57.0381572  47.2621096  25.1460886  57.2173782  47.4197944
  25.8365995  57.4394652  47.1242237  22.7916542  49.9244307  46.4397444
  23.5462510  50.3057346  46.6532906  22.1987155  50.3755451  46.8944140
  22.8153256  50.0473134  46.5380322  25.2523209  41.8807147  61.5654656
  24.4422985  42.1864927  61.4544499  25.7297896  42.6012730  61.6807240
  25.2026688  42.0321748  61.5661727  24.1114769  51.0952868  51.8137559
  23.5895522  51.2353160  52.4989424  24.4988789  50.3363533  52.0039677
  24.0918470  51.0038392  51.9438636  21.1005953  41.1458677  45.8832514
  20.8130749  40.7759947  45.1464461  21.7876421  41.6153532  45.6216219
  21.1594850  41.1605646  45.7347590  25.5381095  48.1256887  47.2119050
  25.3423877  48.7331622  46.6179353  25.7615440  47.4324831  46.7310724
  25.5415736  48.1134413  47.0535131  23.9359625  45.0111625  47.3299919
  24.6582276  45.1752783  46.8703725  23.4567617  45.7321290  47.2239258
  23.9723355  45.1409855  47.2465533  21.5867241  47.4169698  56.4354059
  22.0988338  47.6953951  55.7862818  21.3003584  48.1558992  56.8016872
  21.6202104  47.5672051  56.3943937  18.6734148  41.9239890  46.7317795
  18.7750284  42.7266051  47.0598771  19.4690034  41.7227225  46.4340876
  18.8062053  42.0125788  46.7353150  19.4897880  42.0387068  54.4738917
  19.3483371  41.1871008  54.5983425  19.7738443  42.0815728  53.6501123
  19.5105726  41.9186818  54.3706541  29.6436472  43.8754158  48.6183405
  29.3971186  43.7949909  49.4520194  29.9721595  43.0907626  48.4245932
  29.6557716  43.7480423  48.7130928  33.5384521  50.5837517  52.4070186
  33.3998880  51.2818563  52.9118929  32.7584519  50.4286174  52.0506368
  33.4027748  50.6637684  52.4296460  31.8762606  46.8833893  58.6592568
  31.8710644  46.0113709  58.6634994  32.5823600  47.0822062  58.1862024
  31.9807610  46.7837767  58.5899603  25.6033499  46.6110877  58.0306388
  25.7476875  47.1912085  57.3949498  25.9509148  46.9887173  58.7356243
  25.6760961  46.7531581  58.0405383  27.7753417  45.8101045  55.8131520
  27.0276731  46.0032059  55.4079798  27.9294942  44.9846264  55.5755641
  27.6875844  45.7166156  55.7176925  24.6761254  54.8013648  54.8967415
  24.8250818  54.2416564  54.2440819  25.4561256  54.8805650  55.2799934
  24.8135348  54.7299214  54.8564364  27.2014555  54.9728291  56.1751906
  27.1258226  54.3037102  56.7302694  27.1304414  55.6746079  56.6892572
  27.1795162  54.9773199  56.3328754  20.2588185  39.9517415  57.7916367
  19.7230374  39.3397774  58.1077134  20.3205950  40.5265551  58.4450034
  20.1883818  39.9464343  57.9351794  27.8584802  53.4929290  47.0075512
  28.6234693  53.2238934  46.6858176  27.7562892  53.0079300  47.7245574
  27.9566297  53.3818855  47.0655339  31.2781258  49.3296130  51.2728193
  30.6026260  49.0981362  51.7741580  31.2873634  48.7217313  50.6470298
  31.1799762  49.2055055  51.2544346  28.4075402  44.1713959  58.0292246
  28.3434543  45.0323915  57.9012383  28.5472590  43.8545952  57.2287798
  28.4190872  44.2514125  57.8920459  27.0894496  46.8646098  52.1708449
  26.6656745  47.0650597  51.4347468  26.9139351  46.0174946  52.2832749
  27.0005376  46.7694879  52.0782139  26.5906189  58.3796611  54.6329906
  27.0802120  57.6807400  54.4505571  26.0190422  58.0820481  55.2205964
  26.5790719  58.2322835  54.6930947  22.3776941  47.3598149  47.6036422
  22.5341560  47.2944952  48.4592414  22.7177534  48.1346702  47.3915101
  22.4510176  47.4647348  47.6991016  32.7873193  50.9458680  63.5856697
  33.6008058  50.6743829  63.7461830  32.6268159  50.6466220  62.7816893
  32.8843141  50.8613606  63.4902103  27.0842535  52.1273385  43.7569813
  27.1535355  51.2687923  43.8962813  27.8630990  52.3445265  43.4288838
  27.2095385  52.0326249  43.7286970  31.4750023  54.5511086  47.9706306
  31.0829814  54.2477801  47.2529172  31.6303095  55.3880176  47.7811260
  31.4403613  54.6294923  47.8362803  18.9511202  44.5433100  47.9197189
  19.3310167  44.9617645  47.2557456  18.3766567  45.1246556  48.2266032
  18.9222527  44.6910959  47.8673930  29.3237950  44.6441474  62.2464095
  29.7937581  45.2683591  62.6331969  29.3699830  43.9758450  62.8057309
  29.4005826  44.6376154  62.3864166  32.7994437  52.0064971  58.8579538
  33.4374157  51.5125166  58.5241994  32.1568528  51.9342371  58.2731765
  32.7988663  51.9223979  58.7221893  32.8548693  52.6984779  55.4984894
  33.6441072  52.3473844  55.6186976  33.0292291  53.5121167  55.2361528
  32.9968975  52.7670636  55.4772762  22.5942004  46.1093505  52.5512683
  21.7530010  46.0097379  52.7591577  22.8032012  46.8788985  52.9027004
  22.5006696  46.2085548  52.6339998  20.0717571  43.7313042  50.3797434
  19.6774268  43.8056053  49.6047544  19.5157688  44.1170988  50.9305796
  19.9320383  43.7994816  50.3465094  26.4058669  44.0374904  51.8010281
  26.1021806  43.4830892  52.4020688  25.7038089  44.2167114  51.3138315
  26.2574878  43.9819686  51.8179986  24.4677020  51.2524625  56.5082379
  24.3597375  51.2626687  57.3744437  24.6772801  52.0779405  56.3187332
  24.4827131  51.3765699  56.6086470  22.4850812  48.5037267  53.9704316
  21.8938745  49.1446765  53.9407331  23.2471835  48.9274884  53.9435616
  22.5099072  48.6613105  53.9619463  24.5294784  40.3305960  59.2044361
  24.1380349  39.6839307  59.6400139  24.6980647  40.9217395  59.8238616
  24.4965695  40.3220227  59.3607067  32.2440328  53.9546579  51.4036341
  32.0460017  54.4437393  50.7092552  31.6228039  54.1587820  51.9820474
  32.1227892  54.0563117  51.3859564  26.3048306  45.7231475  45.7446585
  27.0490351  46.1105752  45.9829535  26.4509002  44.8788901  45.9087073
  26.4358891  45.6561948  45.8040555  29.2926182  41.2956949  51.6440504
  28.8186136  40.7698711  52.1545815  29.6644318  40.7486422  51.0755366
  29.2776071  41.1372945  51.6355651  19.6699212  43.2928455  57.0124050
  20.5324825  43.1924165  56.9261380  19.3390995  42.7123165  56.4509622
  19.7484409  43.1920082  56.9169456  34.1614130  47.5210731  56.9381589
  34.8848329  47.0683257  56.7592609  33.8964092  47.8015397  56.1553917
  34.2295403  47.4961699  56.7960304  23.0300998  42.1170904  53.6734468
  22.4054068  42.1289296  53.0660421  22.6946593  42.5931080  54.3225708
  22.8886490  42.1889421  53.6791037  19.7426674  50.1771364  55.1138232
  19.2126598  49.4863803  55.1633207  20.0151767  50.1681550  54.2850941
  19.7051396  50.0738496  54.9985648  29.9432919  47.6194609  55.0876604
  29.3289912  47.0752659  55.3825239  30.4600204  47.1058846  54.6082420
  29.9288582  47.4631018  55.0600832  29.1829217  48.6898879  52.8220903
  28.7556825  48.0648598  52.3886338  29.1754161  48.4073801  53.6479910
  29.1188358  48.5551660  52.8800730  22.2991744  43.7264052  55.8909337
  22.4585230  42.9707376  56.2961059  22.1184637  44.2754992  56.5450074
  22.2957103  43.6957866  56.0472043  15.0222516  46.8499129  52.4706581
  14.9165965  46.8045973  51.6058665  14.2722736  47.1952909  52.7520866
  14.8958119  46.8940037  52.3843910  25.9745861  47.8599192  60.5189476
  25.1241492  47.9970906  60.6547121  26.1373989  47.1262970  60.9637177
  25.8729725  47.7713293  60.6045075  25.2130612  44.8098962  54.7143080
  24.3822541  44.9772780  54.5078328  25.1582129  44.4334913  55.4991965
  25.0820027  44.7788693  54.7991608  23.0214395  38.3007855  60.3499491
  23.6467098  37.7569987  60.6228923  22.5664875  37.8202772  59.7807281
  23.0462656  38.1497336  60.3061085  23.5866656  43.0854553  45.2433198
  23.7269617  43.5827018  45.9461839  24.0849188  42.3840848  45.3847411
  23.6807737  43.0556532  45.3684777  28.4242834  50.9054514  56.0670033
  27.9167925  51.4590361  56.5110663  28.1269480  50.9662804  55.2488807
  28.3047719  50.9960825  56.0118489  20.1219866  46.1489505  45.8415321
  20.6312095  46.7454013  46.2226626  20.5954138  45.8815479  45.1591740
  20.2663242  46.1975321  45.7969843  27.6685319  55.8379072  52.9727040
  27.4450973  55.0797902  53.3411066  27.1795162  55.8677094  52.2507479
  27.5628768  55.7301297  52.9203781  22.4810398  42.7845764  48.7088501
  21.7622387  43.2009896  48.9761365  22.8522760  43.3500002  48.1580139
  22.4302329  42.9295045  48.6671308  29.7256308  50.0060805  60.5238973
  29.6852163  49.3610481  59.9384129  30.5379627  49.9497422  60.8364385
  29.8399462  49.9019771  60.4835922  26.3163776  56.0579530  50.4264124
  25.9024174  55.3953661  50.0367966  27.0011150  56.2057389  49.9059818
  26.3562148  55.9820189  50.2920621  29.6829070  55.2169616  51.1787741
  29.2845353  55.3271886  50.4108561  29.0680290  55.4251682  51.7614301
  29.5327959  55.2643184  51.1519040  31.1314789  41.7823268  47.4763631
  30.9028482  41.8055969  46.6341989  31.3912865  40.9580735  47.5958641
  31.1360977  41.6639348  47.3688828  25.4134017  43.6357741  57.0788731
  24.9012920  43.0278924  57.4373762  25.2413513  44.3514334  57.5462707
  25.3123654  43.6521040  57.2004955  20.2599732  42.0795316  59.7291093
  20.0902322  42.7396691  59.1839299  19.8165682  42.2901878  60.4503582
  20.1699065  42.2081299  59.7552722  37.4170913  49.7921582  44.5630831
  37.8004518  50.5412939  44.7928928  36.6215026  50.0387402  44.3042820
  37.3564695  49.9391276  44.5588405  29.2903087  41.5581986  59.5190986
  29.8474518  41.3295795  58.8869452  28.9664152  42.3187651  59.2426199
  29.3249498  41.6365822  59.3847484  17.1601796  44.9842182  54.9879583
  16.6128516  44.3142827  55.1060451  17.9494174  44.6172030  55.0523050
  17.1953980  44.8307168  55.0148283  27.0086205  44.6449639  60.4842994
  27.7597532  44.9601316  60.7982548  27.2008781  44.4428810  59.6576915
  27.1477619  44.6617021  60.4086389  15.9188766  44.1962990  52.1425606
  15.7410527  43.7439599  52.8680521  15.6307788  44.9989151  52.3264083
  15.8501719  44.2485548  52.2769108  31.5812347  45.4520707  51.3802996
  32.0766012  44.7343702  51.3407016  30.7712123  45.1491505  51.2657483
  31.5356240  45.3018353  51.3576722  17.6561236  46.7290713  49.2547365
  16.7906755  46.7176404  49.1430136  17.7560051  46.5420936  50.1018504
  17.5435403  46.6996775  49.3636309  33.6464166  48.2024395  54.0680125
  34.0719237  47.6798816  53.5150550  33.2821086  48.8005232  53.5468748
  33.6550768  48.2134622  53.9089134  23.2818245  56.4988612  52.8277470
  23.5964804  57.3125001  52.8355252  23.6911659  56.1138831  53.4959629
  23.3886343  56.5617314  52.9281562  30.2342765  51.9158659  50.3981282
  30.7053943  52.6298921  50.5671267  30.5702944  51.3157409  50.9341152
  30.3537880  51.9330123  50.5013658  32.3219750  53.5259972  62.5773354
  32.4316715  52.7368533  62.9330101  32.6510646  53.4365908  61.7747692
  32.3872156  53.3965825  62.5115745  30.8716711  51.7076593  57.1608975
  30.3237657  51.0834477  56.8929040  31.3329740  51.8970865  56.4453054
  30.8583921  51.6435643  57.0159406  20.6231266  50.4461721  52.4756079
  21.2276123  50.4057555  51.8469899  20.4158578  51.2932873  52.5060134
  20.6820163  50.5649723  52.3872195  30.4375038  52.7127666  53.6918316
  31.2573412  52.5690632  53.9534611  30.1569115  53.3373865  54.2334754
  30.5171781  52.7838018  53.8106255  15.8582548  49.4296338  52.3455002
  15.7606826  48.6192610  52.6545058  16.6411418  49.4088131  51.9601270
  15.9598684  49.3063428  52.3341865  46.9088688  60.3692517  46.6561192
  46.8782692  61.2237154  46.8279462  47.5070037  60.0687810  47.2147336
  46.9925846  60.4509014  46.7635995  40.1088373  59.4568168  51.4114123
  39.2526268  59.6176667  51.4623240  40.1556027  58.5860232  51.4319184
  39.9887484  59.3518970  51.4220189  34.4929513  68.9930886  47.1751354
  33.7412412  68.6146425  46.9467399  34.9415524  69.0249320  46.4270165
  34.4479180  68.9416493  47.0308856  43.4182090  65.7254694  61.0174579
  44.1248857  65.2306725  61.1461513  43.6070025  66.1663776  60.2877237
  43.5509995  65.7173044  60.9283624  39.9454473  69.4156256  42.6036901
  39.6105841  70.0933177  42.1681124  40.4581343  69.0261567  42.0153773
  39.9720054  69.4580834  42.4523693  39.4858764  71.3670524  48.5448013
  39.8698143  71.9357423  48.0052788  39.4217905  70.6420035  48.0653829
  39.5332191  71.3445988  48.3941876  42.9540194  61.5160212  54.0545774
  43.4996154  62.1945299  54.1139744  42.8957070  61.3747673  53.1947356
  43.0256108  61.5952214  53.9357835  36.0714269  69.0049278  49.4414127
  36.1724632  68.1949632  49.7511255  35.4756014  68.9106225  48.8113805
  35.9986808  68.8714307  49.3940365  44.7305263  62.9444819  44.9279502
  44.6144789  63.6952506  45.3571640  45.5261149  62.6868773  45.1775589
  44.8309852  63.0179666  45.0283594  35.9115008  73.9226868  50.8428983
  36.5552464  74.3640032  51.2325141  36.2371264  73.1180294  50.7559242
  36.0546837  73.8692062  50.8874460  29.2679313  65.0269565  49.0666460
  29.0329498  64.1937217  48.9598729  29.4064954  65.3074231  48.2527661
  29.2534976  64.9453068  48.9308815  31.5669401  57.1955296  51.9650768
  30.9474432  56.6047943  51.7960783  31.4653264  57.7866731  51.3315091
  31.4607076  57.1959378  51.8455758  36.6135588  66.9338842  46.2148845
  36.9351429  67.4744050  45.6110153  37.2607685  66.3635614  46.3471134
  36.7561643  66.9298018  46.1455880  38.6637296  58.9354837  46.2983231
  39.3617461  59.1142965  46.7904695  38.9789629  58.4125177  45.6753621
  38.8132633  58.8848610  46.2785241  31.2938534  60.7407577  54.2094337
  31.1697230  61.3270023  54.8444156  31.9456818  60.2467773  54.5106612
  31.3712183  60.7546382  54.3480266  38.8525232  65.3225282  46.2863023
  39.2918867  64.7142383  46.7317796  38.7029894  64.9432656  45.5148488
  38.8946697  65.1763754  46.2382190  36.3196875  63.9169294  53.4881848
  36.9645877  63.4241737  53.1692797  36.5598652  64.0594081  54.3147927
  36.4507460  63.8646736  53.5631381  38.8582966  66.7624200  53.1388741
  39.1406209  65.9675606  52.9175497  39.5869126  67.2404788  53.1593802
  39.0072530  66.7158797  53.1091756  36.8364160  54.3047234  50.3804506
  36.5067490  54.7558378  49.7108205  36.1609162  54.2263397  50.9277512
  36.6874596  54.3598369  50.3627729  42.4534568  63.6752464  43.2393792
  42.3685863  64.5313430  43.3843361  42.9418951  63.3996788  43.9075951
  42.5123465  63.7609785  43.3595873  43.3853001  60.2937258  44.7391527
  42.8564473  60.5096891  45.3988833  43.9078021  60.9873396  44.6592496
  43.3841454  60.4280395  44.8247126  48.8401054  65.8683562  50.1124572
  48.0098757  66.0794206  50.2757988  48.7910307  65.0420617  49.8366855
  48.7107790  65.7773169  50.0961937  35.2752609  64.1900475  43.5398995
  34.6909824  64.6950506  43.9464859  34.8722704  63.9642862  42.7995587
  35.1291913  64.2308723  43.4904020  30.8296638  69.9055236  50.3422667
  30.3464216  70.6305725  50.3182250  31.6419956  70.2031366  50.4532824
  30.8787386  70.0557590  50.3549946  36.9010792  68.6987417  52.9472481
  36.3837734  68.3394832  52.3433789  37.5985183  68.1749591  52.9578547
  36.9276373  68.5685104  52.8602740  40.5574384  69.1482231  58.9088654
  40.6457730  68.9608371  59.7566864  40.9864096  68.5019660  58.5093501
  40.6336486  69.0245238  58.9760406  38.1244844  68.4313391  57.8906316
  37.5615678  68.0186000  58.4145978  38.8865867  68.3566296  58.3099460
  38.1539292  68.3590791  58.0299317  39.7329824  60.4366127  42.0167916
  39.9725827  60.6444111  41.2043259  40.0545665  59.6323635  42.1256860
  39.8166982  60.3480228  41.9128469  33.6840835  70.4211412  50.4942946
  34.3861414  69.9063401  50.5515703  33.6038318  70.7485563  51.2989822
  33.7764596  70.3925638  50.6215739  48.3355013  58.5153963  53.9074993
  47.4983434  58.5856150  54.1422587  48.3043244  58.5178458  53.0349295
  48.2073295  58.5264190  53.8134541  34.7319742  60.6586999  59.6223362
  34.9040245  60.5492893  60.4708643  35.2689099  61.3041404  59.3854554
  34.8364746  60.7379000  59.7128458  33.0091611  66.6117764  50.0028554
  33.8480510  66.8440696  50.0502316  33.0403380  65.7422075  49.9335590
  33.1373328  66.5174710  49.9993199  33.6344314  67.0318639  54.3041860
  34.1742538  66.8889770  54.9745232  32.9514260  67.4315390  54.6725886
  33.6136467  67.0698310  54.4576282  39.0776898  51.7756252  45.5954590
  39.8063058  51.5972207  45.1492747  39.1671791  52.6174332  45.8061769
  39.1983560  51.8740131  45.5608108  43.0585198  62.7109640  49.4986884
  43.8142713  63.1441154  49.5375793  43.1647523  62.0614409  50.0721520
  43.1855369  62.6787123  49.5884910  46.0965370  66.5382917  50.2489287
  45.6600601  66.5419659  51.0048259  45.7628285  67.2188416  49.8168865
  45.9827989  66.6395373  50.2970120  40.6694443  68.5791250  61.5732438
  41.4534860  68.6922097  61.9388180  40.4691038  67.7532387  61.7691124
  40.7560469  68.4737969  61.6566824  29.0381459  63.2518930  54.4576282
  28.7719874  62.4358046  54.6167272  29.0520023  63.2972085  53.5871797
  29.0006181  63.1375834  54.3529764  32.9439206  58.0504014  41.0728040
  32.2297383  57.7642194  41.4850472  33.4283174  58.3900640  41.7134427
  32.9098569  58.0585664  41.2283675  33.7880065  56.7897308  57.1043289
  33.0951862  56.3194288  57.3504021  34.4040392  56.5635612  57.6784996
  33.7764595  56.6864440  57.2252442  40.8264836  70.4901352  55.2198893
  40.0280082  70.2500852  55.4772762  41.2750848  70.5415745  55.9665941
  40.7739448  70.4623743  55.3683818  49.2309716  63.2563837  49.1408925
  49.8926150  62.6954505  49.0404833  48.5901128  62.7615867  49.4661616
  49.2338583  63.1000246  49.1741265  40.1186523  66.5533968  41.4489848
  40.5337672  66.2218992  40.7574344  39.2878453  66.3202870  41.3209985
  40.0574532  66.4705224  41.3280695  29.4474872  64.0377709  51.7388026
  29.2650445  64.0124595  50.8860318  30.1824541  64.5076647  51.7776935
  29.5288936  64.1039071  51.6185944  45.5174546  64.2729219  48.8820913
  45.7530136  64.4174418  48.0547764  45.6664110  65.0371627  49.2752427
  45.5740350  64.4068273  48.8184517  32.5120624  60.7562712  58.2470134
  33.2360596  60.7415743  58.7335029  32.6136760  61.4658067  57.7492103
  32.6338833  60.8587415  58.2448921  47.3465003  63.1130885  46.7190517
  47.6773220  63.6458525  46.1130612  47.9198091  63.1669773  47.3752468
  47.4798682  63.2000454  46.7268299  39.8865573  64.2361797  63.1119081
  39.0938554  64.5505308  63.2971701  40.0014500  64.4513265  62.2739866
  39.7860984  64.3145633  63.0157416  42.5596892  60.9595788  47.4014097
  42.6543747  61.6985082  47.8553723  41.9355736  60.5313263  47.8348662
  42.4805922  61.0057108  47.5322245  40.8149366  64.1382000  58.0504378
  41.3888228  63.5009245  58.2052942  40.7364170  64.1386083  57.1814036
  40.8882601  64.0447112  57.9450789  29.4145783  60.9171210  51.8887092
  29.9919285  60.7807661  52.5279338  28.7159844  60.4606994  52.1432677
  29.3966804  60.8293476  52.0209382  42.8119914  62.8044528  40.6351049
  42.7300076  62.8746715  41.5006036  43.4499634  63.3674271  40.4434790
  42.8939751  62.8983499  40.7340999  36.1713085  62.5705265  50.1025576
  35.9132329  61.7377000  50.0756875  36.2261568  62.7962878  49.2618076
  36.1412863  62.4803037  49.9745712  41.2514135  54.6733716  50.2029668
  40.5470462  54.1842902  50.3613587  41.2999109  54.6856191  49.3318113
  41.1544186  54.6023364  50.0969008  35.1447797  60.1243028  50.5890470
  34.5697388  60.2835196  51.2254431  34.7683473  59.4878437  50.1258921
  35.0050609  60.0540841  50.6145029  38.8121086  58.5966377  55.4482849
  38.4235518  58.1720595  54.7935040  38.1475784  58.8448527  55.9559875
  38.6568013  58.5705098  55.4270717  24.8904616  59.7683103  48.6034911
  24.9764868  59.3914971  49.3848441  25.5180413  59.3943548  48.1254869
  24.9961167  59.6568585  48.6480388  39.9160024  62.8264982  43.6459656
  40.7300663  63.1179875  43.5342427  39.8519165  62.1724844  43.0717949
  40.0262763  62.7730177  43.5448493  46.1369514  65.5090978  58.0589231
  45.9008151  64.6779043  57.9401292  46.7812743  65.4576585  58.6444076
  46.1964185  65.3788666  58.1275125  35.7867932  66.2986499  48.7731968
  36.4241879  66.0598247  49.3183761  36.2123004  66.5023658  48.0385128
  35.9444098  66.2937509  48.7449125  30.4780574  68.5374836  52.6566272
  30.5184720  68.8089687  51.8286051  31.0375099  69.0616744  53.0724060
  30.5663920  68.6550591  52.5958160  36.4270747  61.5188789  43.1106857
  36.8115900  61.2996496  43.8623402  36.1782367  62.3451734  43.2407934
  36.4472820  61.6086935  43.2407934  36.5939288  54.7995204  62.8269441
  36.2792729  55.5694767  62.5639004  36.2729220  54.2365460  62.2421668
  36.4998207  54.8305473  62.7010791  47.1605935  65.2935427  54.1217526
  46.8551752  66.0263484  54.4830842  46.4412150  64.8873356  53.8410312
  47.0093277  65.3417160  54.1330663  38.1689404  66.7758922  50.4525754
  38.2428412  66.6134094  51.3067604  38.9858910  66.9649111  50.2086236
  38.3005763  66.7795664  50.5423780  52.8607727  61.9328427  53.4485870
  52.7932227  61.9524386  52.5788457  52.8463389  62.7758755  53.6741541
  52.8486483  62.0602162  53.3538347  31.9295161  67.1216785  47.4820198
  31.1033278  67.3678522  47.3554476  31.9907152  67.0428866  48.3482256
  31.8169328  67.1461734  47.5909142  34.1471184  53.1885726  48.4415638
  33.2793610  53.2608325  48.5073247  34.4346389  53.9907805  48.6303613
  34.0610933  53.3179873  48.4790404  36.7093990  69.7393665  45.1839228
  36.9992288  69.3482646  44.4598454  37.4397471  69.9210370  45.6244503
  36.8600874  69.7087479  45.1422035  50.6466344  60.7072814  51.7232465
  51.1974266  60.0740883  51.9629557  50.6310459  61.2388206  52.4147969
  50.7251540  60.6921762  51.8611323  37.2988735  64.5411411  56.2692358
  36.8000429  65.2527179  56.3477246  38.1088959  64.8612077  56.2310520
  37.3444842  64.6938259  56.2748927  34.6499905  71.7161047  48.2499377
  34.4300201  71.4258402  49.0426044  34.4294427  71.0576002  47.7217290
  34.5847500  71.5760756  48.2888286  33.5616853  63.8034364  50.5155079
  33.2730101  63.1771835  51.0500806  34.4300201  63.7454651  50.5819759
  33.6477104  63.7021908  50.6046033  44.3494750  58.9469147  50.8337061
  44.0059516  58.2259482  51.1844310  44.4487793  58.7382998  49.9915419
  44.3136793  58.8093350  50.7608741  36.8167861  73.0890437  47.0330070
  37.4691919  72.5566880  47.2621096  36.1193470  72.7359090  47.4197944
  36.8098579  72.9579960  47.1242237  33.7649126  65.4429615  46.4397444
  34.5195094  65.8242654  46.6532906  33.1719739  65.8940759  46.8944140
  33.7885839  65.5658442  46.5380322  44.8107779  65.4094851  46.3761049
  45.3765812  66.0688061  46.2919592  44.1635683  65.7544549  46.8477451
  44.7986536  65.5576793  46.4333805  36.2255793  57.3992455  61.5654656
  35.4155569  57.7050235  61.4544499  36.7030480  58.1198038  61.6807240
  36.1759272  57.5507056  61.5661727  35.0847353  66.6138176  51.8137559
  34.5628106  66.7538468  52.4989424  35.4721373  65.8548841  52.0039677
  35.0651053  66.5223700  51.9438636  32.0738537  56.6643985  45.8832514
  31.7863332  56.2945255  45.1464461  32.7609005  57.1338840  45.6216219
  32.1327434  56.6790954  45.7347590  41.2814357  68.3533636  45.7998128
  41.0401033  67.6201496  45.3925193  41.4615690  68.9020492  45.1464461
  41.2721981  68.3256027  45.6428351  36.5113678  63.6442195  47.2119050
  36.3156461  64.2516930  46.6179353  36.7348024  62.9510139  46.7310724
  36.5148319  63.6319721  47.0535131  34.9092208  60.5296933  47.3299919
  35.6314860  60.6938091  46.8703725  34.4300201  61.2506598  47.2239258
  34.9455939  60.6595163  47.2465533  42.8685716  56.8660732  52.7096604
  42.0296816  56.8922011  52.4734867  42.9390083  57.5131467  53.2901950
  42.7554109  56.9656858  52.7605721  32.5599825  62.9355006  56.4354059
  33.0720922  63.2139259  55.7862818  32.2736167  63.6744300  56.8016872
  32.5934688  63.0857359  56.3943937  41.3154994  53.7646109  47.4424220
  42.0181347  53.5653857  46.9644178  41.0499183  52.9922051  47.7493063
  41.3801626  53.6209075  47.4169661  46.7443240  62.0728719  49.9957845
  46.6577214  62.2284145  50.8492624  46.2893719  62.7166794  49.6217250
  46.6646496  62.1904474  50.0664952  29.6466731  57.4425197  46.7317795
  29.7482868  58.2451359  47.0598771  30.4422618  57.2412533  46.4340876
  29.7794637  57.5311096  46.7353150  36.0783550  55.0281394  56.4955100
  35.8866747  55.0436529  57.3454524  36.9282146  55.2245068  56.4721755
  36.1759272  55.0595745  56.6178395  30.4630463  57.5572376  54.4738917
  30.3215955  56.7056316  54.5983425  30.7471027  57.6001036  53.6501123
  30.4838309  57.4372126  54.3706541  40.6169056  59.3939466  48.6183405
  40.3703770  59.3135217  49.4520194  40.9454179  58.6092934  48.4245932
  40.6290299  59.2665731  48.7130928  44.5117104  66.1022825  52.4070186
  44.3731464  66.8003871  52.9118929  43.7317102  65.9471482  52.0506368
  44.3760331  66.1822992  52.4296460  42.8495190  62.4019201  58.6592568
  42.8443228  61.5299017  58.6634994  43.5556183  62.6007370  58.1862024
  42.9540194  62.3023075  58.5899603  36.5766083  62.1296184  58.0306388
  36.7209459  62.7097393  57.3949498  36.9241731  62.5072481  58.7356243
  36.6493544  62.2716888  58.0405383  38.7486000  61.3286353  55.8131520
  38.0009314  61.5217367  55.4079798  38.9027525  60.5031572  55.5755641
  38.6608428  61.2351464  55.7176925  35.6493838  70.3198956  54.8967415
  35.7983402  69.7601872  54.2440819  36.4293840  70.3990958  55.2799934
  35.7867932  70.2484522  54.8564364  46.0070477  65.4601079  43.1686685
  45.6277286  64.6738217  43.1615975  45.3436723  66.0087936  43.0258330
  45.8528952  65.4245903  43.1467482  38.1747139  70.4913599  56.1751906
  38.0990810  69.8222410  56.7302694  38.1036998  71.1931387  56.6892572
  38.1527745  70.4958506  56.3328754  38.9887777  55.2236904  56.7026923
  39.4460391  55.9560878  56.8299716  39.0644106  54.8003369  57.4614179
  39.0678747  55.2694142  56.8328000  31.2320769  55.4702723  57.7916367
  30.6962958  54.8583081  58.1077134  31.2938533  56.0450859  58.4450034
  31.1616401  55.4649651  57.9351794  38.8317385  69.0114598  47.0075512
  39.5967277  68.7424242  46.6858176  38.7295475  68.5264608  47.7245574
  38.9298881  68.9004163  47.0655339  36.8670155  57.2139007  53.5468747
  36.0766230  57.0330468  53.8686083  37.2630778  56.4365960  53.5299042
  36.8087031  57.0726468  53.5921296  41.3536046  66.0426782  38.9875461
  42.1209031  66.1026907  38.5781313  40.9067355  65.4707223  38.5031779
  41.4009473  65.9663357  38.8553171  42.2513841  64.8481438  51.2728193
  41.5758843  64.6166670  51.7741580  42.2606218  64.2402621  50.6470298
  42.1532346  64.7240363  51.2544346  39.3807985  59.6899267  58.0292246
  39.3167127  60.5509223  57.9012383  39.5205173  59.3731260  57.2287798
  39.3923456  59.7699433  57.8920459  44.2530576  67.7046570  43.5038371
  44.3350413  68.5113556  43.1799822  44.7380318  67.7242529  44.2279145
  44.3367734  67.8267232  43.5625270  38.0627079  62.3831406  52.1708449
  37.6389328  62.5835905  51.4347468  37.8871935  61.5360254  52.2832749
  37.9737960  62.2880187  52.0782139  37.5638773  73.8981919  54.6329906
  38.0534703  73.1992708  54.4505571  36.9923005  73.6005789  55.2205964
  37.5523303  73.7508143  54.6930947  33.3509524  62.8783457  47.6036422
  33.5074143  62.8130260  48.4592414  33.6910117  63.6532010  47.3915101
  33.4242759  62.9832656  47.6991016  39.8888669  62.2541341  46.4729785
  40.4304214  61.7511722  46.9368405  40.2035228  62.2006536  45.6619270
  40.0153066  62.1720762  46.4213597  43.7605776  66.4643988  63.5856697
  44.5740642  66.1929137  63.7461830  43.6000743  66.1651528  62.7816893
  43.8575725  66.3798914  63.4902103  38.0575119  67.6458692  43.7569813
  38.1267939  66.7873231  43.8962813  38.8363574  67.8630573  43.4288838
  38.1827969  67.5511556  43.7286970  41.0377938  57.1477645  56.5252085
  41.2519908  56.5088560  55.9715439  40.4211838  57.5923469  56.0959947
  40.9783268  57.1187789  56.3802516  42.4482606  70.0696394  47.9706306
  42.0562398  69.7663109  47.2529172  42.6035678  70.9065484  47.7811260
  42.4136196  70.1480230  47.8362803  29.9243786  60.0618408  47.9197189
  30.3042751  60.4802953  47.2557456  29.3499151  60.6431864  48.2266032
  29.8955111  60.2096267  47.8673930  43.2017026  58.7566711  57.4635392
  42.3893708  58.4492601  57.5448565  43.6606961  58.2765711  58.0278105
  43.1497411  58.6403203  57.5589987  42.6122281  66.6346383  47.9112337
  42.2536936  66.8061025  48.6876369  42.1260992  67.0959588  47.3540335
  42.4880978  66.7285354  47.9437606  37.4010646  62.3145548  40.4512571
  37.6903171  63.0910431  40.7256145  37.4882445  61.8034279  41.1527071
  37.4564903  62.3537466  40.5955069  40.2970534  60.1626782  62.2464095
  40.7670165  60.7868898  62.6331969  40.3432414  59.4943758  62.8057309
  40.3738410  60.1561462  62.3864166  37.4541807  52.2683810  52.9712899
  36.9380296  51.5764001  53.0964478  36.8935736  52.9354587  52.9175497
  37.2948321  52.2647067  52.9818965  43.7727020  67.5250279  58.8579538
  44.4106741  67.0310474  58.5241994  43.1301112  67.4527679  58.2731765
  43.7721247  67.4409287  58.7221893  45.4984020  59.3739425  53.4245453
  45.0711629  59.2865773  52.6693553  44.8610073  59.4817200  54.0100297
  45.3413628  59.3772084  53.3990895  43.8281277  68.2170087  55.4984894
  44.6173655  67.8659152  55.6186976  44.0024875  69.0306475  55.2361528
  43.9701559  68.2855944  55.4772762  33.5674587  61.6278813  52.5512683
  32.7262594  61.5282687  52.7591577  33.7764595  62.3974293  52.9027004
  33.4739280  61.7270856  52.6339998  31.0450154  59.2498350  50.3797434
  30.6506852  59.3241361  49.6047544  30.4890271  59.6356296  50.9305796
  30.9052967  59.3180124  50.3465094  37.3791252  59.5560212  51.8010281
  37.0754390  59.0016200  52.4020688  36.6770673  59.7352422  51.3138315
  37.2307462  59.5004994  51.8179986  36.4357349  56.8660732  46.3654983
  36.7117084  56.1479644  45.9532550  37.0356019  57.4645651  46.1576089
  36.5650614  56.8481102  46.2735744  35.4409603  66.7709932  56.5082379
  35.3329958  66.7811995  57.3744437  35.6505385  67.5964713  56.3187332
  35.4559714  66.8951007  56.6086470  45.9348789  52.7811408  49.5404078
  45.3223102  53.2681810  49.9257810  46.0312964  52.1054899  50.0841730
  45.8586686  52.7529717  49.6782937  39.9367870  54.5374249  44.6401578
  40.3911616  54.7084809  45.3649422  40.4107916  53.9242360  44.2399353
  40.0736190  54.4725134  44.6875339  33.4583395  64.0222575  53.9704316
  32.8671328  64.6632073  53.9407331  34.2204419  64.4460192  53.9435616
  33.4831656  64.1798413  53.9619463  33.8544018  55.1824573  54.6372334
  34.3145500  55.2563502  55.3747458  33.9000125  55.9805827  54.2872155
  33.9294573  55.3118720  54.6945090  35.5027368  55.8491268  59.2044361
  35.1112933  55.2024615  59.6400139  35.6713231  56.4402703  59.8238616
  35.4698278  55.8405535  59.3607067  49.5773817  63.8528345  54.9681594
  49.6356941  64.3014993  55.7141571  48.9440284  64.2627157  54.5311674
  49.4925112  63.9802079  55.0134143  43.2172911  69.4731886  51.4036341
  43.0192600  69.9622701  50.7092552  42.5960623  69.6773128  51.9820474
  43.0960476  69.5748425  51.3859564  37.2780890  61.2416783  45.7446585
  38.0222935  61.6291060  45.9829535  37.4241586  60.3974209  45.9087073
  37.4091475  61.1747256  45.8040555  39.1960465  53.0367042  50.7778446
  38.3496510  53.2089850  50.6519796  39.1931598  52.2316386  51.1144275
  39.0707615  52.9428071  50.8089573  40.2658766  56.8142257  51.6440504
  39.7918720  56.2884019  52.1545815  40.6376901  56.2671729  51.0755366
  40.2508655  56.6558253  51.6355651  30.6431796  58.8113763  57.0124050
  31.5057409  58.7109473  56.9261380  30.3123579  58.2308473  56.4509622
  30.7216992  58.7105390  56.9169456  46.5295496  61.8744632  53.0547285
  46.2893719  61.0351047  53.0589711  47.0087503  61.9544799  53.7788058
  46.5647680  61.7626032  53.1622087  42.1942265  57.7078811  44.7066258
  41.6665284  57.7907555  44.0171967  42.6537973  58.4496683  44.7030903
  42.1844116  57.8299474  44.6040953  48.5300683  58.6546089  51.0076544
  48.2910453  58.6141924  50.1697328  48.6934585  59.5017242  51.1342265
  48.5190987  58.7738174  50.9030026  45.1346713  63.0396039  56.9381589
  45.8580912  62.5868565  56.7592609  44.8696676  63.3200704  56.1553917
  45.2027987  63.0147007  56.7960304  34.0033582  57.6356212  53.6734468
  33.3786652  57.6474604  53.0660421  33.6679177  58.1116387  54.3225708
  33.8619074  57.7074729  53.6791037  34.1875330  55.9781331  39.7307153
  33.8388135  56.6301056  40.1938703  33.7071776  55.9638444  39.0031024
  34.0645574  56.0724384  39.6918244  30.7159257  65.6956672  55.1138232
  30.1859182  65.0049111  55.1633207  30.9884351  65.6866858  54.2850941
  30.6783980  65.5923804  54.9985648  41.7479348  66.2782375  43.8375915
  42.4713547  66.7440488  43.6940488  41.3079939  66.3455984  43.0873512
  41.7895040  66.3566211  43.7060696  40.9165503  63.1379917  55.0876604
  40.3022496  62.5937967  55.3825239  41.4332788  62.6244153  54.6082420
  40.9021165  62.9816326  55.0600832  40.1561800  64.2084187  52.8220903
  39.7289408  63.5833906  52.3886338  40.1486744  63.9259109  53.6479910
  40.0920941  64.0736968  52.8800730  33.2724327  59.2449360  55.8909337
  33.4317814  58.4892684  56.2961059  33.0917221  59.7940300  56.5450074
  33.2689686  59.2143174  56.0472043  38.4847510  55.0852942  53.0363437
  38.5089997  54.5513054  52.3476217  38.7358983  54.5770250  53.6989027
  38.5257428  54.9313846  53.0328081  25.9955100  62.3684437  52.4706581
  25.8898549  62.3231281  51.6058665  25.2455320  62.7138217  52.7520866
  25.8690703  62.4125345  52.3843910  34.7648832  53.8123760  52.4169181
  34.8047204  54.3132966  53.1303888  33.9398497  53.9034154  52.1475104
  34.6488358  53.9005576  52.4819719  36.9478445  63.3784500  60.5189476
  36.0974075  63.5156214  60.6547121  37.1106573  62.6448278  60.9637177
  36.8462308  63.2898601  60.6045075  36.1863195  60.3284270  54.7143080
  35.3555125  60.4958088  54.5078328  36.1314713  59.9520220  55.4991965
  36.0552610  60.2974001  54.7991608  33.9946979  53.8193163  60.3499491
  34.6199682  53.2755295  60.6228923  33.5397459  53.3388080  59.7807281
  34.0195239  53.6682644  60.3061085  34.5599239  58.6039861  45.2433198
  34.7002200  59.1012325  45.9461839  35.0581772  57.9026156  45.3847411
  34.6540320  58.5741840  45.3684777  34.5899462  59.4706972  42.5725775
  35.2244541  60.0667397  42.5075236  34.6725072  59.1710430  43.3871645
  34.6956013  59.5147880  42.6828861  47.5682027  62.0022450  55.4412139
  48.1599868  62.6419700  55.4730337  48.0041022  61.3045486  55.7304206
  47.7200459  61.9940800  55.4892971  36.1678444  55.4020948  42.5471217
  36.4894286  54.9224030  41.8930479  36.4305388  56.2120594  42.3562028
  36.2544470  55.4510846  42.4226709  39.3975417  66.4239822  56.0670033
  38.8900508  66.9775669  56.5110663  39.1002063  66.4848112  55.2488807
  39.2780302  66.5146133  56.0118489  41.5637599  54.7893142  54.9094696
  41.9892671  54.3365668  54.2978222  40.9494593  54.2353212  55.1859483
  41.5366245  54.6407118  54.8599721  31.0952449  61.6674813  45.8415321
  31.6044679  62.2639321  46.2226626  31.5686722  61.4000787  45.1591740
  31.2395825  61.7160628  45.7969843  42.0083198  70.3403080  43.9973976
  41.2912507  70.1663942  43.5321213  42.6589935  70.1055652  43.4649462
  41.9985048  70.2798872  43.8503194  40.0031822  51.2608241  48.3185273
  39.3600140  51.1105888  48.8870411  39.6631229  51.0150587  47.5534377
  39.8576900  51.2020364  48.2888288  44.5931169  59.2167668  47.7415281
  43.9222359  59.7597370  47.6128347  45.2870919  59.6862524  47.4996976
  44.5960036  59.3665939  47.6870809  38.6417903  71.3564380  52.9727040
  38.4183557  70.5983210  53.3411066  38.1527746  71.3862401  52.2507479
  38.5361352  71.2486605  52.9203781  44.7559296  55.6723552  50.6505654
  45.1086906  55.2453275  51.3251453  43.8974098  55.5874395  50.7806731
  44.6808741  55.5968293  50.7700665  33.4542981  58.3031072  48.7088501
  32.7354970  58.7195204  48.9761365  33.8255344  58.8685310  48.1580139
  33.4034913  58.4480353  48.6671308  42.7542562  58.9358920  54.5990497
  42.7340489  58.7542216  55.4525276  42.8021763  59.8070939  54.5750080
  42.7577203  59.0375459  54.7213791  40.6988892  65.5246112  60.5238973
  40.6584747  64.8795789  59.9384129  41.5112210  65.4682730  60.8364385
  40.8132045  65.4205079  60.4835922  37.2896359  71.5764838  50.4264124
  36.8756758  70.9138969  50.0367966  37.9743734  71.7242697  49.9059818
  37.3294731  71.5005497  50.2920621  40.6561654  70.7354924  51.1787741
  40.2577937  70.8457194  50.4108561  40.0412873  70.9436990  51.7614301
  40.5060543  70.7828492  51.1519040  39.2289556  57.3429071  44.0461880
  38.6354395  57.6646068  43.4946447  39.2664833  56.4970167  43.8382987
  39.1463945  57.2653400  43.9344652  42.1047372  57.3008576  47.4763631
  41.8761065  57.3241277  46.6341989  42.3645448  56.4766043  47.5958641
  42.1093560  57.1824656  47.3688828  36.3866601  59.1543049  57.0788731
  35.8745504  58.5464232  57.4373762  36.2146097  59.8699642  57.5462707
  36.2856238  59.1706348  57.2004955  31.2332315  57.5980624  59.7291093
  31.0634906  58.2581999  59.1839299  30.7898265  57.8087186  60.4503582
  31.1431649  57.7266606  59.7552722  35.1592135  55.8385122  48.7717826
  35.6349501  56.2002202  48.1368007  34.6580734  56.4941590  49.0517969
  35.1557494  55.9879311  48.7194567  48.3903496  65.3106890  44.5630831
  48.7737102  66.0598246  44.7928928  47.5947610  65.5572710  44.3042820
  48.3297278  65.4576584  44.5588405  40.2635671  57.0767294  59.5190986
  40.8207101  56.8481103  58.8869452  39.9396736  57.8372959  59.2426199
  40.2982081  57.1551130  59.3847484  28.1334380  60.5027490  54.9879583
  27.5861099  59.8328135  55.1060451  28.9226758  60.1357338  55.0523050
  28.1686563  60.3492476  55.0148283  37.9818788  60.1634947  60.4842994
  38.7330115  60.4786624  60.7982548  38.1741365  59.9614118  59.6576915
  38.1210202  60.1802329  60.4086389  37.2018788  57.9826322  42.1391210
  37.5817753  58.0005951  41.3542325  36.4611384  58.4280311  42.0182058
  37.1487626  58.0508097  42.0054779  44.8304078  56.2908513  47.7266789
  44.8298305  56.1357170  48.5851065  44.6260258  57.1371500  47.6708175
  44.8003856  56.3929134  47.8454728  26.8921349  59.7148298  52.1425606
  26.7143110  59.2624907  52.8680521  26.6040371  60.5174459  52.3264083
  26.8234302  59.7670855  52.2769108  42.5544930  60.9706015  51.3802996
  43.0498596  60.2529010  51.3407016  41.7444706  60.6676813  51.2657483
  42.5088824  60.8203661  51.3576722  38.0003542  64.8203828  43.5300000
  37.1914865  64.4970502  43.4833310  38.5078451  64.1137050  43.4628249
  37.9553209  64.6685145  43.5130295  28.6293819  62.2476021  49.2547365
  27.7639339  62.2361712  49.1430136  28.7292635  62.0606244  50.1018504
  28.5167986  62.2182083  49.3636309  44.6196749  63.7209703  54.0680125
  45.0451821  63.1984124  53.5150550  44.2553669  64.3190540  53.5468748
  44.6283352  63.7319930  53.9089134  34.2550829  72.0173920  52.8277470
  34.5697388  72.8310308  52.8355252  34.6644242  71.6324139  53.4959629
  34.3618927  72.0802622  52.9281562  41.2075349  67.4343967  50.3981282
  41.6786527  68.1484229  50.5671267  41.5435527  66.8342717  50.9341152
  41.3270464  67.4515431  50.5013658  43.2952333  69.0445280  62.5773354
  43.4049299  68.2553841  62.9330101  43.6243230  68.9551216  61.7747692
  43.3604739  68.9151133  62.5115745  41.8449295  67.2261901  57.1608975
  41.2970241  66.6019785  56.8929040  42.3062324  67.4156173  56.4453054
  41.8316504  67.1620951  57.0159406  44.6543159  55.2947255  54.5460167
  44.0706148  55.7956462  54.1337734  44.9747453  54.7876812  53.9124490
  44.6156335  55.2939090  54.3918674  37.1937959  54.2087850  44.8218842
  38.0153653  54.3786163  44.5800537  36.7307609  54.3635111  44.0985139
  37.2469121  54.2569583  44.6790486  31.5963849  65.9647028  52.4756079
  32.2008707  65.9242863  51.8469899  31.3891162  66.8118181  52.5060134
  31.6552746  66.0835031  52.3872195  41.4107621  68.2312974  53.6918316
  42.2305995  68.0875940  53.9534611  41.1301699  68.8559173  54.2334754
  41.4904365  68.3023326  53.8106255  26.8315131  64.9481646  52.3455002
  26.7339410  64.1377917  52.6545058  27.6144001  64.9273439  51.9601270
  26.9331268  64.8248736  52.3341865  57.8821272  75.8877825  46.6561192
  57.8515276  76.7422462  46.8279462  58.4802620  75.5873118  47.2147336
  57.9658430  75.9694322  46.7635995  51.0820957  74.9753476  51.4114123
  50.2258852  75.1361975  51.4623240  51.1288610  74.1045540  51.4319184
  50.9620068  74.8704278  51.4220189  53.9272778  77.0345520  54.0545774
  54.4728738  77.7130607  54.1139744  53.8689654  76.8932981  53.1947356
  53.9988692  77.1137522  53.9357835  55.7037846  78.4630127  44.9279502
  55.5877372  79.2137813  45.3571640  56.4993733  78.2054081  45.1775589
  55.8042436  78.5364974  45.0283594  42.5401984  72.7140604  51.9650768
  41.9207016  72.1233251  51.7960783  42.4385848  73.3052039  51.3315091
  42.4339660  72.7144686  51.8455758  49.6369880  74.4540145  46.2983231
  50.3350045  74.6328273  46.7904695  49.9522212  73.9310485  45.6753621
  49.7865217  74.4033917  46.2785241  42.2671117  76.2592885  54.2094337
  42.1429814  76.8455331  54.8444156  42.9189402  75.7653081  54.5106612
  42.3444767  76.2731690  54.3480266  49.8257815  80.8410590  46.2863023
  50.2651451  80.2327691  46.7317796  49.6762478  80.4617964  45.5148488
  49.8679281  80.6949062  46.2382190  47.2929458  79.4354602  53.4881848
  47.9378461  78.9427045  53.1692797  47.5331235  79.5779389  54.3147927
  47.4240043  79.3832044  53.5631381  49.8315550  82.2809508  53.1388741
  50.1138792  81.4860914  52.9175497  50.5601710  82.7590096  53.1593802
  49.9805113  82.2344105  53.1091756  47.8096743  69.8232542  50.3804506
  47.4800073  70.2743686  49.7108205  47.1341745  69.7448705  50.9277512
  47.6607180  69.8783677  50.3627729  53.4267152  79.1937772  43.2393792
  53.3418447  80.0498738  43.3843361  53.9151535  78.9182096  43.9075951
  53.4856049  79.2795093  43.3595873  55.0173151  65.8118065  48.6254117
  54.7026592  66.5021544  49.0574539  54.5000093  65.7562847  47.9239617
  54.8937622  65.9052953  48.5851066  54.3585585  75.8122566  44.7391527
  53.8297056  76.0282199  45.3988833  54.8810605  76.5058704  44.6592496
  54.3574038  75.9465703  44.8247126  46.2485193  79.7085783  43.5398995
  45.6642408  80.2135814  43.9464859  45.8455288  79.4828170  42.7995587
  46.1024497  79.7494031  43.4904020  50.7062407  75.9551435  42.0167916
  50.9458411  76.1629418  41.2043259  51.0278248  75.1508943  42.1256860
  50.7899565  75.8665536  41.9128469  46.0152697  67.8844830  45.8627454
  46.7698666  68.2523147  45.6244504  45.8380232  68.2584385  46.6306633
  46.1007176  67.9943018  45.9412342  59.3087596  74.0339271  53.9074993
  58.4716017  74.1041458  54.1422587  59.2775827  74.0363766  53.0349295
  59.1805879  74.0449498  53.8134541  44.3709762  70.2915149  42.5605567
  44.1885335  70.5087030  41.7346559  45.2335375  70.4054162  42.6164181
  44.4714352  70.3405047  42.4460054  50.0509481  67.2941560  45.5954590
  50.7795642  67.1157515  45.1492747  50.1404374  68.1359640  45.8061769
  50.1716143  67.3925438  45.5608108  54.0317782  78.2294947  49.4986884
  54.7875297  78.6626462  49.5375793  54.1380106  77.5799717  50.0721520
  54.1587953  78.1972431  49.5884910  40.0114042  78.7704238  54.4576282
  39.7452457  77.9543354  54.6167272  40.0252606  78.8157393  53.5871797
  39.9738764  78.6561142  54.3529764  56.9895436  69.0982053  52.4918715
  57.6321344  69.1680157  53.0780631  57.2418457  68.4311275  51.9898257
  57.1217568  69.0108401  52.5045995  43.9171789  73.5689322  41.0728040
  43.2029966  73.2827502  41.4850472  44.4015758  73.9085948  41.7134427
  43.8831152  73.5770972  41.2283675  44.7612649  72.3082616  57.1043289
  44.0684445  71.8379596  57.3504021  45.3772976  72.0820920  57.6784996
  44.7497178  72.2049748  57.2252442  51.0919107  82.0719276  41.4489848
  51.5070256  81.7404300  40.7574344  50.2611037  81.8388178  41.3209985
  51.0307116  81.9890532  41.3280695  43.4853208  76.2748020  58.2470134
  44.2093180  76.2601051  58.7335029  43.5869344  76.9843375  57.7492103
  43.6071417  76.3772723  58.2448921  53.5329476  76.4781096  47.4014097
  53.6276330  77.2170390  47.8553723  52.9088319  76.0498571  47.8348662
  53.4538506  76.5242416  47.5322245  40.3878366  76.4356518  51.8887092
  40.9651869  76.2992968  52.5279338  39.6892428  75.9792302  52.1432677
  40.3699388  76.3478784  52.0209382  53.7852497  78.3229835  40.6351049
  53.7032660  78.3932023  41.5006036  54.4232218  78.8859579  40.4434790
  53.8672335  78.4168807  40.7340999  47.1445668  78.0890573  50.1025576
  46.8864913  77.2562308  50.0756875  47.1994151  78.3148186  49.2618076
  47.1145446  77.9988345  49.9745712  52.2246719  70.1919024  50.2029668
  51.5203045  69.7028210  50.3613587  52.2731693  70.2041499  49.3318113
  52.1276770  70.1208672  50.0969008  46.1180381  75.6428336  50.5890470
  45.5429972  75.8020504  51.2254431  45.7416057  75.0063745  50.1258921
  45.9783193  75.5726149  50.6145029  49.7853669  74.1151685  55.4482849
  49.3968102  73.6905903  54.7935040  49.1208367  74.3633835  55.9559875
  49.6300597  74.0890406  55.4270717  59.4276938  73.8726690  48.2230679
  59.1713503  73.0606631  48.0328562  60.2706252  73.8804257  47.9960866
  59.5142964  73.7538687  48.1615496  35.8637199  75.2868411  48.6034911
  35.9497451  74.9100279  49.3848441  36.4912997  74.9128856  48.1254869
  35.9693750  75.1753893  48.6480388  53.6080031  67.8126314  52.9606833
  53.9890542  67.1304485  53.3474707  52.8043315  67.5235916  52.7782497
  53.5456492  67.6693362  52.9910889  50.8892607  78.3450290  43.6459656
  51.7033246  78.6365183  43.5342427  50.8251749  77.6910152  43.0717949
  50.9995346  78.2915484  43.5448493  47.4003331  77.0374097  43.1106857
  47.7848483  76.8181804  43.8623402  47.1514951  77.8637042  43.2407934
  47.4205403  77.1272243  43.2407934  49.1421988  82.2944230  50.4525754
  49.2160996  82.1319402  51.3067604  49.9591494  82.4834419  50.2086236
  49.2738346  82.2980972  50.5423780  45.1203768  68.7071034  48.4415638
  44.2526194  68.7793633  48.5073247  45.4078972  69.5093113  48.6303613
  45.0343516  68.8365181  48.4790404  54.2436657  68.8548893  56.7726960
  54.9890249  68.6658703  56.3590385  53.8273961  69.3807131  56.2140816
  54.2921631  68.9051038  56.6291533  44.5349436  79.3219672  50.5155079
  44.2462685  78.6957143  51.0500806  45.4032784  79.2639959  50.5819759
  44.6209688  79.2207216  50.6046033  55.3227334  74.4654455  50.8337061
  54.9792100  73.7444790  51.1844310  55.4220376  74.2568306  49.9915419
  55.2869377  74.3278658  50.7608741  43.0471120  72.1829293  45.8832514
  42.7595916  71.8130563  45.1464461  43.7341588  72.6524148  45.6216219
  43.1060017  72.1976262  45.7347590  47.4846262  79.1627503  47.2119050
  47.2889044  79.7702238  46.6179353  47.7080607  78.4695447  46.7310724
  47.4880903  79.1505029  47.0535131  45.8824792  76.0482241  47.3299919
  46.6047444  76.2123399  46.8703725  45.4032784  76.7691906  47.2239258
  45.9188522  76.1780471  47.2465533  53.8418299  72.3846040  52.7096604
  53.0029400  72.4107319  52.4734867  53.9122667  73.0316775  53.2901950
  53.7286693  72.4842166  52.7605721  43.5332408  78.4540314  56.4354059
  44.0453505  78.7324567  55.7862818  43.2468751  79.1929608  56.8016872
  43.5667272  78.6042667  56.3943937  52.2887578  69.2831417  47.4424220
  52.9913930  69.0839165  46.9644178  52.0231766  68.5107359  47.7493063
  52.3534210  69.1394383  47.4169661  57.7175823  77.5914027  49.9957845
  57.6309798  77.7469453  50.8492624  57.2626303  78.2352102  49.6217250
  57.6379080  77.7089782  50.0664952  40.6199315  72.9610505  46.7317795
  40.7215451  73.7636667  47.0598771  41.4155201  72.7597841  46.4340876
  40.7527220  73.0496404  46.7353150  47.0516134  70.5466702  56.4955100
  46.8599331  70.5621837  57.3454524  47.9014730  70.7430376  56.4721755
  47.1491856  70.5781053  56.6178395  41.4363047  73.0757684  54.4738917
  41.2948539  72.2241624  54.5983425  41.7203610  73.1186344  53.6501123
  41.4570893  72.9557434  54.3706541  51.5901639  74.9124774  48.6183405
  51.3436353  74.8320525  49.4520194  51.9186762  74.1278242  48.4245932
  51.6022883  74.7851039  48.7130928  49.7218584  76.8471661  55.8131520
  48.9741898  77.0402675  55.4079798  49.8760109  76.0216880  55.5755641
  49.6341011  76.7536772  55.7176925  49.9620361  70.7422211  56.7026923
  50.4192975  71.4746186  56.8299716  50.0376690  70.3188677  57.4614179
  50.0411331  70.7879450  56.8328000  42.2053352  70.9888031  57.7916367
  41.6695542  70.3768389  58.1077134  42.2671117  71.5636167  58.4450034
  42.1348985  70.9834959  57.9351794  54.4347687  63.9212087  50.5720766
  54.5531255  64.3788550  49.8388069  54.2609862  63.1157348  50.2856984
  54.4266858  63.8705859  50.4221700  47.8402739  72.7324315  53.5468747
  47.0498814  72.5515776  53.8686083  48.2363362  71.9551268  53.5299042
  47.7819615  72.5911776  53.5921296  53.2246425  80.3666746  51.2728193
  52.5491427  80.1351978  51.7741580  53.2338801  79.7587928  50.6470298
  53.1264930  80.2425671  51.2544346  50.3540569  75.2084575  58.0292246
  50.2899710  76.0694531  57.9012383  50.4937757  74.8916568  57.2287798
  50.3656039  75.2884741  57.8920459  49.0359663  77.9016714  52.1708449
  48.6121912  78.1021213  51.4347468  48.8604518  77.0545562  52.2832749
  48.9470544  77.8065495  52.0782139  44.3242108  78.3968765  47.6036422
  44.4806727  78.3315568  48.4592414  44.6642701  79.1717318  47.3915101
  44.3975343  78.5017963  47.6991016  50.8621253  77.7726649  46.4729785
  51.4036798  77.2697030  46.9368405  51.1767812  77.7191844  45.6619270
  50.9885650  77.6906070  46.4213597  52.0110522  72.6662953  56.5252085
  52.2252491  72.0273868  55.9715439  51.3944421  73.1108777  56.0959947
  51.9515851  72.6373097  56.3802516  40.8976369  75.5803716  47.9197189
  41.2775334  75.9988261  47.2557456  40.3231734  76.1617171  48.2266032
  40.8687694  75.7281575  47.8673930  51.4025251  65.7762889  51.5139428
  50.5318808  65.7501610  51.4672738  51.6565592  65.6040081  50.6965274
  51.3118811  65.7473033  51.3859565  48.3743230  77.8330856  40.4512571
  48.6635755  78.6095738  40.7256145  48.4615029  77.3219587  41.1527071
  48.4297486  77.8722774  40.5955069  48.4274391  67.7869117  52.9712899
  47.9112880  67.0949309  53.0964478  47.8668320  68.4539895  52.9175497
  48.2680904  67.7832375  52.9818965  50.4966625  68.3262078  54.8005751
  50.1098378  68.3511109  55.5819281  50.0099562  67.7603756  54.3480268
  50.3679133  68.2457828  54.8493655  56.4716604  74.8924732  53.4245453
  56.0444212  74.8051081  52.6693553  55.8342657  75.0002508  54.0100297
  56.3146211  74.8957392  53.3990895  50.1623766  65.2129063  57.0916011
  50.7916884  65.7489363  56.8137081  50.3309629  65.1206422  57.9429577
  50.2801561  65.2790425  57.1764539  49.9637681  70.0000258  59.3642423
  50.7911110  69.7285407  59.4201037  49.9845527  70.7961099  59.7206241
  50.0890531  70.0780012  59.4257606  44.5407171  77.1464121  52.5512683
  43.6995178  77.0467995  52.7591577  44.7497179  77.9159601  52.9027004
  44.4471864  77.2456164  52.6339998  42.0182738  74.7683657  50.3797434
  41.6239436  74.8426669  49.6047544  41.4622855  75.1541604  50.9305796
  41.8785550  74.8365432  50.3465094  53.6547685  67.7464951  50.0601313
  53.8597278  67.6787259  50.9058310  53.3274109  68.5523773  49.9922490
  53.6362933  67.8550892  50.1760968  48.3523836  75.0745520  51.8010281
  48.0486973  74.5201508  52.4020688  47.6503257  75.2537730  51.3138315
  48.2040046  75.0190302  51.8179986  47.4089933  72.3846040  46.3654983
  47.6849667  71.6664952  45.9532550  48.0088602  72.9830959  46.1576089
  47.5383198  72.3666410  46.2735744  56.9081372  68.2996716  49.5404078
  56.2955686  68.7867118  49.9257810  57.0045547  67.6240207  50.0841730
  56.8319270  68.2715024  49.6782937  50.9100453  70.0559557  44.6401578
  51.3644200  70.2270117  45.3649422  51.3840499  69.4427668  44.2399353
  51.0468774  69.9910442  44.6875339  44.4315979  79.5407883  53.9704316
  43.8403912  80.1817381  53.9407331  45.1937002  79.9645500  53.9435616
  44.4564239  79.6983721  53.9619463  44.8276602  70.7009881  54.6372334
  45.2878083  70.7748810  55.3747458  44.8732708  71.4991135  54.2872155
  44.9027157  70.8304028  54.6945090  46.4759951  71.3676575  59.2044361
  46.0845516  70.7209923  59.6400139  46.6445814  71.9588011  59.8238616
  46.4430862  71.3590843  59.3607067  48.2513473  76.7602091  45.7446585
  48.9955518  77.1476368  45.9829535  48.3974170  75.9159517  45.9087073
  48.3824059  76.6932564  45.8040555  50.1693049  68.5552350  50.7778446
  49.3229094  68.7275158  50.6519796  50.1664181  67.7501694  51.1144275
  50.0440199  68.4613379  50.8089573  51.2391349  72.3327565  51.6440504
  50.7651304  71.8069327  52.1545815  51.6109485  71.7857037  51.0755366
  51.2241238  72.1743561  51.6355651  41.6164379  74.3299071  57.0124050
  42.4789992  74.2294780  56.9261380  41.2856162  73.7493781  56.4509622
  41.6949576  74.2290698  56.9169456  57.5028080  77.3929940  53.0547285
  57.2626303  76.5536355  53.0589711  57.9820087  77.4730107  53.7788058
  57.5380264  77.2811340  53.1622087  53.1674849  73.2264119  44.7066258
  52.6397868  73.3092863  44.0171967  53.6270557  73.9681991  44.7030903
  53.1576699  73.3484782  44.6040953  59.5033267  74.1731397  51.0076544
  59.2643037  74.1327232  50.1697328  59.6667168  75.0202549  51.1342265
  59.4923570  74.2923482  50.9030026  44.9766165  73.1541520  53.6734468
  44.3519236  73.1659912  53.0660421  44.6411760  73.6301695  54.3225708
  44.8351657  73.2260037  53.6791037  45.1607914  71.4966639  39.7307153
  44.8120718  72.1486364  40.1938703  44.6804360  71.4823752  39.0031024
  45.0378158  71.5909692  39.6918244  51.8898086  78.6565225  55.0876604
  51.2755080  78.1123275  55.3825239  52.4065371  78.1429461  54.6082420
  51.8753749  78.5001634  55.0600832  51.1294384  79.7269495  52.8220903
  50.7021992  79.1019214  52.3886338  51.1219328  79.4444417  53.6479910
  51.0653525  79.5922276  52.8800730  44.2456911  74.7634668  55.8909337
  44.4050397  74.0077992  56.2961059  44.0649804  75.3125608  56.5450074
  44.2422270  74.7328482  56.0472043  52.1877214  66.9295904  56.4460126
  51.6917775  67.1259578  55.7551693  52.9446276  67.3288572  56.2748928
  52.2264038  67.0173637  56.3180263  49.4580093  70.6038250  53.0363437
  49.4822581  70.0698362  52.3476217  49.7091567  70.0955558  53.6989027
  49.4990012  70.4499153  53.0328081  45.7381416  69.3309068  52.4169181
  45.7779787  69.8318274  53.1303888  44.9131080  69.4219461  52.1475104
  45.6220942  69.4190884  52.4819719  47.1595779  75.8469578  54.7143080
  46.3287709  76.0143396  54.5078328  47.1047296  75.4705528  55.4991965
  47.0285194  75.8159309  54.7991608  44.9679562  69.3378471  60.3499491
  45.5932266  68.7940603  60.6228923  44.5130042  68.8573388  59.7807281
  44.9927823  69.1867952  60.3061085  45.5331823  74.1225169  45.2433198
  45.6734784  74.6197633  45.9461839  46.0314356  73.4211464  45.3847411
  45.6272904  74.0927148  45.3684777  45.5632045  74.9892280  42.5725775
  46.1977125  75.5852705  42.5075236  45.6457656  74.6895738  43.3871645
  45.6688596  75.0333188  42.6828861  47.1411028  70.9206256  42.5471217
  47.4626869  70.4409338  41.8930479  47.4037972  71.7305902  42.3562028
  47.2277053  70.9696153  42.4226709  52.5370183  70.3078450  54.9094696
  52.9625255  69.8550976  54.2978222  51.9227176  69.7538520  55.1859483
  52.5098828  70.1592426  54.8599721  42.0685033  77.1860121  45.8415321
  42.5777262  77.7824628  46.2226626  42.5419305  76.9186095  45.1591740
  42.2128409  77.2345936  45.7969843  50.9764406  66.7793549  48.3185273
  50.3332724  66.6291196  48.8870411  50.6363813  66.5335895  47.5534377
  50.8309483  66.7205672  48.2888288  55.5663752  74.7352976  47.7415281
  54.8954942  75.2782678  47.6128347  56.2603503  75.2047831  47.4996976
  55.5692620  74.8851247  47.6870809  55.7291880  71.1908860  50.6505654
  56.0819490  70.7638583  51.3251453  54.8706681  71.1059703  50.7806731
  55.6541324  71.1153600  50.7700665  44.4275565  73.8216379  48.7088501
  43.7087554  74.2380512  48.9761365  44.7987927  74.3870618  48.1580139
  44.3767497  73.9665661  48.6671308  53.7275146  74.4544228  54.5990497
  53.7073073  74.2727524  55.4525276  53.7754346  75.3256247  54.5750080
  53.7309787  74.5560767  54.7213791  50.2022139  72.8614379  44.0461880
  49.6086978  73.1831376  43.4946447  50.2397417  72.0155475  43.8382987
  50.1196528  72.7838708  43.9344652  57.1615940  66.3127272  51.5789967
  56.6546805  65.6056411  51.5111144  57.9583374  65.9820460  51.7091044
  57.2043179  66.1600423  51.5888962  53.0779956  72.8193884  47.4763631
  52.8493649  72.8426585  46.6341989  53.3378032  71.9951351  47.5958641
  53.0826144  72.7009964  47.3688828  47.3599184  74.6728357  57.0788731
  46.8478087  74.0649540  57.4373762  47.1878680  75.3884949  57.5462707
  47.2588821  74.6891656  57.2004955  42.2064899  73.1165932  59.7291093
  42.0367489  73.7767307  59.1839299  41.7630849  73.3272493  60.4503582
  42.1164232  73.2451914  59.7552722  46.1324718  71.3570430  48.7717826
  46.6082085  71.7187510  48.1368007  45.6313318  72.0126898  49.0517969
  46.1290077  71.5064619  48.7194567  51.2368255  72.5952602  59.5190986
  51.7939685  72.3666411  58.8869452  50.9129320  73.3558267  59.2426199
  51.2714665  72.6736438  59.3847484  39.1066963  76.0212798  54.9879583
  38.5593683  75.3513443  55.1060451  39.8959342  75.6542646  55.0523050
  39.1419147  75.8677784  55.0148283  48.1751371  73.5011630  42.1391210
  48.5550336  73.5191259  41.3542325  47.4343967  73.9465619  42.0182058
  48.1220209  73.5693405  42.0054779  55.8036662  71.8093821  47.7266789
  55.8030888  71.6542478  48.5851065  55.5992842  72.6556808  47.6708175
  55.7736440  71.9114442  47.8454728  37.8653933  75.2333606  52.1425606
  37.6875694  74.7810215  52.8680521  37.5772955  76.0359767  52.3264083
  37.7966886  75.2856163  52.2769108  53.5277514  76.4891323  51.3802996
  54.0231179  75.7714318  51.3407016  52.7177290  76.1862121  51.2657483
  53.4821407  76.3388969  51.3576722  48.9736125  80.3389136  43.5300000
  48.1647448  80.0155810  43.4833310  49.4811034  79.6322358  43.4628249
  48.9285792  80.1870453  43.5130295  39.6026403  77.7661329  49.2547365
  38.7371922  77.7547020  49.1430136  39.7025219  77.5791552  50.1018504
  39.4900570  77.7367391  49.3636309  55.5929333  79.2395010  54.0680125
  56.0184404  78.7169432  53.5150550  55.2286253  79.8375848  53.5468748
  55.6015935  79.2505237  53.9089134  49.0977427  67.7256745  57.3539377
  49.2305333  66.9287739  57.6820352  49.4822580  68.2523148  57.9337653
  49.1733756  67.6856662  57.4882880  52.1709782  64.6487071  53.9520470
  51.3655746  64.5384801  54.2688308  52.0416518  64.7499527  53.0950336
  52.0329915  64.6470742  53.8728511  55.6275743  70.8132563  54.5460167
  55.0438732  71.3141770  54.1337734  55.9480037  70.3062120  53.9124490
  55.5888918  70.8124398  54.3918674  48.1670542  69.7273158  44.8218842
  48.9886236  69.8971471  44.5800537  47.7040193  69.8820419  44.0985139
  48.2201704  69.7754891  44.6790486  46.7565874  67.7215920  55.6017271
  47.3010287  67.3807047  56.1921612  46.8102810  68.5801382  55.7438555
  46.8454993  67.7971180  55.7099144  24.6574345   6.2700033  33.5901239
  24.6268349   7.1244669  33.7619509  25.2555694   5.9695325  34.1487383
  24.7411503   6.3516529  33.6976041  17.8574030   5.3575684  38.3454170
  17.0011925   5.5184182  38.3963286  17.9041683   4.4867748  38.3659231
  17.7373141   5.2526486  38.3560236  12.2415169  14.8938402  34.1091401
  11.4898069  14.5153940  33.8807446  12.6901181  14.9256835  33.3610211
  12.1964836  14.8424009  33.9648903  21.1667746  11.6262209  47.9514626
  21.8734514  11.1314240  48.0801560  21.3555682  12.0671291  47.2217284
  21.2995652  11.6180560  47.8623671  17.6940129  15.3163771  29.5376948
  17.3591498  15.9940693  29.1021170  18.2067000  14.9269082  28.9493820
  17.7205710  15.3588349  29.3863740  17.2344421  17.2678040  35.4788060
  17.6183800  17.8364938  34.9392835  17.1703562  16.5427550  34.9993876
  17.2817848  17.2453503  35.3281922  20.7025851   7.4167728  40.9885821
  21.2481811   8.0952814  41.0479791  20.6442727   7.2755189  40.1287403
  20.7741765   7.4959729  40.8697882  13.8199926  14.9056794  36.3754174
  13.9210289  14.0957148  36.6851301  13.2241671  14.8113740  35.7453852
  13.7472464  14.7721822  36.3280412  22.4790919   8.8452335  31.8619549
  22.3630445   9.5960021  32.2911687  23.2746806   8.5876288  32.1115636
  22.5795509   8.9187182  31.9623641  13.6600665  19.8234383  37.7769030
  14.3038121  20.2647547  38.1665188  13.9856921  19.0187809  37.6899288
  13.8032494  19.7699578  37.8214507   7.0164970  10.9277080  36.0006507
   6.7815154  10.0944733  35.8938776   7.1550611  11.2081746  35.1867708
   7.0020632  10.8460584  35.8648862  14.3621245  12.8346358  33.1488891
  14.6837086  13.3751565  32.5450199  15.0093341  12.2643129  33.2811181
  14.5047300  12.8305533  33.0795927  16.4122953   4.8362353  33.2323278
  17.1103118   5.0150480  33.7244741  16.7275286   4.3132692  32.6093667
  16.5618290   4.7856125  33.2125288   9.0424190   6.6415093  41.1434384
   8.9182887   7.2277538  41.7784203   9.6942475   6.1475288  41.4446659
   9.1197840   6.6553897  41.2820313  16.6010888  11.2232798  33.2203070
  17.0404524  10.6149898  33.6657842  16.4515551  10.8440171  32.4488535
  16.6432354  11.0771269  33.1722237  14.0682531   9.8176810  40.4221895
  14.7131534   9.3249253  40.1032844  14.3084308   9.9601596  41.2487973
  14.1993117   9.7654252  40.4971428  16.6068623  12.6631715  40.0728788
  16.8891866  11.8683121  39.8515543  17.3354783  13.1412303  40.0933849
  16.7558186  12.6166312  40.0431803  20.2020225   9.5759979  30.1733839
  20.1171520  10.4320946  30.3183408  20.6904608   9.3004303  30.8415998
  20.2609122   9.6617300  30.2935920  21.1338658   6.1944773  31.6731574
  20.6050130   6.4104407  32.3328880  21.6563678   6.8880912  31.5932543
  21.1327111   6.3287910  31.7587173  26.5886711  11.7691078  37.0464618
  25.7584414  11.9801721  37.2098035  26.5395963  10.9428132  36.7706902
  26.4593447  11.6780684  37.0301984  13.0238266  10.0907990  30.4739042
  12.4395481  10.5958021  30.8804906  12.6208361   9.8650377  29.7335634
  12.8777570  10.1316238  30.4244067   8.5782295  15.8062751  37.2762713
   8.0949873  16.5313241  37.2522297   9.3905613  16.1038881  37.3872871
   8.6273042  15.9565105  37.2889993  14.6496449  14.5994932  39.8812528
  14.1323390  14.2402347  39.2773836  15.3470840  14.0757106  39.8918594
  14.6762030  14.4692620  39.7942787  18.3060041  15.0489746  45.8428701
  18.3943386  14.8615886  46.6906911  18.7349753  14.4027175  45.4433548
  18.3822143  14.9252754  45.9100452  15.8730500  14.3320906  44.8246363
  15.3101335  13.9193516  45.3486024  16.6351524  14.2573812  45.2439506
  15.9024949  14.2598306  44.9639363  17.4815480   6.3373642  28.9507962
  17.7211484   6.5451626  28.1383306  17.8031321   5.5331151  29.0596907
  17.5652638   6.2487743  28.8468516  11.4326492  16.3218927  37.4282993
  12.1347071  15.8070916  37.4855750  11.3523975  16.6493078  38.2329868
  11.5250252  16.2933153  37.5555785  26.0840669   4.4161478  40.8415040
  25.2469090   4.4863665  41.0762634  26.0528900   4.4185973  39.9689342
  25.9558952   4.4271705  40.7474588  12.4805398   6.5594514  46.5563408
  12.6525902   6.4500409  47.4048690  13.0174756   7.2048919  46.3194601
  12.5850402   6.6386516  46.6468505  10.7577267  12.5125279  36.9368601
  11.5966167  12.7448212  36.9842363  10.7889036  11.6429590  36.8675637
  10.8858985  12.4182225  36.9333246  11.3829970  12.9326154  41.2381907
  11.9228195  12.7897285  41.9085279  10.6999917  13.3322905  41.6065933
  11.3622124  12.9705825  41.3916329  20.8070855   8.6117155  36.4326931
  21.5628370   9.0448669  36.4715840  20.9133180   7.9621925  37.0061567
  20.9341026   8.5794639  36.5224957  23.8451026  12.4390432  37.1829334
  23.4086258  12.4427175  37.9388306  23.5113942  13.1195931  36.7508912
  23.7313646  12.5402888  37.2310167  18.4180100  14.4798765  48.5072485
  19.2020517  14.5929613  48.8728227  18.2176694  13.6539902  48.7031170
  18.5046125  14.3745484  48.5906871   6.7867115   9.1526445  41.3916328
   6.5205531   8.3365562  41.5507319   6.8005680   9.1979601  40.5211844
   6.7491838   9.0383350  41.2869810  23.7648509  -0.5195740  39.4258762
  24.4074418  -0.4497635  40.0120677  24.0171530  -1.1866517  38.9238304
  23.8970641  -0.6069391  39.4386041  18.5750493  16.3908867  42.1538940
  17.7765739  16.1508367  42.4112809  19.0236505  16.4423260  42.9005988
  18.5225105  16.3631258  42.3023864  26.9795373   9.1571352  36.0748971
  27.6411807   8.5962020  35.9744880  26.3386785   8.6623383  36.4001663
  26.9824240   9.0007761  36.1081312  17.8672180  12.4541483  28.3829895
  18.2823329  12.1226507  27.6914390  17.0364110  12.2210386  28.2550031
  17.8060189  12.3712739  28.2620742   7.1960529   9.9385224  38.6728073
   7.0136102   9.9132110  37.8200365   7.9310198  10.4084162  38.7116981
   7.2774593  10.0046587  38.5525991  23.2660203  10.1736734  35.8160960
  23.5015792  10.3181933  34.9887811  23.4149767  10.9379142  36.2092474
  23.3226007  10.3075789  35.7524564  10.2606281   6.6570227  45.1810181
  10.9846253   6.6423258  45.6675076  10.3622417   7.3665583  44.6832149
  10.3824490   6.7594930  45.1788968  25.0950660   9.0138400  33.6530564
  25.4258877   9.5466040  33.0470659  25.6683748   9.0677288  34.3092515
  25.2284339   9.1007969  33.6608346  17.6351230  10.1369312  50.0459128
  16.8424211  10.4512824  50.2311748  17.7500157  10.3520780  49.2079913
  17.5346641  10.2153149  49.9497463  20.3082549   6.8603303  34.3354144
  20.4029403   7.5992597  34.7893770  19.6841393   6.4320779  34.7688709
  20.2291579   6.9064624  34.4662292  18.5635023  10.0389516  44.9844425
  19.1373885   9.4016760  45.1392989  18.4849827  10.0393598  44.1154083
  18.6368258   9.9454627  44.8790836  20.5605570   8.7052043  27.5691096
  20.4785733   8.7754230  28.4346083  21.1985291   9.2681787  27.3774837
  20.6425408   8.7991014  27.6681046  13.9198742   8.4712781  37.0365622
  13.6617986   7.6384516  37.0096922  13.9747224   8.6970394  36.1958123
  13.8898519   8.3810552  36.9085759  18.9999792   0.5741231  37.1369715
  18.2956118   0.0850417  37.2953634  19.0484766   0.5863706  36.2658160
  18.9029843   0.5030879  37.0309055  12.8933454   6.0250543  37.5230517
  12.3183045   6.1842712  38.1594478  12.5169130   5.3885952  37.0598968
  12.7536266   5.9548356  37.5485076  16.5606742   4.4973893  42.3822896
  16.1721175   4.0728110  41.7275087  15.8961441   4.7456042  42.8899922
  16.4053670   4.4712614  42.3610764  26.2030011   4.2548897  35.1570726
  25.9466576   3.4428839  34.9668608  27.0459325   4.2626464  34.9300913
  26.2896037   4.1360895  35.0955543  17.6645681   8.7272497  30.5799703
  18.4786319   9.0187390  30.4682474  17.6004822   8.0732359  30.0057996
  17.7748420   8.6737692  30.4788540  23.8855171  11.4098493  44.9929278
  23.6493808  10.5786558  44.8741339  24.5298400  11.3584100  45.5784122
  23.9449842  11.2796181  45.0615172  13.5353589  12.1994015  35.7072015
  14.1727536  11.9605762  36.2523808  13.9608660  12.4031173  34.9725175
  13.6929755  12.1945025  35.6789172   8.2266231  14.4382351  39.5906318
   8.2670377  14.7097202  38.7626098   8.7860755  14.9624259  40.0064106
   8.3149577  14.5558106  39.5298207  14.1756404   7.4196304  30.0446904
  14.5601557   7.2004011  30.7963449  13.9268024   8.2459250  30.1747980
  14.1958476   7.5094451  30.1747980  24.9091591  11.1942942  41.0557573
  24.6037408  11.9270999  41.4170888  24.1897807  10.7880872  40.7750359
  24.7578934  11.2424675  41.0670710  15.9175061  12.6766437  37.3865801
  15.9914069  12.5141609  38.2407651  16.7344567  12.8656627  37.1426283
  16.0491419  12.6803180  37.4763827  30.6093384   7.8335943  40.3825917
  30.5417884   7.8531902  39.5128504  30.5949046   8.6766270  40.6081588
  30.5972140   7.9609677  40.2878394   9.6780818  13.0224300  34.4160244
   8.8518935  13.2686037  34.2894523   9.7392809  12.9436381  35.2822303
   9.5654984  13.0469249  34.5249189  21.0189730  -0.7628900  43.7067006
  21.7643322  -0.9519089  43.2930432  20.6027035  -0.2370662  43.1480863
  21.0674704  -0.7126754  43.5631580  14.4579647  15.6401180  32.1179274
  14.7477945  15.2490162  31.3938501  15.1883127  15.8217885  32.5584550
  14.6086531  15.6094994  32.0762081  28.3952001   6.6080329  38.6572511
  28.9459922   5.9748398  38.8969603  28.3796116   7.1395722  39.3488016
  28.4737197   6.5929277  38.7951370  15.0474392  10.4418926  43.2032405
  14.5486085  11.1534694  43.2817293  15.8574616  10.7619593  43.1650567
  15.0930498  10.5945775  43.2088973  12.3985562  17.6168563  35.1839424
  12.1785858  17.3265917  35.9766091  12.1780084  16.9583518  34.6557336
  12.3333156  17.4768271  35.2228333  11.3102509   9.7041879  37.4495126
  11.0215758   9.0779350  37.9840853  12.1785857   9.6462167  37.5159806
  11.3962761   9.6029423  37.5386080  22.0980407   4.8476663  37.7677108
  21.7545173   4.1266998  38.1184357  22.1973450   4.6390514  36.9255466
  22.0622450   4.7100866  37.6948788  14.5653518  18.9897953  33.9670116
  15.2177576  18.4574395  34.1961142  13.8679127  18.6366605  34.3537990
  14.5584236  18.8587476  34.0582284  11.5134783  11.3437130  33.3737491
  12.2680751  11.7250169  33.5872953  10.9205395  11.7948274  33.8284187
  11.5371496  11.4665958  33.4720369  22.5593436  11.3102367  33.3101096
  23.1251469  11.9695577  33.2259639  21.9121340  11.6552065  33.7817498
  22.5472193  11.4584308  33.3673852  13.9741450   3.2999971  48.4994703
  13.1641225   3.6057750  48.3884545  14.4516136   4.0205553  48.6147287
  13.9244928   3.4514572  48.5001774  12.8333009  12.5145692  38.7477606
  12.3113763  12.6545983  39.4329471  13.2207030  11.7556356  38.9379724
  12.8136710  12.4231215  38.8778683  19.0300014  14.2541151  32.7338175
  18.7886690  13.5209012  32.3265240  19.2101347  14.8028008  32.0804508
  19.0207638  14.2263542  32.5768398  14.2599335   9.5449711  34.1459097
  14.0642118  10.1524445  33.5519400  14.4833680   8.8517655  33.6650771
  14.2633976   9.5327236  33.9875178  12.6577865   6.4304449  34.2639966
  13.3800517   6.5945607  33.8043772  12.1785858   7.1514113  34.1579305
  12.6941596   6.5602678  34.1805580  20.6171373   2.7668247  39.6436650
  19.7782473   2.7929526  39.4074914  20.6875740   3.4138983  40.2241997
  20.5039766   2.8664373  39.6945767  10.3085482   8.8362521  43.3694105
  10.8206579   9.1146774  42.7202865  10.0221824   9.5751815  43.7356918
  10.3420345   8.9864875  43.3283983  19.0640651  -0.3346376  34.3764266
  19.7667004  -0.5338627  33.8984225  18.7984840  -1.1070433  34.6833110
  19.1287283  -0.4783410  34.3509708  24.4928896   7.9736234  36.9297892
  24.4062871   8.1291660  37.7832671  24.0379376   8.6174310  36.5557297
  24.4132153   8.0911989  37.0004999  18.3654712   5.2946981  35.5523452
  18.1189427   5.2142732  36.3860241  18.6939835   4.5100449  35.3585979
  18.3775956   5.1673247  35.6470975  22.2602761  12.0030341  39.3410233
  22.1217121  12.7011386  39.8458975  21.4802759  11.8478997  38.9846415
  22.1245988  12.0830507  39.3636507  20.5980846   8.3026716  45.5932615
  20.5928885   7.4306532  45.5975041  21.3041840   8.5014885  45.1202070
  20.7025850   8.2030590  45.5239650  16.4971657   7.2293868  42.7471566
  15.7494971   7.4224883  42.3419844  16.6513182   6.4039088  42.5095688
  16.4094085   7.1358980  42.6516972  13.3979495  16.2206472  41.8307462
  13.5469058  15.6609387  41.1780866  14.1779497  16.2998473  42.2139980
  13.5353588  16.1492037  41.7904411  23.7556134  11.3608594  30.1026732
  23.3762943  10.5745732  30.0956022  23.0922379  11.9095451  29.9598376
  23.6014609  11.3253418  30.0807529  15.9232795  16.3921114  43.1091952
  15.8476466  15.7229925  43.6642741  15.8522654  17.0938903  43.6232619
  15.9013402  16.3966022  43.2668801  16.7373434   1.1244419  43.6366970
  17.1946048   1.8568393  43.7639762  16.8129763   0.7010884  44.3954226
  16.8164404   1.1701657  43.7668047  16.5803042  14.9122113  33.9415558
  17.3452933  14.6431757  33.6198223  16.4781132  14.4272124  34.6585621
  16.6784538  14.8011678  33.9995386  14.6155812   3.1146523  40.4808794
  13.8251887   2.9337983  40.8026130  15.0116435   2.3373475  40.4639089
  14.5572688   2.9733984  40.5261343  19.1021703  11.9434297  25.9215508
  19.8694688  12.0034422  25.5121360  18.6553012  11.3714739  25.4371826
  19.1495130  11.8670873  25.7893218  19.9999498  10.7488953  38.2068240
  19.3244500  10.5174185  38.7081627  20.0091874  10.1410136  37.5810345
  19.9018003  10.6247878  38.1884392  17.1293642   5.5906782  44.9632293
  17.0652783   6.4516738  44.8352430  17.2690830   5.2738775  44.1627844
  17.1409112   5.6706949  44.8260506  22.0016233  13.6054085  30.4378418
  22.0836070  14.4121072  30.1139869  22.4865975  13.6250045  31.1619192
  22.0853391  13.7274748  30.4965317  15.8112736   8.2838921  39.1048496
  15.3874985   8.4843420  38.3687514  15.6357591   7.4367769  39.2172796
  15.7223617   8.1887703  39.0122186  15.3124430  19.7989434  41.5669953
  15.8020360  19.1000223  41.3845618  14.7408662  19.5013304  42.1546011
  15.3008960  19.6515658  41.6270994  11.0995181   8.7790973  34.5376469
  11.2559800   8.7137776  35.3932461  11.4395774   9.5539525  34.3255148
  11.1728416   8.8840171  34.6331063  17.6374326   8.1548856  33.4069832
  18.1789871   7.6519237  33.8708452  17.9520885   8.1014051  32.5959317
  17.7638723   8.0728277  33.3553644  21.5091433  12.3651504  50.5196744
  22.3226298  12.0936652  50.6801876  21.3486399  12.0659044  49.7156940
  21.6061382  12.2806430  50.4242150  15.8060775  13.5466208  30.6909860
  15.8753596  12.6880746  30.8302860  16.5849231  13.7638089  30.3628884
  15.9313626  13.4519072  30.6627017  18.7863595   3.0485161  43.4592132
  19.0005565   2.4096075  42.9055486  18.1697494   3.4930985  43.0299994
  18.7268924   3.0195304  43.3142563  20.1968263  15.9703909  34.9046353
  19.8048055  15.6670624  34.1869219  20.3521335  16.8072999  34.7151307
  20.1621853  16.0487746  34.7702850  20.9502683   4.6574226  44.3975439
  20.1379365   4.3500116  44.4788612  21.4092618   4.1773226  44.9618151
  20.8983068   4.5410718  44.4930033  20.3607938  12.5353898  34.8452384
  20.0022593  12.7068541  35.6216416  19.8746649  12.9967104  34.2880382
  20.2366635  12.6292869  34.8777653  15.1496303   8.2153063  27.3852618
  15.4388828   8.9917946  27.6596192  15.2368102   7.7041795  28.0867117
  15.2050559   8.2544982  27.5295116  18.0456191   6.0634297  49.1804142
  18.5155822   6.6876414  49.5672016  18.0918071   5.3951273  49.7397356
  18.1224066   6.0568978  49.3204213  21.5212677  13.4257794  45.7919584
  22.1592398  12.9317990  45.4582041  20.8786769  13.3535194  45.2071811
  21.5206904  13.3416802  45.6561939  23.2469677   5.2746940  40.3585500
  22.8197285   5.1873288  39.6033600  22.6095730   5.3824715  40.9440344
  23.0899284   5.2779600  40.3330942  16.7390754   0.3822465  46.2982469
  17.5664184   0.1107614  46.3541084  16.7598600   1.1783307  46.6546288
  16.8643604   0.4602219  46.3597652  21.5766934  14.1177602  42.4324941
  22.3659312  13.7666667  42.5527023  21.7510532  14.9313991  42.1701575
  21.7187215  14.1863459  42.4112809  11.3160244   7.5286328  39.4852730
  10.4748251   7.4290202  39.6931624  11.5250252   8.2981808  39.8367051
  11.2224937   7.6278371  39.5680045  20.4300758  -1.8712841  36.9941360
  20.6350351  -1.9390533  37.8398357  20.1027182  -1.0654020  36.9262537
  20.4116006  -1.7626901  37.1101015  15.1276909   5.4567727  38.7350328
  14.8240047   4.9023715  39.3360735  14.4256330   5.6359937  38.2478362
  14.9793119   5.4012509  38.7520033  14.1843006   2.7668247  33.2995029
  14.4602740   2.0487159  32.8872597  14.7841675   3.3653167  33.0916136
  14.3136271   2.7488618  33.2075791  13.1895260  12.6717448  43.4422425
  13.0815615  12.6819510  44.3084483  13.3991042  13.4972228  43.2527379
  13.2045371  12.7958523  43.5426517  23.6834446  -1.3181077  36.4744125
  23.0708759  -0.8310675  36.8597857  23.7798621  -1.9937586  37.0181776
  23.6072343  -1.3462768  36.6122983  17.6853527   0.4381764  31.5741624
  18.1397273   0.6092325  32.2989469  18.1593572  -0.1750125  31.1739400
  17.8221847   0.3732650  31.6215386  11.2069052   9.9230090  40.9044363
  10.6156985  10.5639588  40.8747378  11.9690076  10.3467707  40.8775662
  11.2317313  10.0805929  40.8959510  27.3259474   9.7535860  41.9021641
  27.3842597  10.2022509  42.6481618  26.6925941  10.1634673  41.4651721
  27.2410769   9.8809595  41.9474190  20.9658568  15.3739402  38.3376387
  20.7678257  15.8630216  37.6432599  20.3446279  15.5780643  38.9160521
  20.8446133  15.4755940  38.3199611  15.0266547   7.1424299  32.6786632
  15.7708592   7.5298575  32.9169582  15.1727243   6.2981724  32.8427120
  15.1577132   7.0754771  32.7380601  18.0144422   2.7149772  38.5780551
  17.5404377   2.1891534  39.0885862  18.3862558   2.1679245  38.0095413
  17.9994311   2.5565769  38.5695698  24.2781153   7.7752148  39.9887332
  24.0379376   6.9358563  39.9929758  24.7573160   7.8552314  40.7128105
  24.3133337   7.6633547  40.0962134  19.9427922   3.6086327  31.6406305
  19.4150941   3.6915071  30.9512014  20.4023630   4.3504198  31.6370950
  19.9329773   3.7306989  31.5381000  26.2786340   4.5553605  37.9416591
  26.0396110   4.5149439  37.1037375  26.4420241   5.4024757  38.0682312
  26.2676644   4.6745690  37.8370073  22.8832370   8.9403554  43.8721636
  23.6066569   8.4876081  43.6932656  22.6182333   9.2208220  43.0893964
  22.9513644   8.9154523  43.7300351   8.4644914  11.5964188  42.0478279
   7.9344839  10.9056627  42.0973254   8.7370007  11.5874373  41.2190988
   8.4269636  11.4931320  41.9325695  19.4965005  12.1789890  30.7715962
  20.2199204  12.6448003  30.6280535  19.0565596  12.2463500  30.0213559
  19.5380697  12.2573727  30.6400743  18.6651160   9.0387432  42.0216651
  18.0508153   8.4945483  42.3165286  19.1818445   8.5251669  41.5422467
  18.6506822   8.8823841  41.9940879  17.9047457  10.1091702  39.7560950
  17.4775065   9.4841421  39.3226385  17.8972401   9.8266624  40.5819957
  17.8406598   9.9744483  39.8140777  11.0209984   5.1456875  42.8249383
  11.1803471   4.3900200  43.2301105  10.8402878   5.6947815  43.4790121
  11.0175343   5.1150689  42.9812089  14.6964102   9.2792015  47.4529522
  13.8459732   9.4163729  47.5887167  14.8592229   8.5455793  47.8977224
  14.5947965   9.1906116  47.5385122  13.9348852   6.2291785  41.6483127
  13.1040782   6.3965603  41.4418375  13.8800369   5.8527736  42.4332012
  13.8038267   6.1981516  41.7331655  12.3084896   4.5047377  32.1773245
  12.4487857   5.0019841  32.8801886  12.8067429   3.8033671  32.3187458
  12.4025977   4.4749355  32.3024824  12.3385118   5.3714488  29.5065821
  12.9730198   5.9674913  29.4415283  12.4210729   5.0717945  30.3211692
  12.4441669   5.4155396  29.6168908  25.3167684   7.9029965  42.3752186
  25.9085524   8.5427216  42.4070384  25.7526679   7.2053002  42.6644252
  25.4686115   7.8948315  42.4233018  17.1461074  12.3247337  43.0010079
  16.6386165  12.8783184  43.4450710  16.8487720  12.3855627  42.1828854
  17.0265959  12.4153649  42.9458536  19.3123256   0.6900657  41.8434742
  19.7378328   0.2373183  41.2318269  18.6980249   0.1360728  42.1199530
  19.2851902   0.5414633  41.7939768   8.8438106   7.5682328  32.7755367
   9.3530336   8.1646836  33.1566673   9.3172379   7.3008302  32.0931787
   8.9881482   7.6168144  32.7309890  19.7568854  16.2410595  30.9314023
  19.0398164  16.0671457  30.4661260  20.4075592  16.0063167  30.3989509
  19.7470705  16.1806388  30.7843241  22.3416826   5.1175184  34.6755328
  21.6708015   5.6604886  34.5468394  23.0356576   5.5870039  34.4337023
  22.3445693   5.2673455  34.6210856  16.3903559  17.2571896  39.9067086
  16.1669214  16.4990725  40.2751113  15.9013403  17.2869917  39.1847526
  16.2847008  17.1494120  39.8543827  22.5044953   1.5731067  37.5845701
  22.8572563   1.1460790  38.2591500  21.6459755   1.4881911  37.7146778
  22.4294398   1.4975808  37.7040712  11.2028638   4.2038587  35.6428548
  10.4840627   4.6202719  35.9101411  11.5741000   4.7692826  35.0920186
  11.1520570   4.3487868  35.6011355  20.5028219   4.8366436  41.5330544
  20.4826146   4.6549731  42.3865322  20.5507420   5.7078454  41.5090127
  20.5062860   4.9382974  41.6553838  18.4474549  11.4253628  47.4579020
  18.4070404  10.7803305  46.8724176  19.2597867  11.3690245  47.7704432
  18.5617702  11.3212595  47.4175969  15.0382016  17.4772354  37.3604171
  14.6242415  16.8146484  36.9708013  15.7229390  17.6250212  36.8399865
  15.0780388  17.4013012  37.2260668  18.4047310  16.6362439  38.1127788
  18.0063594  16.7464709  37.3448608  17.7898530  16.8444505  38.6954347
  18.2546200  16.6836007  38.0859087  16.9775212   3.2436587  30.9801927
  16.3840052   3.5653583  30.4286494  17.0150490   2.3977682  30.7723033
  16.8949602   3.1660915  30.8684699  23.9369013  -3.3050521  38.5130014
  23.4299878  -4.0121381  38.4451191  24.7336447  -3.6357332  38.6431090
  23.9796252  -3.4577370  38.5229009  19.8533029   3.2016091  34.4103678
  19.6246722   3.2248793  33.5682036  20.1131105   2.3773558  34.5298688
  19.8579217   3.0832171  34.3028875  14.1352257   5.0550564  44.0128778
  13.6231160   4.4471747  44.3713809  13.9631754   5.7707157  44.4802753
  14.0341894   5.0713864  44.1345001  26.1389153  11.2114406  31.4970878
  26.5222759  11.9605762  31.7268975  25.3433266  11.4580225  31.2382867
  26.0782935  11.3584100  31.4928452  18.0121328   2.9774809  46.4531033
  18.5692758   2.7488618  45.8209499  17.6882393   3.7380475  46.1766246
  18.0467738   3.0558646  46.3187530  15.7304445   6.0642462  47.4183040
  16.4815772   6.3794139  47.7322595  15.9227021   5.8621633  46.5916962
  15.8695859   6.0809844  47.3426436  14.9504445   3.8833837  29.0731257
  15.3303409   3.9013467  28.2882372  14.2097041   4.3287826  28.9522104
  14.8973282   3.9515612  28.9394825  22.5789735   2.1916029  34.6606836
  22.5783962   2.0364685  35.5191112  22.3745915   3.0379016  34.6048221
  22.5489513   2.2936649  34.7794775  20.3030587   6.8713530  38.3143043
  20.7984253   6.1536525  38.2747063  19.4930363   6.5684328  38.1997530
  20.2574480   6.7211177  38.2916769  15.7489199  10.7211344  30.4640047
  14.9400521  10.3978017  30.4173357  16.2564108  10.0144566  30.3968296
  15.7038865  10.5692660  30.4470342   6.3779476   8.1483537  36.1887411
   5.5124995   8.1369227  36.0770183   6.4778292   7.9613760  37.0358551
   6.2653643   8.1189598  36.2976356  22.3682406   9.6217218  41.0020171
  22.7937478   9.0991640  40.4490597  22.0039326  10.2198055  40.4808794
  22.3769009   9.6327445  40.8429181  12.0036486  17.9181435  39.7617517
  12.3183045  18.7317824  39.7695299  12.4129899  17.5331654  40.4299676
  12.1104584  17.9810138  39.8621609  18.9561006  13.3351482  37.3321329
  19.4272184  14.0491745  37.5011314  19.2921184  12.7350232  37.8681198
  19.0756121  13.3522946  37.4353705  21.0437990  14.9452796  49.5113401
  21.1534956  14.1561356  49.8670148  21.3728887  14.8558732  48.7087739
  21.1090396  14.8158648  49.4455792  19.5934952  13.1269416  44.0949022
  19.0455898  12.5027300  43.8269087  20.0547981  13.3163688  43.3793101
  19.5802161  13.0628466  43.9499453  22.4028816   1.1954771  41.4800214
  21.8191805   1.6963977  41.0677781  22.7233110   0.6884327  40.8464537
  22.3641992   1.1946606  41.3258721   9.3449506  11.8654544  39.4096125
   9.9494363  11.8250378  38.7809946   9.1376819  12.7125696  39.4400181
   9.4038403  11.9842546  39.3212242  19.1593278  14.1320489  40.6258363
  19.9791652  13.9883455  40.8874658  18.8787356  14.7566688  41.1674801
  19.2390021  14.2030841  40.7446302   4.5800788  10.8489161  39.2795048
   4.4825066  10.0385433  39.5885105   5.3629658  10.8280955  38.8941317
   4.6816925  10.7256252  39.2681911  28.8306613  20.8760992  38.3454170
  27.9744509  21.0369490  38.3963286  28.8774267  20.0053056  38.3659231
  28.7105725  20.7711794  38.3560236  32.1400330  27.1447517  47.9514626
  32.8467097  26.6499548  48.0801560  32.3288265  27.5856599  47.2217284
  32.2728236  27.1365868  47.8623671  17.9897554  26.4462388  36.0006507
  17.7547738  25.6130041  35.8938776  18.1283194  26.7267054  35.1867708
  17.9753216  26.3645892  35.8648862  20.2887641  18.6148119  38.8990815
  19.6692673  18.0240766  38.7300830  20.1871505  19.2059554  38.2655138
  20.1825316  18.6152201  38.7795805  27.3855537  20.3547661  33.2323278
  28.0835701  20.5335788  33.7244741  27.7007869  19.8318000  32.6093667
  27.5350874  20.3041433  33.2125288  20.0156774  22.1600401  41.1434384
  19.8915471  22.7462846  41.7784203  20.6675059  21.6660596  41.4446659
  20.0930423  22.1739205  41.2820313  25.0415115  25.3362118  40.4221895
  25.6864118  24.8434561  40.1032844  25.2816892  25.4786904  41.2487973
  25.1725700  25.2839560  40.4971428  27.5801206  28.1817023  40.0728788
  27.8624449  27.3868429  39.8515543  28.3087367  28.6597611  40.0933849
  27.7290770  28.1351620  40.0431803  25.5582400  15.7240057  37.3144553
  25.2285730  16.1751201  36.6448251  24.8827402  15.6456221  37.8617559
  25.4092837  15.7791193  37.2967776  32.7658808  11.7125580  35.5594163
  32.4512249  12.4029059  35.9914586  32.2485750  11.6570362  34.8579664
  32.6423278  11.8060469  35.5191112  32.1071242  21.7130081  31.6731574
  31.5782713  21.9289715  32.3328880  32.6296262  22.4066220  31.5932543
  32.1059695  21.8473218  31.7587173  23.9970850  25.6093298  30.4739042
  23.4128065  26.1143329  30.8804906  23.5940945  25.3835685  29.7335634
  23.8510153  25.6501546  30.4244067  19.5514878  31.3248059  37.2762713
  19.0682456  32.0498549  37.2522297  20.3638196  31.6224189  37.3872871
  19.6005626  31.4750413  37.2889993  29.2792624  30.5675054  45.8428701
  29.3675970  30.3801194  46.6906911  29.7082337  29.9212483  45.4433548
  29.3554727  30.4438062  45.9100452  26.8463084  29.8506214  44.8246363
  26.2833919  29.4378824  45.3486024  27.6084108  29.7759119  45.2439506
  26.8757533  29.7783614  44.9639363  28.4548064  21.8558950  28.9507962
  28.6944068  22.0636934  28.1383306  28.7763905  21.0516459  29.0596907
  28.5385222  21.7673051  28.8468516  23.7638354  13.7852346  32.7967500
  24.5184322  14.1530663  32.5584551  23.5865889  14.1591900  33.5646680
  23.8492833  13.8950534  32.8752389  23.4537982  22.0779822  46.5563408
  23.6258486  21.9685717  47.4048690  23.9907340  22.7234227  46.3194601
  23.5582986  22.1571824  46.6468505  22.1195419  16.1922665  29.4945613
  21.9370992  16.4094546  28.6686606  22.9821032  16.3061677  29.5504228
  22.2200008  16.2412563  29.3800100  21.7309851  28.0310587  36.9368601
  22.5698750  28.2633520  36.9842363  21.7621620  27.1614898  36.8675637
  21.8591568  27.9367533  36.9333246  22.3562554  28.4511462  41.2381907
  22.8960779  28.3082593  41.9085279  21.6732500  28.8508213  41.6065933
  22.3354708  28.4891133  41.3916329  27.7995138  13.1949075  32.5294637
  28.5281299  13.0165030  32.0832794  27.8890031  14.0367155  32.7401815
  27.9201800  13.2932954  32.4948155  29.3912684  29.9984073  48.5072485
  30.1753100  30.1114921  48.8728227  29.1909278  29.1725210  48.7031170
  29.4778709  29.8930792  48.5906871  17.7599699  24.6711753  41.3916328
  17.4938114  23.8550870  41.5507319  17.7738263  24.7164909  40.5211844
  17.7224421  24.5568658  41.2869810  34.7381093  14.9989568  39.4258762
  35.3807001  15.0687672  40.0120677  34.9904114  14.3318791  38.9238304
  34.8703225  14.9115917  39.4386041  21.6657446  19.4696837  28.0068086
  20.9515623  19.1835017  28.4190519  22.1501415  19.8093463  28.6474474
  21.6316809  19.4778487  28.1623721  22.5098305  18.2090131  44.0383336
  21.8170102  17.7387111  44.2844068  23.1258633  17.9828436  44.6125043
  22.4982835  18.1057263  44.1592489  18.1693113  25.4570532  38.6728073
  17.9868686  25.4317418  37.8200365  18.9042782  25.9269470  38.7116981
  18.2507177  25.5231895  38.5525991  21.2338864  22.1755535  45.1810181
  21.9578837  22.1608566  45.6675076  21.3355001  22.8850890  44.6832149
  21.3557073  22.2780238  45.1788968  28.6083814  25.6554620  50.0459128
  27.8156794  25.9698132  50.2311748  28.7232741  25.8706088  49.2079913
  28.5079224  25.7338457  49.9497463  31.2815133  22.3788611  34.3354144
  31.3761987  23.1177905  34.7893770  30.6573976  21.9506086  34.7688709
  31.2024163  22.4249932  34.4662292  29.5367607  25.5574824  44.9844425
  30.1106468  24.9202068  45.1392989  29.4582410  25.5578906  44.1154083
  29.6100841  25.4639935  44.8790836  18.1364023  22.3364033  38.8227139
  18.7137526  22.2000484  39.4619385  17.4378085  21.8799817  39.0772724
  18.1185044  22.2486299  38.9549429  24.8931325  23.9898089  37.0365622
  24.6350569  23.1569824  37.0096922  24.9479808  24.2155702  36.1958123
  24.8631103  23.8995860  36.9085759  29.9732375  16.0926539  37.1369715
  29.2688702  15.6035725  37.2953634  30.0217350  16.1049014  36.2658160
  29.8762427  16.0216187  37.0309055  23.8666037  21.5435851  37.5230517
  23.2915629  21.7028020  38.1594478  23.4901714  20.9071260  37.0598968
  23.7268850  21.4733664  37.5485076  27.5339326  20.0159200  42.3822896
  27.1453759  19.5913418  41.7275087  26.8694024  20.2641350  42.8899922
  27.3786254  19.9897922  42.3610764  13.6122856  21.1875926  35.5374958
  13.6983108  20.8107794  36.3188488  14.2398654  20.8136372  35.0594916
  13.7179407  21.0761408  35.5820435  31.3565687  13.7133829  39.8946880
  31.7376199  13.0312000  40.2814754  30.5528972  13.4243431  39.7122544
  31.2942149  13.5700878  39.9250936  24.5086172  27.7179322  35.7072015
  25.1460119  27.4791070  36.2523808  24.9341244  27.9216481  34.9725175
  24.6662339  27.7130333  35.6789172  19.1998815  29.9567659  39.5906318
  19.2402960  30.2282510  38.7626098  19.7593339  30.4809567  40.0064106
  19.2882161  30.0743414  39.5298207  25.1488987  22.9381612  30.0446904
  25.5334140  22.7189319  30.7963449  24.9000608  23.7644558  30.1747980
  25.1691060  23.0279759  30.1747980  25.3157528  16.2188027  49.7609488
  25.0010969  16.9887590  49.4979051  24.9947460  15.6558283  49.1761715
  25.2216447  16.2498296  49.6350838  20.6513401  28.5409608  34.4160244
  19.8251519  28.7871345  34.2894523  20.7125392  28.4621689  35.2822303
  20.5387568  28.5654557  34.5249189  22.8689425  14.6078549  35.3755685
  22.0011850  14.6801148  35.4413294  23.1564629  15.4100628  35.5643660
  22.7829173  14.7372696  35.4130451  31.9922314  14.7556408  43.7067006
  32.7375906  14.5666219  43.2930432  31.5759618  15.2814646  43.1480863
  32.0407288  14.8058554  43.5631580  26.0206975  25.9604234  43.2032405
  25.5218669  26.6720002  43.2817293  26.8307200  26.2804901  43.1650567
  26.0663082  26.1131083  43.2088973  22.2835093  25.2227187  37.4495126
  21.9948342  24.5964658  37.9840853  23.1518441  25.1647475  37.5159806
  22.3695345  25.1214731  37.5386080  33.0712991  20.3661970  37.7677108
  32.7277757  19.6452306  38.1184357  33.1706033  20.1575822  36.9255466
  33.0355034  20.2286174  37.6948788  22.4867366  26.8622438  33.3737491
  23.2413334  27.2435477  33.5872953  21.8937979  27.3133582  33.8284187
  22.5104080  26.9851266  33.4720369  24.9474033  18.8185279  48.4994703
  24.1373809  19.1243058  48.3884545  25.4248720  19.5390861  48.6147287
  24.8977512  18.9699880  48.5001774  23.8065593  28.0331000  38.7477606
  23.2846346  28.1731291  39.4329471  24.1939613  27.2741664  38.9379724
  23.7869294  27.9416523  38.8778683  20.7956777  18.0836808  32.8172561
  20.5081573  17.7138079  32.0804508  21.4827245  18.5531664  32.5556266
  20.8545674  18.0983778  32.6687637  25.2331918  25.0635019  34.1459097
  25.0374701  25.6709753  33.5519400  25.4566264  24.3702963  33.6650771
  25.2366560  25.0512544  33.9875178  23.6310449  21.9489756  34.2639966
  24.3533100  22.1130915  33.8043772  23.1518441  22.6699421  34.1579305
  23.6674179  22.0787986  34.1805580  31.5903956  18.2853555  39.6436650
  30.7515057  18.3114834  39.4074914  31.6608323  18.9324291  40.2241997
  31.4772350  18.3849681  39.6945767  21.2818065  24.3547829  43.3694105
  21.7939162  24.6332082  42.7202865  20.9954408  25.0937123  43.7356918
  21.3152928  24.5050183  43.3283983  30.0373234  15.1838932  34.3764266
  30.7399587  14.9846681  33.8984225  29.7717423  14.4114875  34.6833110
  30.1019867  15.0401898  34.3509708  18.3684972  18.8618021  33.6657842
  18.4701108  19.6644182  33.9938817  19.1640858  18.6605357  33.3680922
  18.5012877  18.9503919  33.6693197  24.8001791  16.4474217  43.4295147
  24.6084988  16.4629352  44.2794571  25.6500387  16.6437892  43.4061802
  24.8977513  16.4788569  43.5518442  19.1848704  18.9765199  41.4078963
  19.0434195  18.1249140  41.5323471  19.4689267  19.0193860  40.5841169
  19.2056550  18.8564949  41.3046588  29.3387296  20.8132289  35.5523452
  29.0922010  20.7328040  36.3860241  29.6672419  20.0285757  35.3585979
  29.3508540  20.6858554  35.6470975  31.5713430  23.8212024  45.5932615
  31.5661468  22.9491840  45.5975041  32.2774424  24.0200193  45.1202070
  31.6758434  23.7215898  45.5239650  25.2984323  23.5489008  44.9646435
  25.4427699  24.1290216  44.3289545  25.6459972  23.9265304  45.6696289
  25.3711785  23.6909712  44.9745430  27.4704241  22.7479176  42.7471566
  26.7227555  22.9410190  42.3419844  27.6245766  21.9224396  42.5095688
  27.3826668  22.6544287  42.6516972  27.7106018  16.6429727  43.6366970
  28.1678632  17.3753701  43.7639762  27.7862346  16.2196192  44.3954226
  27.7896987  16.6886965  43.7668047  19.9539009  16.8895547  44.7256414
  19.4181198  16.2775905  45.0417181  20.0156774  17.4643683  45.3790080
  19.8834642  16.8842474  44.8691841  32.1833344   9.8219602  37.5060813
  32.3016912  10.2796065  36.7728116  32.0095519   9.0164863  37.2197031
  32.1752515   9.7713374  37.3561747  25.5888396  18.6331831  40.4808794
  24.7984470  18.4523291  40.8026130  25.9849018  17.8558783  40.4639089
  25.5305272  18.4919292  40.5261343  28.1026226  21.1092090  44.9632293
  28.0385367  21.9702046  44.8352430  28.2423414  20.7924083  44.1627844
  28.1141696  21.1892256  44.8260506  26.7845320  23.8024229  39.1048496
  26.3607569  24.0028728  38.3687514  26.6090175  22.9553077  39.2172796
  26.6956200  23.7073011  39.0122186  22.0727765  24.2976281  34.5376469
  22.2292384  24.2323083  35.3932461  22.4128358  25.0724833  34.3255148
  22.1461000  24.4025479  34.6331063  28.6106909  23.6734164  33.4069832
  29.1522455  23.1704545  33.8708452  28.9253468  23.6199359  32.5959317
  28.7371306  23.5913585  33.3553644  32.4824017  27.8836812  50.5196744
  33.2958882  27.6121960  50.6801876  32.3218983  27.5844352  49.7156940
  32.5793965  27.7991738  50.4242150  29.7596179  18.5670469  43.4592132
  29.9738148  17.9281383  42.9055486  29.1430078  19.0116293  43.0299994
  29.7001508  18.5380612  43.3142563  18.6462026  21.4811231  34.8537236
  19.0260991  21.8995776  34.1897503  18.0717391  22.0624687  35.1606079
  18.6173351  21.6289090  34.8013977  31.9235267  20.1759534  44.3975439
  31.1111948  19.8685424  44.4788612  32.3825201  19.6958534  44.9618151
  31.8715651  20.0596026  44.4930033  29.1510907  11.6770404  38.4479475
  28.2804465  11.6509125  38.4012784  29.4051249  11.5047597  37.6305321
  29.0604467  11.6480548  38.3199612  29.0188774  21.5819605  49.1804142
  29.4888405  22.2061722  49.5672016  29.0650654  20.9136581  49.7397356
  29.0956650  21.5754286  49.3204213  26.1760048  13.6876633  39.9052945
  25.6598536  12.9956824  40.0304524  25.6153977  14.3547410  39.8515544
  26.0166561  13.6839890  39.9159011  28.2452281  14.2269593  41.7345798
  27.8584034  14.2518624  42.5159328  27.7585219  13.6611271  41.2820315
  28.1164790  14.1465344  41.7833702  27.9109423  11.1136578  44.0256058
  28.5402541  11.6496878  43.7477128  28.0795286  11.0213937  44.8769624
  28.0287218  11.1797941  44.1104586  27.7123338  15.9007773  46.2982469
  28.5396767  15.6292922  46.3541084  27.7331184  16.6968615  46.6546288
  27.8376188  15.9787527  46.3597652  22.2892828  23.0471636  39.4852730
  21.4480834  22.9475510  39.6931624  22.4982836  23.8167116  39.8367051
  22.1957520  23.1463679  39.5680045  19.7668395  20.6691173  37.3137481
  19.3725092  20.7434185  36.5387590  19.2108512  21.0549119  37.8645843
  19.6271207  20.7372947  37.2805141  31.4033341  13.6472467  36.9941360
  31.6082935  13.5794775  37.8398357  31.0759765  14.4531288  36.9262537
  31.3848589  13.7558407  37.1101015  26.1009493  20.9753035  38.7350328
  25.7972630  20.4209023  39.3360735  25.3988913  21.1545245  38.2478362
  25.9525702  20.9197817  38.7520033  25.1575590  18.2853555  33.2995029
  25.4335324  17.5672467  32.8872597  25.7574259  18.8838475  33.0916136
  25.2868854  18.2673926  33.2075791  24.1627844  28.1902756  43.4422425
  24.0548199  28.2004818  44.3084483  24.3723625  29.0157536  43.2527379
  24.1777955  28.3143831  43.5426517  34.6567029  14.2004231  36.4744125
  34.0441343  14.6874633  36.8597857  34.7531204  13.5247722  37.0181776
  34.5804927  14.1722540  36.6122983  28.6586110  15.9567072  31.5741624
  29.1129857  16.1277633  32.2989469  29.1326156  15.3435183  31.1739400
  28.7954430  15.8917957  31.6215386  22.1801636  25.4415398  40.9044363
  21.5889569  26.0824896  40.8747378  22.9422659  25.8653015  40.8775662
  22.2049896  25.5991237  40.8959510  22.5762258  16.6017396  41.5712381
  23.0363740  16.6756325  42.3087504  22.6218365  17.3998650  41.2212202
  22.6512814  16.7311543  41.6285137  24.2245608  17.2684091  46.1384408
  23.8331173  16.6217438  46.5740185  24.3931471  17.8595526  46.7578663
  24.1916518  17.2598359  46.2947114  25.9999130  22.6609607  32.6786632
  26.7441175  23.0483883  32.9169582  26.1459826  21.8167032  32.8427120
  26.1309715  22.5940079  32.7380601  27.9178706  14.4559865  37.7118493
  27.0714751  14.6282673  37.5859843  27.9149838  13.6509209  38.0484321
  27.7925856  14.3620894  37.7429620  28.9877006  18.2335080  38.5780551
  28.5136960  17.7076842  39.0885862  29.3595142  17.6864553  38.0095413
  28.9726895  18.0751076  38.5695698  19.3650036  20.2306587  43.9464097
  20.2275649  20.1302296  43.8601427  19.0341819  19.6501296  43.3849669
  19.4435233  20.1298213  43.8509503  30.9160506  19.1271634  31.6406305
  30.3883524  19.2100378  30.9512014  31.3756214  19.8689506  31.6370950
  30.9062356  19.2492297  31.5381000  22.7251822  19.0549036  40.6074515
  22.1004892  19.0667428  40.0000468  22.3897417  19.5309211  41.2565755
  22.5837314  19.1267553  40.6131084  22.9093571  17.3974154  26.6647200
  22.5606375  18.0493879  27.1278749  22.4290017  17.3831267  25.9371071
  22.7863815  17.4917208  26.6258291  19.4377498  27.1149496  42.0478279
  18.9077422  26.4241935  42.0973254  19.7102591  27.1059681  41.2190988
  19.4002220  27.0116627  41.9325695  29.6383743  24.5572740  42.0216651
  29.0240736  24.0130791  42.3165286  30.1551028  24.0436977  41.5422467
  29.6239406  24.4009149  41.9940879  21.9942568  20.6642183  42.8249383
  22.1536054  19.9085508  43.2301105  21.8135461  21.2133123  43.4790121
  21.9907927  20.6335997  42.9812089  29.9362871  12.8303419  43.3800173
  29.4403432  13.0267093  42.6891740  30.6931933  13.2296087  43.2088975
  29.9749695  12.9181153  43.2520310  27.2065750  16.5045765  39.9703484
  27.2308237  15.9705877  39.2816264  27.4577224  15.9963074  40.6329074
  27.2475669  16.3506669  39.9668128  14.7173340  23.7877260  39.4046628
  14.6116789  23.7424104  38.5398712  13.9673560  24.1331040  39.6860912
  14.5908943  23.8318168  39.3183957  23.4867072  15.2316583  39.3509228
  23.5265444  15.7325790  40.0643935  22.6616737  15.3226977  39.0815151
  23.3706598  15.3198399  39.4159766  25.6696685  24.7977323  47.4529522
  24.8192316  24.9349037  47.5887167  25.8324813  24.0641101  47.8977224
  25.5680549  24.7091424  47.5385122  24.9081436  21.7477093  41.6483127
  24.0773365  21.9150911  41.4418375  24.8532953  21.3713044  42.4332012
  24.7770851  21.7166824  41.7331655  22.7165219  15.2385986  47.2839538
  23.3417922  14.6948119  47.5568970  22.2615699  14.7580903  46.7147328
  22.7413480  15.0875467  47.2401131  23.2817480  20.0232684  32.1773245
  23.4220441  20.5205149  32.8801886  23.7800012  19.3218979  32.3187458
  23.3758560  19.9934663  32.3024824  23.3117702  20.8899796  29.5065821
  23.9462781  21.4860221  29.4415283  23.3943313  20.5903253  30.3211692
  23.4174253  20.9340704  29.6168908  24.8896685  16.8213771  29.4811263
  25.2112526  16.3416853  28.8270526  25.1523629  17.6313417  29.2902075
  24.9762710  16.8703669  29.3566755  28.1193658  27.8432645  43.0010079
  27.6118749  28.3968492  43.4450710  27.8220304  27.9040935  42.1828854
  27.9998543  27.9338956  42.9458536  30.2855840  16.2085965  41.8434742
  30.7110911  15.7558491  41.2318269  29.6712833  15.6546036  42.1199530
  30.2584485  16.0599941  41.7939768  19.8170690  23.0867636  32.7755367
  20.3262919  23.6832144  33.1566673  20.2904962  22.8193610  32.0931787
  19.9614066  23.1353452  32.7309890  28.7250063  12.6801065  35.2525319
  28.0818381  12.5298711  35.8210458  28.3849470  12.4343410  34.4874424
  28.5795140  12.6213187  35.2228335  33.3149409  20.6360491  34.6755328
  32.6440599  21.1790194  34.5468394  34.0089159  21.1055347  34.4337023
  33.3178277  20.7858763  34.6210856  33.4777537  17.0916375  37.5845701
  33.8305147  16.6646098  38.2591500  32.6192338  17.0067219  37.7146778
  33.4026981  17.0161116  37.7040712  22.1761222  19.7223895  35.6428548
  21.4573211  20.1388027  35.9101411  22.5473584  20.2878134  35.0920186
  22.1253153  19.8673176  35.6011355  31.4760802  20.3551744  41.5330544
  31.4558730  20.1735039  42.3865322  31.5240003  21.2263762  41.5090127
  31.4795443  20.4568282  41.6553838  29.4207132  26.9438936  47.4579020
  29.3802987  26.2988613  46.8724176  30.2330451  26.8875553  47.7704432
  29.5350286  26.8397903  47.4175969  27.9507796  18.7621895  30.9801927
  27.3572635  19.0838891  30.4286494  27.9883074  17.9162990  30.7723033
  27.8682185  18.6846223  30.8684699  34.9101597  12.2134787  38.5130014
  34.4032461  11.5063927  38.4451191  35.7069030  11.8827976  38.6431090
  34.9528836  12.0607938  38.5229009  30.8265613  18.7201399  34.4103678
  30.5979306  18.7434101  33.5682036  31.0863689  17.8958866  34.5298688
  30.8311801  18.6017479  34.3028875  25.1084841  20.5735872  44.0128778
  24.5963744  19.9657055  44.3713809  24.9364337  21.2892465  44.4802753
  25.0074478  20.5899172  44.1345001  19.9550556  19.0173448  46.6631139
  19.7853146  19.6774822  46.1179346  19.5116506  19.2280009  47.3843629
  19.8649889  19.1459430  46.6892769  23.8810375  17.2577946  35.7057873
  24.3567741  17.6195025  35.0708054  23.3798975  17.9134413  35.9858016
  23.8775734  17.4072134  35.6534614  28.9853911  18.4960117  46.4531033
  29.5425341  18.2673926  45.8209499  28.6614976  19.2565783  46.1766246
  29.0200321  18.5743954  46.3187530  16.8552620  21.9220313  41.9219629
  16.3079340  21.2520959  42.0400498  17.6444998  21.5550161  41.9863097
  16.8904804  21.7685300  41.9488330  26.7037029  21.5827770  47.4183040
  27.4548356  21.8979447  47.7322595  26.8959605  21.3806941  46.5916962
  26.8428443  21.5995152  47.3426436  25.9237028  19.4019145  29.0731257
  26.3035993  19.4198774  28.2882372  25.1829624  19.8473134  28.9522104
  25.8705866  19.4700920  28.9394825  33.5522319  17.7101337  34.6606836
  33.5516545  17.5549993  35.5191112  33.3478499  18.5564324  34.6048221
  33.5222097  17.8121957  34.7794775  15.6139590  21.1341121  39.0765652
  15.4361351  20.6817730  39.8020568  15.3258612  21.9367282  39.2604130
  15.5452543  21.1863679  39.2109155  17.3512060  23.6668845  36.1887411
  16.4857579  23.6554535  36.0770183  17.4510875  23.4799068  37.0358551
  17.2386227  23.6374906  36.2976356  26.8463084  13.6264261  44.2879424
  26.9790990  12.8295254  44.6160399  27.2308237  14.1530664  44.8677699
  26.9219413  13.5864177  44.4222927  30.5667535  28.6454724  44.0949022
  30.0188481  28.0212608  43.8269087  31.0280564  28.8348996  43.3793101
  30.5534745  28.5813774  43.9499453  29.9195439  10.5494587  40.8860517
  29.1141403  10.4392316  41.2028355  29.7902175  10.6507042  40.0290383
  29.7815572  10.5478257  40.8068557  33.3761400  16.7140079  41.4800214
  32.7924389  17.2149285  41.0677781  33.6965694  16.2069635  40.8464537
  33.3374575  16.7131914  41.3258721  25.9156199  15.6280673  31.7558889
  26.7371893  15.7978986  31.5140584  25.4525850  15.7827934  31.0325186
  25.9687361  15.6762406  31.6130533  24.5051531  13.6223436  42.5357317
  25.0495944  13.2814563  43.1261659  24.5588467  14.4808897  42.6778602
  24.5940650  13.6978695  42.6439191  20.3182090  27.3839852  39.4096125
  20.9226947  27.3435686  38.7809946  20.1109402  28.2311004  39.4400181
  20.3770987  27.5027854  39.3212242  15.5533372  26.3674469  39.2795048
  15.4557650  25.5570741  39.5885105  16.3362242  26.3466263  38.8941317
  15.6549508  26.2441559  39.2681911  57.5772096  52.8255957  33.5901239
  57.5466100  53.6800593  33.7619509  58.1753444  52.5251249  34.1487383
  57.6609254  52.9072453  33.6976041  50.7771781  51.9131608  38.3454170
  49.9209676  52.0740106  38.3963286  50.8239434  51.0423671  38.3659231
  50.6570892  51.8082409  38.3560236  45.1612920  61.4494325  34.1091401
  44.4095820  61.0709864  33.8807446  45.6098932  61.4812759  33.3610211
  45.1162587  61.3979933  33.9648903  54.0865497  58.1818133  47.9514626
  54.7932264  57.6870164  48.0801560  54.2753432  58.6227215  47.2217284
  54.2193403  58.1736484  47.8623671  50.6137880  61.8719695  29.5376948
  50.2789249  62.5496617  29.1021170  51.1264751  61.4825006  28.9493820
  50.6403461  61.9144273  29.3863740  50.1542171  63.8233964  35.4788060
  50.5381551  64.3920862  34.9392835  50.0901313  63.0983474  34.9993876
  50.2015599  63.8009427  35.3281922  53.6223602  53.9723651  40.9885821
  54.1679562  54.6508738  41.0479791  53.5640478  53.8311112  40.1287403
  53.6939516  54.0515653  40.8697882  46.7397676  61.4612718  36.3754174
  46.8408039  60.6513072  36.6851301  46.1439422  61.3669664  35.7453852
  46.6670215  61.3277746  36.3280412  55.3988670  55.4008259  31.8619549
  55.2828196  56.1515945  32.2911687  56.1944557  55.1432212  32.1115636
  55.4993260  55.4743105  31.9623641  46.5798416  66.3790307  37.7769030
  47.2235871  66.8203471  38.1665188  46.9054672  65.5743733  37.6899288
  46.7230245  66.3255501  37.8214507  39.9362721  57.4833004  36.0006507
  39.7012905  56.6500657  35.8938776  40.0748361  57.7637670  35.1867708
  39.9218383  57.4016508  35.8648862  47.2818996  59.3902282  33.1488891
  47.6034837  59.9307489  32.5450199  47.9291092  58.8199053  33.2811181
  47.4245051  59.3861457  33.0795927  49.3320704  51.3918277  33.2323278
  50.0300868  51.5706404  33.7244741  49.6473036  50.8688616  32.6093667
  49.4816041  51.3412049  33.2125288  41.9621941  53.1971016  41.1434384
  41.8380638  53.7833462  41.7784203  42.6140226  52.7031212  41.4446659
  42.0395590  53.2109821  41.2820313  49.5208639  57.7788722  33.2203070
  49.9602275  57.1705822  33.6657842  49.3713302  57.3996095  32.4488535
  49.5630105  57.6327193  33.1722237  46.9880282  56.3732733  40.4221895
  47.6329285  55.8805177  40.1032844  47.2282059  56.5157520  41.2487973
  47.1190867  56.3210176  40.4971428  49.5266374  59.2187639  40.0728788
  49.8089616  58.4239045  39.8515543  50.2552534  59.6968227  40.0933849
  49.6755937  59.1722236  40.0431803  53.1217976  56.1315903  30.1733839
  53.0369271  56.9876869  30.3183408  53.6102359  55.8560227  30.8415998
  53.1806873  56.2173224  30.2935920  54.0536409  52.7500697  31.6731574
  53.5247880  52.9660331  32.3328880  54.5761429  53.4436835  31.5932543
  54.0524862  52.8843834  31.7587173  59.5084462  58.3247001  37.0464618
  58.6782165  58.5357645  37.2098035  59.4593714  57.4984056  36.7706902
  59.3791197  58.2336608  37.0301984  45.9436017  56.6463914  30.4739042
  45.3593232  57.1513945  30.8804906  45.5406112  56.4206301  29.7335634
  45.7975321  56.6872162  30.4244067  41.4980045  62.3618675  37.2762713
  41.0147624  63.0869165  37.2522297  42.3103364  62.6594805  37.3872871
  41.5470793  62.5121029  37.2889993  47.5694199  61.1550856  39.8812528
  47.0521141  60.7958271  39.2773836  48.2668591  60.6313030  39.8918594
  47.5959781  61.0248544  39.7942787  51.2257791  61.6045670  45.8428701
  51.3141137  61.4171810  46.6906911  51.6547504  60.9583099  45.4433548
  51.3019894  61.4808677  45.9100452  48.7928251  60.8876830  44.8246363
  48.2299086  60.4749439  45.3486024  49.5549275  60.8129735  45.2439506
  48.8222700  60.8154230  44.9639363  50.4013231  52.8929566  28.9507962
  50.6409235  53.1007550  28.1383306  50.7229072  52.0887075  29.0596907
  50.4850389  52.8043667  28.8468516  44.3524243  62.8774851  37.4282993
  45.0544822  62.3626840  37.4855750  44.2721726  63.2049002  38.2329868
  44.4448003  62.8489077  37.5555785  59.0038420  50.9717402  40.8415040
  58.1666841  51.0419589  41.0762634  58.9726651  50.9741897  39.9689342
  58.8756703  50.9827629  40.7474588  45.4003149  53.1150438  46.5563408
  45.5723653  53.0056332  47.4048690  45.9372507  53.7604843  46.3194601
  45.5048153  53.1942439  46.6468505  43.6775018  59.0681203  36.9368601
  44.5163917  59.3004136  36.9842363  43.7086787  58.1985514  36.8675637
  43.8056736  58.9738149  36.9333246  44.3027721  59.4882078  41.2381907
  44.8425946  59.3453209  41.9085279  43.6197667  59.8878829  41.6065933
  44.2819875  59.5261749  41.3916329  53.7268606  55.1673079  36.4326931
  54.4826121  55.6004593  36.4715840  53.8330930  54.5177848  37.0061567
  53.8538777  55.1350562  36.5224957  56.7648777  58.9946356  37.1829334
  56.3284009  58.9983098  37.9388306  56.4311693  59.6751855  36.7508912
  56.6511397  59.0958812  37.2310167  51.3377851  61.0354689  48.5072485
  52.1218267  61.1485537  48.8728227  51.1374445  60.2095826  48.7031170
  51.4243876  60.9301408  48.5906871  39.7064866  55.7082369  41.3916328
  39.4403281  54.8921485  41.5507319  39.7203430  55.7535524  40.5211844
  39.6689588  55.5939274  41.2869810  56.6846260  46.0360184  39.4258762
  57.3272168  46.1058288  40.0120677  56.9369281  45.3689407  38.9238304
  56.8168392  45.9486532  39.4386041  43.6122613  50.5067453  28.0068086
  42.8980790  50.2205633  28.4190519  44.0966582  50.8464079  28.6474474
  43.5781976  50.5149103  28.1623721  51.4948244  62.9464791  42.1538940
  50.6963490  62.7064291  42.4112809  51.9434256  62.9979184  42.9005988
  51.4422855  62.9187182  42.3023864  59.8993123  55.7127276  36.0748971
  60.5609557  55.1517944  35.9744880  59.2584535  55.2179307  36.4001663
  59.9021991  55.5563685  36.1081312  50.7869931  59.0097407  28.3829895
  51.2021080  58.6782431  27.6914390  49.9561861  58.7766309  28.2550031
  50.7257940  58.9268663  28.2620742  40.1158280  56.4941148  38.6728073
  39.9333853  56.4688034  37.8200365  40.8507949  56.9640086  38.7116981
  40.1972344  56.5602510  38.5525991  56.1857954  56.7292658  35.8160960
  56.4213543  56.8737857  34.9887811  56.3347518  57.4935066  36.2092474
  56.2423757  56.8631713  35.7524564  43.1804031  53.2126151  45.1810181
  43.9044004  53.1979182  45.6675076  43.2820168  53.9221506  44.6832149
  43.3022241  53.3150854  45.1788968  58.0148411  55.5694324  33.6530564
  58.3456628  56.1021964  33.0470659  58.5881499  55.6233212  34.3092515
  58.1482090  55.6563893  33.6608346  50.5548981  56.6925236  50.0459128
  49.7621962  57.0068748  50.2311748  50.6697908  56.9076704  49.2079913
  50.4544391  56.7709072  49.9497463  53.2280300  53.4159227  34.3354144
  53.3227154  54.1548521  34.7893770  52.6039143  52.9876702  34.7688709
  53.1489330  53.4620547  34.4662292  51.4832774  56.5945439  44.9844425
  52.0571635  55.9572684  45.1392989  51.4047577  56.5949522  44.1154083
  51.5566009  56.5010551  44.8790836  40.0829190  53.3734649  38.8227139
  40.6602693  53.2371100  39.4619385  39.3843252  52.9170433  39.0772724
  40.0650212  53.2856915  38.9549429  53.4803321  55.2607967  27.5691096
  53.3983484  55.3310154  28.4346083  54.1183042  55.8237711  27.3774837
  53.5623159  55.3546938  27.6681046  46.8396492  55.0268705  37.0365622
  46.5815737  54.1940439  37.0096922  46.8944975  55.2526318  36.1958123
  46.8096270  54.9366476  36.9085759  49.4804493  51.0529816  42.3822896
  49.0918926  50.6284034  41.7275087  48.8159191  51.3011966  42.8899922
  49.3251421  51.0268537  42.3610764  59.1227762  50.8104821  35.1570726
  58.8664327  49.9984762  34.9668608  59.9657076  50.8182388  34.9300913
  59.2093788  50.6916818  35.0955543  50.5843431  55.2828421  30.5799703
  51.3984070  55.5743314  30.4682474  50.5202573  54.6288283  30.0057996
  50.6946170  55.2293616  30.4788540  56.8052921  57.9654417  44.9929278
  56.5691559  57.1342482  44.8741339  57.4496150  57.9140024  45.5784122
  56.8647592  57.8352105  45.0615172  46.4551340  58.7549938  35.7072015
  47.0925287  58.5161686  36.2523808  46.8806411  58.9587097  34.9725175
  46.6127506  58.7500949  35.6789172  41.1463982  60.9938275  39.5906318
  41.1868127  61.2653126  38.7626098  41.7058506  61.5180183  40.0064106
  41.2347328  61.1114030  39.5298207  47.0954155  53.9752228  30.0446904
  47.4799307  53.7559935  30.7963449  46.8465775  54.8015174  30.1747980
  47.1156227  54.0650374  30.1747980  57.8289342  57.7498866  41.0557573
  57.5235159  58.4826923  41.4170888  57.1095558  57.3436795  40.7750359
  57.6776684  57.7980599  41.0670710  48.8372812  59.2322361  37.3865801
  48.9111820  59.0697533  38.2407651  49.6542318  59.4212551  37.1426283
  48.9689170  59.2359103  37.4763827  63.5291134  54.3891866  40.3825917
  63.4615635  54.4087826  39.5128504  63.5146797  55.2322194  40.6081588
  63.5169891  54.5165601  40.2878394  42.5978568  59.5780224  34.4160244
  41.7716686  59.8241961  34.2894523  42.6590559  59.4992305  35.2822303
  42.4852735  59.6025173  34.5249189  47.3777397  62.1957104  32.1179274
  47.6675696  61.8046085  31.3938501  48.1080878  62.3773809  32.5584550
  47.5284281  62.1650918  32.0762081  61.3149752  53.1636253  38.6572511
  61.8657673  52.5304322  38.8969603  61.2993867  53.6951645  39.3488016
  61.3934948  53.1485201  38.7951370  47.9672142  56.9974850  43.2032405
  47.4683836  57.7090618  43.2817293  48.7772367  57.3175517  43.1650567
  48.0128249  57.1501699  43.2088973  45.3183313  64.1724486  35.1839424
  45.0983608  63.8821841  35.9766091  45.0977835  63.5139442  34.6557336
  45.2530907  64.0324195  35.2228333  44.2300260  56.2597803  37.4495126
  43.9413509  55.6335274  37.9840853  45.0983608  56.2018090  37.5159806
  44.3160512  56.1585347  37.5386080  55.0178158  51.4032586  37.7677108
  54.6742924  50.6822922  38.1184357  55.1171200  51.1946438  36.9255466
  54.9820201  51.2656790  37.6948788  47.4851269  65.5453876  33.9670116
  48.1375327  65.0130319  34.1961142  46.7876877  65.1922529  34.3537990
  47.4781987  65.4143399  34.0582284  44.4332533  57.8993054  33.3737491
  45.1878501  58.2806093  33.5872953  43.8403146  58.3504198  33.8284187
  44.4569247  58.0221881  33.4720369  55.4791187  57.8658290  33.3101096
  56.0449220  58.5251500  33.2259639  54.8319090  58.2107989  33.7817498
  55.4669943  58.0140232  33.3673852  45.7530760  59.0701615  38.7477606
  45.2311514  59.2101907  39.4329471  46.1404780  58.3112280  38.9379724
  45.7334461  58.9787139  38.8778683  51.9497765  60.8097075  32.7338175
  51.7084441  60.0764935  32.3265240  52.1299098  61.3583932  32.0804508
  51.9405389  60.7819466  32.5768398  47.1797086  56.1005634  34.1459097
  46.9839868  56.7080369  33.5519400  47.4031431  55.4073578  33.6650771
  47.1831727  56.0883160  33.9875178  45.5775616  52.9860372  34.2639966
  46.2998268  53.1501530  33.8043772  45.0983608  53.7070037  34.1579305
  45.6139346  53.1158602  34.1805580  53.5369123  49.3224171  39.6436650
  52.6980224  49.3485450  39.4074914  53.6073491  49.9694907  40.2241997
  53.4237517  49.4220297  39.6945767  43.2283232  55.3918445  43.3694105
  43.7404329  55.6702698  42.7202865  42.9419575  56.1307739  43.7356918
  43.2618095  55.5420798  43.3283983  57.4126647  54.5292158  36.9297892
  57.3260622  54.6847584  37.7832671  56.9577127  55.1730233  36.5557297
  57.3329904  54.6467913  37.0004999  51.2852463  51.8502905  35.5523452
  51.0387177  51.7698656  36.3860241  51.6137586  51.0656373  35.3585979
  51.2973707  51.7229170  35.6470975  55.1800512  58.5586264  39.3410233
  55.0414871  59.2567310  39.8458975  54.4000510  58.4034921  38.9846415
  55.0443739  58.6386431  39.3636507  53.5178597  54.8582640  45.5932615
  53.5126636  53.9862456  45.5975041  54.2239591  55.0570809  45.1202070
  53.6223601  54.7586514  45.5239650  47.2449490  54.5859624  44.9646435
  47.3892866  55.1660832  44.3289545  47.5925139  54.9635920  45.6696289
  47.3176952  54.7280328  44.9745430  49.4169408  53.7849792  42.7471566
  48.6692722  53.9780806  42.3419844  49.5710933  52.9595011  42.5095688
  49.3291835  53.6914903  42.6516972  46.3177245  62.7762395  41.8307462
  46.4666809  62.2165311  41.1780866  47.0977247  62.8554397  42.2139980
  46.4551339  62.7047961  41.7904411  56.6753885  57.9164518  30.1026732
  56.2960694  57.1301656  30.0956022  56.0120130  58.4651375  29.9598376
  56.5212360  57.8809342  30.0807529  48.8430546  62.9477038  43.1091952
  48.7674217  62.2785849  43.6642741  48.7720405  63.6494826  43.6232619
  48.8211153  62.9521946  43.2668801  49.5000793  61.4678037  33.9415558
  50.2650684  61.1987681  33.6198223  49.3978883  60.9828047  34.6585621
  49.5982288  61.3567602  33.9995386  52.0219453  58.4990221  25.9215508
  52.7892439  58.5590346  25.5121360  51.5750762  57.9270662  25.4371826
  52.0692881  58.4226797  25.7893218  52.9197249  57.3044877  38.2068240
  52.2442251  57.0730109  38.7081627  52.9289625  56.6966060  37.5810345
  52.8215754  57.1803802  38.1884392  50.0491393  52.1462706  44.9632293
  49.9850534  53.0072662  44.8352430  50.1888581  51.8294699  44.1627844
  50.0606863  52.2262872  44.8260506  54.9213984  60.1610009  30.4378418
  55.0033821  60.9676995  30.1139869  55.4063726  60.1805968  31.1619192
  55.0051141  60.2830672  30.4965317  48.7310487  54.8394845  39.1048496
  48.3072736  55.0399344  38.3687514  48.5555342  53.9923693  39.2172796
  48.6421367  54.7443627  39.0122186  48.2322180  66.3545358  41.5669953
  48.7218111  65.6556147  41.3845618  47.6606413  66.0569228  42.1546011
  48.2206710  66.2071582  41.6270994  44.0192932  55.3346896  34.5376469
  44.1757551  55.2693699  35.3932461  44.3593525  56.1095449  34.3255148
  44.0926167  55.4396095  34.6331063  50.5572076  54.7104780  33.4069832
  51.0987622  54.2075161  33.8708452  50.8718635  54.6569975  32.5959317
  50.6836474  54.6284201  33.3553644  54.4289184  58.9207427  50.5196744
  55.2424049  58.6492576  50.6801876  54.2684150  58.6214967  49.7156940
  54.5259132  58.8362353  50.4242150  48.7258526  60.1022132  30.6909860
  48.7951346  59.2436670  30.8302860  49.5046981  60.3194012  30.3628884
  48.8511376  60.0074996  30.6627017  51.7061346  49.6041085  43.4592132
  51.9203315  48.9651999  42.9055486  51.0895245  50.0486908  43.0299994
  51.6466675  49.5751228  43.3142563  53.1166014  62.5259833  34.9046353
  52.7245805  62.2226548  34.1869219  53.2719086  63.3628923  34.7151307
  53.0819604  62.6043670  34.7702850  40.5927193  52.5181847  34.8537236
  40.9726158  52.9366392  34.1897503  40.0182558  53.0995303  35.1606079
  40.5638518  52.6659706  34.8013977  53.8700434  51.2130150  44.3975439
  53.0577116  50.9056040  44.4788612  54.3290368  50.7329150  44.9618151
  53.8180819  51.0966642  44.4930033  53.2805689  59.0909822  34.8452384
  52.9220343  59.2624465  35.6216416  52.7944399  59.5523027  34.2880382
  53.1564385  59.1848793  34.8777653  48.0694054  54.7708987  27.3852618
  48.3586579  55.5473870  27.6596192  48.1565853  54.2597719  28.0867117
  48.1248310  54.8100905  27.5295116  50.9653941  52.6190221  49.1804142
  51.4353573  53.2432338  49.5672016  51.0115822  51.9507197  49.7397356
  51.0421817  52.6124901  49.3204213  54.4410428  59.9813718  45.7919584
  55.0790148  59.4873913  45.4582041  53.7984519  59.9091118  45.2071811
  54.4404654  59.8972726  45.6561939  56.1667428  51.8302864  40.3585500
  55.7395036  51.7429212  39.6033600  55.5293481  51.9380639  40.9440344
  56.0097035  51.8335523  40.3330942  54.4964684  60.6733526  42.4324941
  55.2857063  60.3222591  42.5527023  54.6708282  61.4869914  42.1701575
  54.6384966  60.7419383  42.4112809  44.2357995  54.0842252  39.4852730
  43.3946001  53.9846126  39.6931624  44.4448003  54.8537732  39.8367051
  44.1422687  54.1834295  39.5680045  48.0474660  52.0123651  38.7350328
  47.7437797  51.4579639  39.3360735  47.3454081  52.1915861  38.2478362
  47.8990870  51.9568433  38.7520033  46.1093011  59.2273372  43.4422425
  46.0013366  59.2375434  44.3084483  46.3188792  60.0528152  43.2527379
  46.1243122  59.3514446  43.5426517  56.6032196  45.2374847  36.4744125
  55.9906510  45.7245249  36.8597857  56.6996371  44.5618338  37.0181776
  56.5270094  45.2093156  36.6122983  44.1266803  56.4786014  40.9044363
  43.5354736  57.1195512  40.8747378  44.8887826  56.9023631  40.8775662
  44.1515063  56.6361852  40.8959510  60.2457224  56.3091784  41.9021641
  60.3040348  56.7578432  42.6481618  59.6123692  56.7190596  41.4651721
  60.1608519  56.4365518  41.9474190  53.8856319  61.9295326  38.3376387
  53.6876008  62.4186140  37.6432599  53.2644030  62.1336567  38.9160521
  53.7643883  62.0311864  38.3199611  47.9464297  53.6980222  32.6786632
  48.6906342  54.0854499  32.9169582  48.0924994  52.8537648  32.8427120
  48.0774882  53.6310695  32.7380601  41.3115203  51.2677202  43.9464097
  42.1740816  51.1672912  43.8601427  40.9806986  50.6871912  43.3849669
  41.3900400  51.1668829  43.8509503  57.1978904  54.3308071  39.9887332
  56.9577127  53.4914487  39.9929758  57.6770911  54.4108238  40.7128105
  57.2331087  54.2189471  40.0962134  52.8625673  50.1642250  31.6406305
  52.3348691  50.2470994  30.9512014  53.3221381  50.9060122  31.6370950
  52.8527523  50.2862913  31.5381000  59.1984091  51.1109529  37.9416591
  58.9593861  51.0705363  37.1037375  59.3617992  51.9580681  38.0682312
  59.1874394  51.2301614  37.8370073  55.8030121  55.4959478  43.8721636
  56.5264320  55.0432004  43.6932656  55.5380083  55.7764144  43.0893964
  55.8711394  55.4710446  43.7300351  41.3842665  58.1520112  42.0478279
  40.8542589  57.4612550  42.0973254  41.6567758  58.1430297  41.2190988
  41.3467387  58.0487243  41.9325695  52.4162755  58.7345814  30.7715962
  53.1396954  59.2003927  30.6280535  51.9763346  58.8019424  30.0213559
  52.4578448  58.8129651  30.6400743  51.5848910  55.5943356  42.0216651
  50.9705904  55.0501406  42.3165286  52.1016195  55.0807593  41.5422467
  51.5704573  55.4379765  41.9940879  50.8245208  56.6647626  39.7560950
  50.3972816  56.0397345  39.3226385  50.8170152  56.3822548  40.5819957
  50.7604349  56.5300407  39.8140777  43.9407735  51.7012799  42.8249383
  44.1001221  50.9456123  43.2301105  43.7600628  52.2503739  43.4790121
  43.9373094  51.6706613  42.9812089  36.6638507  54.8247876  39.4046628
  36.5581956  54.7794720  38.5398712  35.9138727  55.1701656  39.6860912
  36.5374110  54.8688784  39.3183957  47.6161852  55.8347939  47.4529522
  46.7657483  55.9719653  47.5887167  47.7789980  55.1011717  47.8977224
  47.5145716  55.7462040  47.5385122  46.8546603  52.7847709  41.6483127
  46.0238533  52.9521527  41.4418375  46.7998120  52.4083660  42.4332012
  46.7236018  52.7537440  41.7331655  45.2282647  51.0603300  32.1773245
  45.3685608  51.5575765  32.8801886  45.7265180  50.3589595  32.3187458
  45.3223728  51.0305279  32.3024824  45.2582869  51.9270411  29.5065821
  45.8927949  52.5230836  29.4415283  45.3408480  51.6273869  30.3211692
  45.3639420  51.9711320  29.6168908  58.2365435  54.4585889  42.3752186
  58.8283275  55.0983139  42.4070384  58.6724429  53.7608925  42.6644252
  58.3883866  54.4504239  42.4233018  50.0658825  58.8803261  43.0010079
  49.5583916  59.4339108  43.4450710  49.7685471  58.9411551  42.1828854
  49.9463710  58.9709572  42.9458536  41.7635857  54.1238252  32.7755367
  42.2728086  54.7202760  33.1566673  42.2370129  53.8564226  32.0931787
  41.9079233  54.1724068  32.7309890  52.6766605  62.7966519  30.9314023
  51.9595915  62.6227381  30.4661260  53.3273343  62.5619091  30.3989509
  52.6668456  62.7362311  30.7843241  55.2614576  51.6731107  34.6755328
  54.5905766  52.2160810  34.5468394  55.9554327  52.1425963  34.4337023
  55.2643444  51.8229379  34.6210856  49.3101310  63.8127819  39.9067086
  49.0866964  63.0546649  40.2751113  48.8211153  63.8425841  39.1847526
  49.2044759  63.7050044  39.8543827  55.4242704  48.1286991  37.5845701
  55.7770314  47.7016714  38.2591500  54.5657505  48.0437835  37.7146778
  55.3492148  48.0531732  37.7040712  53.4225970  51.3922360  41.5330544
  53.4023897  51.2105655  42.3865322  53.4705170  52.2634378  41.5090127
  53.4260611  51.4938898  41.6553838  51.3672299  57.9809552  47.4579020
  51.3268154  57.3359229  46.8724176  52.1795618  57.9246169  47.7704432
  51.4815453  57.8768518  47.4175969  47.9579767  64.0328277  37.3604171
  47.5440166  63.3702408  36.9708013  48.6427141  64.1806136  36.8399865
  47.9978139  63.9568936  37.2260668  51.3245061  63.1918363  38.1127788
  50.9261344  63.3020633  37.3448608  50.7096281  63.4000429  38.6954347
  51.1743950  63.2391931  38.0859087  47.0550008  51.6106488  44.0128778
  46.5428911  51.0027671  44.3713809  46.8829504  52.3263081  44.4802753
  46.9539645  51.6269787  44.1345001  41.9015723  50.0544063  46.6631139
  41.7318313  50.7145438  46.1179346  41.4581673  50.2650625  47.3843629
  41.8115056  50.1830046  46.6892769  59.0586904  57.7670329  31.4970878
  59.4420510  58.5161686  31.7268975  58.2631017  58.0136149  31.2382867
  58.9980686  57.9140023  31.4928452  38.8017787  52.9590929  41.9219629
  38.2544507  52.2891575  42.0400498  39.5910166  52.5920777  41.9863097
  38.8369971  52.8055915  41.9488330  48.6502196  52.6198386  47.4183040
  49.4013523  52.9350063  47.7322595  48.8424772  52.4177557  46.5916962
  48.7893610  52.6365768  47.3426436  55.4987486  48.7471952  34.6606836
  55.4981712  48.5920609  35.5191112  55.2943666  49.5934939  34.6048221
  55.4687264  48.8492573  34.7794775  37.5604757  52.1711737  39.0765652
  37.3826518  51.7188346  39.8020568  37.2723779  52.9737898  39.2604130
  37.4917710  52.2234295  39.2109155  53.2228338  53.4269454  38.3143043
  53.7182003  52.7092449  38.2747063  52.4128114  53.1240252  38.1997530
  53.1772231  53.2767100  38.2916769  48.6686949  57.2767267  30.4640047
  47.8598272  56.9533941  30.4173357  49.1761858  56.5700489  30.3968296
  48.6236616  57.1248584  30.4470342  39.2977227  54.7039461  36.1887411
  38.4322746  54.6925151  36.0770183  39.3976043  54.5169683  37.0358551
  39.1851394  54.6745522  36.2976356  55.2880157  56.1773142  41.0020171
  55.7135228  55.6547563  40.4490597  54.9237077  56.7753979  40.4808794
  55.2966759  56.1883369  40.8429181  44.9234237  64.4737359  39.7617517
  45.2380796  65.2873748  39.7695299  45.3327650  64.0887578  40.4299676
  45.0302335  64.5366062  39.8621609  51.8758756  59.8907406  37.3321329
  52.3469934  60.6047669  37.5011314  52.2118935  59.2906156  37.8681198
  51.9953871  59.9078870  37.4353705  53.9635741  61.5008719  49.5113401
  54.0732706  60.7117280  49.8670148  54.2926637  61.4114655  48.7087739
  54.0288147  61.3714572  49.4455792  52.5132703  59.6825340  44.0949022
  51.9653649  59.0583224  43.8269087  52.9745731  59.8719612  43.3793101
  52.4999912  59.6184390  43.9499453  55.3226567  47.7510695  41.4800214
  54.7389556  48.2519901  41.0677781  55.6430861  47.2440251  40.8464537
  55.2839742  47.7502530  41.3258721  42.2647257  58.4210468  39.4096125
  42.8692114  58.3806302  38.7809946  42.0574569  59.2681620  39.4400181
  42.3236154  58.5398470  39.3212242  52.0791029  60.6876413  40.6258363
  52.8989403  60.5439379  40.8874658  51.7985107  61.3122612  41.1674801
  52.1587772  60.7586765  40.7446302  37.4998539  57.4045085  39.2795048
  37.4022817  56.5941357  39.5885105  38.2827409  57.3836878  38.8941317
  37.6014675  57.2812175  39.2681911  68.5504679  68.3441264  33.5901239
  68.5198684  69.1985901  33.7619509  69.1486028  68.0436557  34.1487383
  68.6341837  68.4257761  33.6976041  61.7504364  67.4316915  38.3454170
  60.8942260  67.5925414  38.3963286  61.7972018  66.5608979  38.3659231
  61.6303476  67.3267717  38.3560236  56.1345504  76.9679633  34.1091401
  55.3828403  76.5895172  33.8807446  56.5831515  76.9998067  33.3610211
  56.0895171  76.9165240  33.9648903  64.5956185  69.4908959  40.9885821
  65.1412145  70.1694046  41.0479791  64.5373061  69.3496420  40.1287403
  64.6672099  69.5700961  40.8697882  57.7130260  76.9798025  36.3754174
  57.8140623  76.1698379  36.6851301  57.1172005  76.8854972  35.7453852
  57.6402799  76.8463054  36.3280412  66.3721254  70.9193566  31.8619549
  66.2560780  71.6701253  32.2911687  67.1677140  70.6617520  32.1115636
  66.4725843  70.9928413  31.9623641  50.9095304  73.0018312  36.0006507
  50.6745489  72.1685964  35.8938776  51.0480945  73.2822978  35.1867708
  50.8950967  72.9201815  35.8648862  53.2085392  65.1704043  38.8990815
  52.5890423  64.5796690  38.7300830  53.1069255  65.7615478  38.2655138
  53.1023067  65.1708125  38.7795805  58.2551579  74.9087590  33.1488891
  58.5767420  75.4492797  32.5450199  58.9023676  74.3384361  33.2811181
  58.3977634  74.9046765  33.0795927  60.3053287  66.9103584  33.2323278
  61.0033452  67.0891712  33.7244741  60.6205620  66.3873924  32.6093667
  60.4548625  66.8597357  33.2125288  52.9354525  68.7156324  41.1434384
  52.8113222  69.3018770  41.7784203  53.5872809  68.2216520  41.4446659
  53.0128174  68.7295129  41.2820313  60.4941223  73.2974029  33.2203070
  60.9334858  72.6891130  33.6657842  60.3445886  72.9181403  32.4488535
  60.5362688  73.1512501  33.1722237  57.9612866  71.8918041  40.4221895
  58.6061868  71.3990484  40.1032844  58.2014643  72.0342828  41.2487973
  58.0923451  71.8395484  40.4971428  60.4998957  74.7372947  40.0728788
  60.7822200  73.9424353  39.8515543  61.2285117  75.2153535  40.0933849
  60.6488521  74.6907544  40.0431803  58.4780151  62.2795981  37.3144553
  58.1483481  62.7307125  36.6448251  57.8025153  62.2012144  37.8617559
  58.3290587  62.3347116  37.2967776  64.0950559  71.6501211  30.1733839
  64.0101854  72.5062177  30.3183408  64.5834943  71.3745535  30.8415998
  64.1539457  71.7358532  30.2935920  65.6856559  58.2681504  35.5594163
  65.3710000  58.9584983  35.9914586  65.1683500  58.2126286  34.8579664
  65.5621029  58.3616393  35.5191112  65.0268992  68.2686005  31.6731574
  64.4980464  68.4845638  32.3328880  65.5494012  68.9622143  31.5932543
  65.0257445  68.4029142  31.7587173  56.9168600  72.1649222  30.4739042
  56.3325816  72.6699253  30.8804906  56.5138695  71.9391609  29.7335634
  56.7707904  72.2057470  30.4244067  52.4712629  77.8803983  37.2762713
  51.9880207  78.6054472  37.2522297  53.2835947  78.1780113  37.3872871
  52.5203377  78.0306337  37.2889993  58.5426783  76.6736164  39.8812528
  58.0253725  76.3143579  39.2773836  59.2401174  76.1498338  39.8918594
  58.5692364  76.5433852  39.7942787  59.7660835  76.4062138  44.8246363
  59.2031670  75.9934747  45.3486024  60.5281858  76.3315043  45.2439506
  59.7955283  76.3339538  44.9639363  61.3745815  68.4114874  28.9507962
  61.6141818  68.6192858  28.1383306  61.6961656  67.6072382  29.0596907
  61.4582973  68.3228975  28.8468516  56.6836105  60.3408270  32.7967500
  57.4382073  60.7086587  32.5584551  56.5063640  60.7147824  33.5646680
  56.7690583  60.4506457  32.8752389  55.3256826  78.3960159  37.4282993
  56.0277405  77.8812148  37.4855750  55.2454309  78.7234310  38.2329868
  55.4180587  78.3674385  37.5555785  69.9771004  66.4902710  40.8415040
  69.1399425  66.5604897  41.0762634  69.9459235  66.4927205  39.9689342
  69.8489286  66.5012937  40.7474588  56.3735733  68.6335746  46.5563408
  56.5456236  68.5241640  47.4048690  56.9105090  69.2790151  46.3194601
  56.4780737  68.7127747  46.6468505  55.0393170  62.7478588  29.4945613
  54.8568743  62.9650469  28.6686606  55.9018783  62.8617601  29.5504228
  55.1397759  62.7968486  29.3800100  54.6507602  74.5866511  36.9368601
  55.4896501  74.8189444  36.9842363  54.6819371  73.7170822  36.8675637
  54.7789319  74.4923457  36.9333246  55.2760305  75.0067386  41.2381907
  55.8158530  74.8638517  41.9085279  54.5930251  75.4064137  41.6065933
  55.2552459  75.0447057  41.3916329  60.7192889  59.7504999  32.5294637
  61.4479049  59.5720954  32.0832794  60.8087782  60.5923079  32.7401815
  60.8399551  59.8488878  32.4948155  64.7001190  70.6858387  36.4326931
  65.4558705  71.1189901  36.4715840  64.8063514  70.0363156  37.0061567
  64.8271360  70.6535870  36.5224957  50.6797450  71.2267677  41.3916328
  50.4135865  70.4106793  41.5507319  50.6936014  71.2720832  40.5211844
  50.6422172  71.1124582  41.2869810  67.6578844  61.5545492  39.4258762
  68.3004752  61.6243596  40.0120677  67.9101864  60.8874715  38.9238304
  67.7900976  61.4671840  39.4386041  54.5855197  66.0252761  28.0068086
  53.8713374  65.7390941  28.4190519  55.0699165  66.3649387  28.6474474
  54.5514560  66.0334411  28.1623721  55.4296056  64.7646055  44.0383336
  54.7367853  64.2943035  44.2844068  56.0456383  64.5384360  44.6125043
  55.4180586  64.6613187  44.1592489  61.7602515  74.5282715  28.3829895
  62.1753663  74.1967739  27.6914390  60.9294444  74.2951617  28.2550031
  61.6990523  74.4453971  28.2620742  51.0890863  72.0126456  38.6728073
  50.9066437  71.9873342  37.8200365  51.8240532  72.4825394  38.7116981
  51.1704927  72.0787818  38.5525991  54.1536615  68.7311459  45.1810181
  54.8776587  68.7164490  45.6675076  54.2552752  69.4406814  44.6832149
  54.2754824  68.8336162  45.1788968  61.5281564  72.2110544  50.0459128
  60.7354545  72.5254055  50.2311748  61.6430492  72.4262012  49.2079913
  61.4276975  72.2894380  49.9497463  64.2012883  68.9344535  34.3354144
  64.2959738  69.6733829  34.7893770  63.5771727  68.5062010  34.7688709
  64.1221914  68.9805855  34.4662292  62.4565357  72.1130747  44.9844425
  63.0304219  71.4757992  45.1392989  62.3780161  72.1134830  44.1154083
  62.5298592  72.0195859  44.8790836  51.0561774  68.8919957  38.8227139
  51.6335276  68.7556408  39.4619385  50.3575835  68.4355741  39.0772724
  51.0382795  68.8042223  38.9549429  64.4535905  70.7793275  27.5691096
  64.3716067  70.8495462  28.4346083  65.0915625  71.3423018  27.3774837
  64.5355742  70.8732246  27.6681046  57.8129076  70.5454012  37.0365622
  57.5548320  69.7125747  37.0096922  57.8677559  70.7711625  36.1958123
  57.7828854  70.4551784  36.9085759  62.8930126  62.6482463  37.1369715
  62.1886453  62.1591649  37.2953634  62.9415100  62.6604938  36.2658160
  62.7960178  62.5772111  37.0309055  56.7863788  68.0991775  37.5230517
  56.2113379  68.2583943  38.1594478  56.4099464  67.4627184  37.0598968
  56.6466600  68.0289588  37.5485076  60.4537077  66.5715124  42.3822896
  60.0651509  66.1469342  41.7275087  59.7891775  66.8197274  42.8899922
  60.2984004  66.5453845  42.3610764  70.0960346  66.3290129  35.1570726
  69.8396911  65.5170070  34.9668608  70.9389660  66.3367696  34.9300913
  70.1826371  66.2102126  35.0955543  46.5320607  67.7431850  35.5374958
  46.6180859  67.3663718  36.3188488  47.1596404  67.3692295  35.0594916
  46.6377158  67.6317332  35.5820435  64.2763438  60.2689753  39.8946880
  64.6573950  59.5867924  40.2814754  63.4726722  59.9799355  39.7122544
  64.2139900  60.1256802  39.9250936  61.5576015  70.8013729  30.5799703
  62.3716654  71.0928622  30.4682474  61.4935156  70.1473591  30.0057996
  61.6678754  70.7478924  30.4788540  57.4283923  74.2735246  35.7072015
  58.0657870  74.0346994  36.2523808  57.8538995  74.4772405  34.9725175
  57.5860089  74.2686256  35.6789172  52.1196566  76.5123583  39.5906318
  52.1600711  76.7838434  38.7626098  52.6791090  77.0365491  40.0064106
  52.2079911  76.6299338  39.5298207  58.0686738  69.4937536  30.0446904
  58.4531891  69.2745243  30.7963449  57.8198359  70.3200481  30.1747980
  58.0888811  69.5835682  30.1747980  58.2355279  62.7743951  49.7609488
  57.9208720  63.5443514  49.4979051  57.9145211  62.2114207  49.1761715
  58.1414198  62.8054220  49.6350838  59.8105395  74.7507669  37.3865801
  59.8844403  74.5882841  38.2407651  60.6274901  74.9397858  37.1426283
  59.9421754  74.7544411  37.4763827  53.5711152  75.0965532  34.4160244
  52.7449269  75.3427269  34.2894523  53.6323143  75.0177613  35.2822303
  53.4585319  75.1210481  34.5249189  55.7887176  61.1634473  35.3755685
  54.9209601  61.2357072  35.4413294  56.0762380  61.9656552  35.5643660
  55.7026924  61.2928620  35.4130451  64.9120064  61.3112332  43.7067006
  65.6573656  61.1222142  43.2930432  64.4957369  61.8370570  43.1480863
  64.9605039  61.3614477  43.5631580  58.9404726  72.5160158  43.2032405
  58.4416420  73.2275926  43.2817293  59.7504950  72.8360824  43.1650567
  58.9860833  72.6687006  43.2088973  55.2032844  71.7783111  37.4495126
  54.9146092  71.1520582  37.9840853  56.0716192  71.7203398  37.5159806
  55.2893096  71.6770655  37.5386080  65.9910741  66.9217894  37.7677108
  65.6475507  66.2008229  38.1184357  66.0903784  66.7131745  36.9255466
  65.9552784  66.7842098  37.6948788  55.4065117  73.4178362  33.3737491
  56.1611085  73.7991401  33.5872953  54.8135730  73.8689506  33.8284187
  55.4301831  73.5407189  33.4720369  57.8671784  65.3741202  48.4994703
  57.0571560  65.6798982  48.3884545  58.3446471  66.0946785  48.6147287
  57.8175263  65.5255803  48.5001774  56.7263344  74.5886923  38.7477606
  56.2044097  74.7287215  39.4329471  57.1137364  73.8297588  38.9379724
  56.7067045  74.4972447  38.8778683  53.7154528  64.6392732  32.8172561
  53.4279323  64.2694002  32.0804508  54.4024996  65.1087587  32.5556266
  53.7743425  64.6539701  32.6687637  58.1529669  71.6190942  34.1459097
  57.9572452  72.2265677  33.5519400  58.3764015  70.9258886  33.6650771
  58.1564310  71.6068468  33.9875178  56.5508199  68.5045680  34.2639966
  57.2730851  68.6686838  33.8043772  56.0716192  69.2255345  34.1579305
  56.5871930  68.6343910  34.1805580  64.5101707  64.8409479  39.6436650
  63.6712807  64.8670758  39.4074914  64.5806074  65.4880214  40.2241997
  64.3970100  64.9405605  39.6945767  54.2015816  70.9103753  43.3694105
  54.7136913  71.1888006  42.7202865  53.9152159  71.6493047  43.7356918
  54.2350679  71.0606106  43.3283983  62.9570985  61.7394856  34.3764266
  63.6597338  61.5402604  33.8984225  62.6915174  60.9670798  34.6833110
  63.0217617  61.5957822  34.3509708  68.3859231  70.0477466  36.9297892
  68.2993205  70.2032892  37.7832671  67.9309711  70.6915541  36.5557297
  68.3062487  70.1653221  37.0004999  51.2882722  65.4173944  33.6657842
  51.3898859  66.2200106  33.9938817  52.0838609  65.2161280  33.3680922
  51.4210628  65.5059843  33.6693197  57.7199541  63.0030141  43.4295147
  57.5282738  63.0185276  44.2794571  58.5698137  63.1993816  43.4061802
  57.8175263  63.0344492  43.5518442  52.1046454  65.5321123  41.4078963
  51.9631946  64.6805063  41.5323471  52.3887018  65.5749783  40.5841169
  52.1254300  65.4120873  41.3046588  62.2585047  67.3688213  35.5523452
  62.0119761  67.2883964  36.3860241  62.5870170  66.5841681  35.3585979
  62.2706290  67.2414478  35.6470975  64.4911181  70.3767948  45.5932615
  64.4859219  69.5047764  45.5975041  65.1972175  70.5756117  45.1202070
  64.5956185  70.2771822  45.5239650  58.2182074  70.1044931  44.9646435
  58.3625450  70.6846140  44.3289545  58.5657723  70.4821228  45.6696289
  58.2909535  70.2465636  44.9745430  60.3901991  69.3035100  42.7471566
  59.6425305  69.4966114  42.3419844  60.5443517  68.4780319  42.5095688
  60.3024419  69.2100211  42.6516972  60.6303768  63.1985651  43.6366970
  61.0876382  63.9309625  43.7639762  60.7060097  62.7752116  44.3954226
  60.7094738  63.2442889  43.7668047  52.8736760  63.4451470  44.7256414
  52.3378949  62.8331828  45.0417181  52.9354524  64.0199606  45.3790080
  52.8032392  63.4398398  44.8691841  65.1031094  56.3775526  37.5060813
  65.2214662  56.8351989  36.7728116  64.9293270  55.5720787  37.2197031
  65.0950265  56.3269298  37.3561747  58.5086146  65.1887755  40.4808794
  57.7182221  65.0079215  40.8026130  58.9046769  64.4114707  40.4639089
  58.4503022  65.0475215  40.5261343  63.8929833  72.8230185  38.2068240
  63.2174834  72.5915417  38.7081627  63.9022209  72.2151368  37.5810345
  63.7948337  72.6989110  38.1884392  61.0223977  67.6648014  44.9632293
  60.9583118  68.5257970  44.8352430  61.1621164  67.3480007  44.1627844
  61.0339447  67.7448180  44.8260506  59.7043070  70.3580153  39.1048496
  59.2805320  70.5584652  38.3687514  59.5287926  69.5109001  39.2172796
  59.6153951  70.2628934  39.0122186  54.9925515  70.8532204  34.5376469
  55.1490135  70.7879007  35.3932461  55.3326109  71.6280757  34.3255148
  55.0658750  70.9581403  34.6331063  61.5304660  70.2290088  33.4069832
  62.0720206  69.7260469  33.8708452  61.8451219  70.1755283  32.5959317
  61.6569057  70.1469509  33.3553644  59.6991110  75.6207440  30.6909860
  59.7683930  74.7621978  30.8302860  60.4779565  75.8379320  30.3628884
  59.8243960  75.5260303  30.6627017  62.6793929  65.1226392  43.4592132
  62.8935899  64.4837307  42.9055486  62.0627829  65.5672216  43.0299994
  62.6199259  65.0936536  43.3142563  51.5659777  68.0367155  34.8537236
  51.9458742  68.4551700  34.1897503  50.9915142  68.6180611  35.1606079
  51.5371102  68.1845014  34.8013977  64.8433017  66.7315458  44.3975439
  64.0309699  66.4241348  44.4788612  65.3022952  66.2514458  44.9618151
  64.7913402  66.6151950  44.4930033  62.0708658  58.2326328  38.4479475
  61.2002216  58.2065049  38.4012784  62.3248999  58.0603520  37.6305321
  61.9802218  58.2036472  38.3199612  59.0426638  70.2894295  27.3852618
  59.3319162  71.0659178  27.6596192  59.1298436  69.7783027  28.0867117
  59.0980894  70.3286213  27.5295116  61.9386525  68.1375529  49.1804142
  62.4086156  68.7617646  49.5672016  61.9848405  67.4692505  49.7397356
  62.0154401  68.1310209  49.3204213  59.0957799  60.2432557  39.9052945
  58.5796287  59.5512748  40.0304524  58.5351727  60.9103334  39.8515544
  58.9364312  60.2395814  39.9159011  61.1650032  60.7825517  41.7345798
  60.7781785  60.8074548  42.5159328  60.6782969  60.2167195  41.2820315
  61.0362541  60.7021267  41.7833702  67.1400012  67.3488172  40.3585500
  66.7127620  67.2614520  39.6033600  66.5026064  67.4565947  40.9440344
  66.9829619  67.3520831  40.3330942  60.8307174  57.6692502  44.0256058
  61.4600292  58.2052802  43.7477128  60.9993036  57.5769861  44.8769624
  60.9484968  57.7353864  44.1104586  60.6321089  62.4563697  46.2982469
  61.4594518  62.1848846  46.3541084  60.6528935  63.2524539  46.6546288
  60.7573939  62.5343451  46.3597652  55.2090578  69.6027560  39.4852730
  54.3678585  69.5031434  39.6931624  55.4180586  70.3723040  39.8367051
  55.1155271  69.7019603  39.5680045  52.6866145  67.2247097  37.3137481
  52.2922843  67.2990108  36.5387590  52.1306262  67.6105043  37.8645843
  52.5468958  67.2928871  37.2805141  64.3231092  60.2028391  36.9941360
  64.5280686  60.1350698  37.8398357  63.9957516  61.0087212  36.9262537
  64.3046340  60.3114331  37.1101015  59.0207243  67.5308959  38.7350328
  58.7170381  66.9764947  39.3360735  58.3186664  67.7101169  38.2478362
  58.8723453  67.4753741  38.7520033  58.0773340  64.8409479  33.2995029
  58.3533075  64.1228391  32.8872597  58.6772010  65.4394399  33.0916136
  58.2066605  64.8229849  33.2075791  57.0825594  74.7458680  43.4422425
  56.9745949  74.7560742  44.3084483  57.2921376  75.5713460  43.2527379
  57.0975705  74.8699754  43.5426517  67.5764780  60.7560155  36.4744125
  66.9639094  61.2430557  36.8597857  67.6728955  60.0803646  37.0181776
  67.5002678  60.7278464  36.6122983  61.5783861  62.5122996  31.5741624
  62.0327607  62.6833556  32.2989469  62.0523907  61.8991107  31.1739400
  61.7152181  62.4473881  31.6215386  55.0999386  71.9971322  40.9044363
  54.5087320  72.6380820  40.8747378  55.8620410  72.4208939  40.8775662
  55.1247647  72.1547160  40.8959510  55.4960009  63.1573320  41.5712381
  55.9561491  63.2312249  42.3087504  55.5416116  63.9554574  41.2212202
  55.5710564  63.2867467  41.6285137  57.1443359  63.8240015  46.1384408
  56.7528924  63.1773362  46.5740185  57.3129222  64.4151450  46.7578663
  57.1114269  63.8154282  46.2947114  58.9196881  69.2165530  32.6786632
  59.6638926  69.6039807  32.9169582  59.0657577  68.3722956  32.8427120
  59.0507466  69.1496003  32.7380601  60.8376456  61.0115789  37.7118493
  59.9912501  61.1838597  37.5859843  60.8347589  60.2065133  38.0484321
  60.7123606  60.9176818  37.7429620  61.9074757  64.7891004  38.5780551
  61.4334711  64.2632766  39.0885862  62.2792893  64.2420477  38.0095413
  61.8924646  64.6307000  38.5695698  52.2847787  66.7862510  43.9464097
  53.1473400  66.6858220  43.8601427  51.9539570  66.2057220  43.3849669
  52.3632983  66.6854137  43.8509503  68.1711487  69.8493379  39.9887332
  67.9309710  69.0099794  39.9929758  68.6503495  69.9293546  40.7128105
  68.2063671  69.7374779  40.0962134  63.8358256  65.6827558  31.6406305
  63.3081275  65.7656302  30.9512014  64.2953965  66.4245430  31.6370950
  63.8260107  65.8048221  31.5381000  70.1716674  66.6294837  37.9416591
  69.9326444  66.5890671  37.1037375  70.3350576  67.4765989  38.0682312
  70.1606978  66.7486922  37.8370073  66.7762704  71.0144786  43.8721636
  67.4996903  70.5617312  43.6932656  66.5112667  71.2949452  43.0893964
  66.8443978  70.9895754  43.7300351  55.6449573  65.6104959  40.6074515
  55.0202643  65.6223351  40.0000468  55.3095168  66.0865134  41.2565755
  55.5035065  65.6823476  40.6131084  55.8291322  63.9530078  26.6647200
  55.4804126  64.6049803  27.1278749  55.3487767  63.9387191  25.9371071
  55.7061566  64.0473131  26.6258291  52.3575248  73.6705419  42.0478279
  51.8275173  72.9797858  42.0973254  52.6300342  73.6615605  41.2190988
  52.3199971  73.5672551  41.9325695  62.5581494  71.1128664  42.0216651
  61.9438487  70.5686714  42.3165286  63.0748779  70.5992901  41.5422467
  62.5437156  70.9565073  41.9940879  61.7977791  72.1832934  39.7560950
  61.3705399  71.5582653  39.3226385  61.7902736  71.9007856  40.5819957
  61.7336932  72.0485715  39.8140777  54.9140318  67.2198107  42.8249383
  55.0733805  66.4641431  43.2301105  54.7333212  67.7689047  43.4790121
  54.9105677  67.1891921  42.9812089  62.8560621  59.3859343  43.3800173
  62.3601183  59.5823017  42.6891740  63.6129683  59.7852011  43.2088975
  62.8947446  59.4737077  43.2520310  60.1263501  63.0601689  39.9703484
  60.1505988  62.5261801  39.2816264  60.3774974  62.5518997  40.6329074
  60.1673420  62.9062593  39.9668128  47.6371091  70.3433184  39.4046628
  47.5314540  70.2980028  38.5398712  46.8871311  70.6886964  39.6860912
  47.5106694  70.3874092  39.3183957  56.4064823  61.7872507  39.3509228
  56.4463195  62.2881713  40.0643935  55.5814488  61.8782901  39.0815151
  56.2904349  61.8754323  39.4159766  58.5894436  71.3533247  47.4529522
  57.7390067  71.4904961  47.5887167  58.7522564  70.6197025  47.8977224
  58.4878300  71.2647348  47.5385122  57.8279186  68.3033017  41.6483127
  56.9971116  68.4706835  41.4418375  57.7730704  67.9268967  42.4332012
  57.6968601  68.2722748  41.7331655  55.6362970  61.7941910  47.2839538
  56.2615673  61.2504042  47.5568970  55.1813450  61.3136827  46.7147328
  55.6611230  61.6431391  47.2401131  56.2015230  66.5788608  32.1773245
  56.3418191  67.0761072  32.8801886  56.6997763  65.8774903  32.3187458
  56.2956311  66.5490587  32.3024824  56.2315453  67.4455719  29.5065821
  56.8660532  68.0416144  29.4415283  56.3141064  67.1459177  30.3211692
  56.3372004  67.4896627  29.6168908  57.8094436  63.3769695  29.4811263
  58.1310277  62.8972777  28.8270526  58.0721379  64.1869341  29.2902075
  57.8960461  63.4259593  29.3566755  61.0391408  74.3988569  43.0010079
  60.5316499  74.9524416  43.4450710  60.7418055  74.4596859  42.1828854
  60.9196293  74.4894880  42.9458536  63.2053591  62.7641889  41.8434742
  63.6308662  62.3114415  41.2318269  62.5910584  62.2101959  42.1199530
  63.1782236  62.6155865  41.7939768  52.7368441  69.6423560  32.7755367
  53.2460670  70.2388068  33.1566673  53.2102713  69.3749534  32.0931787
  52.8811816  69.6909375  32.7309890  61.6447813  59.2356988  35.2525319
  61.0016131  59.0854635  35.8210458  61.3047220  58.9899334  34.4874424
  61.4992891  59.1769111  35.2228335  66.2347160  67.1916415  34.6755328
  65.5638350  67.7346118  34.5468394  66.9286910  67.6611271  34.4337023
  66.2376027  67.3414686  34.6210856  66.3975287  63.6472299  37.5845701
  66.7502897  63.2202022  38.2591500  65.5390089  63.5623142  37.7146778
  66.3224732  63.5717040  37.7040712  55.0958972  66.2779819  35.6428548
  54.3770961  66.6943951  35.9101411  55.4671335  66.8434057  35.0920186
  55.0450904  66.4229100  35.6011355  64.3958553  66.9107667  41.5330544
  64.3756480  66.7290963  42.3865322  64.4437754  67.7819686  41.5090127
  64.3993194  67.0124206  41.6553838  62.3404883  73.4994859  47.4579020
  62.3000738  72.8544536  46.8724176  63.1528201  73.4431477  47.7704432
  62.4548037  73.3953826  47.4175969  60.8705547  65.3177818  30.9801927
  60.2770386  65.6394815  30.4286494  60.9080824  64.4718914  30.7723033
  60.7879936  65.2402147  30.8684699  67.8299347  58.7690711  38.5130014
  67.3230212  58.0619850  38.4451191  68.6266781  58.4383900  38.6431090
  67.8726587  58.6163862  38.5229009  63.7463363  65.2757323  34.4103678
  63.5177056  65.2990024  33.5682036  64.0061439  64.4514790  34.5298688
  63.7509551  65.1573403  34.3028875  58.0282592  67.1291796  44.0128778
  57.5161495  66.5212979  44.3713809  57.8562088  67.8448389  44.4802753
  57.9272229  67.1455095  44.1345001  52.8748306  65.5729371  46.6631139
  52.7050897  66.2330746  46.1179346  52.4314256  65.7835933  47.3843629
  52.7847640  65.7015353  46.6892769  56.8008126  63.8133869  35.7057873
  57.2765492  64.1750949  35.0708054  56.2996725  64.4690337  35.9858016
  56.7973485  63.9628058  35.6534614  61.9051662  65.0516041  46.4531033
  62.4623092  64.8229850  45.8209499  61.5812727  65.8121706  46.1766246
  61.9398072  65.1299877  46.3187530  49.7750371  68.4776237  41.9219629
  49.2277090  67.8076882  42.0400498  50.5642749  68.1106085  41.9863097
  49.8102555  68.3241223  41.9488330  59.6234779  68.1383694  47.4183040
  60.3746106  68.4535371  47.7322595  59.8157356  67.9362865  46.5916962
  59.7626193  68.1551076  47.3426436  58.8434779  65.9575069  29.0731257
  59.2233744  65.9754698  28.2882372  58.1027375  66.4029058  28.9522104
  58.7903617  66.0256844  28.9394825  66.4720069  64.2657260  34.6606836
  66.4714296  64.1105917  35.5191112  66.2676250  65.1120247  34.6048221
  66.4419847  64.3677881  34.7794775  48.5337340  67.6897045  39.0765652
  48.3559101  67.2373654  39.8020568  48.2456363  68.4923206  39.2604130
  48.4650294  67.7419603  39.2109155  64.1960921  68.9454762  38.3143043
  64.6914587  68.2277757  38.2747063  63.3860697  68.6425560  38.1997530
  64.1504815  68.7952408  38.2916769  59.6419533  72.7952575  30.4640047
  58.8330856  72.4719249  30.4173357  60.1494442  72.0885797  30.3968296
  59.5969200  72.6433892  30.4470342  50.2709810  70.2224768  36.1887411
  49.4055330  70.2110459  36.0770183  50.3708626  70.0354991  37.0358551
  50.1583977  70.1930830  36.2976356  66.2612740  71.6958450  41.0020171
  66.6867812  71.1732871  40.4490597  65.8969660  72.2939287  40.4808794
  66.2699343  71.7068677  40.8429181  59.7660835  60.1820184  44.2879424
  59.8988740  59.3851178  44.6160399  60.1505988  60.7086587  44.8677699
  59.8417164  60.1420101  44.4222927  62.8393190  57.1050511  40.8860517
  62.0339154  56.9948240  41.2028355  62.7099925  57.2062966  40.0290383
  62.7013323  57.1034181  40.8068557  66.2959150  63.2696002  41.4800214
  65.7122139  63.7705209  41.0677781  66.6163445  62.7625559  40.8464537
  66.2572326  63.2687837  41.3258721  58.8353950  62.1836597  31.7558889
  59.6569644  62.3534910  31.5140584  58.3723601  62.3383858  31.0325186
  58.8885112  62.2318330  31.6130533  57.4249282  60.1779359  42.5357317
  57.9693695  59.8370486  43.1261659  57.4786217  61.0364821  42.6778602
  57.5138401  60.2534619  42.6439191  53.2379840  73.9395776  39.4096125
  53.8424698  73.8991610  38.7809946  53.0307153  74.7866928  39.4400181
  53.2968738  74.0583778  39.3212242  48.4731123  72.9230393  39.2795048
  48.3755401  72.1126665  39.5885105  49.2559992  72.9022186  38.8941317
  48.5747259  72.7997483  39.2681911  35.3257752  -1.2736528  20.5241286
  35.2951757  -0.4191891  20.6959555  35.9239101  -1.5741236  21.0827430
  35.4094910  -1.1920032  20.6316088  28.5257437  -2.1860877  25.2794216
  27.6695333  -2.0252379  25.3303333  28.5725091  -3.0568813  25.2999277
  28.4056549  -2.2910075  25.2900282  22.9098577   7.3501841  21.0431448
  22.1581477   6.9717379  20.8147493  23.3584589   7.3820274  20.2950258
  22.8648244   7.2987448  20.8988950  31.8351154   4.0825648  34.8854672
  32.5417921   3.5877679  35.0141607  32.0239089   4.5234730  34.1557330
  31.9679059   4.0743999  34.7963718  28.3623537   7.7727210  16.4716995
  28.0274905   8.4504132  16.0361217  28.8750407   7.3832522  15.8833867
  28.3889118   7.8151788  16.3203786  27.9027828   9.7241479  22.4128107
  28.2867208  10.2928378  21.8732882  27.8386969   8.9990989  21.9333923
  27.9501255   9.7016942  22.2621969  31.3709258  -0.1268833  27.9225868
  31.9165218   0.5516253  27.9819838  31.3126135  -0.2681372  27.0627450
  31.4425173  -0.0476832  27.8037929  24.4883333   7.3620233  23.3094220
  24.5893696   6.5520587  23.6191348  23.8925078   7.2677179  22.6793899
  24.4155872   7.2285261  23.2620459  33.1474327   1.3015774  18.7959596
  33.0313853   2.0523460  19.2251734  33.9430214   1.0439727  19.0455683
  33.2478916   1.3750621  18.8963687  24.3284073  12.2797822  24.7109076
  24.9721528  12.7210986  25.1005235  24.6540328  11.4751248  24.6239335
  24.4715901  12.2263017  24.7554554  17.6848377   3.3840519  22.9346554
  17.4498562   2.5508172  22.8278823  17.8234018   3.6645185  22.1207755
  17.6704040   3.3024023  22.7988909  25.0304652   5.2909797  20.0828938
  25.3520494   5.8315004  19.4790246  25.6776749   4.7206568  20.2151228
  25.1730708   5.2868972  20.0135974  19.7107598  -0.9021468  28.0774431
  19.5866295  -0.3159023  28.7124250  20.3625882  -1.3961273  28.3786706
  19.7881247  -0.8882664  28.2160360  27.2694296   3.6796237  20.1543116
  27.7087931   3.0713337  20.5997889  27.1198959   3.3003610  19.3828581
  27.3115762   3.5334708  20.1062284  24.7365939   2.2740249  27.3561942
  25.3814941   1.7812692  27.0372890  24.9767716   2.4165035  28.1828020
  24.8676524   2.2217691  27.4311475  27.2752030   5.1195155  27.0068834
  27.5575273   4.3246560  26.7855590  28.0038191   5.5975742  27.0273895
  27.4241594   5.0729751  26.9771850  30.8703633   2.0323418  17.1073886
  30.7854928   2.8884385  17.2523454  31.3588016   1.7567742  17.7756045
  30.9292530   2.1180740  17.2275967  31.8022066  -1.3491788  18.6071621
  31.2733537  -1.1332154  19.2668927  32.3247086  -0.6555649  18.5272590
  31.8010519  -1.2148651  18.6927220  37.2570119   4.2254517  23.9804665
  36.4267822   4.4365160  24.1438082  37.2079371   3.3991571  23.7046949
  37.1276854   4.1344123  23.9642031  19.2465702   8.2626190  24.2102760
  18.7633280   8.9876680  24.1862344  20.0589020   8.5602320  24.3212918
  19.2956450   8.4128544  24.2230039  25.3179856   7.0558371  26.8152575
  24.8006798   6.6965786  26.2113883  26.0154247   6.5320545  26.8258641
  25.3445437   6.9256059  26.7282833  28.9743448   7.5053185  32.7768748
  29.0626794   7.3179325  33.6246958  29.4033161   6.8590615  32.3773595
  29.0505551   7.3816193  32.8440499  26.5413908   6.7884345  31.7586410
  25.9784743   6.3756955  32.2826071  27.3034931   6.7137251  32.1779553
  26.5708357   6.7161746  31.8979410  22.1009899   8.7782366  24.3623040
  22.8030479   8.2634355  24.4195797  22.0207382   9.1056518  25.1669915
  22.1933660   8.7496592  24.4895832  23.1488806  -0.9842047  33.4903455
  23.3209310  -1.0936152  34.3388737  23.6858163  -0.3387641  33.2534647
  23.2533810  -0.9050045  33.5808552  21.4260675   4.9688718  23.8708648
  22.2649574   5.2011651  23.9182410  21.4572444   4.0993030  23.8015684
  21.5542392   4.8745665  23.8673293  22.0513378   5.3889593  28.1721954
  22.5911603   5.2460724  28.8425326  21.3683324   5.7886344  28.5405980
  22.0305532   5.4269264  28.3256375  31.4754263   1.0680594  23.3666978
  32.2311778   1.5012108  23.4055887  31.5816587   0.4185364  23.9401614
  31.6024433   1.0358078  23.4565004  34.5134434   4.8953871  24.1169381
  34.0769666   4.8990614  24.8728352  34.1797349   5.5759370  23.6848958
  34.3997054   4.9966327  24.1650214  29.0863507   6.9362204  35.4412531
  29.8703924   7.0493052  35.8068273  28.8860102   6.1103341  35.6371217
  29.1729533   6.8308923  35.5246917  17.4550523   1.6089884  28.3256375
  17.1888938   0.7929001  28.4847365  17.4689087   1.6543040  27.4551891
  17.4175245   1.4946789  28.2209857  29.2433901   8.8472306  29.0878987
  28.4449147   8.6071806  29.3452856  29.6919912   8.8986699  29.8346035
  29.1908512   8.8194697  29.2363911  37.6478780   1.6134791  23.0089018
  38.3095214   1.0525460  22.9084927  37.0070192   1.1186822  23.3341709
  37.6507648   1.4571200  23.0421358  17.8643937   2.3948664  25.6068119
  17.6819510   2.3695550  24.7540412  18.5993605   2.8647601  25.6457028
  17.9458000   2.4610026  25.4866038  33.9343611   2.6300174  22.7501007
  34.1699200   2.7745372  21.9227858  34.0833174   3.3942582  23.1432521
  33.9909414   2.7639228  22.6864611  20.9289688  -0.8866334  32.1150228
  21.6529661  -0.9013303  32.6015123  21.0305825  -0.1770978  31.6172196
  21.0507897  -0.7841630  32.1129015  35.7634067   1.4701839  20.5870611
  36.0942285   2.0029480  19.9810706  36.3367156   1.5240727  21.2432562
  35.8967747   1.5571408  20.5948393  28.3034638   2.5932751  36.9799175
  27.5107618   2.9076263  37.1651795  28.4183565   2.8084219  36.1419960
  28.2030048   2.6716588  36.8837510  30.9765957  -0.6833258  21.2694191
  31.0712811   0.0556036  21.7233816  30.3524800  -1.1115782  21.7028755
  30.8974987  -0.6371937  21.4002338  29.2318430   2.4952955  31.9184472
  29.8057292   1.8580199  32.0733036  29.1533234   2.4957037  31.0494129
  29.3051665   2.4018066  31.8130883  24.5882149   0.9276220  23.9705669
  24.3301393   0.0947955  23.9436969  24.6430632   1.1533833  23.1298170
  24.5581927   0.8373991  23.8425806  23.5616861  -1.5186018  24.4570564
  22.9866452  -1.3593849  25.0934525  23.1852538  -2.1550609  23.9939015
  23.4219674  -1.5888205  24.4825122  27.2290150  -3.0462668  29.3162942
  26.8404583  -3.4708451  28.6615134  26.5644848  -2.7980519  29.8239969
  27.0737078  -3.0723947  29.2950810  34.5538578   3.8661932  31.9269325
  34.3177216   3.0349997  31.8081386  35.1981807   3.8147540  32.5124169
  34.6133249   3.7359620  31.9955219  24.2036996   4.6557454  22.6412061
  24.8410943   4.4169201  23.1863855  24.6292068   4.8594613  21.9065222
  24.3613163   4.6508464  22.6129219  18.8949639   6.8945790  26.5246365
  18.9353784   7.1660641  25.6966145  19.4544163   7.4187698  26.9404153
  18.9832985   7.0121545  26.4638253  35.5774999   3.6506381  27.9897620
  35.2720816   4.3834438  28.3510935  34.8581215   3.2444311  27.7090406
  35.4262341   3.6988114  28.0010757  26.5858468   5.1329876  24.3205848
  26.6597477   4.9705048  25.1747698  27.4027975   5.3220066  24.0766329
  26.7174827   5.1366619  24.4103873  41.2776791   0.2899382  27.3165964
  41.2101291   0.3095341  26.4468550  41.2632453   1.1329709  27.5421634
  41.2655548   0.4173116  27.2218441  20.3464225   5.4787739  21.3500291
  19.5202343   5.7249476  21.2234570  20.4076216   5.3999820  22.2162349
  20.2338392   5.5032688  21.4589236  25.1263054   8.0964619  19.0519321
  25.4161352   7.7053601  18.3278548  25.8566535   8.2781324  19.4924596
  25.2769938   8.0658433  19.0102128  25.7157799   2.8982365  30.1372452
  25.2169493   3.6098133  30.2157340  26.5258024   3.2183032  30.0990614
  25.7613906   3.0509214  30.1429020  23.0668970  10.0732002  22.1179471
  22.8469265   9.7829356  22.9106138  22.8463492   9.4146957  21.5897383
  23.0016564   9.9331710  22.1568380  21.9785917   2.1605318  24.3835173
  21.6899165   1.5342790  24.9180900  22.8469265   2.1025606  24.4499853
  22.0646169   2.0592863  24.4726127  32.7663815  -2.6959898  24.7017154
  32.4228580  -3.4169563  25.0524404  32.8656857  -2.9046047  23.8595513
  32.7305857  -2.8335695  24.6288834  25.2336925  11.4461392  20.9010163
  25.8860983  10.9137834  21.1301189  24.5362534  11.0930044  21.2878037
  25.2267643  11.3150915  20.9922331  22.1818190   3.8000569  20.3077538
  22.9364158   4.1813608  20.5213000  21.5888803   4.2511713  20.7624234
  22.2054904   3.9229397  20.4060416  33.2276844   3.7665806  20.2441143
  33.7934876   4.4259016  20.1599685  32.5804747   4.1115504  20.7157545
  33.2155600   3.9147747  20.3013899  24.6424857  -4.2436590  35.4334750
  23.8324633  -3.9378811  35.3224592  25.1199544  -3.5231008  35.5487334
  24.5928336  -4.0921989  35.4341821  23.5016417   4.9709131  25.6817653
  22.9797170   5.1109422  26.3669518  23.8890437   4.2119795  25.8719770
  23.4820118   4.8794655  25.8118729  29.6983422   6.7104590  19.6678222
  29.4570098   5.9772451  19.2605287  29.8784755   7.2591447  19.0144555
  29.6891046   6.6826981  19.5108445  24.9282742   2.0013150  21.0799144
  24.7325525   2.6087884  20.4859447  25.1517088   1.3081094  20.5990818
  24.9317383   1.9890675  20.9215225  23.3261272  -1.1132112  21.1980012
  24.0483924  -0.9490954  20.7383818  22.8469265  -0.3922448  21.0919352
  23.3625003  -0.9833883  21.1145626  20.9768889   1.2925960  30.3034152
  21.4889986   1.5710213  29.6542912  20.6905232   2.0315254  30.6696965
  21.0103752   1.4428314  30.2624030  35.1612304   0.4299673  23.8637939
  35.0746278   0.5855099  24.7172718  34.7062784   1.0737749  23.4897344
  35.0815560   0.5475428  23.9345046  29.0338120  -2.2489580  22.4863499
  28.7872834  -2.3293829  23.3200287  29.3623243  -3.0336112  22.2926026
  29.0459363  -2.3763314  22.5811022  32.9286169   4.4593780  26.2750280
  32.7900528   5.1574825  26.7799022  32.1486167   4.3042436  25.9186462
  32.7929396   4.5393946  26.2976554  31.2664254   0.7590155  32.5272661
  31.2612292  -0.1130028  32.5315088  31.9725248   0.9578324  32.0542117
  31.3709258   0.6594029  32.4579697  24.9935147   0.4867139  31.8986482
  25.1378523   1.0668347  31.2629592  25.3410796   0.8643436  32.6036336
  25.0662609   0.6287843  31.9085477  27.1655065  -0.3142693  29.6811613
  26.4178379  -0.1211678  29.2759891  27.3196590  -1.1397473  29.4435735
  27.0777492  -0.4077581  29.5857019  24.0662902   8.6769911  28.7647508
  24.2152466   8.1172827  28.1120913  24.8462904   8.7561912  29.1480027
  24.2036996   8.6055476  28.7244458  34.4239542   3.8172033  17.0366779
  34.0446350   3.0309171  17.0296068  33.7605787   4.3658890  16.8938423
  34.2698016   3.7816857  17.0147576  26.5916203   8.8484554  30.0431999
  26.5159874   8.1793364  30.5982788  26.5206062   9.5502342  30.5572666
  26.5696810   8.8529461  30.2008847  27.2486450   7.3685552  20.8755605
  28.0136341   7.0995196  20.5538270  27.1464540   6.8835563  21.5925668
  27.3467945   7.2575117  20.9335433  25.2839219  -4.4290038  27.4148841
  24.4935294  -4.6098578  27.7366177  25.6799842  -5.2063086  27.3979135
  25.2256096  -4.5702577  27.4601389  30.6682906   3.2052392  25.1408287
  29.9927908   2.9737624  25.6421674  30.6775282   2.5973575  24.5150392
  30.5701410   3.0811317  25.1224439  27.7977050  -1.9529779  31.8972340
  27.7336191  -1.0919823  31.7692477  27.9374238  -2.2697786  31.0967891
  27.8092520  -1.8729612  31.7600553  32.6699640   6.0617524  17.3718465
  32.7519478   6.8684511  17.0479916  33.1549383   6.0813484  18.0959238
  32.7536798   6.1838187  17.4305363  26.4796144   0.7402360  26.0388543
  26.0558393   0.9406859  25.3027561  26.3040999  -0.1068792  26.1512843
  26.3907024   0.6451142  25.9462233  25.9807837  12.2552873  28.5010000
  26.4703767  11.5563663  28.3185665  25.4092069  11.9576743  29.0886057
  25.9692367  12.1079097  28.5611041  21.7678589   1.2354412  21.4716515
  21.9243208   1.1701215  22.3272507  22.1079182   2.0102964  21.2595195
  21.8411823   1.3403610  21.5671109  28.3057733   0.6112295  20.3409879
  28.8473279   0.1082676  20.8048499  28.6204292   0.5577490  19.5299364
  28.4322130   0.5291716  20.2893691  32.1774841   4.8214943  37.4536791
  32.9909706   4.5500092  37.6141923  32.0169807   4.5222483  36.6496987
  32.2744789   4.7369869  37.3582197  26.4744183   6.0029647  17.6249907
  26.5437003   5.1444185  17.7642907  27.2532638   6.2201528  17.2968931
  26.5997033   5.9082511  17.5967064  30.8651671   8.4267348  21.8386400
  30.4731462   8.1234063  21.1209266  31.0204743   9.2636438  21.6491354
  30.8305260   8.5051185  21.7042897  31.6186091  -2.8862335  31.3315486
  30.8062772  -3.1936445  31.4128659  32.0776025  -3.3663335  31.8958198
  31.5666475  -3.0025843  31.4270080  31.0291345   4.9917337  21.7792430
  30.6706000   5.1631980  22.5556463  30.5430056   5.4530543  21.2220429
  30.9050042   5.0856308  21.8117700  28.7139598  -1.4802263  36.1144188
  29.1839229  -0.8560147  36.5012063  28.7601478  -2.1485288  36.6737403
  28.7907474  -1.4867583  36.2544260  32.1896085   5.8821233  32.7259631
  32.8275805   5.3881429  32.3922087  31.5470176   5.8098633  32.1411858
  32.1890311   5.7980242  32.5901986  33.9153085  -2.2689621  27.2925547
  33.4880693  -2.3563272  26.5373646  33.2779138  -2.1611846  27.8780391
  33.7582692  -2.2656961  27.2670988  32.2450341   6.5741041  29.3664988
  33.0342719   6.2230106  29.4867070  32.4193939   7.3877430  29.1041622
  32.3870623   6.6426898  29.3452856  21.9843652  -0.0150233  26.4192777
  21.1431658  -0.1146359  26.6271671  22.1933660   0.7545247  26.7707098
  21.8908344   0.0841810  26.5020092  25.7960317  -2.0868834  25.6690374
  25.4923454  -2.6412846  26.2700782  25.0939737  -1.9076624  25.1818409
  25.6476526  -2.1424051  25.6860080  23.8578668   5.1280887  30.3762472
  23.7499022   5.1382949  31.2424530  24.0674449   5.9535667  30.1867426
  23.8728779   5.2521962  30.4766564  21.8752460   2.3793529  27.8384410
  21.2840393   3.0203028  27.8087425  22.6373483   2.8031147  27.8115709
  21.9000720   2.5369368  27.8299557  37.9942881   2.2099299  28.8361688
  38.0526005   2.6585948  29.5821665  37.3609349   2.6198112  28.3991768
  37.9094176   2.3373034  28.8814236  31.6341976   7.8302841  25.2716434
  31.4361664   8.3193655  24.5772646  31.0129687   8.0344082  25.8500568
  31.5129540   7.9319379  25.2539658  34.9464561   0.2315587  26.9227378
  34.7062783  -0.6077998  26.9269805  35.4256568   0.3115753  27.6468152
  34.9816744   0.1196986  27.0302181  33.5515778   1.3966993  30.8061683
  34.2749977   0.9439520  30.6272703  33.2865740   1.6771659  30.0234010
  33.6197051   1.3717962  30.6640398  19.1328322   4.0527627  28.9818326
  18.6028246   3.3620066  29.0313301  19.4053415   4.0437812  28.1531035
  19.0953044   3.9494759  28.8665742  30.1648412   4.6353329  17.7056009
  30.8882611   5.1011442  17.5620582  29.7249003   4.7026939  16.9553606
  30.2064104   4.7137166  17.5740790  29.3334567   1.4950871  28.9556698
  28.7191560   0.9508922  29.2505333  29.8501852   0.9815108  28.4762514
  29.3190230   1.3387280  28.9280926  28.5730864   2.5655141  26.6900996
  28.1458472   1.9404860  26.2566432  28.5655809   2.2830063  27.5160004
  28.5090006   2.4307922  26.7480824  21.6893391  -2.3979685  29.7589430
  21.8486878  -3.1536361  30.1641152  21.5086285  -1.8488746  30.4130168
  21.6858750  -2.4285872  29.9152136  25.3647509   1.7355454  34.3869569
  24.5143140   1.8727169  34.5227214  25.5275637   1.0019232  34.8317271
  25.2631373   1.6469555  34.4725168  24.6032260  -1.3144776  28.5823174
  23.7724189  -1.1470958  28.3758422  24.5483777  -1.6908825  29.3672059
  24.4721675  -1.3455045  28.6671702  35.9851092   0.3593404  29.3092232
  36.5768932   0.9990655  29.3410430  36.4210086  -0.3383559  29.5984299
  36.1369523   0.3511754  29.3573065  27.8144482   4.7810776  29.9350126
  27.3069573   5.3346623  30.3790757  27.5171128   4.8419066  29.1168901
  27.6949366   4.8717088  29.8798583  30.4252262   8.6974034  17.8654070
  29.7081572   8.5234896  17.4001307  31.0758999   8.4626606  17.3329556
  30.4154112   8.6369827  17.7183288  33.0100233  -2.4261377  21.6095375
  32.3391423  -1.8831675  21.4808440  33.7039983  -1.9566522  21.3677070
  33.0129101  -2.2763106  21.5550903  27.0586967   9.7135335  26.8407133
  26.8352621   8.9554164  27.2091160  26.5696810   9.7433356  26.1187573
  26.9530416   9.6057559  26.7883874  31.1711626  -2.7070125  28.4670590
  31.1509554  -2.8886830  29.3205369  31.2190827  -1.8358107  28.4430174
  31.1746267  -2.6053587  28.5893885  29.1157956   3.8817067  34.3919067
  29.0753811   3.2366744  33.8064223  29.9281274   3.8253684  34.7044479
  29.2301110   3.7776034  34.3516016  25.7065424   9.9335793  24.2944218
  25.2925822   9.2709923  23.9048059  26.3912798  10.0813652  23.7739912
  25.7463795   9.8576451  24.1600715  29.0730718   9.0925878  25.0467834
  28.6747001   9.2028148  24.2788655  28.4581937   9.3007944  25.6294394
  28.9229607   9.1399446  25.0199134  24.8035665  -2.4885997  30.9468825
  24.2914568  -3.0964814  31.3053856  24.6315161  -1.7729404  31.4142800
  24.7025302  -2.4722697  31.0685048  36.8072561   3.6677845  18.4310925
  37.1906166   4.4169201  18.6609022  36.0116674   3.9143664  18.1722914
  36.7466343   3.8147539  18.4268499  28.6804735  -4.5661752  33.3871080
  29.2376165  -4.7947942  32.7549546  28.3565800  -3.8056086  33.1106292
  28.7151145  -4.4877915  33.2527577  26.3987853  -1.4794099  34.3523087
  27.1499179  -1.1642422  34.6662641  26.5910429  -1.6814928  33.5257009
  26.5379267  -1.4626717  34.2766483  30.9713995  -0.6723031  25.2483090
  31.4667660  -1.3900035  25.2087110  30.1613770  -0.9752233  25.1337576
  30.9257888  -0.8225384  25.2256815  17.0462883   0.6046976  23.1227458
  16.1808403   0.5932666  23.0110229  17.1461699   0.4177199  23.9698598
  16.9337050   0.5753037  23.2316403  33.0365814   2.0780657  27.9360218
  33.4620885   1.5555079  27.3830643  32.6722733   2.6761494  27.4148841
  33.0452416   2.0890884  27.7769228  22.6719893  10.3744874  26.6957564
  22.9866452  11.1881263  26.7035346  23.0813307   9.9895093  27.3639723
  22.7787991  10.4373577  26.7961655  29.6244413   5.7914921  24.2661376
  30.0955591   6.5055184  24.4351361  29.9604592   5.1913671  24.8021245
  29.7439528   5.8086386  24.3693752  31.7121398   7.4016235  36.4453448
  31.8218363   6.6124795  36.8010195  32.0412294   7.3122171  35.6427786
  31.7773803   7.2722088  36.3795839  30.2618359   5.5832855  31.0289068
  29.7139305   4.9590739  30.7609134  30.7231388   5.7727127  30.3133148
  30.2485569   5.5191906  30.8839499  20.0132914   4.3217983  26.3436172
  20.6177771   4.2813817  25.7149993  19.8060226   5.1689135  26.3740228
  20.0721811   4.4405985  26.2552289  29.8276686   6.5883928  27.5598410
  30.6475059   6.4446894  27.8214705  29.5470763   7.2130127  28.1014847
  29.9073429   6.6594280  27.6786349  15.2484196   3.3052600  26.2135095
  15.1508474   2.4948872  26.5225152  16.0313065   3.2844394  25.8281363
  15.3500332   3.1819691  26.2021958  46.2990336  14.2448780  20.5241286
  46.2684340  15.0993416  20.6959555  46.8971685  13.9444072  21.0827430
  46.3827494  14.3265276  20.6316088  39.4990021  13.3324431  25.2794216
  38.6427916  13.4932929  25.3303333  39.5457675  12.4616495  25.2999277
  39.3789132  13.2275233  25.2900282  33.8831161  22.8687149  21.0431448
  33.1314060  22.4902687  20.8147493  34.3317172  22.9005582  20.2950258
  33.8380827  22.8172756  20.8988950  39.3356120  23.2912518  16.4716995
  39.0007489  23.9689440  16.0361217  39.8482991  22.9017829  15.8833867
  39.3621702  23.3337096  16.3203786  38.8760412  25.2426787  22.4128107
  39.2599791  25.8113685  21.8732882  38.8119553  24.5176297  21.9333923
  38.9233839  25.2202250  22.2621969  42.3441842  15.3916475  27.9225868
  42.8897802  16.0701561  27.9819838  42.2858718  15.2503936  27.0627450
  42.4157756  15.4708476  27.8037929  35.4615917  22.8805541  23.3094220
  35.5626280  22.0705895  23.6191348  34.8657662  22.7862487  22.6793899
  35.3888455  22.7470569  23.2620459  44.1206911  16.8201082  18.7959596
  44.0046436  17.5708768  19.2251734  44.9162797  16.5625035  19.0455683
  44.2211500  16.8935929  18.8963687  28.6580961  18.9025827  22.9346554
  28.4231145  18.0693480  22.8278823  28.7966602  19.1830493  22.1207755
  28.6436623  18.8209331  22.7988909  30.9571048  11.0711558  25.8330862
  30.3376080  10.4804205  25.6640877  30.8554912  11.6622993  25.1995185
  30.8508724  11.0715640  25.7135851  36.0037236  20.8095105  20.0828938
  36.3253077  21.3500312  19.4790246  36.6509333  20.2391876  20.2151228
  36.1463291  20.8054280  20.0135974  38.0538944  12.8111100  20.1663325
  38.7519109  12.9899227  20.6584788  38.3691277  12.2881439  19.5433714
  38.2034281  12.7604872  20.1465335  30.6840182  14.6163840  28.0774431
  30.5598878  15.2026285  28.7124250  31.3358466  14.1224035  28.3786706
  30.7613831  14.6302644  28.2160360  38.2426880  19.1981545  20.1543116
  38.6820515  18.5898645  20.5997889  38.0931542  18.8188918  19.3828581
  38.2848345  19.0520016  20.1062284  35.7098523  17.7925557  27.3561942
  36.3547525  17.2998000  27.0372890  35.9500300  17.9350343  28.1828020
  35.8409108  17.7402999  27.4311475  38.2484614  20.6380462  27.0068834
  38.5307857  19.8431868  26.7855590  38.9770774  21.1161050  27.0273895
  38.3974178  20.5915059  26.9771850  36.2265808   8.1803496  24.2484600
  35.8969138   8.6314640  23.5788298  35.5510810   8.1019660  24.7957606
  36.0776244   8.2354632  24.2307823  41.8436216  17.5508726  17.1073886
  41.7587511  18.4069693  17.2523454  42.3320599  17.2753050  17.7756045
  41.9025113  17.6366048  17.2275967  43.4342215   4.1689019  22.4934210
  43.1195656   4.8592498  22.9254633  42.9169157   4.1133802  21.7919711
  43.3106686   4.2623908  22.4531159  42.7754649  14.1693520  18.6071621
  42.2466121  14.3853154  19.2668927  43.2979669  14.8629659  18.5272590
  42.7743102  14.3036657  18.6927220  48.2302702  19.7439825  23.9804665
  47.4000405  19.9550468  24.1438082  48.1811955  18.9176879  23.7046949
  48.1009438  19.6529431  23.9642031  34.6654257  18.0656737  17.4079089
  34.0811472  18.5706768  17.8144953  34.2624352  17.8399124  16.6675681
  34.5193561  18.1064985  17.3584114  30.2198286  23.7811498  24.2102760
  29.7365864  24.5061988  24.1862344  31.0321604  24.0787628  24.3212918
  30.2689033  23.9313852  24.2230039  36.2912440  22.5743679  26.8152575
  35.7739381  22.2151094  26.2113883  36.9886831  22.0505853  26.8258641
  36.3178021  22.4441367  26.7282833  39.1231472  14.3122389  15.8848009
  39.3627475  14.5200373  15.0723352  39.4447313  13.5079898  15.9936954
  39.2068629  14.2236490  15.7808562  34.4321762   6.2415785  19.7307547
  35.1867730   6.6094102  19.4924597  34.2549296   6.6155339  20.4986727
  34.5176240   6.3513973  19.8092436  33.0742483  24.2967674  24.3623040
  33.7763062  23.7819663  24.4195797  32.9939966  24.6241825  25.1669915
  33.1666243  24.2681900  24.4895832  47.7256660  12.3910225  27.7755087
  46.8885082  12.4612412  28.0102681  47.6944891  12.3934720  26.9029389
  47.5974943  12.4020452  27.6814635  34.1221390  14.5343261  33.4903455
  34.2941893  14.4249156  34.3388737  34.6590747  15.1797666  33.2534647
  34.2266394  14.6135263  33.5808552  32.7878826   8.6486104  16.4285660
  32.6054400   8.8657985  15.6026653  33.6504439   8.7625117  16.4844275
  32.8883416   8.6976002  16.3140147  32.3993258  20.4874026  23.8708648
  33.2382158  20.7196959  23.9182410  32.4305028  19.6178337  23.8015684
  32.5274976  20.3930973  23.8673293  33.0245961  20.9074901  28.1721954
  33.5644186  20.7646032  28.8425326  32.3415908  21.3071652  28.5405980
  33.0038115  20.9454572  28.3256375  38.4678546   5.6512515  19.4634684
  39.1964706   5.4728469  19.0172840  38.5573439   6.4930594  19.6741862
  38.5885208   5.7496393  19.4288202  42.4486846  16.5865902  23.3666978
  43.2044361  17.0197416  23.4055887  42.5549171  15.9370672  23.9401614
  42.5757017  16.5543386  23.4565004  45.4867017  20.4139179  24.1169381
  45.0502249  20.4175922  24.8728352  45.1529933  21.0944678  23.6848958
  45.3729637  20.5151635  24.1650214  28.4283106  17.1275192  28.3256375
  28.1621522  16.3114309  28.4847365  28.4421671  17.1728348  27.4551891
  28.3907829  17.0132097  28.2209857  45.4064500   7.4553007  26.3598809
  46.0490409   7.5251112  26.9460724  45.6587521   6.7882230  25.8578351
  45.5386632   7.3679356  26.3726088  32.3340853  11.9260276  14.9408133
  31.6199031  11.6398456  15.3530566  32.8184822  12.2656902  15.5814521
  32.3000217  11.9341926  15.0963768  33.1781713  10.6653570  30.9723383
  32.4853510  10.1950550  31.2184114  33.7942040  10.4391875  31.5465090
  33.1666243  10.5620702  31.0932535  48.6211364  17.1320099  23.0089018
  49.2827798  16.5710768  22.9084927  47.9802776  16.6372130  23.3341709
  48.6240231  16.9756508  23.0421358  39.5088171  20.4290230  15.3169941
  39.9239320  20.0975254  14.6254437  38.6780101  20.1959133  15.1890078
  39.4476180  20.3461486  15.1960789  28.8376520  17.9133971  25.6068119
  28.6552093  17.8880857  24.7540412  29.5726189  18.3832909  25.6457028
  28.9190584  17.9795334  25.4866038  44.9076194  18.1485481  22.7501007
  45.1431784  18.2930680  21.9227858  45.0565758  18.9127889  23.1432521
  44.9641998  18.2824536  22.6864611  31.9022272  14.6318974  32.1150228
  32.6262244  14.6172005  32.6015123  32.0038408  15.3414330  31.6172196
  32.0240481  14.7343678  32.1129015  46.7366651  16.9887147  20.5870611
  47.0674868  17.5214788  19.9810706  47.3099739  17.0426035  21.2432562
  46.8700330  17.0756716  20.5948393  41.9498540  14.8352050  21.2694191
  42.0445395  15.5741344  21.7233816  41.3257384  14.4069526  21.7028755
  41.8707570  14.8813371  21.4002338  28.8047430  14.7927472  25.7567186
  29.3820933  14.6563923  26.3959431  28.1061492  14.3363256  26.0112770
  28.7868452  14.7049738  25.8889476  42.2021561  16.6800790  14.5031143
  42.1201724  16.7502977  15.3686130  42.8401282  17.2430534  14.3114884
  42.2841399  16.7739761  14.6021092  35.5614733  16.4461528  23.9705669
  35.3033977  15.6133263  23.9436969  35.6163215  16.6719141  23.1298170
  35.5314511  16.3559299  23.8425806  40.6415783   8.5489979  24.0709762
  39.9372110   8.0599164  24.2293681  40.6900757   8.5612453  23.1998206
  40.5445834   8.4779626  23.9649102  34.5349445  13.9999290  24.4570564
  33.9599036  14.1591459  25.0934525  34.1585121  13.3634699  23.9939015
  34.3952257  13.9297103  24.4825122  38.2022733  12.4722640  29.3162942
  37.8137166  12.0476857  28.6615134  37.5377432  12.7204789  29.8239969
  38.0469661  12.4461361  29.2950810  47.8446003  12.2297644  22.0910772
  47.5882567  11.4177586  21.9008655  48.6875317  12.2375211  21.8640960
  47.9312028  12.1109642  22.0295590  24.2806264  13.6439365  22.4715005
  24.3666516  13.2671233  23.2528535  24.9082061  13.2699811  21.9934963
  24.3862815  13.5324847  22.5160482  42.0249095   6.1697268  26.8286927
  42.4059607   5.4875439  27.2154801  41.2212379   5.8806870  26.6462591
  41.9625557   6.0264317  26.8590983  39.3061672  16.7021244  17.5139749
  40.1202311  16.9936137  17.4022521  39.2420813  16.0481107  16.9398042
  39.4164411  16.6486439  17.4128587  35.1769580  20.1742762  22.6412061
  35.8143527  19.9354509  23.1863855  35.6024652  20.3779921  21.9065222
  35.3345746  20.1693772  22.6129219  29.8682222  22.4131098  26.5246365
  29.9086368  22.6845949  25.6966145  30.4276746  22.9373006  26.9404153
  29.9565568  22.5306853  26.4638253  35.8172395  15.3945051  16.9786951
  36.2017548  15.1752758  17.7303496  35.5684015  16.2207997  17.1088027
  35.8374468  15.4843198  17.1088027  35.9840935   8.6751467  36.6949535
  35.6694376   9.4451029  36.4319098  35.6630868   8.1121723  36.1101762
  35.8899854   8.7061735  36.5690885  37.5591052  20.6515184  24.3205848
  37.6330060  20.4890356  25.1747698  38.3760558  20.8405374  24.0766329
  37.6907411  20.6551927  24.4103873  52.2509375  15.8084690  27.3165964
  52.1833875  15.8280649  26.4468550  52.2365037  16.6515017  27.5421634
  52.2388131  15.9358424  27.2218441  31.3196809  20.9973047  21.3500291
  30.4934926  21.2434784  21.2234570  31.3808800  20.9185128  22.2162349
  31.2070976  21.0217996  21.4589236  33.5372832   7.0641988  22.3095731
  32.6695258   7.1364588  22.3753341  33.8248037   7.8664067  22.4983706
  33.4512580   7.1936135  22.3470498  42.6605721   7.2119847  30.6407053
  43.4059313   7.0229658  30.2270479  42.2443026   7.7378085  30.0820910
  42.7090695   7.2621993  30.4971626  36.0995638  23.6149927  19.0519321
  36.3893936  23.2238909  18.3278548  36.8299118  23.7966632  19.4924596
  36.2502522  23.5843741  19.0102128  50.0367992  14.5829076  25.5912558
  50.5875914  13.9497145  25.8309650  50.0212107  15.1144469  26.2828062
  50.1153188  14.5678024  25.7291416  36.6890383  18.4167673  30.1372452
  36.1902076  19.1283441  30.2157340  37.4990607  18.7368340  30.0990614
  36.7346490  18.5694522  30.1429020  34.0401553  25.5917310  22.1179471
  33.8201849  25.3014664  22.9106138  33.8196075  24.9332265  21.5897383
  33.9749147  25.4517018  22.1568380  32.9518500  17.6790626  24.3835173
  32.6631749  17.0528097  24.9180900  33.8201848  17.6210914  24.4499853
  33.0378752  17.5778170  24.4726127  43.7396398  12.8225410  24.7017154
  43.3961164  12.1015745  25.0524404  43.8389441  12.6139261  23.8595513
  43.7038441  12.6849613  24.6288834  36.2069509  26.9646700  20.9010163
  36.8593567  26.4323142  21.1301189  35.5095118  26.6115352  21.2878037
  36.2000227  26.8336223  20.9922331  33.1550774  19.3185877  20.3077538
  33.9096742  19.6998916  20.5213000  32.5621386  19.7697021  20.7624234
  33.1787487  19.4414705  20.4060416  44.2009427  19.2851114  20.2441143
  44.7667460  19.9444324  20.1599685  43.5537331  19.6300812  20.7157545
  44.1888184  19.4333055  20.3013899  35.6157441  11.2748718  35.4334750
  34.8057217  11.5806497  35.3224592  36.0932128  11.9954300  35.5487334
  35.5660920  11.4263319  35.4341821  34.4749000  20.4894439  25.6817653
  33.9529754  20.6294730  26.3669518  34.8623021  19.7305103  25.8719770
  34.4552701  20.3979962  25.8118729  31.4640184  10.5400247  19.7512608
  31.1764980  10.1701518  19.0144555  32.1510653  11.0095103  19.4896313
  31.5229082  10.5547217  19.6027683  40.6716005  22.2289898  19.6678222
  40.4302681  21.4957759  19.2605287  40.8517338  22.7776755  19.0144555
  40.6623629  22.2012289  19.5108445  35.9015326  17.5198458  21.0799144
  35.7058109  18.1273192  20.4859447  36.1249672  16.8266402  20.5990818
  35.9049967  17.5075983  20.9215225  34.2993856  14.4053196  21.1980012
  35.0216508  14.5694354  20.7383818  33.8201849  15.1262860  21.0919352
  34.3357587  14.5351425  21.1145626  42.2587364  10.7416994  26.5776697
  41.4198464  10.7678273  26.3414961  42.3291731  11.3887730  27.1582044
  42.1455757  10.8413120  26.6285814  31.9501473  16.8111268  30.3034152
  32.4622570  17.0895521  29.6542912  31.6637815  17.5500562  30.6696965
  31.9836336  16.9613622  30.2624030  40.7056642   7.6402371  21.3104313
  41.4082995   7.4410120  20.8324271  40.4400831   6.8678314  21.6173157
  40.7703274   7.4965337  21.2849755  46.1344887  15.9484981  23.8637939
  46.0478862  16.1040407  24.7172718  45.6795367  16.5923057  23.4897344
  46.0548144  16.0660736  23.9345046  29.0368379  11.3181460  20.5997889
  29.1384515  12.1207621  20.9278864  29.8324266  11.1168796  20.3020969
  29.1696285  11.4067359  20.6033244  35.4685198   8.9037657  30.3635194
  35.2768395   8.9192791  31.2134617  36.3183794   9.1001331  30.3401849
  35.5660920   8.9352008  30.4858489  29.8532111  11.4328638  28.3419010
  29.7117603  10.5812579  28.4663518  30.1372675  11.4757299  27.5181216
  29.8739957  11.3128388  28.2386634  40.0070704  13.2695728  22.4863499
  39.7605418  13.1891479  23.3200287  40.3355827  12.4849196  22.2926026
  40.0191947  13.1421994  22.5811022  43.9018752  19.9779088  26.2750280
  43.7633112  20.6760133  26.7799022  43.1218750  19.8227744  25.9186462
  43.7661979  20.0579254  26.2976554  42.2396837  16.2775463  32.5272661
  42.2344876  15.4055279  32.5315088  42.9457831  16.4763632  32.0542117
  42.3441841  16.1779337  32.4579697  35.9667731  16.0052447  31.8986482
  36.1111107  16.5853655  31.2629592  36.3143379  16.3828744  32.6036336
  36.0395192  16.1473151  31.9085477  38.1387648  15.2042615  29.6811613
  37.3910962  15.3973630  29.2759891  38.2929173  14.3787835  29.4435735
  38.0510076  15.1107727  29.5857019  45.3972125  19.3357341  17.0366779
  45.0178934  18.5494479  17.0296068  44.7338371  19.8844198  16.8938423
  45.2430600  19.3002165  17.0147576  38.3789425   9.0993166  30.5707017
  38.8362039   9.8317140  30.6979809  38.4545754   8.6759631  31.3294273
  38.4580395   9.1450404  30.7008093  30.6222416   9.3458986  31.6596461
  30.0864606   8.7339344  31.9757228  30.6840181   9.9207122  32.3130127
  30.5518049   9.3405913  31.8031887  42.8516751   2.2783041  24.4400860
  42.9700319   2.7359504  23.7068163  42.6778927   1.4728302  24.1537077
  42.8435922   2.2276813  24.2901794  38.2219033  22.8870860  20.8755605
  38.9868924  22.6180504  20.5538270  38.1197123  22.4020871  21.5925668
  38.3200529  22.7760425  20.9335433  36.2571803  11.0895270  27.4148841
  35.4667878  10.9086730  27.7366177  36.6532426  10.3122222  27.3979135
  36.1988679  10.9482731  27.4601389  40.7437694  19.9183044  12.8555555
  41.5110679  19.9783169  12.4461406  40.2969003  19.3463486  12.3711873
  40.7911121  19.8419620  12.7233265  41.6415489  18.7237700  25.1408287
  40.9660491  18.4922932  25.6421674  41.6507865  18.1158883  24.5150392
  41.5433994  18.5996625  25.1224439  38.7709633  13.5655529  31.8972340
  38.7068775  14.4265485  31.7692477  38.9106821  13.2487522  31.0967891
  38.7825103  13.6455696  31.7600553  43.6432224  21.5802832  17.3718465
  43.7252061  22.3869819  17.0479916  44.1281966  21.5998792  18.0959238
  43.7269382  21.7023495  17.4305363  37.4528727  16.2587668  26.0388543
  37.0290976  16.4592167  25.3027561  37.2773582  15.4116516  26.1512843
  37.3639608  16.1636450  25.9462233  32.7411172  16.7539720  21.4716515
  32.8975791  16.6886523  22.3272507  33.0811765  17.5288272  21.2595195
  32.8144407  16.8588918  21.5671109  39.2790317  16.1297603  20.3409879
  39.8205862  15.6267984  20.8048499  39.5936876  16.0762798  19.5299364
  39.4054714  16.0477024  20.2893691  37.4476767  21.5214955  17.6249907
  37.5169587  20.6629493  17.7642907  38.2265222  21.7386836  17.2968931
  37.5729617  21.4267819  17.5967064  40.4279586  11.0233908  30.3932179
  40.6421556  10.3844822  29.8395533  39.8113485  11.4679732  29.9640041
  40.3684915  10.9944052  30.2482610  41.8384254  23.9452656  21.8386400
  41.4464046  23.6419371  21.1209266  41.9937326  24.7821746  21.6491354
  41.8037844  24.0236493  21.7042897  29.3145434  13.9374670  21.7877282
  29.6944399  14.3559215  21.1237550  28.7400799  14.5188126  22.0946126
  29.2856759  14.0852529  21.7354023  42.5918674  12.6322973  31.3315486
  41.7795356  12.3248863  31.4128659  43.0508609  12.1521973  31.8958198
  42.5399059  12.5159465  31.4270080  42.0023929  20.5102645  21.7792430
  41.6438584  20.6817288  22.5556463  41.5162640  20.9715851  21.2220429
  41.8782626  20.6041616  21.8117700  39.8194315   4.1333843  25.3819522
  38.9487873   4.1072565  25.3352831  40.0734656   3.9611036  24.5645367
  39.7287875   4.1043987  25.2539659  36.7912294  16.1901810  14.3192665
  37.0804819  16.9666693  14.5936239  36.8784093  15.6790542  15.0207164
  36.8466551  16.2293729  14.4635163  39.6872182  14.0383044  36.1144188
  40.1571813  14.6625161  36.5012063  39.7334062  13.3700020  36.6737403
  39.7640058  14.0317725  36.2544260  36.8443455   6.1440072  26.8392992
  36.3281944   5.4520263  26.9644571  36.2837384   6.8110849  26.7855591
  36.6849969   6.1403330  26.8499058  38.9135689   6.6833032  28.6685845
  38.5267442   6.7082063  29.4499375  38.4268626   6.1174711  28.2160361
  38.7848198   6.6028783  28.7173748  44.8885668  13.2495687  27.2925547
  44.4613276  13.1622035  26.5373646  44.2511721  13.3573462  27.8780391
  44.7315276  13.2528347  27.2670988  38.5792831   3.5700017  30.9596105
  39.2085949   4.1060317  30.6817175  38.7478693   3.4777376  31.8109670
  38.6970625   3.6361380  31.0444633  38.3806745   8.3571212  33.2322516
  39.2080175   8.0856361  33.2881131  38.4014591   9.1532054  33.5886334
  38.5059595   8.4350966  33.2937699  32.9576235  15.5035075  26.4192777
  32.1164242  15.4038949  26.6271671  33.1666243  16.2730555  26.7707098
  32.8640928  15.6027118  26.5020092  30.4351802  13.1254612  24.2477528
  30.0408500  13.1997624  23.4727637  29.8791919  13.5112558  24.7985889
  30.2954615  13.1936387  24.2145187  42.0716749   6.1035906  23.9281406
  42.2766342   6.0358214  24.7738404  41.7443173   6.9094727  23.8602584
  42.0531997   6.2121846  24.0441062  36.7692900  13.4316474  25.6690374
  36.4656038  12.8772462  26.2700782  36.0672321  13.6108684  25.1818409
  36.6209110  13.3761256  25.6860080  35.8258997  10.7416994  20.2335076
  36.1018732  10.0235906  19.8212644  36.4257667  11.3401914  20.0256182
  35.9552262  10.7237365  20.1415837  34.8311251  20.6466195  30.3762472
  34.7231606  20.6568257  31.2424530  35.0407033  21.4720975  30.1867426
  34.8461362  20.7707270  30.4766564  45.3250437   6.6567670  23.4084172
  44.7124750   7.1438072  23.7937904  45.4214612   5.9811161  23.9521823
  45.2488334   6.6285979  23.5463030  39.3269518   8.4130511  18.5081671
  39.7813264   8.5841072  19.2329516  39.8009563   7.7998622  18.1079447
  39.4637838   8.3481397  18.5555433  32.8485043  17.8978837  27.8384410
  32.2572976  18.5388335  27.8087425  33.6106067  18.3216455  27.8115709
  32.8733304  18.0554676  27.8299557  33.2445666   9.0580835  28.5052427
  33.7047147   9.1319764  29.2427551  33.2901773   9.8562089  28.1552249
  33.3196221   9.1874982  28.5625184  34.8929016   9.7247530  33.0724455
  34.5014581   9.0780877  33.5080232  35.0614878  10.3158965  33.6918710
  34.8599926   9.7161798  33.2287161  42.6074559  23.3488149  25.2716434
  42.4094248  23.8378963  24.5772646  41.9862270  23.5529390  25.8500568
  42.4862124  23.4504687  25.2539658  36.6682538  15.1173046  19.6126679
  37.4124583  15.5047322  19.8509628  36.8143234  14.2730471  19.7767166
  36.7993123  15.0503518  19.6720648  38.5862113   6.9123305  24.6458540
  37.7398158   7.0846112  24.5199890  38.5833246   6.1072648  24.9824368
  38.4609263   6.8184334  24.6769667  39.6560414  10.6898519  25.5120598
  39.1820368  10.1640281  26.0225909  40.0278549  10.1427992  24.9435459
  39.6410303  10.5314516  25.5035745  30.0333444  12.6870026  30.8804144
  30.8959057  12.5865735  30.7941473  29.7025227  12.1064735  30.3189716
  30.1118640  12.5861652  30.7849550  45.9197144  15.7500895  26.9227378
  45.6795367  14.9107310  26.9269805  46.3989151  15.8301061  27.6468152
  45.9549328  15.6382294  27.0302181  41.5843913  11.5835074  18.5746352
  41.0566932  11.6663818  17.8852061  42.0439621  12.3252945  18.5710996
  41.5745764  11.7055736  18.4721047  47.9202331  12.5302352  24.8756637
  47.6812101  12.4898186  24.0377422  48.0836232  13.3773504  25.0022359
  47.9092635  12.6494437  24.7710119  33.3935230  11.5112475  27.5414562
  32.7688300  11.5230867  26.9340515  33.0580825  11.9872650  28.1905802
  33.2520722  11.5830992  27.5471130  33.5776978   9.8537593  13.5987247
  33.2289783  10.5057318  14.0618796  33.0973424   9.8394706  12.8711118
  33.4547222   9.9480647  13.5598338  30.1060905  19.5712935  28.9818326
  29.5760830  18.8805374  29.0313301  30.3785999  19.5623120  28.1531035
  30.0685628  19.4680067  28.8665742  41.1380996  20.1538637  17.7056009
  41.8615195  20.6196750  17.5620582  40.6981587  20.2212247  16.9553606
  41.1796688  20.2322474  17.5740790  39.5463448  18.0840449  26.6900996
  39.1191056  17.4590168  26.2566432  39.5388392  17.8015371  27.5160004
  39.4822589  17.9493230  26.7480824  32.6625975  13.1205622  29.7589430
  32.8219462  12.3648947  30.1641152  32.4818869  13.6696562  30.4130168
  32.6591334  13.0899436  29.9152136  40.6046278   5.2866858  30.3140220
  40.1086839   5.4830532  29.6231787  41.3615340   5.6859526  30.1429021
  40.6433103   5.3744592  30.1860357  37.8749158   8.9609204  26.9043530
  37.8991645   8.4269316  26.2156310  38.1260631   8.4526513  27.5669121
  37.9159076   8.8070108  26.9008175  25.3856747  16.2440699  26.3386674
  25.2800197  16.1987543  25.4738758  24.6356967  16.5894479  26.6200959
  25.2592350  16.2881607  26.2524004  34.1550480   7.6880022  26.2849275
  34.1948851   8.1889229  26.9983982  33.3300145   7.7790416  26.0155198
  34.0390006   7.7761839  26.3499813  36.3380093  17.2540762  34.3869569
  35.4875723  17.3912476  34.5227214  36.5008220  16.5204540  34.8317271
  36.2363956  17.1654863  34.4725168  35.5764843  14.2040532  28.5823174
  34.7456773  14.3714350  28.3758422  35.5216360  13.8276483  29.3672059
  35.4454258  14.1730263  28.6671702  33.3848627   7.6949425  34.2179584
  34.0101330   7.1511558  34.4909017  32.9299106   7.2144343  33.6487375
  33.4096887   7.5438906  34.1741178  33.9500887  12.4796124  19.1113291
  34.0903848  12.9768588  19.8141933  34.4483420  11.7782418  19.2527505
  34.0441968  12.4498102  19.2364870  33.9801109  13.3463235  16.4405868
  34.6146189  13.9423660  16.3755330  34.0626720  13.0466692  17.2551738
  34.0857660  13.3904143  16.5508955  35.5580092   9.2777210  16.4151310
  35.8795933   8.7980293  15.7610573  35.8207036  10.0876856  16.2242122
  35.6446118   9.3267108  16.2906802  40.9539247   8.6649404  28.7774789
  41.3794319   8.2121930  28.1658316  40.3396240   8.1109475  29.0539577
  40.9267893   8.5163380  28.7279815  30.4854097  15.5431075  19.7095414
  30.9946327  16.1395583  20.0906720  30.9588370  15.2757049  19.0271834
  30.6297473  15.5916891  19.6649937  41.3984845  24.2159342  17.8654070
  40.6814155  24.0420204  17.4001307  42.0491583  23.9811914  17.3329556
  41.3886696  24.1555135  17.7183288  39.3933470   5.1364504  22.1865366
  38.7501788   4.9862150  22.7550505  39.0532877   4.8906849  21.4214471
  39.2478547   5.0776626  22.1568381  43.9832817  13.0923931  21.6095375
  43.3124007  13.6353633  21.4808440  44.6772567  13.5618786  21.3677070
  43.9861684  13.2422202  21.5550903  44.1460944   9.5479814  24.5185748
  44.4988554   9.1209537  25.1931547  43.2875746   9.4630658  24.6486824
  44.0710389   9.4724555  24.6380759  32.8444629  12.1787334  22.5768595
  32.1256618  12.5951466  22.8441458  33.2156991  12.7441573  22.0260233
  32.7936561  12.3236615  22.5351402  42.1444210  12.8115183  28.4670590
  42.1242137  12.6298478  29.3205369  42.1923411  13.6827201  28.4430174
  42.1478851  12.9131721  28.5893885  36.6798007  25.4521101  24.2944218
  36.2658406  24.7895231  23.9048059  37.3645382  25.5998959  23.7739912
  36.7196379  25.3761759  24.1600715  40.0463301  24.6111186  25.0467834
  39.6479585  24.7213456  24.2788655  39.4314521  24.8193252  25.6294394
  39.8962191  24.6584754  25.0199134  38.6191203  11.2185334  17.9141974
  38.0256043  11.5402330  17.3626541  38.6566481  10.3726429  17.7063080
  38.5365593  11.1409662  17.8024745  45.5785004   4.6698226  25.4470061
  45.0715869   3.9627366  25.3791238  46.3752438   4.3391415  25.5771137
  45.6212243   4.5171377  25.4569056  41.4949020  11.1764838  21.3443724
  41.2662713  11.1997540  20.5022083  41.7547096  10.3522305  21.4638735
  41.4995208  11.0580918  21.2368922  35.7768248  13.0299311  30.9468825
  35.2647152  12.4220494  31.3053856  35.6047745  13.7455904  31.4142800
  35.6757886  13.0462611  31.0685048  30.6233963  11.4736887  33.5971186
  30.4536553  12.1338261  33.0519393  30.1799913  11.6843448  34.3183675
  30.5333297  11.6022869  33.6232816  34.5493783   9.7141385  22.6397920
  35.0251149  10.0758464  22.0048101  34.0482382  10.3697852  22.9198063
  34.5459142   9.8635573  22.5874661  47.7805144  19.1863153  18.4310925
  48.1638750  19.9354509  18.6609022  46.9849257  19.4328972  18.1722914
  47.7198926  19.3332847  18.4268499  39.6537319  10.9523556  33.3871080
  40.2108749  10.7237366  32.7549546  39.3298384  11.7129222  33.1106292
  39.6883729  11.0307393  33.2527577  27.5236028  14.3783752  28.8559676
  26.9762747  13.7084398  28.9740544  28.3128406  14.0113600  28.9203143
  27.5588211  14.2248739  28.8828377  37.3720436  14.0391209  34.3523087
  38.1231763  14.3542886  34.6662641  37.5643013  13.8370380  33.5257009
  37.5111850  14.0558591  34.2766483  36.5920436  11.8582584  16.0071304
  36.9719401  11.8762214  15.2222419  35.8513032  12.3036573  15.8862151
  36.5389273  11.9264359  15.8734872  44.2205726  10.1664776  21.5946883
  44.2199953  10.0113432  22.4531159  44.0161906  11.0127763  21.5388268
  44.1905504  10.2685396  21.7134822  26.2822997  13.5904560  26.0105699
  26.1044758  13.1381169  26.7360615  25.9942019  14.3930721  26.1944177
  26.2135950  13.6427118  26.1449202  41.9446578  14.8462277  25.2483090
  42.4400244  14.1285272  25.2087110  41.1346354  14.5433075  25.1337576
  41.8990472  14.6959924  25.2256815  37.3905190  18.6960091  17.3980094
  36.5816513  18.3726764  17.3513403  37.8980099  17.9893313  17.3308343
  37.3454857  18.5441407  17.3810388  28.0195467  16.1232284  23.1227458
  27.1540987  16.1117974  23.0110229  28.1194283  15.9362507  23.9698598
  27.9069634  16.0938345  23.2316403  44.0098397  17.5965965  27.9360218
  44.4353469  17.0740387  27.3830643  43.6455317  18.1946802  27.4148841
  44.0185000  17.6076192  27.7769228  40.5976997  21.3100229  24.2661376
  41.0688175  22.0240492  24.4351361  40.9337175  20.7098979  24.8021245
  40.7172112  21.3271693  24.3693752  37.5146492   6.0827700  31.2219471
  37.6474397   5.2858693  31.5500446  37.8991644   6.6094103  31.8017746
  37.5902820   6.0427616  31.3562973  40.5878847   3.0058026  27.8200564
  39.7824810   2.8955756  28.1368402  40.4585582   3.1070482  26.9630430
  40.4498980   3.0041696  27.7408604  44.0444807   9.1703518  28.4140261
  43.4607796   9.6712724  28.0017828  44.3649101   8.6633074  27.7804584
  44.0057983   9.1695353  28.2598768  36.5839606   8.0844113  18.6898935
  37.4055301   8.2542425  18.4480630  36.1209257   8.2391374  17.9665233
  36.6370769   8.1325846  18.5470580  35.1734938   6.0786875  29.4697364
  35.7179351   5.7378002  30.0601706  35.2271874   6.9372336  29.6118649
  35.2624058   6.1542134  29.5779238  30.9865497  19.8403291  26.3436172
  31.5910354  19.7999125  25.7149993  30.7792810  20.6874443  26.3740228
  31.0454394  19.9591293  26.2552289  40.8009269  22.1069236  27.5598410
  41.6207643  21.9632202  27.8214705  40.5203347  22.7315435  28.1014847
  40.8806013  22.1779588  27.6786349  26.2216779  18.8237908  26.2135095
  26.1241057  18.0134180  26.5225152  27.0045649  18.8029702  25.8281363
  26.3232916  18.7004999  26.2021958  57.2722920  29.7634088  20.5241286
  57.2416924  30.6178724  20.6959555  57.8704268  29.4629380  21.0827430
  57.3560077  29.8450584  20.6316088  50.3088704  38.8097826  16.4716995
  49.9740073  39.4874748  16.0361217  50.8215574  38.4203137  15.8833867
  50.3354285  38.8522404  16.3203786  55.0939494  32.3386390  18.7959596
  54.9779020  33.0894076  19.2251734  55.8895381  32.0810343  19.0455683
  55.1944084  32.4121237  18.8963687  41.9303632  26.5896866  25.8330862
  41.3108664  25.9989513  25.6640877  41.8287496  27.1808301  25.1995185
  41.8241308  26.5900948  25.7135851  49.0271528  28.3296408  20.1663325
  49.7251692  28.5084535  20.6584788  49.3423860  27.8066747  19.5433714
  49.1766865  28.2790180  20.1465335  47.1998391  23.6988804  24.2484600
  46.8701721  24.1499948  23.5788298  46.5243393  23.6204968  24.7957606
  47.0508828  23.7539940  24.2307823  52.8168800  33.0694034  17.1073886
  52.7320095  33.9255001  17.2523454  53.3053183  32.7938358  17.7756045
  52.8757697  33.1551355  17.2275967  54.4074799  19.6874327  22.4934210
  54.0928240  20.3777806  22.9254633  53.8901741  19.6319110  21.7919711
  54.2839269  19.7809216  22.4531159  53.7487233  29.6878828  18.6071621
  53.2198704  29.9038462  19.2668927  54.2712253  30.3814967  18.5272590
  53.7475686  29.8221965  18.6927220  59.2035286  35.2625133  23.9804665
  58.3732989  35.4735776  24.1438082  59.1544538  34.4362187  23.7046949
  59.0742021  35.1714739  23.9642031  45.6386841  33.5842045  17.4079089
  45.0544056  34.0892076  17.8144953  45.2356936  33.3584432  16.6675681
  45.4926144  33.6250293  17.3584114  50.0964055  29.8307697  15.8848009
  50.3360059  30.0385681  15.0723352  50.4179896  29.0265206  15.9936954
  50.1801213  29.7421798  15.7808562  45.4054345  21.7601093  19.7307547
  46.1600313  22.1279410  19.4924597  45.2281880  22.1340647  20.4986727
  45.4908824  21.8699281  19.8092436  58.6989244  27.9095533  27.7755087
  57.8617665  27.9797720  28.0102681  58.6677475  27.9120028  26.9029389
  58.5707526  27.9205760  27.6814635  43.7611410  24.1671412  16.4285660
  43.5786983  24.3843293  15.6026653  44.6237023  24.2810424  16.4844275
  43.8615999  24.2161310  16.3140147  49.4411129  21.1697822  19.4634684
  50.1697290  20.9913777  19.0172840  49.5306022  22.0115902  19.6741862
  49.5617791  21.2681701  19.4288202  56.4599601  35.9324487  24.1169381
  56.0234833  35.9361229  24.8728352  56.1262516  36.6129986  23.6848958
  56.3462221  36.0336943  24.1650214  56.3797084  22.9738315  26.3598809
  57.0222992  23.0436419  26.9460724  56.6320105  22.3067538  25.8578351
  56.5119216  22.8864664  26.3726088  43.3073437  27.4445584  14.9408133
  42.5931614  27.1583764  15.3530566  43.7917406  27.7842210  15.5814521
  43.2732800  27.4527234  15.0963768  59.5943947  32.6505407  23.0089018
  60.2560381  32.0896075  22.9084927  58.9535359  32.1557438  23.3341709
  59.5972815  32.4941816  23.0421358  50.4820755  35.9475538  15.3169941
  50.8971903  35.6160562  14.6254437  49.6512685  35.7144441  15.1890078
  50.4208764  35.8646794  15.1960789  55.8808778  33.6670789  22.7501007
  56.1164367  33.8115988  21.9227858  56.0298342  34.4313197  23.1432521
  55.9374581  33.8009844  22.6864611  57.7099235  32.5072455  20.5870611
  58.0407452  33.0400095  19.9810706  58.2832323  32.5611343  21.2432562
  57.8432914  32.5942024  20.5948393  52.9231124  30.3537358  21.2694191
  53.0177978  31.0926652  21.7233816  52.2989967  29.9254833  21.7028755
  52.8440154  30.3998679  21.4002338  53.1754145  32.1986098  14.5031143
  53.0934308  32.2688285  15.3686130  53.8133866  32.7615842  14.3114884
  53.2573982  32.2925069  14.6021092  51.6148366  24.0675286  24.0709762
  50.9104693  23.5784472  24.2293681  51.6633341  24.0797761  23.1998206
  51.5178418  23.9964934  23.9649102  58.8178586  27.7482952  22.0910772
  58.5615151  26.9362894  21.9008655  59.6607900  27.7560519  21.8640960
  58.9044612  27.6294950  22.0295590  35.2538847  29.1624673  22.4715005
  35.3399099  28.7856541  23.2528535  35.8814645  28.7885119  21.9934963
  35.3595398  29.0510155  22.5160482  52.9981679  21.6882576  26.8286927
  53.3792190  21.0060747  27.2154801  52.1944963  21.3992178  26.6462591
  52.9358140  21.5449625  26.8590983  50.2794255  32.2206552  17.5139749
  51.0934894  32.5121445  17.4022521  50.2153397  31.5666414  16.9398042
  50.3896994  32.1671747  17.4128587  46.7904979  30.9130359  16.9786951
  47.1750131  30.6938066  17.7303496  46.5416599  31.7393305  17.1088027
  46.8107051  31.0028506  17.1088027  57.5240166  34.6876997  27.9897620
  57.2185983  35.4205054  28.3510935  56.8046382  34.2814926  27.7090406
  57.3727508  34.7358730  28.0010757  63.2241958  31.3269998  27.3165964
  63.1566458  31.3465957  26.4468550  63.2097621  32.1700325  27.5421634
  63.2120715  31.4543732  27.2218441  44.5105416  22.5827296  22.3095731
  43.6427841  22.6549895  22.3753341  44.7980620  23.3849375  22.4983706
  44.4245164  22.7121443  22.3470498  53.6338305  22.7305155  30.6407053
  54.3791897  22.5414966  30.2270479  53.2175609  23.2563393  30.0820910
  53.6823279  22.7807301  30.4971626  61.0100576  30.1014384  25.5912558
  61.5608497  29.4682453  25.8309650  60.9944691  30.6329777  26.2828062
  61.0885772  30.0863332  25.7291416  54.7128982  28.3410718  24.7017154
  54.3693748  27.6201053  25.0524404  54.8122024  28.1324569  23.8595513
  54.6771025  28.2034921  24.6288834  55.1742011  34.8036422  20.2441143
  55.7400043  35.4629631  20.1599685  54.5269914  35.1486120  20.7157545
  55.1620767  34.9518363  20.3013899  42.4372768  26.0585555  19.7512608
  42.1497564  25.6886826  19.0144555  43.1243236  26.5280411  19.4896313
  42.4961665  26.0732525  19.6027683  45.2726440  29.9238504  21.1980012
  45.9949092  30.0879662  20.7383818  44.7934432  30.6448168  21.0919352
  45.3090170  30.0536733  21.1145626  53.2319947  26.2602302  26.5776697
  52.3931048  26.2863581  26.3414961  53.3024314  26.9073038  27.1582044
  53.1188341  26.3598428  26.6285814  51.6789225  23.1587679  21.3104313
  52.3815578  22.9595428  20.8324271  51.4133414  22.3863622  21.6173157
  51.7435858  23.0150645  21.2849755  57.1077471  31.4670289  23.8637939
  57.0211446  31.6225715  24.7172718  56.6527951  32.1108365  23.4897344
  57.0280728  31.5846044  23.9345046  40.0100963  26.8366768  20.5997889
  40.1117099  27.6392929  20.9278864  40.8056849  26.6354104  20.3020969
  40.1428868  26.9252667  20.6033244  50.9803287  28.7881036  22.4863499
  50.7338001  28.7076787  23.3200287  51.3088410  28.0034504  22.2926026
  50.9924531  28.6607301  22.5811022  56.3704709  34.8542649  17.0366779
  55.9911517  34.0679787  17.0296068  55.7070954  35.4029506  16.8938423
  56.2163184  34.8187473  17.0147576  53.8249335  17.7968349  24.4400860
  53.9432903  18.2544812  23.7068163  53.6511510  16.9913610  24.1537077
  53.8168506  17.7462121  24.2901794  51.7170277  35.4368352  12.8555555
  52.4843263  35.4968477  12.4461406  51.2701586  34.8648794  12.3711873
  51.7643705  35.3604928  12.7233265  54.6164808  37.0988140  17.3718465
  54.6984645  37.9055126  17.0479916  55.1014550  37.1184100  18.0959238
  54.7001965  37.2208803  17.4305363  48.4209350  37.0400263  17.6249907
  48.4902170  36.1814801  17.7642907  49.1997805  37.2572144  17.2968931
  48.5462200  36.9453127  17.5967064  40.2878017  29.4559978  21.7877282
  40.6676982  29.8744523  21.1237550  39.7133382  30.0373434  22.0946126
  40.2589342  29.6037837  21.7354023  50.7926898  19.6519151  25.3819522
  49.9220456  19.6257873  25.3352831  51.0467240  19.4796344  24.5645367
  50.7020459  19.6229295  25.2539659  47.7644878  31.7087118  14.3192665
  48.0537403  32.4852001  14.5936239  47.8516677  31.1975850  15.0207164
  47.8199134  31.7479037  14.4635163  47.8176039  21.6625380  26.8392992
  47.3014528  20.9705571  26.9644571  47.2569968  22.3296157  26.7855591
  47.6582552  21.6588637  26.8499058  49.8868272  22.2018340  28.6685845
  49.5000026  22.2267371  29.4499375  49.4001210  21.6360019  28.2160361
  49.7580781  22.1214091  28.7173748  55.8618252  28.7680995  27.2925547
  55.4345860  28.6807343  26.5373646  55.2244305  28.8758770  27.8780391
  55.7047859  28.7713655  27.2670988  41.4084386  28.6439920  24.2477528
  41.0141084  28.7182932  23.4727637  40.8524503  29.0297866  24.7985889
  41.2687198  28.7121694  24.2145187  53.0449333  21.6221214  23.9281406
  53.2498926  21.5543522  24.7738404  52.7175757  22.4280035  23.8602584
  53.0264580  21.7307154  24.0441062  46.7991581  26.2602302  20.2335076
  47.0751315  25.5421214  19.8212644  47.3990250  26.8587222  20.0256182
  46.9284845  26.2422673  20.1415837  56.2983020  22.1752978  23.4084172
  55.6857334  22.6623380  23.7937904  56.3947195  21.4996469  23.9521823
  56.2220918  22.1471287  23.5463030  50.3002101  23.9315819  18.5081671
  50.7545848  24.1026380  19.2329516  50.7742147  23.3183930  18.1079447
  50.4370421  23.8666704  18.5555433  44.2178249  24.5766143  28.5052427
  44.6779731  24.6505072  29.2427551  44.2634356  25.3747397  28.1552249
  44.2928805  24.7060290  28.5625184  59.9408048  33.2469915  28.8361688
  59.9991172  33.6956564  29.5821665  59.3074516  33.6568728  28.3991768
  59.8559343  33.3743650  28.8814236  47.6415121  30.6358354  19.6126679
  48.3857166  31.0232630  19.8509628  47.7875817  29.7915779  19.7767166
  47.7725706  30.5688826  19.6720648  49.5594697  22.4308613  24.6458540
  48.7130742  22.6031420  24.5199890  49.5565829  21.6257956  24.9824368
  49.4341847  22.3369641  24.6769667  56.8929728  31.2686203  26.9227378
  56.6527951  30.4292618  26.9269805  57.3721735  31.3486369  27.6468152
  56.9281911  31.1567602  27.0302181  52.5576497  27.1020381  18.5746352
  52.0299515  27.1849125  17.8852061  53.0172205  27.8438253  18.5710996
  52.5478347  27.2241044  18.4721047  58.8934915  28.0487660  24.8756637
  58.6544685  28.0083494  24.0377422  59.0568816  28.8958812  25.0022359
  58.8825218  28.1679745  24.7710119  44.5509562  25.3722901  13.5987247
  44.2022366  26.0242626  14.0618796  44.0706008  25.3580014  12.8711118
  44.4279806  25.4665955  13.5598338  51.5778862  20.8052166  30.3140220
  51.0819423  21.0015840  29.6231787  52.3347924  21.2044834  30.1429021
  51.6165686  20.8929900  30.1860357  45.1283063  23.2065330  26.2849275
  45.1681435  23.7074537  26.9983982  44.3032728  23.2975724  26.0155198
  45.0122589  23.2947146  26.3499813  44.9233471  27.9981432  19.1113291
  45.0636432  28.4953896  19.8141933  45.4216003  27.2967726  19.2527505
  45.0174552  27.9683410  19.2364870  44.9533693  28.8648543  16.4405868
  45.5878773  29.4608968  16.3755330  45.0359304  28.5652000  17.2551738
  45.0590244  28.9089451  16.5508955  57.9316259  31.3964020  29.3092232
  58.5234099  32.0361271  29.3410430  58.3675253  30.6987057  29.5984299
  58.0834690  31.3882370  29.3573065  46.5312676  24.7962518  16.4151310
  46.8528517  24.3165600  15.7610573  46.7939620  25.6062164  16.2242122
  46.6178701  24.8452416  16.2906802  41.4586681  31.0616383  19.7095414
  41.9678910  31.6580891  20.0906720  41.9320953  30.7942357  19.0271834
  41.6030057  31.1102199  19.6649937  50.3666054  20.6549812  22.1865366
  49.7234372  20.5047458  22.7550505  50.0265461  20.4092157  21.4214471
  50.2211131  20.5961934  22.1568381  54.9565400  28.6109239  21.6095375
  54.2856590  29.1538941  21.4808440  55.6505150  29.0804094  21.3677070
  54.9594268  28.7607510  21.5550903  55.1193528  25.0665122  24.5185748
  55.4721138  24.6394845  25.1931547  54.2608329  24.9815966  24.6486824
  55.0442972  24.9909863  24.6380759  43.8177213  27.6972642  22.5768595
  43.0989202  28.1136774  22.8441458  44.1889575  28.2626881  22.0260233
  43.7669144  27.8421923  22.5351402  53.1176793  28.3300491  28.4670590
  53.0974721  28.1483786  29.3205369  53.1655994  29.2012509  28.4430174
  53.1211434  28.4317029  28.5893885  49.5923787  26.7370642  17.9141974
  48.9988626  27.0587638  17.3626541  49.6299065  25.8911737  17.7063080
  49.5098176  26.6594970  17.8024745  56.5517588  20.1883534  25.4470061
  56.0448452  19.4812674  25.3791238  57.3485021  19.8576723  25.5771137
  56.5944827  20.0356685  25.4569056  52.4681604  26.6950146  21.3443724
  52.2395297  26.7182848  20.5022083  52.7279680  25.8707613  21.4638735
  52.4727792  26.5766226  21.2368922  45.5226366  25.2326693  22.6397920
  45.9983732  25.5943772  22.0048101  45.0214966  25.8883160  22.9198063
  45.5191725  25.3820881  22.5874661  58.7537728  34.7048461  18.4310925
  59.1371333  35.4539817  18.6609022  57.9581841  34.9514280  18.1722914
  58.6931510  34.8518154  18.4268499  47.5653019  27.3767892  16.0071304
  47.9451984  27.3947522  15.2222419  46.8245615  27.8221881  15.8862151
  47.5121857  27.4449667  15.8734872  55.1938310  25.6850084  21.5946883
  55.1932536  25.5298740  22.4531159  54.9894490  26.5313071  21.5388268
  55.1638088  25.7870704  21.7134822  52.9179162  30.3647585  25.2483090
  53.4132827  29.6470580  25.2087110  52.1078938  30.0618383  25.1337576
  52.8723055  30.2145232  25.2256815  54.9830981  33.1151273  27.9360218
  55.4086052  32.5925695  27.3830643  54.6187901  33.7132110  27.4148841
  54.9917583  33.1261500  27.7769228  51.5611430  18.5243334  27.8200564
  50.7557394  18.4141063  28.1368402  51.4318166  18.6255790  26.9630430
  51.4231563  18.5227004  27.7408604  55.0177391  24.6888826  28.4140261
  54.4340380  25.1898032  28.0017828  55.3381685  24.1818382  27.7804584
  54.9790566  24.6880661  28.2598768  47.5572190  23.6029421  18.6898935
  48.3787884  23.7727733  18.4480630  47.0941841  23.7576681  17.9665233
  47.6103352  23.6511153  18.5470580  68.2455503  45.2819396  20.5241286
  68.2149508  46.1364032  20.6959555  68.8436852  44.9814688  21.0827430
  68.3292661  45.3635892  20.6316088  61.4455188  44.3695047  25.2794216
  60.5893084  44.5303545  25.3303333  61.4922842  43.4987111  25.2999277
  61.3254299  44.2645849  25.2900282  55.8296328  53.9057765  21.0431448
  55.0779227  53.5273303  20.8147493  56.2782339  53.9376198  20.2950258
  55.7845995  53.8543372  20.8988950  64.7548905  50.6381572  34.8854672
  65.4615672  50.1433603  35.0141607  64.9436840  51.0790654  34.1557330
  64.8876810  50.6299923  34.7963718  61.2821288  54.3283134  16.4716995
  60.9472656  55.0060056  16.0361217  61.7948158  53.9388445  15.8833867
  61.3086869  54.3707712  16.3203786  60.8225579  56.2797403  22.4128107
  61.2064958  56.8484301  21.8732882  60.7584720  55.5546913  21.9333923
  60.8699006  56.2572866  22.2621969  64.2907009  46.4287091  27.9225868
  64.8362969  47.1072177  27.9819838  64.2323885  46.2874551  27.0627450
  64.3622923  46.5079092  27.8037929  57.4081084  53.9176157  23.3094220
  57.5091447  53.1076511  23.6191348  56.8122829  53.8233103  22.6793899
  57.3353623  53.7841185  23.2620459  66.0672078  47.8571698  18.7959596
  65.9511604  48.6079384  19.2251734  66.8627964  47.5995651  19.0455683
  66.1676667  47.9306545  18.8963687  57.2481824  58.8353746  24.7109076
  57.8919279  59.2766910  25.1005235  57.5738079  58.0307172  24.6239335
  57.3913652  58.7818941  24.7554554  50.6046128  49.9396443  22.9346554
  50.3696313  49.1064096  22.8278823  50.7431769  50.2201109  22.1207755
  50.5901791  49.8579947  22.7988909  57.9502403  51.8465721  20.0828938
  58.2718244  52.3870928  19.4790246  58.5974500  51.2762492  20.2151228
  58.0928458  51.8424896  20.0135974  60.0004111  43.8481716  20.1663325
  60.6984276  44.0269843  20.6584788  60.3156444  43.3252055  19.5433714
  60.1499448  43.7975488  20.1465335  60.1892047  50.2352161  20.1543116
  60.6285682  49.6269261  20.5997889  60.0396710  49.8559534  19.3828581
  60.2313512  50.0890632  20.1062284  57.6563690  48.8296173  27.3561942
  58.3012692  48.3368616  27.0372890  57.8965467  48.9720959  28.1828020
  57.7874275  48.7773615  27.4311475  60.1949781  51.6751078  27.0068834
  60.4773024  50.8802484  26.7855590  60.9235941  52.1531666  27.0273895
  60.3439345  51.6285675  26.9771850  58.1730975  39.2174112  24.2484600
  57.8434305  39.6685256  23.5788298  57.4975977  39.1390276  24.7957606
  58.0241411  39.2725247  24.2307823  63.7901383  48.5879342  17.1073886
  63.7052678  49.4440309  17.2523454  64.2785766  48.3123666  17.7756045
  63.8490280  48.6736663  17.2275967  65.3807383  35.2059635  22.4934210
  65.0660824  35.8963114  22.9254633  64.8634324  35.1504417  21.7919711
  65.2571853  35.2994524  22.4531159  64.7219816  45.2064136  18.6071621
  64.1931288  45.4223770  19.2668927  65.2444836  45.9000275  18.5272590
  64.7208269  45.3407273  18.6927220  70.1767869  50.7810441  23.9804665
  69.3465572  50.9921084  24.1438082  70.1277122  49.9547495  23.7046949
  70.0474605  50.6900047  23.9642031  56.6119424  49.1027353  17.4079089
  56.0276639  49.6077384  17.8144953  56.2089519  48.8769740  16.6675681
  56.4658728  49.1435601  17.3584114  52.1663453  54.8182114  24.2102760
  51.6831031  55.5432604  24.1862344  52.9786771  55.1158244  24.3212918
  52.2154201  54.9684468  24.2230039  58.2377607  53.6114295  26.8152575
  57.7204549  53.2521710  26.2113883  58.9351998  53.0876469  26.8258641
  58.2643188  53.4811983  26.7282833  61.8941199  54.0609109  32.7768748
  61.9824545  53.8735249  33.6246958  62.3230911  53.4146538  32.3773595
  61.9703301  53.9372116  32.8440499  59.4611659  53.3440269  31.7586410
  58.8982493  52.9312879  32.2826071  60.2232682  53.2693174  32.1779553
  59.4906107  53.2717669  31.8979410  61.0696639  45.3493005  15.8848009
  61.3092642  45.5570989  15.0723352  61.3912480  44.5450514  15.9936954
  61.1533797  45.2607106  15.7808562  55.0207650  55.3338290  24.3623040
  55.7228229  54.8190279  24.4195797  54.9405133  55.6612441  25.1669915
  55.1131411  55.3052516  24.4895832  69.6721828  43.4280841  27.7755087
  68.8350249  43.4983028  28.0102681  69.6410059  43.4305336  26.9029389
  69.5440110  43.4391068  27.6814635  56.0686557  45.5713877  33.4903455
  56.2407060  45.4619771  34.3388737  56.6055914  46.2168282  33.2534647
  56.1731561  45.6505879  33.5808552  54.7343994  39.6856720  16.4285660
  54.5519567  39.9028601  15.6026653  55.5969607  39.7995732  16.4844275
  54.8348583  39.7346618  16.3140147  54.3458426  51.5244642  23.8708648
  55.1847325  51.7567575  23.9182410  54.3770195  50.6548953  23.8015684
  54.4740143  51.4301588  23.8673293  54.9711129  51.9445517  28.1721954
  55.5109354  51.8016648  28.8425326  54.2881075  52.3442268  28.5405980
  54.9503282  51.9825188  28.3256375  60.4143713  36.6883130  19.4634684
  61.1429873  36.5099085  19.0172840  60.5038606  37.5301210  19.6741862
  60.5350375  36.7867009  19.4288202  64.3952013  47.6236518  23.3666978
  65.1509528  48.0568032  23.4055887  64.5014338  46.9741287  23.9401614
  64.5222184  47.5914002  23.4565004  67.4332185  51.4509795  24.1169381
  66.9967416  51.4546537  24.8728352  67.0995100  52.1315294  23.6848958
  67.3194805  51.5522251  24.1650214  62.0061258  53.4918128  35.4412531
  62.7901675  53.6048976  35.8068273  61.8057853  52.6659265  35.6371217
  62.0927284  53.3864847  35.5246917  67.3529667  38.4923623  26.3598809
  67.9955576  38.5621727  26.9460724  67.6052688  37.8252846  25.8578351
  67.4851800  38.4049971  26.3726088  54.2806021  42.9630892  14.9408133
  53.5664198  42.6769072  15.3530566  54.7649989  43.3027518  15.5814521
  54.2465384  42.9712542  15.0963768  62.1631652  55.4028230  29.0878987
  61.3646897  55.1627730  29.3452856  62.6117663  55.4542623  29.8346035
  62.1106263  55.3750621  29.2363911  70.5676531  48.1690715  23.0089018
  71.2292965  47.6081383  22.9084927  69.9267943  47.6742746  23.3341709
  70.5705398  48.0127124  23.0421358  61.4553339  51.4660846  15.3169941
  61.8704487  51.1345870  14.6254437  60.6245268  51.2329749  15.1890078
  61.3941347  51.3832102  15.1960789  66.8541361  49.1856097  22.7501007
  67.0896951  49.3301296  21.9227858  67.0030925  49.9498505  23.1432521
  66.9107165  49.3195152  22.6864611  68.6831818  48.0257763  20.5870611
  69.0140035  48.5585403  19.9810706  69.2564906  48.0796651  21.2432562
  68.8165497  48.1127332  20.5948393  61.2232388  49.1488675  36.9799175
  60.4305369  49.4632187  37.1651795  61.3381315  49.3640143  36.1419960
  61.1227799  49.2272511  36.8837510  63.8963707  45.8722666  21.2694191
  63.9910562  46.6111960  21.7233816  63.2722551  45.4440141  21.7028755
  63.8172737  45.9183987  21.4002338  62.1516181  49.0508879  31.9184472
  62.7255043  48.4136123  32.0733036  62.0730985  49.0512961  31.0494129
  62.2249416  48.9573990  31.8130883  64.1486729  47.7171406  14.5031143
  64.0666891  47.7873593  15.3686130  64.7866449  48.2801150  14.3114884
  64.2306566  47.8110377  14.6021092  57.5079900  47.4832144  23.9705669
  57.2499144  46.6503879  23.9436969  57.5628383  47.7089757  23.1298170
  57.4779678  47.3929915  23.8425806  62.5880950  39.5860594  24.0709762
  61.8837277  39.0969780  24.2293681  62.6365924  39.5983069  23.1998206
  62.4911002  39.5150242  23.9649102  56.4814612  45.0369906  24.4570564
  55.9064203  45.1962075  25.0934525  56.1050288  44.4005315  23.9939015
  56.3417424  44.9667719  24.4825122  60.1487901  43.5093255  29.3162942
  59.7602333  43.0847473  28.6615134  59.4842599  43.7575405  29.8239969
  59.9934828  43.4831977  29.2950810  69.7911170  43.2668260  22.0910772
  69.5347735  42.4548202  21.9008655  70.6340484  43.2745827  21.8640960
  69.8777195  43.1480258  22.0295590  63.9714262  37.2067884  26.8286927
  64.3524774  36.5246055  27.2154801  63.1677546  36.9177486  26.6462591
  63.9090724  37.0634933  26.8590983  61.2526839  47.7391860  17.5139749
  62.0667478  48.0306753  17.4022521  61.1885980  47.0851722  16.9398042
  61.3629578  47.6857055  17.4128587  67.4736329  50.4217856  31.9269325
  67.2374966  49.5905921  31.8081386  68.1179558  50.3703463  32.5124169
  67.5331000  50.2915544  31.9955219  57.1234747  51.2113377  22.6412061
  57.7608694  50.9725125  23.1863855  57.5489819  51.4150536  21.9065222
  57.2810913  51.2064388  22.6129219  51.8147390  53.4501714  26.5246365
  51.8551535  53.7216565  25.6966145  52.3741914  53.9743622  26.9404153
  51.9030735  53.5677469  26.4638253  57.7637562  46.4315667  16.9786951
  58.1482715  46.2123374  17.7303496  57.5149182  47.2578613  17.1088027
  57.7839635  46.5213813  17.1088027  68.4972750  50.2062305  27.9897620
  68.1918567  50.9390362  28.3510935  67.7778965  49.8000234  27.7090406
  68.3460092  50.2544038  28.0010757  59.5056219  51.6885800  24.3205848
  59.5795227  51.5260972  25.1747698  60.3225725  51.8775990  24.0766329
  59.6372578  51.6922542  24.4103873  74.1974542  46.8455306  27.3165964
  74.1299042  46.8651265  26.4468550  74.1830204  47.6885633  27.5421634
  74.1853298  46.9729040  27.2218441  53.2661976  52.0343663  21.3500291
  52.4400093  52.2805400  21.2234570  53.3273967  51.9555744  22.2162349
  53.1536143  52.0588612  21.4589236  64.6070888  38.2490463  30.6407053
  65.3524480  38.0600274  30.2270479  64.1908193  38.7748701  30.0820910
  64.6555863  38.2992609  30.4971626  71.9833159  45.6199692  25.5912558
  72.5341081  44.9867761  25.8309650  71.9677274  46.1515085  26.2828062
  72.0618355  45.6048640  25.7291416  58.6355550  49.4538289  30.1372452
  58.1367244  50.1654057  30.2157340  59.4455774  49.7738956  30.0990614
  58.6811657  49.6065138  30.1429020  55.9866720  56.6287926  22.1179471
  55.7667016  56.3385280  22.9106138  55.7661242  55.9702881  21.5897383
  55.9214315  56.4887634  22.1568380  54.8983668  48.7161242  24.3835173
  54.6096916  48.0898713  24.9180900  55.7667016  48.6581529  24.4499853
  54.9843919  48.6148786  24.4726127  65.6861565  43.8596025  24.7017154
  65.3426331  43.1386361  25.0524404  65.7854608  43.6509877  23.8595513
  65.6503608  43.7220229  24.6288834  58.1534676  58.0017315  20.9010163
  58.8058734  57.4693758  21.1301189  57.4560285  57.6485968  21.2878037
  58.1465394  57.8706838  20.9922331  55.1015941  50.3556493  20.3077538
  55.8561909  50.7369532  20.5213000  54.5086554  50.8067637  20.7624234
  55.1252655  50.4785320  20.4060416  66.1474594  50.3221730  20.2441143
  66.7132627  50.9814939  20.1599685  65.5002498  50.6671428  20.7157545
  66.1353351  50.4703671  20.3013899  56.4214168  51.5265054  25.6817653
  55.8994921  51.6665346  26.3669518  56.8088188  50.7675719  25.8719770
  56.4017868  51.4350578  25.8118729  62.6181173  53.2660514  19.6678222
  62.3767848  52.5328374  19.2605287  62.7982505  53.8147371  19.0144555
  62.6088796  53.2382905  19.5108445  57.8480493  48.5569074  21.0799144
  57.6523276  49.1643808  20.4859447  58.0714839  47.8637018  20.5990818
  57.8515134  48.5446599  20.9215225  56.2459023  45.4423811  21.1980012
  56.9681675  45.6064970  20.7383818  55.7667016  46.1633476  21.0919352
  56.2822754  45.5722041  21.1145626  64.2052531  41.7787610  26.5776697
  63.3663631  41.8048889  26.3414961  64.2756898  42.4258346  27.1582044
  64.0920924  41.8783736  26.6285814  53.8966640  47.8481884  30.3034152
  54.4087737  48.1266137  29.6542912  53.6102982  48.5871178  30.6696965
  53.9301503  47.9984238  30.2624030  62.6521809  38.6772987  21.3104313
  63.3548162  38.4780736  20.8324271  62.3865998  37.9048930  21.6173157
  62.7168441  38.5335953  21.2849755  68.0810055  46.9855597  23.8637939
  67.9944029  47.1411023  24.7172718  67.6260535  47.6293673  23.4897344
  68.0013311  47.1031352  23.9345046  57.4150365  39.9408272  30.3635194
  57.2233562  39.9563407  31.2134617  58.2648961  40.1371947  30.3401849
  57.5126087  39.9722624  30.4858489  61.9535871  44.3066344  22.4863499
  61.7070585  44.2262095  23.3200287  62.2820994  43.5219812  22.2926026
  61.9657114  44.1792609  22.5811022  65.8483919  51.0149703  26.2750280
  65.7098279  51.7130749  26.7799022  65.0683917  50.8598360  25.9186462
  65.7127146  51.0949870  26.2976554  64.1862005  47.3146079  32.5272661
  64.1810043  46.4425895  32.5315088  64.8922998  47.5134248  32.0542117
  64.2907009  47.2149953  32.4579697  60.0852815  46.2413231  29.6811613
  59.3376129  46.4344245  29.2759891  60.2394341  45.4158451  29.4435735
  59.9975243  46.1478342  29.5857019  56.9860653  55.2325834  28.7647508
  57.1350217  54.6728750  28.1120913  57.7660655  55.3117836  29.1480027
  57.1234747  55.1611400  28.7244458  67.3437292  50.3727957  17.0366779
  66.9644101  49.5865095  17.0296068  66.6803538  50.9214814  16.8938423
  67.1895767  50.3372781  17.0147576  59.5113954  55.4040477  30.0431999
  59.4357625  54.7349288  30.5982788  59.4403813  56.1058266  30.5572666
  59.4894560  55.4085385  30.2008847  60.3254592  40.1363782  30.5707017
  60.7827206  40.8687756  30.6979809  60.4010921  39.7130247  31.3294273
  60.4045562  40.1821020  30.7008093  64.7981918  33.3153657  24.4400860
  64.9165486  33.7730120  23.7068163  64.6244094  32.5098918  24.1537077
  64.7901089  33.2647429  24.2901794  60.1684200  53.9241476  20.8755605
  60.9334092  53.6551120  20.5538270  60.0662290  53.4391487  21.5925668
  60.2665696  53.8131041  20.9335433  58.2036970  42.1265886  27.4148841
  57.4133045  41.9457346  27.7366177  58.5997593  41.3492838  27.3979135
  58.1453846  41.9853347  27.4601389  62.6902861  50.9553660  12.8555555
  63.4575846  51.0153785  12.4461406  62.2434170  50.3834101  12.3711873
  62.7376288  50.8790236  12.7233265  63.5880657  49.7608316  25.1408287
  62.9125658  49.5293548  25.6421674  63.5973033  49.1529499  24.5150392
  63.4899161  49.6367241  25.1224439  60.7174801  44.6026145  31.8972340
  60.6533942  45.4636101  31.7692477  60.8571988  44.2858138  31.0967891
  60.7290271  44.6826311  31.7600553  65.5897391  52.6173448  17.3718465
  65.6717229  53.4240434  17.0479916  66.0747133  52.6369407  18.0959238
  65.6734549  52.7394111  17.4305363  59.3993894  47.2958284  26.0388543
  58.9756144  47.4962783  25.3027561  59.2238750  46.4487132  26.1512843
  59.3104775  47.2007066  25.9462233  58.9005588  58.8108797  28.5010000
  59.3901518  58.1119586  28.3185665  58.3289820  58.5132667  29.0886057
  58.8890118  58.6635021  28.5611041  54.6876339  47.7910336  21.4716515
  54.8440959  47.7257138  22.3272507  55.0276932  48.5658888  21.2595195
  54.7609574  47.8959534  21.5671109  61.2255484  47.1668219  20.3409879
  61.7671029  46.6638600  20.8048499  61.5402043  47.1133414  19.5299364
  61.3519881  47.0847640  20.2893691  65.0972591  51.3770867  37.4536791
  65.9107457  51.1056015  37.6141923  64.9367558  51.0778406  36.6496987
  65.1942540  51.2925793  37.3582197  59.3941934  52.5585571  17.6249907
  59.4634754  51.7000109  17.7642907  60.1730389  52.7757452  17.2968931
  59.5194784  52.4638435  17.5967064  62.3744753  42.0604524  30.3932179
  62.5886723  41.4215438  29.8395533  61.7578653  42.5050348  29.9640041
  62.3150083  42.0314667  30.2482610  63.7849421  54.9823272  21.8386400
  63.3929213  54.6789987  21.1209266  63.9402494  55.8192362  21.6491354
  63.7503011  55.0607109  21.7042897  64.5383841  43.6693589  31.3315486
  63.7260523  43.3619479  31.4128659  64.9973776  43.1892589  31.8958198
  64.4864226  43.5530081  31.4270080  63.9489096  51.5473261  21.7792430
  63.5903751  51.7187904  22.5556463  63.4627807  52.0086466  21.2220429
  63.8247793  51.6412232  21.8117700  61.7659482  35.1704459  25.3819522
  60.8953040  35.1443180  25.3352831  62.0199823  34.9981652  24.5645367
  61.6753042  35.1414603  25.2539659  58.7377461  47.2272426  14.3192665
  59.0269986  48.0037309  14.5936239  58.8249260  46.7161158  15.0207164
  58.7931718  47.2664345  14.4635163  61.6337349  45.0753660  36.1144188
  62.1036980  45.6995777  36.5012063  61.6799229  44.4070636  36.6737403
  61.7105225  45.0688341  36.2544260  58.7908623  37.1810688  26.8392992
  58.2747111  36.4890879  26.9644571  58.2302551  37.8481465  26.7855591
  58.6315136  37.1773945  26.8499058  60.8600856  37.7203648  28.6685845
  60.4732609  37.7452679  29.4499375  60.3733793  37.1545326  28.2160361
  60.7313365  37.6399399  28.7173748  65.1093835  52.4377157  32.7259631
  65.7473556  51.9437352  32.3922087  64.4667927  52.3654557  32.1411858
  65.1088062  52.3536165  32.5901986  66.8350835  44.2866303  27.2925547
  66.4078444  44.1992651  26.5373646  66.1976888  44.3944078  27.8780391
  66.6780443  44.2898963  27.2670988  60.5257998  34.6070633  30.9596105
  61.1551116  35.1430933  30.6817175  60.6943860  34.5147992  31.8109670
  60.6435792  34.6731996  31.0444633  65.1648092  53.1296965  29.3664988
  65.9540470  52.7786030  29.4867070  65.3391690  53.9433353  29.1041622
  65.3068374  53.1982822  29.3452856  54.9041402  46.5405691  26.4192777
  54.0629409  46.4409565  26.6271671  55.1131410  47.3101171  26.7707098
  54.8106095  46.6397734  26.5020092  64.0181916  37.1406522  23.9281406
  64.2231510  37.0728830  24.7738404  63.6908340  37.9465343  23.8602584
  63.9997164  37.2492462  24.0441062  58.7158067  44.4687090  25.6690374
  58.4121205  43.9143078  26.2700782  58.0137488  44.6479300  25.1818409
  58.5674277  44.4131872  25.6860080  57.7724164  41.7787610  20.2335076
  58.0483899  41.0606522  19.8212644  58.3722834  42.3772530  20.0256182
  57.9017429  41.7607981  20.1415837  56.7776418  51.6836811  30.3762472
  56.6696773  51.6938873  31.2424530  56.9872200  52.5091591  30.1867426
  56.7926529  51.8077886  30.4766564  67.2715604  37.6938286  23.4084172
  66.6589917  38.1808688  23.7937904  67.3679779  37.0181777  23.9521823
  67.1953502  37.6656595  23.5463030  61.2734685  39.4501127  18.5081671
  61.7278431  39.6211688  19.2329516  61.7474731  38.8369238  18.1079447
  61.4103005  39.3852012  18.5555433  54.7950210  48.9349453  27.8384410
  54.2038144  49.5758951  27.8087425  55.5571234  49.3587070  27.8115709
  54.8198471  49.0925292  27.8299557  55.1910833  40.0951451  28.5052427
  55.6512315  40.1690380  29.2427551  55.2366940  40.8932705  28.1552249
  55.2661388  40.2245598  28.5625184  56.8394183  40.7618146  33.0724455
  56.4479748  40.1151493  33.5080232  57.0080046  41.3529581  33.6918710
  56.8065093  40.7532414  33.2287161  70.9140632  48.7655223  28.8361688
  70.9723756  49.2141872  29.5821665  70.2807099  49.1754036  28.3991768
  70.8291927  48.8928957  28.8814236  64.5539727  54.3858765  25.2716434
  64.3559415  54.8749579  24.5772646  63.9327438  54.5900006  25.8500568
  64.4327291  54.4875303  25.2539658  58.6147705  46.1543662  19.6126679
  59.3589750  46.5417938  19.8509628  58.7608401  45.3101087  19.7767166
  58.7458290  46.0874134  19.6720648  60.5327280  37.9493920  24.6458540
  59.6863325  38.1216728  24.5199890  60.5298413  37.1443264  24.9824368
  60.4074430  37.8554949  24.6769667  61.6025581  41.7269135  25.5120598
  61.1285535  41.2010897  26.0225909  61.9743717  41.1798608  24.9435459
  61.5875470  41.5685131  25.5035745  67.8662311  46.7871511  26.9227378
  67.6260534  45.9477926  26.9269805  68.3454318  46.8671677  27.6468152
  67.9014495  46.6752910  27.0302181  63.5309080  42.6205689  18.5746352
  63.0032099  42.7034433  17.8852061  63.9904789  43.3623561  18.5710996
  63.5210931  42.7426352  18.4721047  69.8667498  43.5672968  24.8756637
  69.6277268  43.5268802  24.0377422  70.0301400  44.4144120  25.0022359
  69.8557802  43.6865053  24.7710119  66.4713528  47.9522917  30.8061683
  67.1947727  47.4995443  30.6272703  66.2063491  48.2327583  30.0234010
  66.5394802  47.9273886  30.6640398  55.3400397  42.5483091  27.5414562
  54.7153467  42.5601483  26.9340515  55.0045992  43.0243266  28.1905802
  55.1985889  42.6201608  27.5471130  55.5242146  40.8908209  13.5987247
  55.1754950  41.5427934  14.0618796  55.0438591  40.8765322  12.8711118
  55.4012389  40.9851263  13.5598338  52.0526072  50.6083551  28.9818326
  51.5225997  49.9175990  29.0313301  52.3251166  50.5993736  28.1531035
  52.0150795  50.5050682  28.8665742  63.0846163  51.1909253  17.7056009
  63.8080362  51.6567366  17.5620582  62.6446754  51.2582863  16.9553606
  63.1261855  51.2693090  17.5740790  62.2532318  48.0506795  28.9556698
  61.6389311  47.5064846  29.2505333  62.7699603  47.5371032  28.4762514
  62.2387980  47.8943204  28.9280926  61.4928615  49.1211065  26.6900996
  61.0656223  48.4960784  26.2566432  61.4853560  48.8385987  27.5160004
  61.4287756  48.9863846  26.7480824  54.6091142  44.1576238  29.7589430
  54.7684629  43.4019562  30.1641152  54.4284036  44.7067178  30.4130168
  54.6056501  44.1270052  29.9152136  62.5511445  36.3237474  30.3140220
  62.0552006  36.5201148  29.6231787  63.3080507  36.7230142  30.1429021
  62.5898270  36.4115208  30.1860357  59.8214325  39.9979820  26.9043530
  59.8456812  39.4639932  26.2156310  60.0725798  39.4897129  27.5669121
  59.8624243  39.8440724  26.9008175  56.1015647  38.7250638  26.2849275
  56.1414019  39.2259845  26.9983982  55.2765312  38.8161032  26.0155198
  55.9855173  38.8132454  26.3499813  58.2845260  48.2911378  34.3869569
  57.4340890  48.4283092  34.5227214  58.4473388  47.5575156  34.8317271
  58.1829123  48.2025479  34.4725168  57.5230010  45.2411148  28.5823174
  56.6921940  45.4084966  28.3758422  57.4681528  44.8647099  29.3672059
  57.3919425  45.2100879  28.6671702  55.8966054  43.5166739  19.1113291
  56.0369015  44.0139204  19.8141933  56.3948587  42.8153034  19.2527505
  55.9907135  43.4868718  19.2364870  55.9266277  44.3833850  16.4405868
  56.5611356  44.9794275  16.3755330  56.0091887  44.0837308  17.2551738
  56.0322828  44.4274759  16.5508955  68.9048842  46.9149328  29.3092232
  69.4966683  47.5546579  29.3410430  69.3407837  46.2172365  29.5984299
  69.0567274  46.9067678  29.3573065  57.5045259  40.3147826  16.4151310
  57.8261101  39.8350908  15.7610573  57.7672203  41.1247472  16.2242122
  57.5911285  40.3637724  16.2906802  60.7342232  51.3366700  29.9350126
  60.2267323  51.8902547  30.3790757  60.4368878  51.3974990  29.1168901
  60.6147117  51.4273011  29.8798583  62.9004414  39.7020020  28.7774789
  63.3259486  39.2492546  28.1658316  62.2861408  39.1480091  29.0539577
  62.8733060  39.5533996  28.7279815  52.4319265  46.5801691  19.7095414
  52.9411494  47.1766199  20.0906720  52.9053537  46.3127665  19.0271834
  52.5762640  46.6287507  19.6649937  63.3450013  55.2529958  17.8654070
  62.6279322  55.0790820  17.4001307  63.9956750  55.0182530  17.3329556
  63.3351863  55.1925750  17.7183288  61.3398637  36.1735120  22.1865366
  60.6966955  36.0232766  22.7550505  60.9998044  35.9277465  21.4214471
  61.1943715  36.1147242  22.1568381  65.9297984  44.1294546  21.6095375
  65.2589174  44.6724249  21.4808440  66.6237734  44.5989402  21.3677070
  65.9326851  44.2792818  21.5550903  59.9784718  56.2691258  26.8407133
  59.7550372  55.5110088  27.2091160  59.4894561  56.2989280  26.1187573
  59.8728167  56.1613483  26.7883874  66.0926111  40.5850430  24.5185748
  66.4453721  40.1580153  25.1931547  65.2340913  40.5001274  24.6486824
  66.0175556  40.5095171  24.6380759  54.7909796  43.2157950  22.5768595
  54.0721785  43.6322082  22.8441458  55.1622159  43.7812189  22.0260233
  54.7401728  43.3607231  22.5351402  64.0909377  43.8485799  28.4670590
  64.0707304  43.6669094  29.3205369  64.1388578  44.7197817  28.4430174
  64.0944018  43.9502337  28.5893885  62.0355707  50.4372991  34.3919067
  61.9951562  49.7922668  33.8064223  62.8479025  50.3809608  34.7044479
  62.1498860  50.3331958  34.3516016  58.6263174  56.4891717  24.2944218
  58.2123573  55.8265847  23.9048059  59.3110549  56.6369575  23.7739912
  58.6661546  56.4132375  24.1600715  61.9928469  55.6481802  25.0467834
  61.5944752  55.7584072  24.2788655  61.3779688  55.8563868  25.6294394
  61.8427358  55.6955370  25.0199134  60.5656371  42.2555950  17.9141974
  59.9721210  42.5772946  17.3626541  60.6031648  41.4097045  17.7063080
  60.4830760  42.1780278  17.8024745  67.5250171  35.7068842  25.4470061
  67.0181036  34.9997981  25.3791238  68.3217605  35.3762031  25.5771137
  67.5677411  35.5541993  25.4569056  63.4414187  42.2135454  21.3443724
  63.2127880  42.2368156  20.5022083  63.7012263  41.3892921  21.4638735
  63.4460375  42.0951534  21.2368922  57.7233416  44.0669927  30.9468825
  57.2112319  43.4591110  31.3053856  57.5512912  44.7826520  31.4142800
  57.6223053  44.0833227  31.0685048  56.4958950  40.7512000  22.6397920
  56.9716316  41.1129080  22.0048101  55.9947549  41.4068468  22.9198063
  56.4924309  40.9006189  22.5874661  69.7270311  50.2233769  18.4310925
  70.1103917  50.9725125  18.6609022  68.9314425  50.4699588  18.1722914
  69.6664094  50.3703462  18.4268499  59.3185603  45.0761825  34.3523087
  60.0696930  45.3913502  34.6662641  59.5108180  44.8740996  33.5257009
  59.4577017  45.0929207  34.2766483  58.5385603  42.8953200  16.0071304
  58.9184568  42.9132829  15.2222419  57.7978199  43.3407189  15.8862151
  58.4854441  42.9634975  15.8734872  66.1670893  41.2035391  21.5946883
  66.1665120  41.0484048  22.4531159  65.9627073  42.0498379  21.5388268
  66.1370671  41.3056012  21.7134822  63.8911745  45.8832893  25.2483090
  64.3865411  45.1655888  25.2087110  63.0811521  45.5803691  25.1337576
  63.8455639  45.7330540  25.2256815  59.3370357  49.7330707  17.3980094
  58.5281680  49.4097380  17.3513403  59.8445266  49.0263929  17.3308343
  59.2920024  49.5812023  17.3810388  65.9563564  48.6336581  27.9360218
  66.3818636  48.1111003  27.3830643  65.5920484  49.2317418  27.4148841
  65.9650167  48.6446808  27.7769228  55.5917644  56.9300798  26.6957564
  55.9064203  57.7437187  26.7035346  56.0011057  56.5451017  27.3639723
  55.6985742  56.9929501  26.7961655  62.5442164  52.3470845  24.2661376
  63.0153342  53.0611108  24.4351361  62.8802342  51.7469595  24.8021245
  62.6637279  52.3642309  24.3693752  64.6319148  53.9572158  36.4453448
  64.7416114  53.1680719  36.8010195  64.9610045  53.8678095  35.6427786
  64.6971554  53.8278011  36.3795839  59.4611659  37.1198316  31.2219471
  59.5939564  36.3229309  31.5500446  59.8456811  37.6464719  31.8017746
  59.5367988  37.0798232  31.3562973  63.1816110  52.1388779  31.0289068
  62.6337056  51.5146663  30.7609134  63.6429139  52.3283051  30.3133148
  63.1683320  52.0747829  30.8839499  62.5344014  34.0428642  27.8200564
  61.7289978  33.9326371  28.1368402  62.4050749  34.1441097  26.9630430
  62.3964147  34.0412312  27.7408604  65.9909974  40.2074134  28.4140261
  65.4072963  40.7083340  28.0017828  66.3114268  39.7003690  27.7804584
  65.9523150  40.2065969  28.2598768  58.5304774  39.1214728  18.6898935
  59.3520468  39.2913041  18.4480630  58.0674424  39.2761989  17.9665233
  58.5835936  39.1696461  18.5470580  57.1200105  37.1157491  29.4697364
  57.6644518  36.7748617  30.0601706  57.1737041  37.9742952  29.6118649
  57.2089225  37.1912750  29.5779238  52.9330664  50.8773907  26.3436172
  53.5375522  50.8369741  25.7149993  52.7257977  51.7245059  26.3740228
  52.9919562  50.9961909  26.2552289  62.7474436  53.1439852  27.5598410
  63.5672810  53.0002818  27.8214705  62.4668514  53.7686051  28.1014847
  62.8271180  53.2150204  27.6786349  48.1681947  49.8608524  26.2135095
  48.0706225  49.0504796  26.5225152  48.9510816  49.8400318  25.8281363
  48.2698083  49.7375614  26.2021958  72.4187772  59.8880355  25.2794216
  71.5625667  60.0488853  25.3303333  72.4655425  59.0172419  25.2999277
  72.2986883  59.7831156  25.2900282  68.3813667  69.4361465  23.3094220
  68.4824030  68.6261819  23.6191348  67.7855413  69.3418411  22.6793899
  68.3086206  69.3026493  23.2620459  61.5778712  65.4581751  22.9346554
  61.3428896  64.6249404  22.8278823  61.7164353  65.7386417  22.1207755
  61.5634374  65.3765255  22.7988909  63.8768799  57.6267482  25.8330862
  63.2573831  57.0360129  25.6640877  63.7752663  58.2178917  25.1995185
  63.7706475  57.6271564  25.7135851  70.9736695  59.3667024  20.1663325
  71.6716860  59.5455151  20.6584788  71.2889027  58.8437363  19.5433714
  71.1232032  59.3160796  20.1465335  63.6037932  61.1719763  28.0774431
  63.4796629  61.7582209  28.7124250  64.2556217  60.6779959  28.3786706
  63.6811582  61.1858568  28.2160360  68.6296273  64.3481480  27.3561942
  69.2745276  63.8553924  27.0372890  68.8698050  64.4906267  28.1828020
  68.7606858  64.2958923  27.4311475  71.1682365  67.1936386  27.0068834
  71.4505607  66.3987792  26.7855590  71.8968525  67.6716974  27.0273895
  71.3171928  67.1470983  26.9771850  69.1463558  54.7359420  24.2484600
  68.8166888  55.1870564  23.5788298  68.4708560  54.6575584  24.7957606
  68.9973995  54.7910555  24.2307823  63.1396036  70.3367422  24.2102760
  62.6563615  71.0617912  24.1862344  63.9519355  70.6343552  24.3212918
  63.1886784  70.4869776  24.2230039  69.2110191  69.1299603  26.8152575
  68.6937132  68.7707018  26.2113883  69.9084582  68.6061777  26.8258641
  69.2375772  68.9997291  26.7282833  70.4344242  68.8625577  31.7586410
  69.8715077  68.4498187  32.2826071  71.1965266  68.7878482  32.1779553
  70.4638691  68.7902977  31.8979410  67.3519513  52.7971709  19.7307547
  68.1065481  53.1650026  19.4924597  67.1747047  53.1711263  20.4986727
  67.4373991  52.9069897  19.8092436  65.9940234  70.8523598  24.3623040
  66.6960813  70.3375587  24.4195797  65.9137717  71.1797749  25.1669915
  66.0863994  70.8237824  24.4895832  67.0419140  61.0899185  33.4903455
  67.2139644  60.9805079  34.3388737  67.5788498  61.7353590  33.2534647
  67.1464144  61.1691186  33.5808552  65.7076577  55.2042028  16.4285660
  65.5252150  55.4213908  15.6026653  66.5702190  55.3181040  16.4844275
  65.8081167  55.2531926  16.3140147  65.3191009  67.0429950  23.8708648
  66.1579909  67.2752883  23.9182410  65.3502778  66.1734261  23.8015684
  65.4472727  66.9486896  23.8673293  65.9443712  67.4630825  28.1721954
  66.4841937  67.3201956  28.8425326  65.2613658  67.8627576  28.5405980
  65.9235866  67.5010496  28.3256375  71.3876296  52.2068438  19.4634684
  72.1162457  52.0284393  19.0172840  71.4771189  53.0486518  19.6741862
  71.5082958  52.3052317  19.4288202  75.3684597  63.1421826  23.3666978
  76.1242112  63.5753340  23.4055887  75.4746921  62.4926595  23.9401614
  75.4954768  63.1099310  23.4565004  61.3480857  63.6831116  28.3256375
  61.0819272  62.8670233  28.4847365  61.3619421  63.7284271  27.4551891
  61.3105580  63.5688021  28.2209857  65.2538604  58.4816200  14.9408133
  64.5396781  58.1954380  15.3530566  65.7382573  58.8212826  15.5814521
  65.2197968  58.4897850  15.0963768  66.0979464  57.2209494  30.9723383
  65.4051260  56.7506474  31.2184114  66.7139791  56.9947799  31.5465090
  66.0863994  57.1176626  31.0932535  61.7574271  64.4689895  25.6068119
  61.5749844  64.4436781  24.7540412  62.4923940  64.9388833  25.6457028
  61.8388335  64.5351257  25.4866038  64.8220023  61.1874898  32.1150228
  65.5459995  61.1727929  32.6015123  64.9236159  61.8970253  31.6172196
  64.9438232  61.2899601  32.1129015  72.1964972  64.6673983  36.9799175
  71.4037953  64.9817495  37.1651795  72.3113899  64.8825451  36.1419960
  72.0960382  64.7457819  36.8837510  74.8696291  61.3907974  21.2694191
  74.9643145  62.1297268  21.7233816  74.2455134  60.9625449  21.7028755
  74.7905321  61.4369294  21.4002338  73.1248765  64.5694186  31.9184472
  73.6987626  63.9321431  32.0733036  73.0463568  64.5698269  31.0494129
  73.1982000  64.4759298  31.8130883  61.7245181  61.3483396  25.7567186
  62.3018684  61.2119847  26.3959431  61.0259243  60.8919180  26.0112770
  61.7066203  61.2605662  25.8889476  68.4812483  63.0017452  23.9705669
  68.2231728  62.1689186  23.9436969  68.5360966  63.2275065  23.1298170
  68.4512261  62.9115223  23.8425806  73.5613534  55.1045902  24.0709762
  72.8569860  54.6155088  24.2293681  73.6098508  55.1168377  23.1998206
  73.4643585  55.0335550  23.9649102  67.4547196  60.5555214  24.4570564
  66.8796787  60.7147382  25.0934525  67.0782872  59.9190623  23.9939015
  67.3150008  60.4853027  24.4825122  71.1220484  59.0278563  29.3162942
  70.7334917  58.6032781  28.6615134  70.4575183  59.2760713  29.8239969
  70.9667412  59.0017284  29.2950810  57.2004014  60.1995289  22.4715005
  57.2864266  59.8227157  23.2528535  57.8279812  59.8255734  21.9934963
  57.3060565  60.0880771  22.5160482  74.9446846  52.7253192  26.8286927
  75.3257357  52.0431363  27.2154801  74.1410130  52.4362794  26.6462591
  74.8823307  52.5820241  26.8590983  68.0967331  66.7298685  22.6412061
  68.7341278  66.4910433  23.1863855  68.5222402  66.9335844  21.9065222
  68.2543497  66.7249696  22.6129219  62.7879973  68.9687022  26.5246365
  62.8284118  69.2401873  25.6966145  63.3474497  69.4928930  26.9404153
  62.8763319  69.0862777  26.4638253  68.9038686  55.2307390  36.6949535
  68.5892127  56.0006953  36.4319098  68.5828619  54.6677646  36.1101762
  68.8097605  55.2617659  36.5690885  70.4788803  67.2071108  24.3205848
  70.5527811  67.0446280  25.1747698  71.2958309  67.3961298  24.0766329
  70.6105161  67.2107850  24.4103873  64.2394559  67.5528971  21.3500291
  63.4132677  67.7990708  21.2234570  64.3006551  67.4741052  22.2162349
  64.1268726  67.5773920  21.4589236  66.4570583  53.6197912  22.3095731
  65.5893009  53.6920511  22.3753341  66.7445787  54.4219991  22.4983706
  66.3710331  53.7492059  22.3470498  69.6088134  64.9723597  30.1372452
  69.1099827  65.6839365  30.2157340  70.4188358  65.2924264  30.0990614
  69.6544240  65.1250446  30.1429020  65.8716251  64.2346550  24.3835173
  65.5829500  63.6084021  24.9180900  66.7399599  64.1766837  24.4499853
  65.9576503  64.1334094  24.4726127  66.0748524  65.8741801  20.3077538
  66.8294492  66.2554840  20.5213000  65.4819137  66.3252945  20.7624234
  66.0985238  65.9970628  20.4060416  68.5355192  57.8304641  35.4334750
  67.7254967  58.1362421  35.3224592  69.0129878  58.5510224  35.5487334
  68.4858670  57.9819243  35.4341821  67.3946751  67.0450362  25.6817653
  66.8727505  67.1850654  26.3669518  67.7820771  66.2861027  25.8719770
  67.3750452  66.9535886  25.8118729  64.3837935  57.0956171  19.7512608
  64.0962731  56.7257442  19.0144555  65.0708403  57.5651026  19.4896313
  64.4426832  57.1103140  19.6027683  68.8213077  64.0754381  21.0799144
  68.6255859  64.6829116  20.4859447  69.0447422  63.3822325  20.5990818
  68.8247718  64.0631907  20.9215225  67.2191607  60.9609119  21.1980012
  67.9414259  61.1250277  20.7383818  66.7399600  61.6818784  21.0919352
  67.2555337  61.0907349  21.1145626  75.1785114  57.2972918  26.5776697
  74.3396215  57.3234197  26.3414961  75.2489482  57.9443654  27.1582044
  75.0653508  57.3969044  26.6285814  64.8699223  63.3667192  30.3034152
  65.3820320  63.6451445  29.6542912  64.5835566  64.1056486  30.6696965
  64.9034087  63.5169545  30.2624030  73.6254393  54.1958295  21.3104313
  74.3280745  53.9966043  20.8324271  73.3598581  53.4234238  21.6173157
  73.6901025  54.0521261  21.2849755  61.9566130  57.8737384  20.5997889
  62.0582266  58.6763545  20.9278864  62.7522017  57.6724720  20.3020969
  62.0894035  57.9623282  20.6033244  68.3882949  55.4593580  30.3635194
  68.1966146  55.4748715  31.2134617  69.2381545  55.6557255  30.3401849
  68.4858671  55.4907932  30.4858489  62.7729862  57.9884562  28.3419010
  62.6315354  57.1368502  28.4663518  63.0570425  58.0313222  27.5181216
  62.7937708  57.8684312  28.2386634  72.9268454  59.8251652  22.4863499
  72.6803169  59.7447403  23.3200287  73.2553577  59.0405120  22.2926026
  72.9389698  59.6977917  22.5811022  75.1594588  62.8331387  32.5272661
  75.1542627  61.9611203  32.5315088  75.8655582  63.0319556  32.0542117
  75.2639592  62.7335261  32.4579697  68.8865482  62.5608371  31.8986482
  69.0308857  63.1409579  31.2629592  69.2341130  62.9384667  32.6036336
  68.9592943  62.7029075  31.9085477  71.0585399  61.7598539  29.6811613
  70.3108713  61.9529553  29.2759891  71.2126924  60.9343759  29.4435735
  70.9707826  61.6663650  29.5857019  71.2987176  55.6549090  30.5707017
  71.7559790  56.3873064  30.6979809  71.3743505  55.2315555  31.3294273
  71.3778146  55.7006328  30.7008093  63.5420167  55.9014909  31.6596461
  63.0062357  55.2895268  31.9757228  63.6037932  56.4763045  32.3130127
  63.4715800  55.8961837  31.8031887  75.7714502  48.8338965  24.4400860
  75.8898070  49.2915428  23.7068163  75.5976678  48.0284226  24.1537077
  75.7633673  48.7832737  24.2901794  69.1769554  57.6451194  27.4148841
  68.3865629  57.4642654  27.7366177  69.5730177  56.8678146  27.3979135
  69.1186430  57.5038655  27.4601389  74.5613240  65.2793624  25.1408287
  73.8858242  65.0478856  25.6421674  74.5705616  64.6714807  24.5150392
  74.4631745  65.1552549  25.1224439  71.6907384  60.1211453  31.8972340
  71.6266525  60.9821409  31.7692477  71.8304572  59.8043446  31.0967891
  71.7022854  60.2011619  31.7600553  70.3726478  62.8143592  26.0388543
  69.9488727  63.0148091  25.3027561  70.1971333  61.9672440  26.1512843
  70.2837359  62.7192374  25.9462233  65.6608923  63.3095644  21.4716515
  65.8173542  63.2442446  22.3272507  66.0009516  64.0844196  21.2595195
  65.7342158  63.4144842  21.5671109  73.3477337  57.5789832  30.3932179
  73.5619307  56.9400746  29.8395533  72.7311236  58.0235655  29.9640041
  73.2882666  57.5499975  30.2482610  62.2343184  60.4930594  21.7877282
  62.6142149  60.9115139  21.1237550  61.6598549  61.0744050  22.0946126
  62.2054509  60.6408453  21.7354023  75.5116425  59.1878897  31.3315486
  74.6993107  58.8804787  31.4128659  75.9706360  58.7077897  31.8958198
  75.4596810  59.0715389  31.4270080  72.7392066  50.6889767  25.3819522
  71.8685624  50.6628488  25.3352831  72.9932407  50.5166959  24.5645367
  72.6485626  50.6599911  25.2539659  72.6069932  60.5938968  36.1144188
  73.0769564  61.2181085  36.5012063  72.6531813  59.9255944  36.6737403
  72.6837808  60.5873649  36.2544260  69.7641206  52.6995996  26.8392992
  69.2479695  52.0076187  26.9644571  69.2035135  53.3666773  26.7855591
  69.6047719  52.6959253  26.8499058  71.8333440  53.2388956  28.6685845
  71.4465193  53.2637987  29.4499375  71.3466377  52.6730634  28.2160361
  71.7045948  53.1584707  28.7173748  71.4990581  50.1255941  30.9596105
  72.1283699  50.6616241  30.6817175  71.6676444  50.0333300  31.8109670
  71.6168376  50.1917303  31.0444633  71.3004496  54.9127136  33.2322516
  72.1277925  54.6412285  33.2881131  71.3212342  55.7087978  33.5886334
  71.4257346  54.9906890  33.2937699  65.8773986  62.0590999  26.4192777
  65.0361993  61.9594873  26.6271671  66.0863994  62.8286479  26.7707098
  65.7838679  62.1583042  26.5020092  63.3549553  59.6810536  24.2477528
  62.9606251  59.7553547  23.4727637  62.7989670  60.0668482  24.7985889
  63.2152365  59.7492310  24.2145187  74.9914500  52.6591830  23.9281406
  75.1964093  52.5914138  24.7738404  74.6640924  53.4650651  23.8602584
  74.9729748  52.7677770  24.0441062  69.6890651  59.9872398  25.6690374
  69.3853788  59.4328386  26.2700782  68.9870072  60.1664608  25.1818409
  69.5406861  59.9317180  25.6860080  68.7456748  57.2972918  20.2335076
  69.0216482  56.5791830  19.8212644  69.3455417  57.8957838  20.0256182
  68.8750013  57.2793288  20.1415837  67.7509002  67.2022119  30.3762472
  67.6429357  67.2124181  31.2424530  67.9604783  68.0276899  30.1867426
  67.7659113  67.3263193  30.4766564  72.2467268  54.9686435  18.5081671
  72.7011015  55.1396995  19.2329516  72.7207314  54.3554546  18.1079447
  72.3835589  54.9037320  18.5555433  65.7682794  64.4534761  27.8384410
  65.1770727  65.0944259  27.8087425  66.5303817  64.8772378  27.8115709
  65.7931054  64.6110599  27.8299557  66.1643417  55.6136759  28.5052427
  66.6244898  55.6875688  29.2427551  66.2099523  56.4118013  28.1552249
  66.2393972  55.7430906  28.5625184  67.8126766  56.2803454  33.0724455
  67.4212332  55.6336801  33.5080232  67.9812629  56.8714889  33.6918710
  67.7797677  56.2717722  33.2287161  69.5880288  61.6728969  19.6126679
  70.3322333  62.0603246  19.8509628  69.7340985  60.8286395  19.7767166
  69.7190874  61.6059442  19.6720648  71.5059864  53.4679228  24.6458540
  70.6595909  53.6402036  24.5199890  71.5030996  52.6628572  24.9824368
  71.3807014  53.3740257  24.6769667  72.5758164  57.2454443  25.5120598
  72.1018119  56.7196205  26.0225909  72.9476300  56.6983916  24.9435459
  72.5608053  57.0870439  25.5035745  62.9531194  59.2425949  30.8804144
  63.8156807  59.1421659  30.7941473  62.6222977  58.6620659  30.3189716
  63.0316391  59.1417576  30.7849550  66.3132980  58.0668398  27.5414562
  65.6886051  58.0786790  26.9340515  65.9778575  58.5428574  28.1905802
  66.1718472  58.1386915  27.5471130  63.0258656  66.1268859  28.9818326
  62.4958580  65.4361297  29.0313301  63.2983749  66.1179044  28.1531035
  62.9883378  66.0235990  28.8665742  73.2264902  63.5692103  28.9556698
  72.6121895  63.0250153  29.2505333  73.7432186  63.0556340  28.4762514
  73.2120564  63.4128512  28.9280926  72.4661199  64.6396373  26.6900996
  72.0388807  64.0146092  26.2566432  72.4586143  64.3571295  27.5160004
  72.4020340  64.5049154  26.7480824  65.5823726  59.6761546  29.7589430
  65.7417213  58.9204870  30.1641152  65.4016619  60.2252486  30.4130168
  65.5789085  59.6455360  29.9152136  73.5244029  51.8422782  30.3140220
  73.0284590  52.0386456  29.6231787  74.2813091  52.2415450  30.1429021
  73.5630853  51.9300516  30.1860357  70.7946908  55.5165128  26.9043530
  70.8189396  54.9825240  26.2156310  71.0458382  55.0082437  27.5669121
  70.8356827  55.3626032  26.9008175  58.3054498  62.7996623  26.3386674
  58.1997947  62.7543467  25.4738758  57.5554718  63.1450403  26.6200959
  58.1790101  62.8437531  26.2524004  67.0748231  54.2435946  26.2849275
  67.1146602  54.7445153  26.9983982  66.2497895  54.3346340  26.0155198
  66.9587757  54.3317762  26.3499813  69.2577844  63.8096686  34.3869569
  68.4073474  63.9468400  34.5227214  69.4205971  63.0760464  34.8317271
  69.1561707  63.7210787  34.4725168  68.4962594  60.7596456  28.5823174
  67.6654524  60.9270274  28.3758422  68.4414111  60.3832407  29.3672059
  68.3652009  60.7286187  28.6671702  66.3046377  54.2505349  34.2179584
  66.9299081  53.7067482  34.4909017  65.8496857  53.7700266  33.6487375
  66.3294638  54.0994830  34.1741178  66.8698638  59.0352047  19.1113291
  67.0101599  59.5324512  19.8141933  67.3681171  58.3338342  19.2527505
  66.9639719  59.0054026  19.2364870  68.4777843  55.8333134  16.4151310
  68.7993684  55.3536216  15.7610573  68.7404787  56.6432780  16.2242122
  68.5643868  55.8823032  16.2906802  71.7074816  66.8552008  29.9350126
  71.1999907  67.4087855  30.3790757  71.4101462  66.9160298  29.1168901
  71.5879701  66.9458319  29.8798583  73.8736998  55.2205328  28.7774789
  74.2992070  54.7677854  28.1658316  73.2593991  54.6665398  29.0539577
  73.8465643  55.0719304  28.7279815  63.4051848  62.0986999  19.7095414
  63.9144077  62.6951507  20.0906720  63.8786120  61.8312973  19.0271834
  63.5495224  62.1472815  19.6649937  72.3131221  51.6920428  22.1865366
  71.6699539  51.5418074  22.7550505  71.9730628  51.4462773  21.4214471
  72.1676298  51.6332550  22.1568381  65.7642380  58.7343258  22.5768595
  65.0454369  59.1507390  22.8441458  66.1354742  59.2997496  22.0260233
  65.7134312  58.8792539  22.5351402  75.0641961  59.3671107  28.4670590
  75.0439888  59.1854402  29.3205369  75.1121161  60.2383125  28.4430174
  75.0676602  59.4687645  28.5893885  73.0088290  65.9558299  34.3919067
  72.9684145  65.3107976  33.8064223  73.8211609  65.8994916  34.7044479
  73.1231444  65.8517265  34.3516016  71.5388954  57.7741258  17.9141974
  70.9453793  58.0958254  17.3626541  71.5764232  56.9282353  17.7063080
  71.4563343  57.6965586  17.8024745  74.4146771  57.7320762  21.3443724
  74.1860464  57.7553464  20.5022083  74.6744847  56.9078229  21.4638735
  74.4192959  57.6136842  21.2368922  68.6965999  59.5855235  30.9468825
  68.1844902  58.9776418  31.3053856  68.5245495  60.3011828  31.4142800
  68.5955636  59.6018534  31.0685048  63.5431714  58.0292810  33.5971186
  63.3734304  58.6894185  33.0519393  63.0997664  58.2399372  34.3183675
  63.4531048  58.1578793  33.6232816  67.4691533  56.2697308  22.6397920
  67.9448900  56.6314388  22.0048101  66.9680133  56.9253776  22.9198063
  67.4656892  56.4191497  22.5874661  72.5735070  57.5079480  33.3871080
  73.1306500  57.2793289  32.7549546  72.2496135  58.2685145  33.1106292
  72.6081480  57.5863316  33.2527577  60.4433778  60.9339676  28.8559676
  59.8960498  60.2640322  28.9740544  61.2326157  60.5669524  28.9203143
  60.4785962  60.7804662  28.8828377  70.2918187  60.5947133  34.3523087
  71.0429514  60.9098810  34.6662641  70.4840763  60.3926304  33.5257009
  70.4309601  60.6114515  34.2766483  59.2020748  60.1460484  26.0105699
  59.0242509  59.6937093  26.7360615  58.9139770  60.9486645  26.1944177
  59.1333701  60.1983042  26.1449202  74.8644329  61.4018201  25.2483090
  75.3597994  60.6841196  25.2087110  74.0544105  61.0988999  25.1337576
  74.8188222  61.2515847  25.2256815  60.9393218  62.6788208  23.1227458
  60.0738737  62.6673898  23.0110229  61.0392034  62.4918430  23.9698598
  60.8267385  62.6494269  23.2316403  70.4344242  52.6383624  31.2219471
  70.5672148  51.8414617  31.5500446  70.8189395  53.1650027  31.8017746
  70.5100571  52.5983540  31.3562973  73.5076597  49.5613950  27.8200564
  72.7022561  49.4511679  28.1368402  73.3783333  49.6626405  26.9630430
  73.3696730  49.5597620  27.7408604  69.5037357  54.6400036  18.6898935
  70.3253051  54.8098349  18.4480630  69.0407008  54.7947297  17.9665233
  69.5568519  54.6881769  18.5470580  68.0932689  52.6342799  29.4697364
  68.6377102  52.2933925  30.0601706  68.1469625  53.4928260  29.6118649
  68.1821808  52.7098058  29.5779238  63.9063248  66.3959215  26.3436172
  64.5108105  66.3555049  25.7149993  63.6990560  67.2430367  26.3740228
  63.9652145  66.5147217  26.2552289  59.1414530  65.3793832  26.2135095
  59.0438808  64.5690104  26.5225152  59.9243400  65.3585626  25.8281363
  59.2430667  65.2560922  26.2021958  39.6426856  -0.0383376  19.7108795
  39.7310202  -0.2257235  20.5587005  40.0716568  -0.6845946  19.3113641
  39.7188958  -0.1620368  19.7780546  37.2097315  -0.7552216  18.6926457
  36.6468150  -1.1679606  19.2166118  37.9718339  -0.8299310  19.1119600
  37.2391764  -0.8274815  18.8319457  39.9117308   1.3035745  16.0219034
  39.1132554   1.0635245  16.2792902  40.3603320   1.3550138  16.7686081
  39.8591920   1.2758136  16.1703958  37.2599610   1.3047993  16.9772046
  37.1843281   0.6356803  17.5322834  37.1889469   2.0065781  17.4912712
  37.2380217   1.3092900  17.1348894  36.6491245   4.7116312  15.4350047
  37.1387175   4.0127102  15.2525712  36.0775477   4.4140182  16.0226104
  36.6375775   4.5642536  15.4951088  34.5262075  -2.4155674  17.3102519
  34.4182430  -2.4053612  18.1764577  34.7357857  -1.5900894  17.1207473
  34.5412186  -2.2914599  17.4106611  50.1673428   5.7887870  12.2134263
  49.3111324   5.9496368  12.2643380  50.2141082   4.9179934  12.2339324
  50.0472540   5.6838672  12.2240329  44.5514568  15.3250588   7.9771495
  43.7997468  14.9466126   7.7487540  45.0000580  15.3569021   7.2290305
  44.5064235  15.2736195   7.8328997  53.4767145  12.0574396  21.8194719
  54.1833912  11.5626426  21.9481654  53.6655080  12.4983477  21.0897377
  53.6095051  12.0492746  21.7303765  50.0039528  15.7475957   3.4057042
  49.6690896  16.4252879   2.9701264  50.5166398  15.3581269   2.8173913
  50.0305109  15.7900535   3.2543833  49.5443819  17.6990226   9.3468153
  49.9283199  18.2677125   8.8072929  49.4802961  16.9739736   8.8673969
  49.5917246  17.6765689   9.1962016  53.0125249   7.8479914  14.8565915
  53.5581209   8.5265000  14.9159884  52.9542126   7.7067375  13.9967496
  53.0841164   7.9271916  14.7377975  46.1299324  15.3368980  10.2434267
  46.2309687  14.5269334  10.5531395  45.5341070  15.2425926   9.6133946
  46.0571863  15.2034008  10.1960506  45.9700064  20.2546569  11.6449123
  46.6137519  20.6959733  12.0345282  46.2956319  19.4499995  11.5579382
  46.1131893  20.2011764  11.6894601  39.3264369  11.3589266   9.8686601
  39.0914553  10.5256919   9.7618870  39.4650009  11.6393932   9.0547802
  39.3120031  11.2772770   9.7328956  41.6254456   3.5274997  12.7670909
  41.0059488   2.9367644  12.5980923  41.5238320   4.1186432  12.1335232
  41.5192132   3.5279080  12.6475898  46.6720644  13.2658544   7.0168985
  46.9936485  13.8063751   6.4130293  47.3192740  12.6955315   7.1491275
  46.8146699  13.2617719   6.9476020  41.3523589   7.0727279  15.0114478
  41.2282286   7.6589724  15.6464296  42.0041874   6.5787475  15.3126753
  41.4297238   7.0866083  15.1500407  48.9110287  11.6544984   7.0883163
  49.3503923  11.0462084   7.5337936  48.7614950  11.2752357   6.3168628
  48.9531753  11.5083455   7.0402331  46.3781930  10.2488996  14.2901989
  47.0230933   9.7561439  13.9712937  46.6183707  10.3913782  15.1168067
  46.5092515  10.1966438  14.3651522  48.9168021  13.0943902  13.9408881
  49.1991264  12.2995307  13.7195637  49.6454182  13.5724489  13.9613942
  49.0657585  13.0478499  13.9111896  58.8986110  12.2003264  10.9144712
  58.0683813  12.4113907  11.0778129  58.8495362  11.3740318  10.6386996
  58.7692845  12.1092870  10.8982077  40.8881693  16.2374937  11.1442807
  40.4049271  16.9625427  11.1202391  41.7005012  16.5351067  11.2552965
  40.9372441  16.3877291  11.1570086  46.9595847  15.0307118  13.7492622
  46.4422789  14.6714533  13.1453930  47.6570239  14.5069292  13.7598688
  46.9861428  14.9004806  13.6622880  50.6159439  15.4801932  19.7108795
  50.7042785  15.2928072  20.5587005  51.0449152  14.8339362  19.3113641
  50.6921542  15.3564940  19.7780546  48.1829899  14.7633092  18.6926457
  47.6200734  14.3505702  19.2166118  48.9450923  14.6885998  19.1119600
  48.2124348  14.6910493  18.8319457  43.7425891  16.7531113  11.2963087
  44.4446470  16.2383102  11.3535843  43.6623374  17.0805265  12.1009962
  43.8349651  16.7245339  11.4235879  44.7904797   6.9906700  20.4243502
  44.9625301   6.8812595  21.2728783  45.3274155   7.6361106  20.1874694
  44.8949801   7.0698702  20.5148599  43.0676666  12.9437465  10.8048695
  43.9065565  13.1760398  10.8522457  43.0988435  12.0741777  10.7355730
  43.1958384  12.8494412  10.8013340  43.6929369  13.3638340  15.1062000
  44.2327594  13.2209471  15.7765373  43.0099315  13.7635091  15.4746027
  43.6721523  13.4018011  15.2596422  53.1170254   9.0429341  10.3007025
  53.8727769   9.4760855  10.3395934  53.2232578   8.3934111  10.8741661
  53.2440424   9.0106825  10.3905050  56.1550425  12.8702618  11.0509428
  55.7185657  12.8739361  11.8068399  55.8213340  13.5508117  10.6189005
  56.0413045  12.9715074  11.0990260  50.7279499  14.9110951  22.3752578
  51.5119915  15.0241799  22.7408320  50.5276093  14.0852088  22.5711264
  50.8145524  14.8057670  22.4586964  39.0966514   9.5838631  15.2596422
  38.8304929   8.7677748  15.4187412  39.1105078   9.6291787  14.3891938
  39.0591236   9.4695536  15.1549904  43.8465120   3.1217009  17.9063430
  43.1536917   2.6513989  18.1524161  44.4625448   2.8955314  18.4805137
  43.8349650   3.0184141  18.0272582  50.8849892  16.8221053  16.0219034
  50.0865138  16.5820553  16.2792902  51.3335903  16.8735446  16.7686081
  50.8324503  16.7943444  16.1703958  39.5059928  10.3697411  12.5408166
  39.3235501  10.3444297  11.6880458  40.2409597  10.8396348  12.5797075
  39.5873992  10.4358773  12.4206085  55.5759602  10.6048921   9.6841054
  55.8115191  10.7494119   8.8567904  55.7249166  11.3691329  10.0772567
  55.6325405  10.7387975   9.6204658  42.5705679   7.0882413  19.0490275
  43.2945652   7.0735444  19.5355170  42.6721816   7.7977769  18.5512243
  42.6923888   7.1907117  19.0469062  49.9450629  10.5681498  23.9139222
  49.1523610  10.8825010  24.0991842  50.0599556  10.7832966  23.0760007
  49.8446039  10.6465335  23.8177557  52.6181948   7.2915489   8.2034238
  52.7128802   8.0304783   8.6573863  51.9940791   6.8632965   8.6368802
  52.5390978   7.3376810   8.3342385  50.8734422  10.4701702  18.8524519
  51.4473283   9.8328946  19.0073083  50.7949225  10.4705784  17.9834176
  50.9467656  10.3766813  18.7470930  39.4730838   7.2490911  12.6907233
  40.0504341   7.1127362  13.3299478  38.7744900   6.7926695  12.9452817
  39.4551859   7.1613177  12.8229523  46.2298140   8.9024967  10.9045716
  45.9717384   8.0696702  10.8777016  46.2846623   9.1282580  10.0638216
  46.1997918   8.8122738  10.7765853  45.2032852   6.4562729  11.3910611
  44.6282444   6.6154898  12.0274572  44.8268529   5.8198138  10.9279061
  45.0635665   6.3860542  11.4165169  48.8706141   4.9286079  16.2502989
  48.4820574   4.5040296  15.5955180  48.2060839   5.1768228  16.7580016
  48.7153069   4.9024800  16.2290857  56.1954569  11.8410679  18.8609372
  55.9593207  11.0098744  18.7421432  56.8397798  11.7896287  19.4464216
  56.2549240  11.7108367  18.9295265  45.8452987  12.6306201   9.5752108
  46.4826934  12.3917948  10.1203902  46.2708059  12.8343360   8.8405269
  46.0029154  12.6257211   9.5469266  40.5365630  14.8694537  13.4586412
  40.5769775  15.1409388  12.6306192  41.0960154  15.3936445  13.8744200
  40.6248976  14.9870292  13.3978300  57.2190990  11.6255128  14.9237666
  56.9136807  12.3583185  15.2850982  56.4997206  11.2193058  14.6430452
  57.0678332  11.6736861  14.9350803  48.2274459  13.1078623  11.2545895
  48.3013468  12.9453795  12.1087744  49.0443966  13.2968813  11.0106376
  48.3590818  13.1115366  11.3443920  41.9880216  13.4536486   8.2840338
  41.1618334  13.6998223   8.1574617  42.0492207  13.3748567   9.1502396
  41.8754383  13.4781435   8.3929282  46.7679045  16.0713366   5.9859368
  47.0577344  15.6802348   5.2618595  47.4982526  16.2530071   6.4264643
  46.9185929  16.0407180   5.9442175  47.3573790  10.8731112  17.0712498
  46.8585484  11.5846880  17.1497387  48.1674015  11.1931779  17.0330661
  47.4029897  11.0257961  17.0769067  44.7084961  18.0480749   9.0519518
  44.4885256  17.7578104   9.8446185  44.4879483  17.3895704   8.5237430
  44.6432555  17.9080457   9.0908426  43.6201908  10.1354065  11.3175219
  43.3315157   9.5091537  11.8520947  44.4885256  10.0774353  11.3839900
  43.7062160  10.0341610  11.4066174  54.4079806   5.2788849  11.6357201
  54.0644572   4.5579184  11.9864451  54.5072848   5.0702700  10.7935559
  54.3721849   5.1413052  11.5628881  46.8752916  19.4210139   7.8350210
  47.5276974  18.8886581   8.0641236  46.1778525  19.0678791   8.2218084
  46.8683634  19.2899662   7.9262378  43.8234181  11.7749316   7.2417584
  44.5780149  12.1562355   7.4553047  43.2304794  12.2260460   7.6964281
  43.8470895  11.8978144   7.3400463  54.8692835  11.7414553   7.1781189
  55.4350867  12.4007763   7.0939732  54.2220738  12.0864251   7.6497591
  54.8571591  11.8896494   7.2353946  46.2840848   3.7312157  22.3674797
  45.4740624   4.0369936  22.2564639  46.7615535   4.4517739  22.4827381
  46.2344327   3.8826758  22.3681868  45.1432408  12.9457878  12.6157700
  44.6213161  13.0858169  13.3009564  45.5306428  12.1868542  12.8059817
  45.1236109  12.8543402  12.7458776  51.3399413  14.6853337   6.6018269
  51.0986089  13.9521198   6.1945333  51.5200746  15.2340194   5.9484602
  51.3307037  14.6575728   6.4448491  46.5698734   9.9761897   8.0139191
  46.3741516  10.5836631   7.4199494  46.7933079   9.2829841   7.5330865
  46.5733375   9.9639422   7.8555272  44.9677264   6.8616635   8.1320059
  45.6899915   7.0257793   7.6723865  44.4885256   7.5826299   8.0259399
  45.0040994   6.9914864   8.0485673  42.6184880   9.2674707  17.2374199
  43.1305977   9.5458960  16.5882959  42.3321223  10.0064001  17.6037012
  42.6519743   9.4177061  17.1964077  56.8028295   8.4048420  10.7977986
  56.7162269   8.5603846  11.6512765  56.3478775   9.0486496  10.4237391
  56.7231552   8.5224175  10.8685093  46.1368606   1.3601096  17.2975241
  45.9451803   1.3756230  18.1474664  46.9867202   1.5564770  17.2741895
  46.2344328   1.3915447  17.4198535  40.5215519   3.8892077  15.2759057
  40.3801010   3.0376018  15.4003565  40.8056082   3.9320738  14.4521263
  40.5423365   3.7691827  15.1726681  50.6754111   5.7259167   9.4203545
  50.4288825   5.6454918  10.2540334  51.0039234   4.9412635   9.2266073
  50.6875355   5.5985433   9.5151068  54.5702160  12.4342527  13.2090327
  54.4316519  13.1323572  13.7139069  53.7902158  12.2791183  12.8526508
  54.4345387  12.5142693  13.2316601  52.9080245   8.7338902  19.4612708
  52.9028283   7.8618719  19.4655135  53.6141239   8.9327071  18.9882164
  53.0125249   8.6342776  19.3919744  46.6351138   8.4615886  18.8326528
  46.7794514   9.0417094  18.1969638  46.9826787   8.8392183  19.5376383
  46.7078600   8.6036590  18.8425523  48.8071056   7.6606054  16.6151660
  48.0594370   7.8537069  16.2099938  48.9612581   6.8351274  16.3775781
  48.7193483   7.5671166  16.5197066  45.7078893  16.6518658  15.6987555
  45.8568457  16.0921574  15.0460960  46.4878895  16.7310659  16.0820074
  45.8452987  16.5804223  15.6584504  48.2332194  16.8233301  16.9772046
  48.1575865  16.1542111  17.5322834  48.1622053  17.5251089  17.4912712
  48.2112801  16.8278208  17.1348894  41.2905824   1.8022425  18.5936507
  40.7548013   1.1902783  18.9097275  41.3523589   2.3770561  19.2470174
  41.2201457   1.7969352  18.7371934  48.8902441  15.3434299   7.8095652
  49.6552332  15.0743943   7.4878316  48.7880531  14.8584310   8.5265715
  48.9883936  15.2323864   7.8675480  46.9255211   3.5458709  14.3488888
  46.1351285   3.3650169  14.6706224  47.3215833   2.7685661  14.3319182
  46.8672087   3.4046170  14.3941436  52.3098897  11.1801139  12.0748334
  51.6343899  10.9486371  12.5761721  52.3191273  10.5722322  11.4490439
  52.2117401  11.0560064  12.0564486  49.4393041   6.0218968  18.8312387
  49.3752182   6.8828925  18.7032523  49.5790229   5.7050961  18.0307938
  49.4508511   6.1019135  18.6940600  54.3115631  14.0366271   4.3058512
  54.3935469  14.8433258   3.9819963  54.7965374  14.0562231   5.0299285
  54.3952789  14.1586934   4.3645410  48.1212135   8.7151107  12.9728590
  47.6974384   8.9155606  12.2367608  47.9456990   7.8679955  13.0852889
  48.0323015   8.6199889  12.8802280  47.6223828  20.2301620  15.4350047
  48.1119759  19.5312410  15.2525712  47.0508061  19.9325490  16.0226104
  47.6108358  20.0827844  15.4951088  43.4094580   9.2103159   8.4056562
  43.5659199   9.1449962   9.2612554  43.7495173   9.9851711   8.1935242
  43.4827815   9.3152357   8.5011156  49.9473724   8.5861042   7.2749925
  50.4889270   8.0831424   7.7388546  50.2620283   8.5326237   6.4639411
  50.0738121   8.5040463   7.2233737  53.8190832  12.7963690  24.3876838
  54.6325697  12.5248839  24.5481970  53.6585798  12.4971230  23.5837033
  53.9160780  12.7118616  24.2922243  48.1160174  13.9778394   4.5589953
  48.1852994  13.1192932   4.6982954  48.8948629  14.1950275   4.2308978
  48.2413024  13.8831258   4.5307111  51.0962994   3.4797347  17.3272226
  51.3104963   2.8408261  16.7735580  50.4796893   3.9243171  16.8980088
  51.0368323   3.4507491  17.1822657  52.5067662  16.4016095   8.7726447
  52.1147453  16.0982810   8.0549313  52.6620734  17.2385185   8.5831400
  52.4721251  16.4799932   8.6382944  53.2602082   5.0886412  18.2655533
  52.4478763   4.7812302  18.3468706  53.7192016   4.6085412  18.8298245
  53.2082466   4.9722904  18.3610127  52.6707336  12.9666084   8.7132477
  52.3121991  13.1380727   9.4896510  52.1846047  13.4279290   8.1560476
  52.5466033  13.0605055   8.7457746  50.3555589   6.4946484  23.0484235
  50.8255220   7.1188600  23.4352109  50.4017469   5.8263459  23.6077450
  50.4323465   6.4881164  23.1884307  53.8312076  13.8569980  19.6599678
  54.4691796  13.3630176  19.3262134  53.1886167  13.7847381  19.0751905
  53.8306302  13.7728989  19.5242033  55.5569076   5.7059126  14.2265594
  55.1296684   5.6185475  13.4713693  54.9195129   5.8136902  14.8120438
  55.3998683   5.7091786  14.2011035  53.8866332  14.5489788  16.3005035
  54.6758711  14.1978853  16.4207117  54.0609930  15.3626177  16.0381669
  54.0286614  14.6175645  16.2792903  43.6259643   7.9598514  13.3532824
  42.7847649   7.8602388  13.5611718  43.8349651   8.7293994  13.7047144
  43.5324335   8.0590557  13.4360139  41.1035210   5.5818051  11.1817574
  40.7091907   5.6561063  10.4067684  40.5475327   5.9675997  11.7325936
  40.9638022   5.6499826  11.1485234  47.4376308   5.8879913  12.6030421
  47.1339445   5.3335902  13.2040829  46.7355728   6.0672123  12.1158455
  47.2892517   5.8324696  12.6200127  45.4994659  13.1029634  17.3102519
  45.3915014  13.1131696  18.1764577  45.7090440  13.9284414  17.1207473
  45.5144770  13.2270709  17.4106611  43.5168451  10.3542276  14.7724457
  42.9256384  10.9951775  14.7427472  44.2789474  10.7779894  14.7455756
  43.5416711  10.5118115  14.7639604  43.9129073   1.5144274  15.4392474
  44.3730555   1.5883204  16.1767598  43.9585180   2.3125528  15.0892296
  43.9879629   1.6438421  15.4965231  45.5612423   2.1810969  20.0064501
  45.1697988   1.5344316  20.4420279  45.7298286   2.7722404  20.6258757
  45.5283334   2.1725237  20.1627207  59.6358872  10.1848046  15.7701735
  59.6941996  10.6334695  16.5161711  59.0025340  10.5946859  15.3331815
  59.5510167  10.3121781  15.8154283  53.2757967  15.8051588  12.2056481
  53.0777656  16.2942402  11.5112692  52.6545678  16.0092829  12.7840614
  53.1545531  15.9068126  12.1879704  47.3365945   7.5736485   6.5466725
  48.0807990   7.9610761   6.7849675  47.4826641   6.7293910   6.7107213
  47.4676530   7.5066958   6.6060695  40.7016851   5.1433465  17.8144190
  41.5642464   5.0429174  17.7281520  40.3708634   4.5628174  17.2529763
  40.7802048   5.0425092  17.7189596  56.5880552   8.2064334  13.8567425
  56.3478775   7.3670749  13.8609852  57.0672559   8.2864500  14.5808199
  56.6232735   8.0945733  13.9642228  55.1931769   9.3715740  17.7401729
  55.9165968   8.9188267  17.5612749  54.9281731   9.6520406  16.9574057
  55.2613042   9.3466709  17.5980445  44.0618637   3.9675914  14.4754609
  43.4371707   3.9794306  13.8680561  43.7264232   4.4436089  15.1245849
  43.9204129   4.0394431  14.4811177  40.7744313  12.0276374  15.9158373
  40.2444237  11.3368813  15.9653348  41.0469406  12.0186559  15.0871081
  40.7369035  11.9243506  15.8005789  51.8064403  12.6102076   4.6396056
  52.5298602  13.0760189   4.4960629  51.3664994  12.6775686   3.8893653
  51.8480095  12.6885913   4.5080837  50.9750558   9.4699618  15.8896745
  50.3607551   8.9257669  16.1845380  51.4917843   8.9563855  15.4102561
  50.9606221   9.3136028  15.8620973  43.3309383   5.5769062  16.6929477
  43.4902869   4.8212386  17.0981199  43.1502276   6.1260001  17.3470215
  43.3274742   5.5462875  16.8492183  36.0540155   8.7004138  13.2726721
  35.9483604   8.6550982  12.4078805  35.3040375   9.0457919  13.5541006
  35.9275758   8.7445046  13.1864051  47.0063500   9.7104201  21.3209616
  46.1559131   9.8475916  21.4567261  47.1691628   8.9767980  21.7657318
  46.9047364   9.6218302  21.4065215  46.2448251   6.6603971  15.5163220
  45.4140180   6.8277789  15.3098469  46.1899768   6.2839922  16.3012106
  46.1137666   6.6293702  15.6011749  57.6267083   8.3342151  16.2432279
  58.2184923   8.9739402  16.2750477  58.0626077   7.6365188  16.5324346
  57.7785514   8.3260501  16.2913112  49.4560473  12.7559523  16.8690173
  48.9485564  13.3095370  17.3130804  49.1587119  12.8167813  16.0508948
  49.3365358  12.8465835  16.8138630  52.0668253  16.6722781   4.7994117
  51.3497563  16.4983643   4.3341354  52.7174991  16.4375353   4.2669603
  52.0570103  16.6118574   4.6523335  48.7002958  17.6884082  13.7747180
  48.4768612  16.9302911  14.1431206  48.2112801  17.7182103  13.0527620
  48.5946407  17.5806306  13.7223921  43.5128037   4.6350773   9.5108641
  42.7940026   5.0514906   9.7781505  43.8840399   5.2005012   8.9600280
  43.4619968   4.7800054   9.4691448  52.8127617   5.2678622  15.4010637
  52.7925545   5.0861917  16.2545416  52.8606818   6.1390640  15.3770221
  52.8162258   5.3695160  15.5233932  50.7573947  11.8565814  21.3259114
  50.7169802  11.2115491  20.7404270  51.5697266  11.8002431  21.6384526
  50.8717101  11.7524781  21.2856063  47.3481415  17.9084540  11.2284265
  46.9341813  17.2458670  10.8388106  48.0328789  18.0562399  10.7079959
  47.3879787  17.8325198  11.0940762  50.7146709  17.0674625  11.9807881
  50.3162992  17.1776895  11.2128701  50.0997929  17.2756691  12.5634441
  50.5645598  17.1148193  11.9539181  46.4451656   5.4862750  17.8808871
  45.9330559   4.8783933  18.2393903  46.2731152   6.2019343  18.3482847
  46.3441293   5.5026050  18.0025095  41.2917371   3.9300326  20.5311233
  41.1219961   4.5901701  19.9859440  40.8483321   4.1406887  21.2523722
  41.2016704   4.0586308  20.5572863  50.3220726   3.4086995  20.3211127
  50.8792157   3.1800805  19.6889592  49.9981791   4.1692661  20.0446339
  50.3567137   3.4870832  20.1867624  38.1919435   6.8347191  15.7899723
  37.6446155   6.1647837  15.9080591  38.9811813   6.4677039  15.8543190
  38.2271619   6.6812178  15.8168424  48.0403844   6.4954648  21.2863134
  48.7915171   6.8106325  21.6002688  48.2326420   6.2933819  20.4597056
  48.1795258   6.5122030  21.2106530  36.9506405   6.0467999  12.9445746
  36.7728166   5.5944608  13.6700662  36.6625427   6.8494161  13.1284224
  36.8819358   6.0990557  13.0789249  52.6129986   7.3025716  12.1823136
  53.1083651   6.5848712  12.1427157  51.8029762   6.9996514  12.0677623
  52.5673879   7.1523363  12.1596862  48.0588597  11.1523530   4.3320141
  47.2499920  10.8290203   4.2853450  48.5663506  10.4456752   4.2648389
  48.0138264  11.0004846   4.3150435  38.6878875   8.5795723  10.0567505
  37.8224394   8.5681413   9.9450276  38.7877690   8.3925946  10.9038644
  38.5753042   8.5501784  10.1656450  54.6781805  10.0529404  14.8700265
  55.1036876   9.5303826  14.3170690  54.3138725  10.6510241  14.3488888
  54.6868407  10.0639631  14.7109275  44.3135884  18.3493622  13.6297611
  44.6282443  19.1630010  13.6375392  44.7229298  17.9643840  14.2979770
  44.4203982  18.4122324  13.7301702  51.2660404  13.7663668  11.2001423
  51.7371582  14.4803931  11.3691408  51.6020583  13.1662418  11.7361292
  51.3855519  13.7835133  11.3033798  53.3537389  15.3764982  23.3793495
  53.4634354  14.5873542  23.7350242  53.6828285  15.2870918  22.5767833
  53.4189795  15.2470835  23.3135885  51.9034350  13.5581602  17.9629115
  51.3555296  12.9339486  17.6949180  52.3647379  13.7475874  17.2473195
  51.8901560  13.4940653  17.8179546  41.6548905  12.2966730  13.2776219
  42.2593762  12.2562564  12.6490040  41.4476217  13.1437882  13.3080275
  41.7137802  12.4154732  13.1892336  51.4692677  14.5632675  14.4938456
  52.2891051  14.4195641  14.7554752  51.1886754  15.1878874  15.0354894
  51.5489420  14.6343027  14.6126396  36.8900187  11.2801347  13.1475142
  36.7924465  10.4697619  13.4565199  37.6729057  11.2593141  12.7621410
  36.9916323  11.1568438  13.1362005  61.1406012  21.3073178  12.2134263
  60.2843907  21.4681676  12.2643380  61.1873666  20.4365242  12.2339324
  61.0205123  21.2023980  12.2240329  55.5247152  30.8435896   7.9771495
  54.7730051  30.4651434   7.7487540  55.9733163  30.8754329   7.2290305
  55.4796818  30.7921503   7.8328997  64.4499728  27.5759703  21.8194719
  65.1566496  27.0811734  21.9481654  64.6387664  28.0168785  21.0897377
  64.5827634  27.5678054  21.7303765  60.9772112  31.2661265   3.4057042
  60.6423480  31.9438187   2.9701264  61.4898982  30.8766576   2.8173913
  61.0037693  31.3085843   3.2543833  60.5176403  33.2175534   9.3468153
  60.9015782  33.7862433   8.8072929  60.4535544  32.4925044   8.8673969
  60.5649830  33.1950997   9.1962016  63.9857833  23.3665222  14.8565915
  64.5313793  24.0450308  14.9159884  63.9274709  23.2252683  13.9967496
  64.0573747  23.4457223  14.7377975  57.1031908  30.8554288  10.2434267
  57.2042271  30.0454642  10.5531395  56.5073653  30.7611234   9.6133946
  57.0304446  30.7219316  10.1960506  56.9432647  35.7731877  11.6449123
  57.5870103  36.2145041  12.0345282  57.2688903  34.9685303  11.5579382
  57.0864476  35.7197072  11.6894601  50.2996952  26.8774574   9.8686601
  50.0647137  26.0442227   9.7618870  50.4382593  27.1579240   9.0547802
  50.2852615  26.7958078   9.7328956  52.5987040  19.0460305  12.7670909
  51.9792071  18.4552952  12.5980923  52.4970903  19.6371740  12.1335232
  52.4924715  19.0464388  12.6475898  57.6453227  28.7843852   7.0168985
  57.9669068  29.3249059   6.4130293  58.2925324  28.2140623   7.1491275
  57.7879282  28.7803027   6.9476020  59.6954935  20.7859847   7.1003372
  60.3935100  20.9647974   7.5924835  60.0107268  20.2630186   6.4773761
  59.8450272  20.7353619   7.0805382  52.3256173  22.5912587  15.0114478
  52.2014869  23.1775032  15.6464296  52.9774457  22.0972782  15.3126753
  52.4029822  22.6051391  15.1500407  59.8842871  27.1730292   7.0883163
  60.3236506  26.5647392   7.5337936  59.7347533  26.7937665   6.3168628
  59.9264336  27.0268763   7.0402331  57.3514514  25.7674304  14.2901989
  57.9963516  25.2746747  13.9712937  57.5916291  25.9099090  15.1168067
  57.4825099  25.7151746  14.3651522  59.8900605  28.6129210  13.9408881
  60.1723848  27.8180615  13.7195637  60.6186765  29.0909797  13.9613942
  60.0390169  28.5663806  13.9111896  57.8681799  16.1552243  11.1824646
  57.5385129  16.6063387  10.5128345  57.1926801  16.0768407  11.7297653
  57.7192235  16.2103379  11.1647870  69.8718693  27.7188572  10.9144712
  69.0416396  27.9299215  11.0778129  69.8227946  26.8925626  10.6386996
  69.7425429  27.6278178  10.8982077  56.3070248  26.0405484   4.3419136
  55.7227463  26.5455515   4.7484999  55.9040343  25.8147871   3.6015727
  56.1609552  26.0813732   4.2924161  51.8614277  31.7560245  11.1442807
  51.3781855  32.4810735  11.1202391  52.6737595  32.0536375  11.2552965
  51.9105025  31.9062599  11.1570086  57.9328431  30.5492426  13.7492622
  57.4155373  30.1899841  13.1453930  58.6302822  30.0254600  13.7598688
  57.9594012  30.4190114  13.6622880  61.5892023  30.9987240  19.7108795
  61.6775369  30.8113380  20.5587005  62.0181735  30.3524670  19.3113641
  61.6654125  30.8750248  19.7780546  59.1562483  30.2818400  18.6926457
  58.5933317  29.8691010  19.2166118  59.9183506  30.2071306  19.1119600
  59.1856931  30.2095800  18.8319457  56.0737753  14.2164532   6.6647594
  56.8283721  14.5842849   6.4264644  55.8965287  14.5904086   7.4326774
  56.1592231  14.3262720   6.7432483  54.7158474  32.2716421  11.2963087
  55.4179053  31.7568410  11.3535843  54.6355957  32.5990572  12.1009962
  54.8082235  32.2430647  11.4235879  69.3672652  20.3658972  14.7095133
  68.5301073  20.4361159  14.9442728  69.3360883  20.3683467  13.8369436
  69.2390934  20.3769199  14.6154681  55.7637381  22.5092008  20.4243502
  55.9357884  22.3997903  21.2728783  56.3006738  23.1546413  20.1874694
  55.8682385  22.5884010  20.5148599  54.4294818  16.6234851   3.3625707
  54.2470391  16.8406732   2.5366700  55.2920431  16.7373864   3.4184321
  54.5299407  16.6724749   3.2480194  54.0409249  28.4622773  10.8048695
  54.8798149  28.6945706  10.8522457  54.0721019  27.5927085  10.7355730
  54.1690967  28.3679720  10.8013340  54.6661953  28.8823648  15.1062000
  55.2060177  28.7394779  15.7765373  53.9831899  29.2820399  15.4746027
  54.6454106  28.9203319  15.2596422  64.0902837  24.5614649  10.3007025
  64.8460352  24.9946163  10.3395934  64.1965162  23.9119419  10.8741661
  64.2173008  24.5292133  10.3905050  67.1283008  28.3887926  11.0509428
  66.6918240  28.3924669  11.8068399  66.7945924  29.0693425  10.6189005
  67.0145628  28.4900382  11.0990260  61.7012082  30.4296259  22.3752578
  62.4852499  30.5427107  22.7408320  61.5008677  29.6037396  22.5711264
  61.7878108  30.3242978  22.4586964  50.0699098  25.1023939  15.2596422
  49.8037513  24.2863056  15.4187412  50.0837662  25.1477095  14.3891938
  50.0323820  24.9880844  15.1549904  53.9756845  19.9009024   1.8748180
  53.2615022  19.6147203   2.2870613  54.4600813  20.2405649   2.5154568
  53.9416208  19.9090673   2.0303815  54.8197704  18.6402317  17.9063430
  54.1269501  18.1699297  18.1524161  55.4358031  18.4140622  18.4805137
  54.8082234  18.5369449  18.0272582  61.8582475  32.3406361  16.0219034
  61.0597721  32.1005861  16.2792902  62.3068487  32.3920754  16.7686081
  61.8057087  32.3128752  16.1703958  61.1504162  28.4038977   2.2509988
  61.5655311  28.0724001   1.5594484  60.3196092  28.1707880   2.1230125
  61.0892171  28.3210233   2.1300836  50.4792511  25.8882719  12.5408166
  50.2968084  25.8629605  11.6880458  51.2142180  26.3581656  12.5797075
  50.5606575  25.9544081  12.4206085  66.5492185  26.1234228   9.6841054
  66.7847775  26.2679427   8.8567904  66.6981749  26.8876636  10.0772567
  66.6057989  26.2573283   9.6204658  53.5438263  22.6067721  19.0490275
  54.2678235  22.5920752  19.5355170  53.6454399  23.3163077  18.5512243
  53.6656472  22.7092425  19.0469062  60.9183212  26.0866806  23.9139222
  60.1256193  26.4010318  24.0991842  61.0332139  26.3018274  23.0760007
  60.8178623  26.1650643  23.8177557  63.5914531  22.8100797   8.2034238
  63.6861386  23.5490091   8.6573863  62.9673375  22.3818273   8.6368802
  63.5123561  22.8562118   8.3342385  61.8467005  25.9887010  18.8524519
  62.4205867  25.3514254  19.0073083  61.7681809  25.9891092  17.9834176
  61.9200240  25.8952121  18.7470930  50.4463422  22.7676219  12.6907233
  51.0236924  22.6312670  13.3299478  49.7477483  22.3112003  12.9452817
  50.4284443  22.6798485  12.8229523  57.2030724  24.4210275  10.9045716
  56.9449968  23.5882010  10.8777016  57.2579207  24.6467888  10.0638216
  57.1730502  24.3308046  10.7765853  62.2831774  16.5238726  11.0049809
  61.5788101  16.0347911  11.1633728  62.3316748  16.5361200  10.1338253
  62.1861825  16.4528374  10.8989149  56.1765436  21.9748037  11.3910611
  55.6015027  22.1340206  12.0274572  55.8001112  21.3383446  10.9279061
  56.0368248  21.9045850  11.4165169  59.8438725  20.4471387  16.2502989
  59.4553157  20.0225604  15.5955180  59.1793423  20.6953536  16.7580016
  59.6885652  20.4210108  16.2290857  45.9222255  21.6188112   9.4055051
  46.0082507  21.2419980  10.1868581  46.5498052  21.2448558   8.9275010
  46.0278806  21.5073594   9.4500529  63.6665086  14.1446015  13.7626973
  64.0475598  13.4624186  14.1494848  62.8628370  13.8555617  13.5802638
  63.6041548  14.0013064  13.7931029  60.9477663  24.6769991   4.4479796
  61.7618302  24.9684884   4.3362568  60.8836804  24.0229854   3.8738089
  61.0580402  24.6235186   4.3468634  67.1687153  27.3595987  18.8609372
  66.9325790  26.5284052  18.7421432  67.8130382  27.3081595  19.4464216
  67.2281824  27.2293675  18.9295265  56.8185571  28.1491509   9.5752108
  57.4559518  27.9103256  10.1203902  57.2440643  28.3528668   8.8405269
  56.9761737  28.1442519   9.5469266  51.5098213  30.3879845  13.4586412
  51.5502359  30.6594696  12.6306192  52.0692738  30.9121753  13.8744200
  51.5981559  30.5055600  13.3978300  57.4588386  23.3693798   3.9126998
  57.8433539  23.1501505   4.6643543  57.2100006  24.1956744   4.0428074
  57.4790459  23.4591945   4.0428074  57.6256926  16.6500214  23.6289582
  57.3110368  17.4199776  23.3659145  57.3046859  16.0870470  23.0441809
  57.5315846  16.6810482  23.5030932  68.1923574  27.1440436  14.9237666
  67.8869391  27.8768493  15.2850982  67.4729789  26.7378366  14.6430452
  68.0410916  27.1922169  14.9350803  59.2007043  28.6263931  11.2545895
  59.2746051  28.4639103  12.1087744  60.0176549  28.8154121  11.0106376
  59.3323402  28.6300674  11.3443920  52.9612800  28.9721794   8.2840338
  52.1350917  29.2183531   8.1574617  53.0224791  28.8933875   9.1502396
  52.8486967  28.9966743   8.3929282  55.1788823  15.0390735   9.2435778
  54.3111249  15.1113335   9.3093387  55.4664028  15.8412814   9.4323753
  55.0928572  15.1684882   9.2810545  64.3021712  15.1868594  17.5747100
  65.0475304  14.9978405  17.1610525  63.8859017  15.7126832  17.0160956
  64.3506686  15.2370740  17.4311673  57.7411629  31.5898674   5.9859368
  58.0309927  31.1987656   5.2618595  58.4715110  31.7715379   6.4264643
  57.8918513  31.5592488   5.9442175  58.3306374  26.3916420  17.0712498
  57.8318068  27.1032188  17.1497387  59.1406598  26.7117087  17.0330661
  58.3762481  26.5443269  17.0769067  55.6817544  33.5666057   9.0519518
  55.4617840  33.2763411   9.8446185  55.4612066  32.9081012   8.5237430
  55.6165139  33.4265765   9.0908426  54.5934492  25.6539373  11.3175219
  54.3047740  25.0276844  11.8520947  55.4617840  25.5959661  11.3839900
  54.6794743  25.5526917  11.4066174  65.3812389  20.7974157  11.6357201
  65.0377155  20.0764492  11.9864451  65.4805432  20.5888008  10.7935559
  65.3454432  20.6598360  11.5628881  57.8485500  34.9395447   7.8350210
  58.5009558  34.4071889   8.0641236  57.1511109  34.5864099   8.2218084
  57.8416218  34.8084970   7.9262378  54.7966765  27.2934624   7.2417584
  55.5512733  27.6747663   7.4553047  54.2037378  27.7445768   7.6964281
  54.8203478  27.4163452   7.3400463  65.8425418  27.2599861   7.1781189
  66.4083451  27.9193071   7.0939732  65.1953322  27.6049559   7.6497591
  65.8304175  27.4081802   7.2353946  57.2573432  19.2497465  22.3674797
  56.4473208  19.5555244  22.2564639  57.7348119  19.9703047  22.4827381
  57.2076911  19.4012066  22.3681868  56.1164992  28.4643186  12.6157700
  55.5945745  28.6043477  13.3009564  56.5039012  27.7053850  12.8059817
  56.0968692  28.3728709  12.7458776  53.1056176  18.5148994   6.6852654
  52.8180971  18.1450265   5.9484602  53.7926644  18.9843850   6.4236359
  53.1645073  18.5295964   6.5367730  62.3131996  30.2038645   6.6018269
  62.0718672  29.4706506   6.1945333  62.4933329  30.7525502   5.9484602
  62.3039620  30.1761036   6.4448491  57.5431317  25.4947205   8.0139191
  57.3474100  26.1021939   7.4199494  57.7665663  24.8015149   7.5330865
  57.5465958  25.4824730   7.8555272  55.9409847  22.3801943   8.1320059
  56.6632499  22.5443101   7.6723865  55.4617840  23.1011607   8.0259399
  55.9773578  22.5100172   8.0485673  63.9003355  18.7165741  13.5116744
  63.0614455  18.7427020  13.2755007  63.9707722  19.3636477  14.0922091
  63.7871748  18.8161867  13.5625861  53.5917464  24.7860015  17.2374199
  54.1038561  25.0644268  16.5882959  53.3053806  25.5249309  17.6037012
  53.6252327  24.9362369  17.1964077  67.7760879  23.9233728  10.7977986
  67.6894853  24.0789154  11.6512765  67.3211358  24.5671804  10.4237391
  67.6964135  24.0409483  10.8685093  50.6784370  19.2930207   7.5337936
  50.7800507  20.0956368   7.8618911  51.4740257  19.0917543   7.2361016
  50.8112276  19.3816106   7.5373291  57.1101189  16.8786404  17.2975241
  56.9184386  16.8941538  18.1474664  57.9599785  17.0750078  17.2741895
  57.2076911  16.9100755  17.4198535  51.4948102  19.4077385  15.2759057
  51.3533594  18.5561326  15.4003565  51.7788666  19.4506046  14.4521263
  51.5155948  19.2877135  15.1726681  61.6486695  21.2444475   9.4203545
  61.4021409  21.1640226  10.2540334  61.9771818  20.4597943   9.2266073
  61.6607938  21.1170741   9.5151068  65.5434743  27.9527835  13.2090327
  65.4049103  28.6508880  13.7139069  64.7634741  27.7976491  12.8526508
  65.4077970  28.0328001  13.2316601  63.8812829  24.2524210  19.4612708
  63.8760867  23.3804026  19.4655135  64.5873822  24.4512379  18.9882164
  63.9857833  24.1528084  19.3919744  57.6083722  23.9801194  18.8326528
  57.7527098  24.5602402  18.1969638  57.9559370  24.3577491  19.5376383
  57.6811183  24.1221898  18.8425523  59.7803639  23.1791362  16.6151660
  59.0326953  23.3722377  16.2099938  59.9345164  22.3536582  16.3775781
  59.6926067  23.0856474  16.5197066  56.6811477  32.1703966  15.6987555
  56.8301041  31.6106882  15.0460960  57.4611479  32.2495967  16.0820074
  56.8185570  32.0989531  15.6584504  59.2064777  32.3418609  16.9772046
  59.1308449  31.6727419  17.5322834  59.1354637  33.0436397  17.4912712
  59.1845384  32.3463516  17.1348894  60.0205416  17.0741913  17.5047064
  60.4778030  17.8065887  17.6319856  60.0961745  16.6508378  18.2634320
  60.0996386  17.1199151  17.6348140  52.2638407  17.3207733  18.5936507
  51.7280597  16.7088091  18.9097275  52.3256172  17.8955869  19.2470174
  52.1934040  17.3154660  18.7371934  59.8635024  30.8619607   7.8095652
  60.6284916  30.5929251   7.4878316  59.7613114  30.3769618   8.5265715
  59.9616520  30.7509172   7.8675480  57.8987794  19.0644017  14.3488888
  57.1083869  18.8835477  14.6706224  58.2948417  18.2870969  14.3319182
  57.8404670  18.9231478  14.3941436  63.2831480  26.6986447  12.0748334
  62.6076482  26.4671679  12.5761721  63.2923857  26.0907630  11.4490439
  63.1849985  26.5745372  12.0564486  60.4125624  21.5404276  18.8312387
  60.3484766  22.4014232  18.7032523  60.5522812  21.2236269  18.0307938
  60.4241095  21.6204443  18.6940600  65.2848215  29.5551579   4.3058512
  65.3668052  30.3618566   3.9819963  65.7697957  29.5747539   5.0299285
  65.3685373  29.6772242   4.3645410  59.0944718  24.2336415  12.9728590
  58.6706967  24.4340914  12.2367608  58.9189574  23.3865263  13.0852889
  59.0055599  24.1385197  12.8802280  58.5956412  35.7486928  15.4350047
  59.0852342  35.0497718  15.2525712  58.0240644  35.4510798  16.0226104
  58.5840942  35.6013152  15.4951088  54.3827163  24.7288467   8.4056562
  54.5391782  24.6635270   9.2612554  54.7227756  25.5037019   8.1935242
  54.4560398  24.8337665   8.5011156  60.9206308  24.1046350   7.2749925
  61.4621853  23.6016731   7.7388546  61.2352867  24.0511545   6.4639411
  61.0470705  24.0225771   7.2233737  64.7923415  28.3148998  24.3876838
  65.6058281  28.0434147  24.5481970  64.6318382  28.0156538  23.5837033
  64.8893364  28.2303924  24.2922243  59.0892758  29.4963702   4.5589953
  59.1585578  28.6378240   4.6982954  59.8681213  29.7135583   4.2308978
  59.2145608  29.4016566   4.5307111  62.0695577  18.9982655  17.3272226
  62.2837547  18.3593569  16.7735580  61.4529476  19.4428479  16.8980088
  62.0100907  18.9692799  17.1822657  63.4800245  31.9201403   8.7726447
  63.0880037  31.6168118   8.0549313  63.6353317  32.7570493   8.5831400
  63.4453835  31.9985240   8.6382944  50.9561425  21.9123417   8.7217329
  51.3360390  22.3307962   8.0577597  50.3816790  22.4936873   9.0286173
  50.9272750  22.0601276   8.6694070  64.2334665  20.6071720  18.2655533
  63.4211347  20.2997610  18.3468706  64.6924600  20.1270720  18.8298245
  64.1815050  20.4908212  18.3610127  63.6439920  28.4851392   8.7132477
  63.2854575  28.6566035   9.4896510  63.1578631  28.9464598   8.1560476
  63.5198617  28.5790363   8.7457746  61.4610306  12.1082591  12.3159569
  60.5903864  12.0821312  12.2692878  61.7150647  11.9359783  11.4985414
  61.3703866  12.0792734  12.1879705  58.4328285  24.1650557   1.2532712
  58.7220810  24.9415440   1.5276286  58.5200084  23.6539289   1.9547211
  58.4882542  24.2042476   1.3975209  61.3288173  22.0131791  23.0484235
  61.7987804  22.6373908  23.4352109  61.3750053  21.3448767  23.6077450
  61.4056049  22.0066472  23.1884307  58.4859446  14.1188819  13.7733039
  57.9697935  13.4269010  13.8984618  57.9253375  14.7859596  13.7195638
  58.3265960  14.1152077  13.7839105  60.5551680  14.6581779  15.6025892
  60.1683433  14.6830810  16.3839421  60.0684617  14.0923458  15.1500408
  60.4264189  14.5777530  15.6513795  64.8044659  29.3755288  19.6599678
  65.4424380  28.8815484  19.3262134  64.1618751  29.3032688  19.0751905
  64.8038886  29.2914296  19.5242033  66.5301659  21.2244434  14.2265594
  66.1029267  21.1370783  13.4713693  65.8927712  21.3322209  14.8120438
  66.3731267  21.2277094  14.2011035  60.2208822  11.5448764  17.8936151
  60.8501940  12.0809065  17.6157222  60.3894684  11.4526123  18.7449717
  60.3386616  11.6110127  17.9784680  60.0222737  16.3319959  20.1662563
  60.8496166  16.0605108  20.2221178  60.0430583  17.1280801  20.5226381
  60.1475587  16.4099713  20.2277746  64.8598916  30.0675096  16.3005035
  65.6491294  29.7164161  16.4207117  65.0342514  30.8811485  16.0381669
  65.0019198  30.1360953  16.2792903  54.5992226  23.4783822  13.3532824
  53.7580233  23.3787696  13.5611718  54.8082234  24.2479302  13.7047144
  54.5056919  23.5775865  13.4360139  52.0767793  21.1003359  11.1817574
  51.6824491  21.1746371  10.4067684  51.5207910  21.4861305  11.7325936
  51.9370606  21.1685134  11.1485234  58.4108891  21.4065221  12.6030421
  58.1072029  20.8521209  13.2040829  57.7088312  21.5857431  12.1158455
  58.2625101  21.3510004  12.6200127  57.4674988  18.7165741   7.1675123
  57.7434723  17.9984654   6.7552691  58.0673658  19.3150661   6.9596229
  57.5968253  18.6986112   7.0755884  56.4727242  28.6214942  17.3102519
  56.3647597  28.6317004  18.1764577  56.6823024  29.4469722  17.1207473
  56.4877353  28.7456017  17.4106611  54.4901034  25.8727584  14.7724457
  53.8988967  26.5137082  14.7427472  55.2522058  26.2965202  14.7455756
  54.5149295  26.0303423  14.7639604  54.8861657  17.0329582  15.4392474
  55.3463139  17.1068511  16.1767598  54.9317764  17.8310836  15.0892296
  54.9612212  17.1623729  15.4965231  56.5345007  17.6996277  20.0064501
  56.1430572  17.0529624  20.4420279  56.7030869  18.2907712  20.6258757
  56.5015917  17.6910545  20.1627207  70.6091456  25.7033354  15.7701735
  70.6674579  26.1520003  16.5161711  69.9757923  26.1132167  15.3331815
  70.5242751  25.8307089  15.8154283  64.2490550  31.3236896  12.2056481
  64.0510239  31.8127710  11.5112692  63.6278262  31.5278137  12.7840614
  64.1278115  31.4253434  12.1879704  58.3098529  23.0921793   6.5466725
  59.0540574  23.4796069   6.7849675  58.4559225  22.2479218   6.7107213
  58.4409114  23.0252265   6.6060695  60.2278104  14.8872052  11.5798587
  59.3814149  15.0594859  11.4539937  60.2249237  14.0821395  11.9164415
  60.1025254  14.7933081  11.6109714  61.2976405  18.6647266  12.4460645
  60.8236359  18.1389028  12.9565956  61.6694540  18.1176739  11.8775506
  61.2826294  18.5063263  12.4375792  51.6749435  20.6618773  17.8144190
  52.5375048  20.5614482  17.7281520  51.3441218  20.0813482  17.2529763
  51.7534631  20.5610399  17.7189596  67.5613135  23.7249642  13.8567425
  67.3211358  22.8856057  13.8609852  68.0405142  23.8049808  14.5808199
  67.5965319  23.6131041  13.9642228  66.1664352  24.8901048  17.7401729
  66.8898551  24.4373575  17.5612749  65.9014315  25.1705714  16.9574057
  66.2345626  24.8652017  17.5980445  55.0351221  19.4861222  14.4754609
  54.4104291  19.4979614  13.8680561  54.6996816  19.9621397  15.1245849
  54.8936713  19.5579739  14.4811177  51.7476896  27.5461682  15.9158373
  51.2176821  26.8554121  15.9653348  52.0201990  27.5371867  15.0871081
  51.7101619  27.4428814  15.8005789  62.7796987  28.1287384   4.6396056
  63.5031186  28.5945497   4.4960629  62.3397578  28.1960994   3.8893653
  62.8212679  28.2071221   4.5080837  61.9483142  24.9884926  15.8896745
  61.3340135  24.4442977  16.1845380  62.4650427  24.4749163  15.4102561
  61.9338804  24.8321335  15.8620973  61.1879439  26.0589196  13.6241043
  60.7607047  25.4338915  13.1906479  61.1804383  25.7764118  14.4500050
  61.1238580  25.9241977  13.6820871  54.3041966  21.0954369  16.6929477
  54.4635453  20.3397694  17.0981199  54.1234860  21.6445309  17.3470215
  54.3007325  21.0648183  16.8492183  62.2462269  13.2615605  17.2480267
  61.7502830  13.4579279  16.5571833  63.0031331  13.6608273  17.0769068
  62.2849094  13.3493339  17.1200403  59.5165149  16.9357951  13.8383577
  59.5407636  16.4018063  13.1496357  59.7676622  16.4275260  14.5009168
  59.5575067  16.7818855  13.8348222  47.0272739  24.2189446  13.2726721
  46.9216188  24.1736290  12.4078805  46.2772959  24.5643227  13.5541006
  46.9008341  24.2630354  13.1864051  55.7966471  15.6628769  13.2189321
  55.8364843  16.1637976  13.9324029  54.9716136  15.7539163  12.9495245
  55.6805997  15.7510586  13.2839860  57.9796084  25.2289509  21.3209616
  57.1291714  25.3661223  21.4567261  58.1424212  24.4953287  21.7657318
  57.8779947  25.1403610  21.4065215  57.2180834  22.1789279  15.5163220
  56.3872764  22.3463097  15.3098469  57.1632352  21.8025230  16.3012106
  57.0870249  22.1479010  15.6011749  55.0264618  15.6698172  21.1519631
  55.6517321  15.1260305  21.4249063  54.5715098  15.1893090  20.5827422
  55.0512878  15.5187653  21.1081225  55.5916878  20.4544871   6.0453338
  55.7319839  20.9517335   6.7481980  56.0899411  19.7531165   6.1867552
  55.6857959  20.4246849   6.1704917  55.6217101  21.3211982   3.3745915
  56.2562180  21.9172407   3.3095377  55.7042711  21.0215439   4.1891785
  55.7273652  21.3652890   3.4849002  68.5999666  23.8527459  16.2432279
  69.1917507  24.4924710  16.2750477  69.0358661  23.1550496  16.5324346
  68.7518098  23.8445809  16.2913112  60.4293056  28.2744831  16.8690173
  59.9218147  28.8280678  17.3130804  60.1319702  28.3353121  16.0508948
  60.3097941  28.3651143  16.8138630  62.5955238  16.6398151  15.7114836
  63.0210310  16.1870677  15.0998362  61.9812232  16.0858222  15.9879624
  62.5683884  16.4912127  15.6619861  52.1270088  23.5179822   6.6435461
  52.6362318  24.1144330   7.0246767  52.6004361  23.2505796   5.9611881
  52.2713464  23.5665638   6.5989984  63.0400837  32.1908089   4.7994117
  62.3230146  32.0168951   4.3341354  63.6907574  31.9560661   4.2669603
  63.0302687  32.1303882   4.6523335  59.6735541  33.2069390  13.7747180
  59.4501196  32.4488219  14.1431206  59.1845385  33.2367411  13.0527620
  59.5678990  33.0991614  13.7223921  65.7876935  17.5228561  11.4525795
  66.1404545  17.0958284  12.1271594  64.9291737  17.4379405  11.5826871
  65.7126380  17.4473302  11.5720805  54.4860620  20.1536081   9.5108641
  53.7672609  20.5700214   9.7781505  54.8572982  20.7190320   8.9600280
  54.4352552  20.2985362   9.4691448  63.7860201  20.7863930  15.4010637
  63.7658128  20.6047225  16.2545416  63.8339402  21.6575948  15.3770221
  63.7894842  20.8880468  15.5233932  61.7306531  27.3751122  21.3259114
  61.6902386  26.7300799  20.7404270  62.5429849  27.3187739  21.6384526
  61.8449684  27.2710089  21.2856063  58.3213998  33.4269848  11.2284265
  57.9074397  32.7643978  10.8388106  59.0061373  33.5747707  10.7079959
  58.3612370  33.3510506  11.0940762  61.6879293  32.5859933  11.9807881
  61.2895576  32.6962203  11.2128701  61.0730512  32.7941999  12.5634441
  61.5378182  32.6333501  11.9539181  57.4184240  21.0048058  17.8808871
  56.9063143  20.3969241  18.2393903  57.2463736  21.7204651  18.3482847
  57.3173877  21.0211358  18.0025095  52.2649954  19.4485634  20.5311233
  52.0952545  20.1087009  19.9859440  51.8215904  19.6592195  21.2523722
  52.1749288  19.5771616  20.5572863  56.1909774  17.6890132   9.5737967
  56.6667140  18.0507211   8.9388148  55.6898373  18.3446599   9.8538110
  56.1875133  17.8384320   9.5214708  61.2953310  18.9272303  20.3211127
  61.8524740  18.6986113  19.6889592  60.9714375  19.6877969  20.0446339
  61.3299720  19.0056140  20.1867624  49.1652019  22.3532499  15.7899723
  48.6178738  21.6833145  15.9080591  49.9544397  21.9862347  15.8543190
  49.2004202  22.1997486  15.8168424  59.0136427  22.0139956  21.2863134
  59.7647754  22.3291633  21.6002688  59.2059004  21.8119127  20.4597056
  59.1527841  22.0307338  21.2106530  47.9238988  21.5653307  12.9445746
  47.7460749  21.1129916  13.6700662  47.6358010  22.3679468  13.1284224
  47.8551941  21.6175865  13.0789249  63.5862569  22.8211024  12.1823136
  64.0816235  22.1034019  12.1427157  62.7762345  22.5181822  12.0677623
  63.5406463  22.6708671  12.1596862  59.0321181  26.6708838   4.3320141
  58.2232504  26.3475511   4.2853450  59.5396090  25.9642060   4.2648389
  58.9870848  26.5190154   4.3150435  49.6611458  24.0981031  10.0567505
  48.7956978  24.0866721   9.9450276  49.7610274  23.9111254  10.9038644
  49.5485625  24.0687092  10.1656450  65.6514388  25.5714712  14.8700265
  66.0769460  25.0489134  14.3170690  65.2871308  26.1695549  14.3488888
  65.6600991  25.5824939  14.7109275  55.2868468  33.8678929  13.6297611
  55.6015027  34.6815318  13.6375392  55.6961881  33.4829148  14.2979770
  55.3936566  33.9307632  13.7301702  62.2392988  29.2848976  11.2001423
  62.7104166  29.9989239  11.3691408  62.5753166  28.6847726  11.7361292
  62.3588103  29.3020440  11.3033798  64.3269972  30.8950290  23.3793495
  64.4366938  30.1058850  23.7350242  64.6560869  30.8056226  22.5767833
  64.3922378  30.7656142  23.3135885  59.1562483  14.0576447  18.1559517
  59.2890388  13.2607440  18.4840493  59.5407635  14.5842850  18.7357793
  59.2318811  14.0176363  18.2903020  62.8766934  29.0766910  17.9629115
  62.3287880  28.4524794  17.6949180  63.3379963  29.2661182  17.2473195
  62.8634143  29.0125961  17.8179546  62.2294838  10.9806773  14.7540611
  61.4240802  10.8704503  15.0708449  62.1001573  11.0819229  13.8970476
  62.0914971  10.9790443  14.6748651  65.6860798  17.1452265  15.3480307
  65.1023787  17.6461471  14.9357875  66.0065092  16.6381821  14.7144631
  65.6473974  17.1444100  15.1938815  56.8150929  14.0535622  16.4037411
  57.3595342  13.7126749  16.9941753  56.8687865  14.9121083  16.5458696
  56.9040049  14.1290881  16.5119284  52.6281488  27.8152038  13.2776219
  53.2326346  27.7747872  12.6490040  52.4208801  28.6623190  13.3080275
  52.6870385  27.9340040  13.1892336  62.4425260  30.0817983  14.4938456
  63.2623634  29.9380949  14.7554752  62.1619338  30.7064182  15.0354894
  62.5222004  30.1528335  14.6126396  47.8632770  26.7986655  13.1475142
  47.7657048  25.9882927  13.4565199  48.6461640  26.7778449  12.7621410
  47.9648907  26.6753746  13.1362005  72.1138596  36.8258486  12.2134263
  71.2576491  36.9866984  12.2643380  72.1606249  35.9550550  12.2339324
  71.9937707  36.7209288  12.2240329  75.4232312  43.0945011  21.8194719
  76.1299079  42.5997042  21.9481654  75.6120248  43.5354093  21.0897377
  75.5560218  43.0863362  21.7303765  74.9590417  38.8850530  14.8565915
  75.5046377  39.5635616  14.9159884  74.9007293  38.7437991  13.9967496
  75.0306331  38.9642531  14.7377975  68.0764491  46.3739596  10.2434267
  68.1774854  45.5639950  10.5531395  67.4806237  46.2796542   9.6133946
  68.0037030  46.2404624  10.1960506  67.9165231  51.2917185  11.6449123
  68.5602686  51.7330349  12.0345282  68.2421487  50.4870611  11.5579382
  68.0597060  51.2382380  11.6894601  61.2729536  42.3959882   9.8686601
  61.0379720  41.5627535   9.7618870  61.4115176  42.6764548   9.0547802
  61.2585198  42.3143386   9.7328956  63.5719623  34.5645613  12.7670909
  62.9524655  33.9738260  12.5980923  63.4703487  35.1557048  12.1335232
  63.4657299  34.5649695  12.6475898  70.6687519  36.3045155   7.1003372
  71.3667683  36.4833282   7.5924835  70.9839851  35.7815494   6.4773761
  70.8182856  36.2538927   7.0805382  63.2988756  38.1097895  15.0114478
  63.1747453  38.6960340  15.6464296  63.9507041  37.6158090  15.3126753
  63.3762406  38.1236699  15.1500407  68.3247097  41.2859612  14.2901989
  68.9696100  40.7932055  13.9712937  68.5648874  41.4284398  15.1168067
  68.4557682  41.2337054  14.3651522  70.8633189  44.1314517  13.9408881
  71.1456431  43.3365923  13.7195637  71.5919349  44.6095105  13.9613942
  71.0122752  44.0849114  13.9111896  68.8414382  31.6737551  11.1824646
  68.5117712  32.1248695  10.5128345  68.1659384  31.5953715  11.7297653
  68.6924819  31.7288687  11.1647870  62.8346860  47.2745553  11.1442807
  62.3514439  47.9996043  11.1202391  63.6470179  47.5721683  11.2552965
  62.8837608  47.4247907  11.1570086  68.9061014  46.0677734  13.7492622
  68.3887956  45.7085149  13.1453930  69.6035406  45.5439908  13.7598688
  68.9326596  45.9375422  13.6622880  72.5624606  46.5172548  19.7108795
  72.6507952  46.3298688  20.5587005  72.9914319  45.8709977  19.3113641
  72.6386709  46.3935556  19.7780546  70.1295066  45.8003708  18.6926457
  69.5665901  45.3876318  19.2166118  70.8916090  45.7256614  19.1119600
  70.1589515  45.7281108  18.8319457  67.0470336  29.7349840   6.6647594
  67.8016304  30.1028157   6.4264644  66.8697871  30.1089394   7.4326774
  67.1324815  29.8448028   6.7432483  65.6891058  47.7901729  11.2963087
  66.3911637  47.2753718  11.3535843  65.6088541  48.1175880  12.1009962
  65.7814818  47.7615955  11.4235879  66.7369964  38.0277316  20.4243502
  66.9090468  37.9183211  21.2728783  67.2739322  38.6731721  20.1874694
  66.8414968  38.1069318  20.5148599  65.4027401  32.1420159   3.3625707
  65.2202974  32.3592040   2.5366700  66.2653014  32.2559172   3.4184321
  65.5031991  32.1910057   3.2480194  65.0141833  43.9808081  10.8048695
  65.8530732  44.2131014  10.8522457  65.0453602  43.1112392  10.7355730
  65.1423551  43.8865027  10.8013340  65.6394536  44.4008956  15.1062000
  66.1792761  44.2580087  15.7765373  64.9564482  44.8005707  15.4746027
  65.6186690  44.4388627  15.2596422  75.0635421  40.0799957  10.3007025
  75.8192936  40.5131471  10.3395934  75.1697745  39.4304727  10.8741661
  75.1905592  40.0477441  10.3905050  72.6744666  45.9481567  22.3752578
  73.4585082  46.0612415  22.7408320  72.4741260  45.1222704  22.5711264
  72.7610691  45.8428286  22.4586964  61.0431681  40.6209247  15.2596422
  60.7770096  39.8048364  15.4187412  61.0570245  40.6662403  14.3891938
  61.0056403  40.5066152  15.1549904  64.9489428  35.4194331   1.8748180
  64.2347605  35.1332511   2.2870613  65.4333397  35.7590957   2.5154568
  64.9148791  35.4275981   2.0303815  65.7930288  34.1587625  17.9063430
  65.1002084  33.6884605  18.1524161  66.4090615  33.9325930  18.4805137
  65.7814817  34.0554757  18.0272582  72.8315059  47.8591669  16.0219034
  72.0330305  47.6191169  16.2792902  73.2801071  47.9106062  16.7686081
  72.7789670  47.8314060  16.1703958  61.4525095  41.4068026  12.5408166
  61.2700668  41.3814912  11.6880458  62.1874764  41.8766964  12.5797075
  61.5339159  41.4729389  12.4206085  64.5170846  38.1253029  19.0490275
  65.2410819  38.1106060  19.5355170  64.6186983  38.8348385  18.5512243
  64.6389056  38.2277732  19.0469062  71.8915796  41.6052114  23.9139222
  71.0988777  41.9195626  24.0991842  72.0064723  41.8203582  23.0760007
  71.7911206  41.6835951  23.8177557  74.5647115  38.3286105   8.2034238
  74.6593969  39.0675399   8.6573863  73.9405958  37.9003581   8.6368802
  74.4856145  38.3747426   8.3342385  72.8199589  41.5072318  18.8524519
  73.3938450  40.8699562  19.0073083  72.7414392  41.5076400  17.9834176
  72.8932824  41.4137429  18.7470930  61.4196005  38.2861527  12.6907233
  61.9969508  38.1497978  13.3299478  60.7210067  37.8297311  12.9452817
  61.4017027  38.1983793  12.8229523  68.1763307  39.9395583  10.9045716
  67.9182552  39.1067318  10.8777016  68.2311790  40.1653196  10.0638216
  68.1463085  39.8493354  10.7765853  73.2564357  32.0424033  11.0049809
  72.5520684  31.5533219  11.1633728  73.3049332  32.0546508  10.1338253
  73.1594409  31.9713681  10.8989149  67.1498019  37.4933345  11.3910611
  66.5747611  37.6525514  12.0274572  66.7733696  36.8568754  10.9279061
  67.0100832  37.4231158  11.4165169  70.8171308  35.9656695  16.2502989
  70.4285741  35.5410912  15.5955180  70.1526006  36.2138844  16.7580016
  70.6618236  35.9395416  16.2290857  56.8954838  37.1373420   9.4055051
  56.9815090  36.7605288  10.1868581  57.5230636  36.7633866   8.9275010
  57.0011389  37.0258902   9.4500529  74.6397670  29.6631323  13.7626973
  75.0208181  28.9809494  14.1494848  73.8360954  29.3740925  13.5802638
  74.5774131  29.5198372  13.7931029  67.7918155  43.6676817   9.5752108
  68.4292102  43.4288564  10.1203902  68.2173226  43.8713975   8.8405269
  67.9494321  43.6627827   9.5469266  62.4830797  45.9065153  13.4586412
  62.5234942  46.1780004  12.6306192  63.0425321  46.4307061  13.8744200
  62.5714143  46.0240908  13.3978300  68.5989510  32.1685522  23.6289582
  68.2842951  32.9385084  23.3659145  68.2779443  31.6055778  23.0441809
  68.5048429  32.1995790  23.5030932  70.1739627  44.1449239  11.2545895
  70.2478635  43.9824411  12.1087744  70.9909133  44.3339429  11.0106376
  70.3055985  44.1485982  11.3443920  63.9345383  44.4907102   8.2840338
  63.1083501  44.7368839   8.1574617  63.9957374  44.4119183   9.1502396
  63.8219550  44.5152051   8.3929282  66.1521407  30.5576043   9.2435778
  65.2843832  30.6298643   9.3093387  66.4396611  31.3598122   9.4323753
  66.0661155  30.6870190   9.2810545  75.2754296  30.7053902  17.5747100
  76.0207888  30.5163713  17.1610525  74.8591600  31.2312140  17.0160956
  75.3239270  30.7556048  17.4311673  69.3038957  41.9101728  17.0712498
  68.8050651  42.6217496  17.1497387  70.1139182  42.2302395  17.0330661
  69.3495064  42.0628577  17.0769067  65.5667075  41.1724681  11.3175219
  65.2780324  40.5462152  11.8520947  66.4350423  41.1144969  11.3839900
  65.6527327  41.0712225  11.4066174  65.7699348  42.8119932   7.2417584
  66.5245316  43.1932971   7.4553047  65.1769961  43.2631076   7.6964281
  65.7936062  42.9348760   7.3400463  68.2306015  34.7682773  22.3674797
  67.4205791  35.0740552  22.2564639  68.7080702  35.4888355  22.4827381
  68.1809494  34.9197374  22.3681868  67.0897575  43.9828494  12.6157700
  66.5678329  44.1228785  13.3009564  67.4771595  43.2239158  12.8059817
  67.0701276  43.8914017  12.7458776  64.0788759  34.0334302   6.6852654
  63.7913555  33.6635573   5.9484602  64.7659227  34.5029158   6.4236359
  64.1377656  34.0481272   6.5367730  68.5163901  41.0132513   8.0139191
  68.3206683  41.6207247   7.4199494  68.7398246  40.3200457   7.5330865
  68.5198542  41.0010038   7.8555272  66.9142431  37.8987251   8.1320059
  67.6365083  38.0628409   7.6723865  66.4350423  38.6196915   8.0259399
  66.9506161  38.0285480   8.0485673  74.8735938  34.2351049  13.5116744
  74.0347039  34.2612328  13.2755007  74.9440306  34.8821785  14.0922091
  74.7604332  34.3347175  13.5625861  64.5650047  40.3045323  17.2374199
  65.0771144  40.5829576  16.5882959  64.2786390  41.0434617  17.6037012
  64.5984911  40.4547677  17.1964077  61.6516954  34.8115515   7.5337936
  61.7533090  35.6141676   7.8618911  62.4472840  34.6102851   7.2361016
  61.7844859  34.9001414   7.5373291  68.0833773  32.3971712  17.2975241
  67.8916970  32.4126846  18.1474664  68.9332369  32.5935386  17.2741895
  68.1809495  32.4286063  17.4198535  62.4680686  34.9262693  15.2759057
  62.3266178  34.0746634  15.4003565  62.7521249  34.9691354  14.4521263
  62.4888532  34.8062443  15.1726681  72.6219278  36.7629783   9.4203545
  72.3753992  36.6825534  10.2540334  72.9504401  35.9783251   9.2266073
  72.6340522  36.6356049   9.5151068  74.8545412  39.7709518  19.4612708
  74.8493451  38.8989334  19.4655135  75.5606406  39.9697687  18.9882164
  74.9590416  39.6713392  19.3919744  68.5816305  39.4986502  18.8326528
  68.7259681  40.0787710  18.1969638  68.9291954  39.8762798  19.5376383
  68.6543767  39.6407206  18.8425523  70.7536223  38.6976670  16.6151660
  70.0059537  38.8907685  16.2099938  70.9077748  37.8721890  16.3775781
  70.6658650  38.6041782  16.5197066  67.6544060  47.6889274  15.6987555
  67.8033624  47.1292189  15.0460960  68.4344063  47.7681275  16.0820074
  67.7918154  47.6174839  15.6584504  70.1797361  47.8603916  16.9772046
  70.1041032  47.1912727  17.5322834  70.1087220  48.5621705  17.4912712
  70.1577968  47.8648824  17.1348894  70.9938000  32.5927221  17.5047064
  71.4510614  33.3251195  17.6319856  71.0694329  32.1693686  18.2634320
  71.0728970  32.6384459  17.6348140  63.2370991  32.8393041  18.5936507
  62.7013181  32.2273399  18.9097275  63.2988756  33.4141177  19.2470174
  63.1666624  32.8339968  18.7371934  68.8720378  34.5829325  14.3488888
  68.0816453  34.4020785  14.6706224  69.2681001  33.8056277  14.3319182
  68.8137254  34.4416786  14.3941436  74.2564064  42.2171755  12.0748334
  73.5809066  41.9856987  12.5761721  74.2656440  41.6092938  11.4490439
  74.1582569  42.0930680  12.0564486  71.3858208  37.0589584  18.8312387
  71.3217349  37.9199540  18.7032523  71.5255396  36.7421577  18.0307938
  71.3973678  37.1389751  18.6940600  70.0677302  39.7521723  12.9728590
  69.6439551  39.9526222  12.2367608  69.8922157  38.9050571  13.0852889
  69.9788183  39.6570505  12.8802280  69.5688995  51.2672236  15.4350047
  70.0584926  50.5683025  15.2525712  68.9973228  50.9696106  16.0226104
  69.5573525  51.1198460  15.4951088  65.3559747  40.2473775   8.4056562
  65.5124366  40.1820578   9.2612554  65.6960340  41.0222327   8.1935242
  65.4292982  40.3522973   8.5011156  71.8938891  39.6231658   7.2749925
  72.4354437  39.1202039   7.7388546  72.2085451  39.5696853   6.4639411
  72.0203289  39.5411079   7.2233737  73.0428161  34.5167963  17.3272226
  73.2570130  33.8778877  16.7735580  72.4262060  34.9613787  16.8980088
  72.9833490  34.4878106  17.1822657  61.9294008  37.4308725   8.7217329
  62.3092973  37.8493270   8.0577597  61.3549373  38.0122181   9.0286173
  61.9005333  37.5786584   8.6694070  75.2067249  36.1257028  18.2655533
  74.3943931  35.8182918  18.3468706  75.6657183  35.6456028  18.8298245
  75.1547634  36.0093520  18.3610127  72.4342890  27.6267898  12.3159569
  71.5636447  27.6006620  12.2692878  72.6883231  27.4545091  11.4985414
  72.3436450  27.5978042  12.1879705  72.3020756  37.5317099  23.0484235
  72.7720388  38.1559216  23.4352109  72.3482637  36.8634075  23.6077450
  72.3788632  37.5251780  23.1884307  69.4592030  29.6374127  13.7733039
  68.9430519  28.9454318  13.8984618  68.8985959  30.3044904  13.7195638
  69.2998543  29.6337385  13.7839105  71.5284263  30.1767087  15.6025892
  71.1416017  30.2016118  16.3839421  71.0417201  29.6108766  15.1500408
  71.3996772  30.0962838  15.6513795  71.1941405  27.0634072  17.8936151
  71.8234523  27.5994372  17.6157222  71.3627268  26.9711431  18.7449717
  71.3119200  27.1295435  17.9784680  70.9955320  31.8505267  20.1662563
  71.8228749  31.5790416  20.2221178  71.0163166  32.6466109  20.5226381
  71.1208170  31.9285021  20.2277746  65.5724810  38.9969130  13.3532824
  64.7312816  38.8973004  13.5611718  65.7814818  39.7664610  13.7047144
  65.4789502  39.0961173  13.4360139  63.0500377  36.6188667  11.1817574
  62.6557075  36.6931679  10.4067684  62.4940494  37.0046613  11.7325936
  62.9103189  36.6870441  11.1485234  69.3841475  36.9250529  12.6030421
  69.0804612  36.3706517  13.2040829  68.6820896  37.1042739  12.1158455
  69.2357685  36.8695311  12.6200127  68.4407572  34.2351049   7.1675123
  68.7167306  33.5169961   6.7552691  69.0406241  34.8335969   6.9596229
  68.5700837  34.2171420   7.0755884  67.4459826  44.1400250  17.3102519
  67.3380181  44.1502312  18.1764577  67.6555607  44.9655030  17.1207473
  67.4609937  44.2641325  17.4106611  65.4633618  41.3912892  14.7724457
  64.8721551  42.0322390  14.7427472  66.2254641  41.8150509  14.7455756
  65.4881878  41.5488731  14.7639604  65.8594241  32.5514890  15.4392474
  66.3195722  32.6253819  16.1767598  65.9050347  33.3496144  15.0892296
  65.9344796  32.6809037  15.4965231  67.5077590  33.2181585  20.0064501
  67.1163155  32.5714932  20.4420279  67.6763453  33.8093020  20.6258757
  67.4748501  33.2095853  20.1627207  69.2831112  38.6107101   6.5466725
  70.0273157  38.9981377   6.7849675  69.4291809  37.7664526   6.7107213
  69.4141697  38.5437573   6.6060695  71.2010688  30.4057360  11.5798587
  70.3546733  30.5780167  11.4539937  71.1981820  29.6006703  11.9164415
  71.0757838  30.3118388  11.6109714  72.2708988  34.1832574  12.4460645
  71.7968942  33.6574336  12.9565956  72.6427124  33.6362047  11.8775506
  72.2558877  34.0248571  12.4375792  62.6482018  36.1804081  17.8144190
  63.5107631  36.0799790  17.7281520  62.3173801  35.5998790  17.2529763
  62.7267215  36.0795707  17.7189596  66.0083804  35.0046530  14.4754609
  65.3836875  35.0164922  13.8680561  65.6729399  35.4806705  15.1245849
  65.8669296  35.0765047  14.4811177  62.7209480  43.0646990  15.9158373
  62.1909404  42.3739429  15.9653348  62.9934573  43.0557175  15.0871081
  62.6834202  42.9614122  15.8005789  72.9215725  40.5070234  15.8896745
  72.3072719  39.9628285  16.1845380  73.4383010  39.9934471  15.4102561
  72.9071388  40.3506643  15.8620973  72.1612023  41.5774504  13.6241043
  71.7339631  40.9524223  13.1906479  72.1536967  41.2949426  14.4500050
  72.0971164  41.4427285  13.6820871  65.2774550  36.6139677  16.6929477
  65.4368036  35.8583002  17.0981199  65.0967443  37.1630617  17.3470215
  65.2739909  36.5833491  16.8492183  73.2194853  28.7800913  17.2480267
  72.7235414  28.9764587  16.5571833  73.9763915  29.1793581  17.0769068
  73.2581677  28.8678647  17.1200403  70.4897732  32.4543259  13.8383577
  70.5140219  31.9203371  13.1496357  70.7409206  31.9460568  14.5009168
  70.5307651  32.3004163  13.8348222  58.0005322  39.7374754  13.2726721
  57.8948771  39.6921598  12.4078805  57.2505542  40.0828534  13.5541006
  57.8740925  39.7815662  13.1864051  66.7699055  31.1814077  13.2189321
  66.8097426  31.6823284  13.9324029  65.9448719  31.2724471  12.9495245
  66.6538580  31.2695893  13.2839860  68.9528667  40.7474817  21.3209616
  68.1024298  40.8846531  21.4567261  69.1156795  40.0138595  21.7657318
  68.8512531  40.6588918  21.4065215  68.1913418  37.6974587  15.5163220
  67.3605348  37.8648405  15.3098469  68.1364935  37.3210538  16.3012106
  68.0602833  37.6664318  15.6011749  65.9997201  31.1883480  21.1519631
  66.6249905  30.6445613  21.4249063  65.5447681  30.7078397  20.5827422
  66.0245462  31.0372961  21.1081225  66.5649462  35.9730179   6.0453338
  66.7052423  36.4702643   6.7481980  67.0631995  35.2716473   6.1867552
  66.6590543  35.9432157   6.1704917  66.5949684  36.8397290   3.3745915
  67.2294764  37.4357715   3.3095377  66.6775295  36.5400747   4.1891785
  66.7006235  36.8838198   3.4849002  71.4025640  43.7930139  16.8690173
  70.8950731  44.3465986  17.3130804  71.1052286  43.8538429  16.0508948
  71.2830525  43.8836451  16.8138630  73.5687822  32.1583459  15.7114836
  73.9942894  31.7055985  15.0998362  72.9544815  31.6043530  15.9879624
  73.5416467  32.0097435  15.6619861  63.1002672  39.0365130   6.6435461
  63.6094901  39.6329638   7.0246767  63.5736944  38.7691104   5.9611881
  63.2446048  39.0850946   6.5989984  70.6468125  48.7254698  13.7747180
  70.4233779  47.9673527  14.1431206  70.1577968  48.7552719  13.0527620
  70.5411574  48.6176922  13.7223921  65.4593204  35.6721389   9.5108641
  64.7405193  36.0885521   9.7781505  65.8305566  36.2375628   8.9600280
  65.4085136  35.8170670   9.4691448  74.7592785  36.3049238  15.4010637
  74.7390712  36.1232533  16.2545416  74.8071985  37.1761256  15.3770221
  74.7627426  36.4065776  15.5233932  72.7039114  42.8936430  21.3259114
  72.6634969  42.2486107  20.7404270  73.5162433  42.8373047  21.6384526
  72.8182268  42.7895397  21.2856063  68.3916823  36.5233366  17.8808871
  67.8795726  35.9154549  18.2393903  68.2196319  37.2389959  18.3482847
  68.2906460  36.5396666  18.0025095  63.2382538  34.9670942  20.5311233
  63.0685128  35.6272316  19.9859440  62.7948488  35.1777503  21.2523722
  63.1481871  35.0956924  20.5572863  67.1642357  33.2075440   9.5737967
  67.6399723  33.5692519   8.9388148  66.6630957  33.8631907   9.8538110
  67.1607716  33.3569628   9.5214708  72.2685893  34.4457611  20.3211127
  72.8257324  34.2171420  19.6889592  71.9446959  35.2063277  20.0446339
  72.3032304  34.5241448  20.1867624  60.1384602  37.8717807  15.7899723
  59.5911322  37.2018453  15.9080591  60.9276981  37.5047655  15.8543190
  60.1736786  37.7182794  15.8168424  69.9869011  37.5325264  21.2863134
  70.7380338  37.8476941  21.6002688  70.1791587  37.3304435  20.4597056
  70.1260425  37.5492646  21.2106530  58.8971572  37.0838615  12.9445746
  58.7193333  36.6315224  13.6700662  58.6090594  37.8864776  13.1284224
  58.8284525  37.1361173  13.0789249  74.5595153  38.3396332  12.1823136
  75.0548818  37.6219327  12.1427157  73.7494929  38.0367130  12.0677623
  74.5139046  38.1893979  12.1596862  60.6344042  39.6166339  10.0567505
  59.7689561  39.6052029   9.9450276  60.7342858  39.4296562  10.9038644
  60.5218209  39.5872400  10.1656450  66.2601052  49.3864237  13.6297611
  66.5747611  50.2000626  13.6375392  66.6694465  49.0014456  14.2979770
  66.3669150  49.4492940  13.7301702  73.2125571  44.8034284  11.2001423
  73.6836749  45.5174547  11.3691408  73.5485750  44.2033034  11.7361292
  73.3320686  44.8205748  11.3033798  75.3002556  46.4135598  23.3793495
  75.4099521  45.6244158  23.7350242  75.6293452  46.3241534  22.5767833
  75.3654962  46.2841450  23.3135885  70.1295066  29.5761755  18.1559517
  70.2622972  28.7792748  18.4840493  70.5140219  30.1028158  18.7357793
  70.2051395  29.5361671  18.2903020  73.8499518  44.5952218  17.9629115
  73.3020464  43.9710102  17.6949180  74.3112546  44.7846490  17.2473195
  73.8366727  44.5311268  17.8179546  73.2027421  26.4992081  14.7540611
  72.3973385  26.3889810  15.0708449  73.0734157  26.6004537  13.8970476
  73.0647554  26.4975751  14.6748651  67.7883513  29.5720930  16.4037411
  68.3327926  29.2312057  16.9941753  67.8420449  30.4306391  16.5458696
  67.8772632  29.6476189  16.5119284  63.6014072  43.3337346  13.2776219
  64.2058929  43.2933180  12.6490040  63.3941384  44.1808498  13.3080275
  63.6602969  43.4525348  13.1892336  73.4157844  45.6003291  14.4938456
  74.2356218  45.4566257  14.7554752  73.1351922  46.2249490  15.0354894
  73.4954587  45.6713643  14.6126396  58.8365354  42.3171963  13.1475142
  58.7389632  41.5068235  13.4565199  59.6194224  42.2963757  12.7621410
  58.9381491  42.1939054  13.1362005  75.4903430  53.6438337  19.0490275
  76.2143402  53.6291368  19.5355170  75.5919567  54.3533692  18.5512243
  75.6121639  53.7463040  19.0469062  73.4413269  50.4448001  15.2759057
  73.2998761  49.5931942  15.4003565  73.7253833  50.4876662  14.4521263
  73.4621115  50.3247751  15.1726681  74.2103575  48.3578349  18.5936507
  73.6745764  47.7458707  18.9097275  74.2721339  48.9326485  19.2470174
  74.1399207  48.3525276  18.7371934  73.6214602  51.6989389  17.8144190
  74.4840215  51.5985098  17.7281520  73.2906385  51.1184098  17.2529763
  73.6999798  51.5981015  17.7189596  74.2115121  50.4856250  20.5311233
  74.0417712  51.1457624  19.9859440  73.7681071  50.6962811  21.2523722
  74.1214455  50.6142232  20.5572863  71.1117186  53.3903115  15.7899723
  70.5643905  52.7203761  15.9080591  71.9009564  53.0232963  15.8543190
  71.1469370  53.2368102  15.8168424   3.4023887  44.5773865  46.3826553
   3.3717891  45.4318501  46.5544822   4.0005236  44.2769157  46.9412696
   3.4861045  44.6590361  46.4901355   1.2240462  47.1526167  44.6544863
   1.1079988  47.9033853  45.0837001   2.0196348  46.8950120  44.9040950
   1.3245051  47.2261014  44.7548954   5.3336253  50.0764910  49.8389932
   4.5033956  50.2875553  50.0023349   5.2845506  49.2501964  49.5632216
   5.2042989  49.9854516  49.8227297   4.8290212  42.7235310  53.6340353
   3.9918633  42.7937497  53.8687948   4.7978443  42.7259805  52.7614656
   4.7008494  42.7345537  53.5399901   2.5900568  50.7464264  49.9754648
   2.1535800  50.7501006  50.7313619   2.2563484  51.4269763  49.5434225
   2.4763188  50.8476720  50.0235480   2.5098051  37.7878092  52.2184076
   3.1523960  37.8576196  52.8045991   2.7621072  37.1207315  51.7163618
   2.6420184  37.7004441  52.2311355   5.7244915  47.4645184  48.8674285
   6.3861349  46.9035852  48.7670194   5.0836327  46.9697215  49.1926976
   5.7273782  47.3081593  48.9006625   2.0109745  48.4810566  48.6086274
   2.2465335  48.6255765  47.7813124   2.1599309  49.2452974  49.0017787
   2.0675549  48.6149621  48.5449878   3.8400202  47.3212232  46.4455878
   4.1708419  47.8539872  45.8395973   4.4133290  47.3751120  47.1017829
   3.9733881  47.4081801  46.4533659   4.9479554  42.5622729  47.9496039
   4.6916119  41.7502671  47.7593922   5.7908868  42.5700296  47.7226227
   5.0345579  42.4434727  47.8880856   2.6304713  49.7172325  57.7854592
   2.3943350  48.8860390  57.6666652   3.2747942  49.6657932  58.3709436
   2.6899384  49.5870013  57.8540485   3.6541134  49.5016774  53.8482886
   3.3486951  50.2344831  54.2096202   2.9347349  49.0954703  53.5675672
   3.5028476  49.5498507  53.8596023   9.3542926  46.1409775  53.1751231
   9.2867426  46.1605734  52.3053817   9.3398588  46.9840102  53.4006901
   9.3421682  46.2683509  53.0803707   7.1401543  44.9154161  51.4497825
   7.6909465  44.2822230  51.6894917   7.1245658  45.4469554  52.1413329
   7.2186739  44.9003109  51.5876683   1.3042978  49.6176199  46.1026409
   1.8701011  50.2769408  46.0184952   0.6570882  49.9625897  46.5742811
   1.2921735  49.7658140  46.1599166   3.2378439  46.2810066  49.7223206
   3.1512413  46.4365492  50.5757985   2.7828918  46.9248142  49.3482611
   3.1581695  46.3985821  49.7930313   2.5005676  49.6682426  42.8952046
   2.1212485  48.8819564  42.8881335   1.8371922  50.2169283  42.7523690
   2.3464151  49.6327250  42.8732843   0.7465775  51.9127917  43.2303732
   0.8285612  52.7194903  42.9065183   1.2315517  51.9323877  43.9544505
   0.8302933  52.0348580  43.2890630   1.9919219  43.5820772  53.1510814
   1.5646827  43.4947120  52.3958913   1.3545272  43.6898547  53.7365658
   1.8348827  43.5853432  53.1256255   2.4283988  36.9892755  49.2669439
   1.8158301  37.4763157  49.6523171   2.5248163  36.3136246  49.8107090
   2.3521885  36.9611064  49.4048297   6.0709016  48.0609692  54.6946955
   6.1292139  48.5096341  55.4406931   5.4375483  48.4708505  54.2577035
   5.9860311  48.1883427  54.7399503   3.0230695  46.0825980  52.7812645
   2.7828918  45.2432395  52.7855072   3.5022702  46.1626146  53.5053419
   3.0582879  45.9707379  52.8887448   5.0235882  42.8627437  50.7341904
   4.7845652  42.8223271  49.8962689   5.1869784  43.7098589  50.8607625
   5.0126186  42.9819522  50.6295386   1.6281912  47.2477386  56.6646949
   2.3516111  46.7949912  56.4857969   1.3631875  47.5282052  55.8819277
   1.6963186  47.2228355  56.5225665   4.0617226  46.2103797  55.1677499
   4.6535067  46.8501048  55.1995697   4.4976221  45.5126834  55.4569566
   4.2135658  46.2022147  55.2158332   2.6818555  35.0023311  51.3055327
   2.1749420  34.2952451  51.2376505   3.4785989  34.6716500  51.4356404
   2.7245794  34.8496462  51.3154322   4.8838695  49.5188238  44.2896192
   5.2672301  50.2679594  44.5194289   4.0882809  49.7654057  44.0308181
   4.8232477  49.6657931  44.2853765   1.3239277  40.4989861  47.4532149
   1.3233504  40.3438517  48.3116426   1.1195457  41.3452848  47.3973535
   1.2939055  40.6010481  47.5720089   1.1131948  47.9291050  53.7945485
   1.5387020  47.4065472  53.2415910   0.7488868  48.5271887  53.2734108
   1.1218551  47.9401277  53.6354495   1.1478358  39.5028603  54.2725528
   0.5641347  40.0037809  53.8603095   1.4682652  38.9958159  53.6389851
   1.1091534  39.5020438  54.1184035  14.3756471  60.0959173  46.3826553
  14.3450475  60.9503809  46.5544822  14.9737819  59.7954465  46.9412696
  14.4593629  60.1775669  46.4901355   7.5756156  59.1834824  51.1379483
   6.7194051  59.3443322  51.1888600   7.6223809  58.3126888  51.1584544
   7.4555267  59.0785626  51.1485549  10.8849872  65.4521349  60.7439939
  11.5916639  64.9573380  60.8726874  11.0737808  65.8930431  60.0142597
  11.0177778  65.4439700  60.6548985  10.4207977  61.2426868  53.7811135
  10.9663937  61.9211954  53.8405105  10.3624853  61.1014328  52.9212716
  10.4923891  61.3218869  53.6623195  12.1973045  62.6711475  44.6544863
  12.0812571  63.4219161  45.0837001  12.9928932  62.4135428  44.9040950
  12.2977635  62.7446322  44.7548954   6.1305079  58.6621493  46.0248592
   6.8285244  58.8409620  46.5170055   6.4457411  58.1391832  45.4018981
   6.2800416  58.6115265  46.0050602   6.3193014  65.0491938  46.0128383
   6.7586650  64.4409038  46.4583156   6.1697677  64.6699311  45.2413848
   6.3614480  64.9030409  45.9647551   3.7864657  63.6435949  53.2147209
   4.4313660  63.1508393  52.8958157   4.0266434  63.7860736  54.0413287
   3.9175242  63.5913392  53.2896742   6.3250749  66.4890855  52.8654101
   6.6073991  65.6942261  52.6440857   7.0536909  66.9671443  52.8859162
   6.4740312  66.4425452  52.8357116   4.3031942  54.0313889  50.1069866
   3.9735272  54.4825033  49.4373565   3.6276944  53.9530053  50.6542873
   4.1542379  54.0865024  50.0893090   9.9202351  63.4019119  42.9659152
   9.8353646  64.2580086  43.1108721  10.4086734  63.1263443  43.6341312
   9.9791248  63.4876440  43.0861234  11.5108350  50.0199412  48.3519477
  11.1961791  50.7102891  48.7839899  10.9935292  49.9644194  47.6504978
  11.3872821  50.1134301  48.3116426  10.8520784  60.0203913  44.4656888
  10.3232255  60.2363547  45.1254194  11.3745804  60.7140052  44.3857857
  10.8509237  60.1547050  44.5512487  16.3068837  65.5950218  49.8389932
  15.4766540  65.8060861  50.0023349  16.2578089  64.7687272  49.5632216
  16.1775572  65.5039824  49.8227297   2.7420392  63.9167130  43.2664356
   2.1577607  64.4217161  43.6730219   2.3390487  63.6909517  42.5260948
   2.5959696  63.9575378  43.2169381   7.1997606  60.1632782  41.7433276
   7.4393610  60.3710766  40.9308619   7.5213447  59.3590291  41.8522221
   7.2834764  60.0746883  41.6393829   2.5087896  52.0926178  45.5892814
   3.2633864  52.4604495  45.3509864   2.3315431  52.4665732  46.3571994
   2.5942375  52.2024366  45.6677703  15.8022795  58.2420618  53.6340353
  14.9651216  58.3122805  53.8687948  15.7711026  58.2445113  52.7614656
  15.6741078  58.2530845  53.5399901   0.8644961  54.4996497  42.2870927
   0.6820534  54.7168378  41.4611920   1.7270574  54.6135509  42.3429541
   0.9649551  54.5486395  42.1725414   6.5444680  51.5022907  45.3219951
   7.2730841  51.3238862  44.8758107   6.6339573  52.3440987  45.5327129
   6.6651342  51.6006786  45.2873469  10.5252981  62.4376295  49.2252245
  11.2810496  62.8707809  49.2641154  10.6315305  61.7881064  49.7986881
  10.6523152  62.4053779  49.3150270  13.5633152  66.2649572  49.9754648
  13.1268384  66.2686314  50.7313619  13.2296068  66.9455071  49.5434225
  13.4495772  66.3662028  50.0235480  13.4830635  53.3063400  52.2184076
  14.1256543  53.3761504  52.8045991  13.7353656  52.6392623  51.7163618
  13.6152767  53.2189748  52.2311355   1.2547848  56.5163963  56.8308650
   0.5619644  56.0460943  57.0769381   1.8708175  56.2902268  57.4050357
   1.2432377  56.4131095  56.9517802  16.6977498  62.9830492  48.8674285
  17.3593932  62.4221160  48.7670194  16.0568910  62.4882523  49.1926976
  16.7006366  62.8266901  48.9006625   7.5854306  66.2800623  41.1755208
   8.0005455  65.9485647  40.4839704   6.7546236  66.0469526  41.0475345
   7.5242315  66.1971879  41.0546056  12.9842329  63.9995874  48.6086274
  13.2197918  64.1441073  47.7813124  13.1331893  64.7638282  49.0017787
  13.0408132  64.1334929  48.5449878  14.8132786  62.8397540  46.4455878
  15.1441003  63.3725180  45.8395973  15.3865874  62.8936428  47.1017829
  14.9466465  62.9267109  46.4533659  10.0264675  60.6862443  47.1279458
  10.1211529  61.4251737  47.5819083   9.4023518  60.2579918  47.5614022
   9.9473705  60.7323764  47.2587605   8.2817149  63.8648656  57.7769739
   8.8556010  63.2275900  57.9318303   8.2031952  63.8652738  56.9079396
   8.3550384  63.7713767  57.6716150  10.2787696  62.5311183  40.3616410
  10.1967859  62.6013370  41.2271397  10.9167417  63.0940927  40.1700150
  10.3607534  62.6250154  40.4606359   3.6380867  62.2971921  49.8290936
   3.3800112  61.4643656  49.8022236   3.6929350  62.5229534  48.9883436
   3.6080645  62.2069692  49.7011073   8.7181917  54.4000371  49.9295029
   8.0138244  53.9109557  50.0878948   8.7666892  54.4122846  49.0583473
   8.6211969  54.3290019  49.8234369   2.6115579  59.8509683  50.3155831
   2.0365171  60.0101851  50.9519792   2.2351256  59.2145092  49.8524281
   2.4718392  59.7807496  50.3410389   6.2788868  58.3233032  55.1748209
   5.8903301  57.8987250  54.5200400   5.6143566  58.5715182  55.6825236
   6.1235796  58.2971754  55.1536077  15.9212137  58.0808037  47.9496039
  15.6648702  57.2687979  47.7593922  16.7641451  58.0885604  47.7226227
  16.0078163  57.9620035  47.8880856  10.1015230  52.0207661  52.6872193
  10.4825741  51.3385832  53.0740068   9.2978514  51.7317263  52.5047858
  10.0391691  51.8774710  52.7176249   7.3827806  62.5531637  43.3725016
   8.1968445  62.8446530  43.2607788   7.3186948  61.8991499  42.7983309
   7.4930545  62.4996832  43.2713854  13.6037297  65.2357633  57.7854592
  13.3675934  64.4045698  57.6666652  14.2480525  65.1843240  58.3709436
  13.6631967  65.1055321  57.8540485   3.2535715  66.0253154  48.4997328
   3.8909662  65.7864902  49.0449122   3.6790786  66.2290313  47.7650489
   3.4111881  66.0204165  48.4714486   3.8938530  61.2455444  42.8372218
   4.2783682  61.0263151  43.5888763   3.6450150  62.0718390  42.9673294
   3.9140602  61.3353590  42.9673294  14.6273717  65.0202082  53.8482886
  14.3219534  65.7530139  54.2096202  13.9079933  64.6140011  53.5675672
  14.4761059  65.0683815  53.8596023   5.6357187  66.5025577  50.1791115
   5.7096195  66.3400749  51.0332964   6.4526693  66.6915767  49.9351596
   5.7673545  66.5062319  50.2689140  20.3275509  61.6595083  53.1751231
  20.2600010  61.6791042  52.3053817  20.3131172  62.5025410  53.4006901
  20.3154266  61.7868817  53.0803707   1.6138967  52.9152381  48.1680998
   0.7461392  52.9874980  48.2338607   1.9014171  53.7174460  48.3568973
   1.5278715  53.0446528  48.2055765  10.7371856  53.0630240  56.4992320
  11.4825448  52.8740051  56.0855745  10.3209160  53.5888478  55.9406176
  10.7856830  53.1132386  56.3556893  18.1134127  60.4339469  51.4497825
  18.6642048  59.8007538  51.6894917  18.0978242  60.9654862  52.1413329
  18.1919323  60.4188417  51.5876683   4.7656517  64.2678066  55.9957718
   4.2668211  64.9793834  56.0742607   5.5756742  64.5878733  55.9575881
   4.8112624  64.4204915  56.0014287   1.0284635  63.5301019  50.2420439
   0.7397884  62.9038490  50.7766167   1.8967983  63.4721306  50.3085120
   1.1144887  63.4288563  50.3311394  11.8162533  58.6735802  50.5602421
  11.4727299  57.9526138  50.9109671  11.9155575  58.4649654  49.7180779
  11.7804576  58.5360006  50.4874101  12.2775562  65.1361507  46.1026409
  12.8433595  65.7954716  46.0184952  11.6303465  65.4811205  46.5742811
  12.2654318  65.2843448  46.1599166   3.9781461  63.3708850  46.9384411
   3.7824243  63.9783585  46.3444714   4.2015806  62.6776794  46.4576085
   3.9816102  63.3586376  46.7800492   2.3759991  60.2563588  47.0565279
   3.0982643  60.4204747  46.5969085   1.8967983  60.9773253  46.9504619
   2.4123721  60.3861818  46.9730893  10.3353498  56.5927387  52.4361964
   9.4964599  56.6188666  52.2000227  10.4057866  57.2398123  53.0167311
  10.2221892  56.6923513  52.4871081   8.7822777  53.4912764  47.1689580
   9.4849129  53.2920513  46.6909538   8.5166965  52.7188707  47.4758424
   8.8469409  53.3475730  47.1435022  14.2111022  61.7995374  49.7223206
  14.1244997  61.9550800  50.5757985  13.7561502  62.4433450  49.3482611
  14.1314279  61.9171129  49.7930313   3.5451333  54.7548049  56.2220461
   3.3534530  54.7703184  57.0719884   4.3949929  54.9511724  56.1987115
   3.6427055  54.7862401  56.3443755   8.0836838  59.1206121  48.3448765
   7.8371552  59.0401872  49.1785554   8.4121961  58.3359589  48.1511293
   8.0958082  58.9932386  48.4396288  11.9784887  65.8289480  52.1335547
  11.8399246  66.5270526  52.6384289  11.1984885  65.6738137  51.7771728
  11.8428114  65.9089647  52.1561821  10.3162972  62.1285856  58.3857928
  10.3111011  61.2565672  58.3900355  11.0223966  62.3274025  57.9127384
  10.4207976  62.0289730  58.3164964   4.0433865  61.8562840  57.7571748
   4.1877241  62.4364048  57.1214858   4.3909514  62.2339136  58.4621603
   4.1161327  61.9983544  57.7670743   6.2153783  61.0553008  55.5396880
   5.4677097  61.2484022  55.1345158   6.3695308  60.2298228  55.3021001
   6.1276210  60.9618119  55.4442286  13.4738260  65.1867734  42.8952046
  13.0945069  64.4004872  42.8881335  12.8104505  65.7354591  42.7523690
  13.3196735  65.1512558  42.8732843   6.4555560  54.9503559  56.4292284
   6.9128174  55.6827533  56.5565076   6.5311889  54.5270024  57.1879540
   6.5346530  54.9960797  56.5593360  10.9282886  48.1293434  50.2986127
  11.0466454  48.5869897  49.5653429  10.7545061  47.3238695  50.0122344
  10.9202057  48.0787206  50.1487060   4.3337938  56.9405663  53.2734108
   3.5434013  56.7597123  53.5951444   4.7298561  56.1632615  53.2564402
   4.2754814  56.7993124  53.3186656   8.8203829  65.7693437  38.7140821
   9.5876814  65.8293562  38.3046673   8.3735137  65.1973878  38.2297140
   8.8677256  65.6930013  38.5818532   9.7181624  64.5748093  50.9993554
   9.0426626  64.3433325  51.5006941   9.7274000  63.9669276  50.3735659
   9.6200129  64.4507018  50.9809706   6.8475768  59.4165922  57.7557607
   6.7834909  60.2775878  57.6277743   6.9872956  59.0997915  56.9553158
   6.8591238  59.4966088  57.6185820  11.7198359  67.4313225  43.2303732
  11.8018196  68.2380211  42.9065183  12.2048101  67.4509184  43.9544505
  11.8035517  67.5533888  43.2890630   5.5294862  62.1098061  51.8973810
   5.1057111  62.3102560  51.1612828   5.3539717  61.2626909  52.0098109
   5.4405743  62.0146843  51.8047500   0.8177307  62.6050113  47.3301782
   0.9741926  62.5396915  48.1857774   1.1577900  63.3798665  47.1180462
   0.8910542  62.7099311  47.4256376   7.3556451  61.9807996  46.1995145
   7.8971997  61.4778377  46.6633766   7.6703011  61.9273191  45.3884631
   7.4820849  61.8987417  46.1478957   8.5045721  56.8744301  56.2517446
   8.7187690  56.2355215  55.6980800   7.8879620  57.3190125  55.8225308
   8.4451050  56.8454444  56.1067877  10.6684809  58.4833366  57.1900753
   9.8561491  58.1759256  57.2713926  11.1274743  58.0032366  57.7543465
  10.6165194  58.3669858  57.2855347  10.0790064  66.3613038  47.6377697
   9.7204718  66.5327681  48.4141730   9.5928774  66.8226243  47.0805696
   9.9548760  66.4552009  47.6702966   7.8960450  49.9844236  51.2404789
   7.0254007  49.9582957  51.1938098   8.1500791  49.8121429  50.4230634
   7.8054010  49.9554380  51.1124925   4.8678429  62.0412203  40.1777932
   5.1570954  62.8177086  40.4521506   4.9550228  61.5300935  40.8792431
   4.9232685  62.0804122  40.3220429   7.7638316  59.8893437  61.9729455
   8.2337948  60.5135554  62.3597329   7.8100197  59.2210413  62.5322670
   7.8406192  59.8828118  62.1129527   4.9209590  51.9950465  52.6978259
   4.4048079  51.3030656  52.8229838   4.3603519  52.6621242  52.6440858
   4.7616103  51.9913722  52.7084325   6.9901823  52.5343425  54.5271112
   6.6033577  52.5592456  55.3084641   6.5034761  51.9685103  54.0745628
   6.8614332  52.4539176  54.5759015  11.2394803  67.2516934  58.5844898
  11.8774523  66.7577129  58.2507354  10.5968894  67.1794334  57.9997125
  11.2389029  67.1675942  58.4487253  12.9651803  59.1006080  53.1510814
  12.5379411  59.0132428  52.3958913  12.3277856  59.2083855  53.7365658
  12.8081410  59.1038740  53.1256255   6.6558965  49.4210410  56.8181371
   7.2852083  49.9570710  56.5402442   6.8244828  49.3287769  57.6694937
   6.7736760  49.4871773  56.9029900   6.4572880  54.2081605  59.0907783
   7.2846309  53.9366754  59.1466398   6.4780726  55.0042447  59.4471601
   6.5825730  54.2861359  59.1522966  11.2949060  67.9436742  55.2250255
  12.0841438  67.5925807  55.3452337  11.4692657  68.7573130  54.9626889
  11.4369341  68.0122599  55.2038123  10.1482884  51.9546299  49.7866673
  10.3532477  51.8868607  50.6323670   9.8209308  52.7605120  49.7187851
  10.1298132  52.0632239  49.9026328   4.8459035  59.2826867  51.5275641
   4.5422172  58.7282855  52.1286049   4.1438456  59.4619077  51.0403675
   4.6975245  59.2271649  51.5445347   3.9025132  56.5927387  46.0920343
   4.1784866  55.8746299  45.6797911   4.5023801  57.1912307  45.8841449
   4.0318397  56.5747758  46.0001104  13.4016571  52.5078063  49.2669439
  12.7890885  52.9948465  49.6523171  13.4980746  51.8321554  49.8107090
  13.3254469  52.4796372  49.4048297   7.4035652  54.2640904  44.3666938
   7.8579399  54.4351465  45.0914783   7.8775698  53.6509015  43.9664714
   7.5403973  54.1991789  44.4140700   1.3211801  54.9091228  54.3637694
   1.7813282  54.9830157  55.1012818   1.3667907  55.7072482  54.0137516
   1.3962356  55.0385375  54.4210451   2.9695150  55.5757923  58.9309721
   2.5780715  54.9291270  59.3665499   3.1381013  56.1669358  59.5503977
   2.9366061  55.5672191  59.0872427  17.0441599  63.5795000  54.6946955
  17.1024723  64.0281649  55.4406931  16.4108067  63.9893813  54.2577035
  16.9592894  63.7068734  54.7399503   4.7448672  60.9683439  45.4711945
   5.4890717  61.3557715  45.7094895   4.8909369  60.1240864  45.6352433
   4.8759257  60.9013911  45.5305915   6.6628248  52.7633697  50.5043807
   5.8164293  52.9356505  50.3785157   6.6599380  51.9583041  50.8409635
   6.5375398  52.6694726  50.5354934   7.7326548  56.5408912  51.3705865
   7.2586502  56.0150674  51.8811176   8.1044684  55.9938385  50.8020726
   7.7176437  56.3824908  51.3621012  13.9963279  61.6011287  52.7812645
  13.7561502  60.7617703  52.7855072  14.4755286  61.6811454  53.5053419
  14.0315462  61.4892687  52.8887448   9.6610048  57.4345466  44.4331619
   9.1333067  57.5174210  43.7437327  10.1205756  58.1763338  44.4296263
   9.6511898  57.5566129  44.3306314  15.9968466  58.3812745  50.7341904
  15.7578236  58.3408579  49.8962689  16.1602367  59.2283897  50.8607625
  15.9858769  58.5004830  50.6295386  12.6014496  62.7662694  56.6646949
  13.3248695  62.3135220  56.4857969  12.3364458  63.0467360  55.8819277
  12.6695769  62.7413663  56.5225665   1.4701364  57.3622868  53.3999829
   0.8454435  57.3741260  52.7925781   1.1346959  57.8383043  54.0491069
   1.3286856  57.4341385  53.4056397   1.6543113  55.7047986  39.4572514
   1.3055917  56.3567711  39.9204063   1.1739559  55.6905099  38.7296385
   1.5313357  55.7991040  39.4183605   9.2147130  66.0049030  43.5641276
   9.9381329  66.4707143  43.4205849   8.7747721  66.0722640  42.8138873
   9.2562823  66.0832867  43.4326057   8.3833285  62.8646572  54.8141965
   7.7690279  62.3204623  55.1090600   8.9000570  62.3510809  54.3347781
   8.3688948  62.7082981  54.7866193   7.6229583  63.9350842  52.5486263
   7.1957191  63.3100561  52.1151699   7.6154527  63.6525764  53.3745270
   7.5588724  63.8003623  52.6066091   0.7392110  58.9716015  55.6174697
   0.8985596  58.2159339  56.0226419   0.5585003  59.5206955  56.2715435
   0.7357469  58.9409829  55.7737403   8.6812413  51.1377251  56.1725487
   8.1852974  51.3340925  55.4817053   9.4381475  51.5369919  56.0014288
   8.7199237  51.2254985  56.0445623   5.9515292  54.8119597  52.7628797
   5.9757780  54.2779709  52.0741577   6.2026766  54.3036906  53.4254388
   5.9925211  54.6580501  52.7593442   2.2316615  53.5390415  52.1434541
   2.2714986  54.0399622  52.8569249   1.4066279  53.6300809  51.8740465
   2.1156140  53.6272231  52.2085080   3.6530978  60.0550925  54.4408441
   2.8222908  60.2224743  54.2343689   3.5982495  59.6786876  55.2257326
   3.5220393  60.0240656  54.5256969   1.4614761  53.5459818  60.0764851
   2.0867465  53.0021951  60.3494283   1.0065241  53.0654735  59.5072642
   1.4863022  53.3949299  60.0326445   2.0267022  58.3306516  44.9698558
   2.1669983  58.8278981  45.6727200   2.5249555  57.6292811  45.1112772
   2.1208103  58.3008495  45.0950137   2.0567244  59.1973627  42.2991135
   2.6912324  59.7934052  42.2340597   2.1392855  58.8977085  43.1137005
   2.1623795  59.2414536  42.4094222  15.0349810  61.7289105  55.1677499
  15.6267650  62.3686356  55.1995697  15.4708804  61.0312142  55.4569566
  15.1868241  61.7207455  55.2158332   3.6346227  55.1287603  42.2736577
   3.9562068  54.6490685  41.6195839   3.8973171  55.9387249  42.0827389
   3.7212252  55.1777501  42.1492069   6.8643200  66.1506477  55.7935393
   6.3568291  66.7042324  56.2376024   6.5669846  66.2114767  54.9754168
   6.7448085  66.2412788  55.7383850   9.0305382  54.5159797  54.6360056
   9.4560454  54.0632323  54.0243583   8.4162375  53.9619868  54.9124844
   9.0034027  54.3673773  54.5865081   7.4699605  50.9874897  48.0450633
   6.8267923  50.8372543  48.6135772   7.1299012  50.7417242  47.2799738
   7.3244682  50.9287019  48.0153648  12.0598951  58.9434323  47.4680642
  11.3890141  59.4864026  47.3393707  12.7538702  59.4129179  47.2262337
  12.0627819  59.0932595  47.4136169  12.2227079  55.3990207  50.3771015
  12.5754689  54.9719930  51.0516814  11.3641880  55.3141051  50.5072091
  12.1476523  55.3234948  50.4966025  10.2210345  58.6625576  54.3255857
  10.2008272  58.4808871  55.1790636  10.2689545  59.5337594  54.3015441
  10.2244986  58.7642114  54.4479152   6.6957338  57.0695727  43.7727241
   6.1022177  57.3912723  43.2211808   6.7332616  56.2236822  43.5648347
   6.6131727  56.9920055  43.6610012  13.6551139  50.5208619  51.3055327
  13.1482004  49.8137758  51.2376505  14.4518573  50.1901808  51.4356404
  13.6978378  50.3681770  51.3154322   9.5715155  57.0275231  47.2028991
   9.3428848  57.0507933  46.3607349   9.8313231  56.2032698  47.3224002
   9.5761343  56.9091311  47.0954189   3.8534383  58.8809704  56.8054091
   3.3413286  58.2730887  57.1639123   3.6813879  59.5966297  57.2728067
   3.7524020  58.8973003  56.9270315   2.6259917  55.5651777  48.4983187
   3.1017283  55.9268857  47.8633368   2.1248517  56.2208245  48.7783330
   2.6225276  55.7145966  48.4459928  15.8571279  65.0373546  44.2896192
  16.2404885  65.7864902  44.5194289  15.0615392  65.2839365  44.0308181
  15.7965061  65.1843239  44.2853765   7.7303454  56.8033949  59.2456347
   8.2874884  56.5747758  58.6134812   7.4064519  57.5639614  58.9691559
   7.7649864  56.8817786  59.1112844   5.4486571  59.8901602  60.2108354
   6.1997898  60.2053279  60.5247908   5.6409147  59.6880773  59.3842276
   5.5877985  59.9068984  60.1351750   4.6686570  57.7092977  41.8656571
   5.0485535  57.7272606  41.0807686   3.9279166  58.1546966  41.7447418
   4.6155408  57.7774752  41.7320139  12.2971861  56.0175168  47.4532149
  12.2966087  55.8623825  48.3116426  12.0928041  56.8638156  47.3973535
  12.2671639  56.1195789  47.5720089  10.0212713  60.6972670  51.1068356
  10.5166378  59.9795665  51.0672377   9.2112489  60.3943468  50.9922843
   9.9756606  60.5470317  51.0842082   5.4671324  64.5470484  43.2565361
   4.6582647  64.2237157  43.2098670   5.9746233  63.8403706  43.1893609
   5.4220991  64.3951800  43.2395655  12.0864532  63.4476358  53.7945485
  12.5119603  62.9250780  53.2415910  11.7221452  64.0457195  53.2734108
  12.0951134  63.4586585  53.6354495   8.6743131  67.1610622  50.1246643
   9.1454309  67.8750885  50.2936628   9.0103310  66.5609372  50.6606512
   8.7938246  67.1782086  50.2279018   5.5912626  51.9338093  57.0804737
   5.7240532  51.1369086  57.4085713   5.9757779  52.4604496  57.6603013
   5.6668955  51.8938009  57.2148240   9.3117078  66.9528556  56.8874335
   8.7638024  66.3286440  56.6194400   9.7730106  67.1422828  56.1718415
   9.2984287  66.8887606  56.7424766   8.6644981  48.8568419  53.6785831
   7.8590945  48.7466148  53.9953669   8.5351717  48.9580874  52.8215696
   8.5265114  48.8552089  53.5993871  12.1210942  55.0213911  54.2725528
  11.5373931  55.5223117  53.8603095  12.4415236  54.5143467  53.6389851
  12.0824117  55.0205746  54.1184035   4.6605741  53.9354505  44.5484202
   5.4821435  54.1052818  44.3065897   4.1975392  54.0901766  43.8250500
   4.7136903  53.9836238  44.4055847   3.2501073  51.9297268  55.3282631
   3.7945486  51.5888394  55.9186973   3.3038009  52.7882729  55.4703916
   3.3390192  52.0052527  55.4364504  15.2764526  69.5499197  50.1069866
  14.9467856  70.0010341  49.4373565  14.6009528  69.4715361  50.6542873
  15.1274962  69.6050332  50.0893090  22.4840934  65.5384720  48.3519477
  22.1694375  66.2288199  48.7839899  21.9667875  65.4829502  47.6504978
  22.3605404  65.6319609  48.3116426  13.4820480  67.6111486  45.5892814
  14.2366448  67.9789803  45.3509864  13.3048015  67.9851040  46.3571994
  13.5674958  67.7209674  45.6677703  26.7755379  73.7605926  53.6340353
  25.9383800  73.8308113  53.8687948  26.7443610  73.7630421  52.7614656
  26.6473661  73.7716153  53.5399901  17.5177264  67.0208215  45.3219951
  18.2463424  66.8424170  44.8758107  17.6072157  67.8626295  45.5327129
  17.6383926  67.1192094  45.2873469  24.4563219  68.8248708  52.2184076
  25.0989127  68.8946812  52.8045991  24.7086239  68.1577931  51.7163618
  24.5885351  68.7375056  52.2311355  19.6914501  69.9185679  49.9295029
  18.9870828  69.4294865  50.0878948  19.7399475  69.9308154  49.0583473
  19.5944553  69.8475327  49.8234369  26.8944721  73.5993345  47.9496039
  26.6381286  72.7873287  47.7593922  27.7374035  73.6070912  47.7226227
  26.9810746  73.4805342  47.8880856  21.0747813  67.5392969  52.6872193
  21.4558325  66.8571140  53.0740068  20.2711098  67.2502571  52.5047858
  21.0124275  67.3960018  52.7176249  12.5871551  68.4337689  48.1680998
  11.7193976  68.5060288  48.2338607  12.8746755  69.2359768  48.3568973
  12.5011299  68.5631836  48.2055765  21.7104439  68.5815548  56.4992320
  22.4558031  68.3925359  56.0855745  21.2941744  69.1073786  55.9406176
  21.7589414  68.6317694  56.3556893  19.7555360  69.0098072  47.1689580
  20.4581713  68.8105820  46.6909538  19.4899549  68.2374015  47.4758424
  19.8201992  68.8661038  47.1435022  17.4288143  70.4688867  56.4292284
  17.8860758  71.2012841  56.5565076  17.5044472  70.0455332  57.1879540
  17.5079113  70.5146105  56.5593360  21.9015469  63.6478742  50.2986127
  22.0199037  64.1055205  49.5653429  21.7277645  62.8424003  50.0122344
  21.8934640  63.5972514  50.1487060  18.8693033  65.5029544  51.2404789
  17.9986591  65.4768265  51.1938098  19.1233374  65.3306736  50.4230634
  18.7786593  65.4739688  51.1124925  15.8942174  67.5135773  52.6978259
  15.3780662  66.8215964  52.8229838  15.3336102  68.1806550  52.6440858
  15.7348687  67.5099030  52.7084325  17.9634407  68.0528733  54.5271112
  17.5766160  68.0777764  55.3084641  17.4767344  67.4870411  54.0745628
  17.8346916  67.9724484  54.5759015  17.6291549  64.9395718  56.8181371
  18.2584667  65.4756018  56.5402442  17.7977412  64.8473077  57.6694937
  17.7469343  65.0057080  56.9029900  17.4305464  69.7266913  59.0907783
  18.2578893  69.4552062  59.1466398  17.4513310  70.5227755  59.4471601
  17.5558314  69.8046667  59.1522966  21.1215467  67.4731607  49.7866673
  21.3265061  67.4053915  50.6323670  20.7941891  68.2790428  49.7187851
  21.1030715  67.5817547  49.9026328  24.3749155  68.0263371  49.2669439
  23.7623469  68.5133773  49.6523171  24.4713330  67.3506862  49.8107090
  24.2987053  67.9981680  49.4048297  18.3768236  69.7826212  44.3666938
  18.8311983  69.9536772  45.0914783  18.8508282  69.1694323  43.9664714
  18.5136556  69.7177097  44.4140700  17.6360831  68.2819005  50.5043807
  16.7896876  68.4541813  50.3785157  17.6331964  67.4768349  50.8409635
  17.5107981  68.1880034  50.5354934  19.6544996  66.6562559  56.1725487
  19.1585558  66.8526233  55.4817053  20.4114058  67.0555227  56.0014288
  19.6931821  66.7440293  56.0445623  16.9247876  70.3304905  52.7628797
  16.9490363  69.7965017  52.0741577  17.1759350  69.8222214  53.4254388
  16.9657795  70.1765809  52.7593442  13.2049198  69.0575723  52.1434541
  13.2447570  69.5584930  52.8569249  12.3798863  69.1486117  51.8740465
  13.0888724  69.1457539  52.2085080  12.4347345  69.0645126  60.0764851
  13.0600048  68.5207259  60.3494283  11.9797825  68.5840043  59.5072642
  12.4595605  68.9134607  60.0326445  20.0037966  70.0345105  54.6360056
  20.4293037  69.5817631  54.0243583  19.3894959  69.4805175  54.9124844
  19.9766611  69.8859081  54.5865081  18.4432188  66.5060205  48.0450633
  17.8000506  66.3557851  48.6135772  18.1031595  66.2602550  47.2799738
  18.2977266  66.4472327  48.0153648  23.1959662  70.9175515  50.3771015
  23.5487272  70.4905238  51.0516814  22.3374464  70.8326359  50.5072091
  23.1209107  70.8420256  50.4966025  24.6283722  66.0393927  51.3055327
  24.1214587  65.3323066  51.2376505  25.4251156  65.7087116  51.4356404
  24.6710962  65.8867078  51.3154322  23.2704444  71.5360476  47.4532149
  23.2698671  71.3809133  48.3116426  23.0660625  72.3823463  47.3973535
  23.2404222  71.6381097  47.5720089  16.5645210  67.4523401  57.0804737
  16.6973115  66.6554394  57.4085713  16.9490363  67.9789804  57.6603013
  16.6401539  67.4123317  57.2148240  19.6377565  64.3753727  53.6785831
  18.8323529  64.2651456  53.9953669  19.5084300  64.4766182  52.8215696
  19.4997698  64.3737397  53.5993871  23.0943526  70.5399219  54.2725528
  22.5106514  71.0408425  53.8603095  23.4147820  70.0328775  53.6389851
  23.0556701  70.5391054  54.1184035  15.6338325  69.4539813  44.5484202
  16.4554019  69.6238126  44.3065897  15.1707976  69.6087074  43.8250500
  15.6869487  69.5021546  44.4055847  14.2233657  67.4482576  55.3282631
  14.7678070  67.1073702  55.9186973  14.2770592  68.3068037  55.4703916
  14.3122776  67.5237835  55.4364504   3.0974711  21.5151996  33.3166600
   3.0668715  22.3696633  33.4884869   3.6956060  21.2147288  33.8752743
   3.1811869  21.5968492  33.4241402   0.9191286  24.0904298  31.5884909
   0.8030811  24.8411984  32.0177048   1.7147172  23.8328251  31.8380996
   1.0195875  24.1639145  31.6889001   5.0287077  27.0143041  36.7729979
   4.1984780  27.2253684  36.9363395   4.9796330  26.1880095  36.4972262
   4.8993813  26.9232647  36.7567344   4.5241036  19.6613441  40.5680400
   3.6869457  19.7315629  40.8027995   4.4929266  19.6637936  39.6954703
   4.3959318  19.6723668  40.4739948   2.2851392  27.6842395  36.9094695
   1.8486624  27.6879138  37.6653666   1.9514308  28.3647894  36.4774272
   2.1714012  27.7854851  36.9575527   2.2048875  14.7256223  39.1524123
   2.8474784  14.7954328  39.7386038   2.4571896  14.0585446  38.6503664
   2.3371007  14.6382572  39.1651402   5.4195739  24.4023315  35.8014332
   6.0812173  23.8413984  35.7010240   4.7787151  23.9075346  36.1267023
   5.4224606  24.2459724  35.8346672   1.7060569  25.4188698  35.5426321
   1.9416159  25.5633896  34.7153171   1.8550133  26.1831106  35.9357834
   1.7626373  25.5527752  35.4789925   3.5351026  24.2590363  33.3795924
   3.8659243  24.7918004  32.7736019   4.1084114  24.3129251  34.0357875
   3.6684705  24.3459932  33.3873706   4.6430378  19.5000860  34.8836086
   4.3866942  18.6880802  34.6933969   5.4859692  19.5078427  34.6566273
   4.7296403  19.3812858  34.8220903   2.3255537  26.6550456  44.7194639
   2.0894174  25.8238521  44.6006699   2.9698766  26.6036064  45.3049483
   2.3850208  26.5248144  44.7880532   3.3491958  26.4394905  40.7822933
   3.0437775  27.1722962  41.1436249   2.6298173  26.0332835  40.5015719
   3.1979300  26.4876638  40.7936070   9.0493750  23.0787906  40.1091277
   8.9818250  23.0983865  39.2393864   9.0349412  23.9218233  40.3346948
   9.0372506  23.2061640  40.0143754   6.8352367  21.8532292  38.3837872
   7.3860289  21.2200361  38.6234964   6.8196482  22.3847685  39.0753376
   6.9137563  21.8381240  38.5216730   2.9329262  23.2188197  36.6563253
   2.8463237  23.3743623  37.5098032   2.4779742  23.8626273  36.2822658
   2.8532519  23.3363952  36.7270359   2.1956500  26.6060557  29.8292093
   1.8163309  25.8197695  29.8221382   1.5322746  27.1547414  29.6863737
   2.0414975  26.5705381  29.8072890   1.6870043  20.5198903  40.0850861
   1.2597651  20.4325252  39.3298960   1.0496096  20.6276679  40.6705705
   1.5299651  20.5231563  40.0596302   2.1234812  13.9270886  36.2009486
   1.5109125  14.4141288  36.5863217   2.2198987  13.2514377  36.7447137
   2.0472709  13.8989195  36.3388344   5.7659840  24.9987823  41.6287002
   5.8242963  25.4474472  42.3746978   5.1326307  25.4086636  41.1917082
   5.6811135  25.1261558  41.6739550   2.7181519  23.0204111  39.7152692
   2.4779742  22.1810526  39.7195118   3.1973526  23.1004277  40.4393466
   2.7533703  22.9085510  39.8227494   4.7186706  19.8005568  37.6681951
   4.4796476  19.7601402  36.8302736   4.8820607  20.6476720  37.7947672
   4.7077010  19.9197653  37.5635433   1.3232736  24.1855517  43.5986996
   2.0466935  23.7328044  43.4198016   1.0582699  24.4660183  42.8159324
   1.3914010  24.1606486  43.4565712   3.7568050  23.1481928  42.1017546
   4.3485891  23.7879179  42.1335744   4.1927045  22.4504965  42.3909613
   3.9086482  23.1400278  42.1498379   2.3769379  11.9401442  38.2395374
   1.8700244  11.2330582  38.1716552   3.1736813  11.6094631  38.3696451
   2.4196618  11.7874594  38.2494369   4.5789519  26.4566369  31.2236239
   4.9623125  27.2057725  31.4534336   3.7833632  26.7032188  30.9648228
   4.5183301  26.6036063  31.2193812   1.0190101  17.4367992  34.3872196
   1.0184328  17.2816648  35.2456473   0.8146281  18.2830979  34.3313582
   0.9889879  17.5388612  34.5060136  14.0707295  37.0337304  33.3166600
  14.0401299  37.8881941  33.4884869  14.6688643  36.7332596  33.8752743
  14.1544453  37.1153800  33.4241402   7.2706979  36.1212955  38.0719530
   6.4144875  36.2821453  38.1228647   7.3174633  35.2505019  38.0924591
   7.1506091  36.0163757  38.0825596   1.6548119  45.6575673  33.8356762
   0.9031019  45.2791211  33.6072807   2.1034131  45.6894106  33.0875572
   1.6097786  45.6061280  33.6914264  10.5800696  42.3899480  47.6779986
  11.2867463  41.8951511  47.8066921  10.7688631  42.8308562  46.9482644
  10.7128602  42.3817831  47.5889032   7.1073079  46.0801042  29.2642309
   6.7724448  46.7577964  28.8286531   7.6199950  45.6906353  28.6759180
   7.1338660  46.1225620  29.1129100   6.6477370  48.0315311  35.2053420
   7.0316750  48.6002210  34.6658195   6.5836512  47.3064821  34.7259236
   6.6950798  48.0090774  35.0547283  10.1158801  38.1804999  40.7151182
  10.6614761  38.8590085  40.7745151  10.0575677  38.0392460  39.8552763
  10.1874715  38.2597000  40.5963242   3.2332875  45.6694065  36.1019534
   3.3343238  44.8594419  36.4116662   2.6374621  45.5751011  35.4719213
   3.1605414  45.5359093  36.0545773  11.8923869  39.6089606  31.5884909
  11.7763395  40.3597292  32.0177048  12.6879756  39.3513559  31.8380996
  11.9928459  39.6824453  31.6889001   3.0733615  50.5871654  37.5034390
   3.7171070  51.0284818  37.8930549   3.3989870  49.7825080  37.4164649
   3.2165444  50.5336849  37.5479867   3.7754195  43.5983629  32.8754252
   4.0970036  44.1388836  32.2715560   4.4226291  43.0280400  33.0076542
   3.9180250  43.5942804  32.8061287   5.8255903  35.5999624  32.9588639
   6.5236067  35.7787751  33.4510102   6.1408235  35.0769963  32.3359028
   5.9751240  35.5493396  32.9390649   6.0143838  41.9870069  32.9468430
   6.4537474  41.3787169  33.3923203   5.8648501  41.6077442  32.1753895
   6.0565304  41.8408540  32.8987597   3.4815481  40.5814081  40.1487256
   4.1264484  40.0886524  39.8298204   3.7217258  40.7238867  40.9753334
   3.6126066  40.5291523  40.2236789   6.0201572  43.4268986  39.7994148
   6.3024815  42.6320392  39.5780904   6.7487733  43.9049574  39.8199209
   6.1691136  43.3803583  39.7697163   3.9982766  30.9692020  37.0409913
   3.6686096  31.4203164  36.3713612   3.3227768  30.8908184  37.5882920
   3.8493203  31.0243156  37.0233136   9.6153175  40.3397250  29.8999199
   9.5304470  41.1958217  30.0448768  10.1037558  40.0641574  30.5681358
   9.6742072  40.4254572  30.0201281  11.2059174  26.9577543  35.2859524
  10.8912615  27.6481022  35.7179946  10.6886116  26.9022326  34.5845024
  11.0823645  27.0512432  35.2456473  10.5471608  36.9582044  31.3996934
  10.0183079  37.1741678  32.0594241  11.0696628  37.6518183  31.3197904
  10.5460061  37.0925181  31.4852534  16.0019661  42.5328349  36.7729979
  15.1717364  42.7438992  36.9363395  15.9528913  41.7065403  36.4972262
  15.8726396  42.4417955  36.7567344   2.4371216  40.8545261  30.2004402
   1.8528431  41.3595292  30.6070266   2.0341311  40.6287648  29.4600994
   2.2910520  40.8953509  30.1509428   4.0629398  45.3632203  39.6077888
   3.5456340  45.0039618  39.0039196   4.7603790  44.8394377  39.6183954
   4.0894980  45.2329891  39.5208147   7.7192990  45.8127017  45.5694061
   7.8076336  45.6253157  46.4172272   8.1482703  45.1664447  45.1698908
   7.7955093  45.6890025  45.6365813   5.2863450  45.0958177  44.5511724
   4.7234285  44.6830787  45.0751385   6.0484474  45.0211083  44.9704867
   5.3157899  45.0235577  44.6904724   6.8948430  37.1010913  28.6773323
   7.1344434  37.3088897  27.8648666   7.2164271  36.2968422  28.7862267
   6.9785588  37.0125014  28.5733876   2.2038720  29.0304309  32.5232861
   2.9584688  29.3982626  32.2849911   2.0266255  29.4043863  33.2912040
   2.2893199  29.1402497  32.6017749   0.8459442  47.0856198  37.1548354
   1.5480021  46.5708187  37.2121110   0.7656925  47.4130349  37.9595229
   0.9383202  47.0570424  37.2821146  15.4973619  35.1798749  40.5680400
  14.6602040  35.2500936  40.8027995  15.4661850  35.1823244  39.6954703
  15.3691902  35.1908976  40.4739948   1.8938348  37.3231785  46.2828769
   2.0658852  37.2137680  47.1314050   2.4307706  37.9686190  46.0459961
   1.9983352  37.4023787  46.3733866   6.2395504  28.4401039  32.2559998
   6.9681665  28.2616994  31.8098154   6.3290397  29.2819118  32.4667176
   6.3602166  28.5384917  32.2213515  10.2203805  39.3754426  36.1592292
  10.9761320  39.8085940  36.1981200  10.3266129  38.7259196  36.7326928
  10.3473976  39.3431910  36.2490317  13.2583976  43.2027703  36.9094695
  12.8219208  43.2064446  37.6653666  12.9246892  43.8833202  36.4774272
  13.1446596  43.3040159  36.9575527   7.8313050  45.2436036  48.2337845
   8.6153466  45.3566884  48.5993587   7.6309644  44.4177173  48.4296531
   7.9179075  45.1382755  48.3172231  13.1781459  30.2441531  39.1524123
  13.8207367  30.3139636  39.7386038  13.4304480  29.5770754  38.6503664
  13.3103591  30.1567880  39.1651402   7.9883443  47.1546138  41.8804301
   7.1898689  46.9145638  42.1378169   8.4369454  47.2060531  42.6271348
   7.9358054  47.1268529  42.0289225  16.3928322  39.9208623  35.8014332
  17.0544756  39.3599292  35.7010240  15.7519734  39.4260654  36.1267023
  16.3957190  39.7645032  35.8346672   7.2805130  43.2178754  28.1095255
   7.6956278  42.8863778  27.4179751   6.4497060  42.9847657  27.9815392
   7.2193139  43.1350010  27.9886103  12.6793153  40.9374005  35.5426321
  12.9148742  41.0819204  34.7153171  12.8282717  41.7016413  35.9357834
  12.7358956  41.0713060  35.4789925  14.5083610  39.7775671  33.3795924
  14.8391827  40.3103312  32.7736019  15.0816698  39.8314559  34.0357875
  14.6417289  39.8645240  33.3873706   7.0484180  40.9006583  49.7724489
   6.2557161  41.2150095  49.9577108   7.1633107  41.1158051  48.9345273
   6.9479590  40.9790420  49.6762824   9.7215499  37.6240574  34.0619505
   9.8162353  38.3629868  34.5159130   9.0974342  37.1958050  34.4954069
   9.6424529  37.6701895  34.1927652   7.9767973  40.8026787  44.7109785
   8.5506834  40.1654031  44.8658349   7.8982776  40.8030869  43.8419443
   8.0501208  40.7091898  44.6056196   9.9738520  39.4689314  27.2956457
   9.8918683  39.5391501  28.1611444  10.6118241  40.0319058  27.1040197
  10.0558357  39.5628285  27.3946406   3.3331691  39.2350052  36.7630983
   3.0750936  38.4021787  36.7362282   3.3880174  39.4607665  35.9223483
   3.3031469  39.1447823  36.6351120   8.4132741  31.3378503  36.8635076
   7.7089068  30.8487688  37.0218995   8.4617716  31.3500977  35.9923520
   8.3162793  31.2668150  36.7574415   2.3066403  36.7887814  37.2495878
   1.7315995  36.9479983  37.8859839   1.9302080  36.1523223  36.7864328
   2.1669216  36.7185627  37.2750436   5.9739692  35.2611164  42.1088256
   5.5854125  34.8365381  41.4540447   5.3094390  35.5093313  42.6165283
   5.8186620  35.2349885  42.0876124  15.6162961  35.0186168  34.8836086
  15.3599526  34.2066110  34.6933969  16.4592275  35.0263735  34.6566273
  15.7028987  34.8998166  34.8220903   9.7966054  28.9585792  39.6212240
  10.1776565  28.2763963  40.0080114   8.9929338  28.6695394  39.4387905
   9.7342515  28.8152841  39.6516296   7.0778630  39.4909768  30.3065063
   7.8919269  39.7824661  30.1947834   7.0137772  38.8369631  29.7323356
   7.1881369  39.4374963  30.2053900  13.2988120  42.1735764  44.7194639
  13.0626758  41.3423829  44.6006699  13.9431349  42.1221372  45.3049483
  13.3582791  42.0433452  44.7880532   2.9486539  42.9631286  35.4337375
   3.5860486  42.7243033  35.9789168   3.3741610  43.1668445  34.6990536
   3.1062705  42.9582296  35.4054532   3.5889354  38.1833575  29.7712264
   3.9734506  37.9641282  30.5228810   3.3400974  39.0096521  29.9013341
   3.6091426  38.2731722  29.9013341   3.7557894  31.4639991  49.4874849
   3.4411335  32.2339553  49.2244411   3.4347827  30.9010247  48.9027076
   3.6616813  31.4950259  49.3616199  14.3224541  41.9580213  40.7822933
  14.0170358  42.6908270  41.1436249  13.6030757  41.5518143  40.5015719
  14.1711883  42.0061946  40.7936070   5.3308011  43.4403708  37.1131161
   5.4047019  43.2778880  37.9673011   6.1477517  43.6293898  36.8691643
   5.4624369  43.4440451  37.2029187  10.4322680  30.0008371  43.4332367
  11.1776272  29.8118182  43.0195792  10.0159984  30.5266609  42.8746223
  10.4807654  30.0510517  43.2896940   3.8712596  46.4038451  31.8444635
   4.1610895  46.0127433  31.1203861   4.6016077  46.5855156  32.2849910
   4.0219480  46.3732265  31.8027442  17.8084951  37.3717600  38.3837872
  18.3592872  36.7385669  38.6234964  17.7929066  37.9032993  39.0753376
  17.8870147  37.3566548  38.5216730   4.4607341  41.2056197  42.9297765
   3.9619035  41.9171965  43.0082654   5.2707566  41.5256864  42.8915928
   4.5063448  41.3583046  42.9354334   1.8118512  48.3805834  34.9104784
   1.5918807  48.0903188  35.7031451   1.5913034  47.7220789  34.3822697
   1.7466106  48.2405542  34.9493693  11.5113357  35.6113934  37.4942468
  11.1678123  34.8904269  37.8449718  11.6106399  35.4027785  36.6520826
  11.4755400  35.4738137  37.4214148   3.9786468  49.7535224  33.6935477
   4.6310526  49.2211666  33.9226503   3.2812076  49.4003876  34.0803351
   3.9717186  49.6224747  33.7847645  11.9726386  42.0739638  33.0366456
  12.5384419  42.7332848  32.9524999  11.3254289  42.4189336  33.5082858
  11.9605142  42.2221579  33.0939213   3.3874399  34.0637242  48.2260064
   2.5774175  34.3695021  48.1149906   3.8649086  34.7842824  48.3412648
   3.3377878  34.2151843  48.2267135   2.2465959  43.2782963  38.4742967
   1.7246713  43.4183254  39.1594831   2.6339979  42.5193627  38.6645084
   2.2269660  43.1868486  38.6044043   8.4432964  45.0178422  32.4603535
   8.2019640  44.2846283  32.0530600   8.6234297  45.5665279  31.8069869
   8.4340588  44.9900813  32.3033758   3.6732285  40.3086982  33.8724458
   3.4775067  40.9161716  33.2784761   3.8966630  39.6154926  33.3916132
   3.6766926  40.2964507  33.7140538   2.0710815  37.1941720  33.9905326
   2.7933467  37.3582878  33.5309132   1.5918807  37.9151384  33.8844666
   2.1074545  37.3239949  33.9070940  10.0304322  33.5305518  39.3702011
   9.1915423  33.5566797  39.1340274  10.1008690  34.1776254  39.9507358
   9.9172716  33.6301644  39.4211128   8.4773600  30.4290895  34.1029627
   9.1799953  30.2298644  33.6249585   8.2117789  29.6566838  34.4098470
   8.5420233  30.2853861  34.0775068  13.9061846  38.7373505  36.6563253
  13.8195821  38.8928931  37.5098032  13.4512326  39.3811581  36.2822658
  13.8265103  38.8549260  36.7270359   3.2402157  31.6926181  43.1560507
   3.0485354  31.7081315  44.0059931   4.0900753  31.8889855  43.1327162
   3.3377879  31.7240532  43.2783802   7.7787662  36.0584252  35.2788812
   7.5322376  35.9780003  36.1125601   8.1072785  35.2737720  35.0851340
   7.7908906  35.9310518  35.3736335  11.6735711  42.7667612  39.0675593
  11.5350070  43.4648657  39.5724336  10.8935709  42.6116268  38.7111775
  11.5378938  42.8467778  39.0901868  10.0113796  39.0663987  45.3197975
  10.0061835  38.1943803  45.3240402  10.7174790  39.2652156  44.8467431
  10.1158800  38.9667861  45.2505011   3.7384689  38.7940971  44.6911795
   3.8828065  39.3742179  44.0554905   4.0860338  39.1717268  45.3961650
   3.8112151  38.9361675  44.7010790   5.9104607  37.9931139  42.4736927
   5.1627921  38.1862154  42.0685205   6.0646132  37.1676359  42.2361048
   5.8227034  37.8996251  42.3782333   2.8112444  46.9843743  41.5572822
   2.9602008  46.4246659  40.9046227   3.5912446  47.0635744  41.9405341
   2.9486538  46.9129308  41.5169771  13.1689084  42.1245865  29.8292093
  12.7895893  41.3383003  29.8221382  12.5055329  42.6732722  29.6863737
  13.0147559  42.0890689  29.8072890   5.3365745  47.1558386  42.8357313
   5.2609416  46.4867196  43.3908101   5.2655604  47.8576174  43.3497979
   5.3146352  47.1603293  42.9934161   6.1506384  31.8881690  43.3632331
   6.6078998  32.6205664  43.4905123   6.2262713  31.4648155  44.1219586
   6.2297354  31.9338928  43.4933407  10.6233710  25.0671565  37.2326174
  10.7417278  25.5248028  36.4993476  10.4495885  24.2616826  36.9462391
  10.6152881  25.0165337  37.0827107   5.9935992  45.6759384  33.6680919
   6.7585883  45.4069028  33.3463583   5.8914082  45.1909395  34.3850982
   6.0917487  45.5648949  33.7260746   4.0288762  33.8783794  40.2074155
   3.2384836  33.6975254  40.5291490   4.4249385  33.1010746  40.1904449
   3.9705638  33.7371255  40.2526703   8.5154652  42.7071568  25.6480868
   9.2827638  42.7671693  25.2386720   8.0685961  42.1352010  25.1637187
   8.5628080  42.6308144  25.5158579   9.4132448  41.5126224  37.9333601
   8.7377450  41.2811456  38.4346988   9.4224824  40.9047407  37.3075706
   9.3150953  41.3885149  37.9149753   6.5426592  36.3544053  44.6897654
   6.4785733  37.2154009  44.5617790   6.6823780  36.0376046  43.8893205
   6.5542062  36.4344220  44.5525866  11.4149183  44.3691356  30.1643778
  11.4969020  45.1758343  29.8405229  11.8998925  44.3887316  30.8884552
  11.4986340  44.4912019  30.2230677   5.2245686  39.0476192  38.8313856
   4.8007935  39.2480691  38.0952875   5.0490541  38.2005040  38.9438156
   5.1356566  38.9524974  38.7387547   4.7257379  50.5626705  41.2935314
   5.2153310  49.8637495  41.1110978   4.1541612  50.2650575  41.8811371
   4.7141909  50.4152929  41.3536355   7.0507275  38.9186127  33.1335192
   7.5922821  38.4156508  33.5973813   7.3653834  38.8651322  32.3224677
   7.1771673  38.8365548  33.0819004  10.9224383  43.1288775  50.2462104
  11.7359248  42.8573924  50.4067237  10.7619349  42.8296315  49.4422300
  11.0194331  43.0443701  50.1507510   5.2193725  44.3103479  30.4175220
   5.2886545  43.4518017  30.5568221   5.9982180  44.5275360  30.0894245
   5.3446575  44.2156343  30.3892377   8.1996545  33.8122432  43.1857493
   8.4138514  33.1733346  42.6320847   7.5830444  34.2568256  42.7565354
   8.1401874  33.7832576  43.0407924   9.6101213  46.7341180  34.6311714
   9.2181004  46.4307895  33.9134580   9.7654285  47.5710270  34.4416667
   9.5754803  46.8125017  34.4968211  10.3635633  35.4211497  44.1240800
   9.5512315  35.1137387  44.2053972  10.8225567  34.9410497  44.6883512
  10.3116018  35.3047989  44.2195394   9.7740887  43.2991169  34.5717744
   9.4155542  43.4705812  35.3481776   9.2879598  43.7604375  34.0145743
   9.6499584  43.3930140  34.6043013   7.5911273  26.9222368  38.1744835
   6.7204831  26.8961089  38.1278145   7.8451615  26.7499560  37.3570681
   7.5004834  26.8932511  38.0464972   4.5629253  38.9790334  27.1117978
   4.8521778  39.7555217  27.3861553   4.6501052  38.4679066  27.8132478
   4.6183509  39.0182253  27.2560476   7.4589140  36.8271568  48.9069502
   7.9288771  37.4513685  49.2937376   7.5051021  36.1588544  49.4662717
   7.5357016  36.8206249  49.0469573   4.6160414  28.9328596  39.6318306
   4.0998903  28.2408787  39.7569885   4.0554343  29.5999373  39.5780905
   4.4566927  28.9291854  39.6424372   6.6852647  29.4721556  41.4611158
   6.2984401  29.4970587  42.2424688   6.1985585  28.9063235  41.0085675
   6.5565156  29.3917307  41.5099062  10.9345627  44.1895065  45.5184945
  11.5725347  43.6955261  45.1847401  10.2919718  44.1172465  44.9337172
  10.9339853  44.1054073  45.3827300  12.6602627  36.0384211  40.0850861
  12.2330235  35.9510560  39.3298960  12.0228680  36.1461986  40.6705705
  12.5032234  36.0416871  40.0596302   6.3509789  26.3588541  43.7521418
   6.9802907  26.8948842  43.4742489   6.5195652  26.2665900  44.6034984
   6.4687584  26.4249904  43.8369946   6.1523704  31.1459736  46.0247830
   6.9797133  30.8744885  46.0806444   6.1731550  31.9420578  46.3811648
   6.2776554  31.2239490  46.0863013  10.9899883  44.8814873  42.1590302
  11.7792262  44.5303938  42.2792383  11.1643481  45.6951262  41.8966936
  11.1320165  44.9500730  42.1378170   9.8433708  28.8924430  36.7206720
  10.0483301  28.8246738  37.5663717   9.5160132  29.6983251  36.6527898
   9.8248956  29.0010370  36.8366375   4.5409859  36.2204998  38.4615688
   4.2372996  35.6660986  39.0626096   3.8389279  36.3997208  37.9743722
   4.3926069  36.1649781  38.4785394   3.5975956  33.5305518  33.0260390
   3.8735690  32.8124430  32.6137957   4.1974625  34.1290438  32.8181496
   3.7269220  33.5125889  32.9341151   2.6028210  43.4354719  43.1687786
   2.4948565  43.4456781  44.0349844   2.8123991  44.2609499  42.9792740
   2.6178321  43.5595794  43.2691877  13.0967395  29.4456194  36.2009486
  12.4841709  29.9326596  36.5863217  13.1931570  28.7699685  36.7447137
  13.0205293  29.4174503  36.3388344   7.0986476  31.2019035  31.3006985
   7.5530223  31.3729596  32.0254829   7.5726522  30.5887146  30.9004761
   7.2354796  31.1369921  31.3480747   1.0162625  31.8469359  41.2977741
   1.4764106  31.9208288  42.0352865   1.0618731  32.6450613  40.9477562
   1.0913180  31.9763506  41.3550498   2.6645974  32.5136054  45.8649768
   2.2731539  31.8669401  46.3005546   2.8331837  33.1047489  46.4844024
   2.6316885  32.5050322  46.0212474  10.3791518  46.1376673  38.0641748
  10.1811207  46.6267487  37.3697959   9.7579229  46.3417914  38.6425881
  10.2579082  46.2393211  38.0464971   4.4399496  37.9061570  32.4051992
   5.1841541  38.2935846  32.6434942   4.5860192  37.0618995  32.5692480
   4.5710081  37.8392042  32.4645962   6.3579072  29.7011829  37.4383854
   5.5115117  29.8734636  37.3125203   6.3550204  28.8961172  37.7749682
   6.2326222  29.6072858  37.4694981   7.4277372  33.4787043  38.3045912
   6.9537326  32.9528805  38.8151222   7.7995508  32.9316516  37.7360773
   7.4127261  33.3203040  38.2961059  13.6914103  38.5389419  39.7152692
  13.4512326  37.6995834  39.7195118  14.1706110  38.6189585  40.4393466
  13.7266286  38.4270818  39.8227494   9.3560872  34.3723598  31.3671665
   8.8283890  34.4552342  30.6777374   9.8156580  35.1141469  31.3636310
   9.3462722  34.4944260  31.2646360  15.6919290  35.3190876  37.6681951
  15.4529060  35.2786710  36.8302736  15.8553191  36.1662028  37.7947672
  15.6809593  35.4382961  37.5635433  12.2965320  39.7040825  43.5986996
  13.0199519  39.2513352  43.4198016  12.0315282  39.9845491  42.8159324
  12.3646593  39.6791794  43.4565712   1.1652188  34.3000999  40.3339875
   0.5405258  34.3119391  39.7265828   0.8297783  34.7761174  40.9831116
   1.0237680  34.3719516  40.3396444   1.3493937  32.6426117  26.3912560
   1.0006741  33.2945842  26.8544110   0.8690383  32.6283230  25.6636432
   1.2264181  32.7369171  26.3523652   8.9097954  42.9427161  30.4981322
   9.6332153  43.4085274  30.3545896   8.4698545  43.0100771  29.7478919
   8.9513647  43.0210998  30.3666104   8.0784109  39.8024703  41.7482011
   7.4641103  39.2582754  42.0430647   8.5951394  39.2888940  41.2687827
   8.0639772  39.6461112  41.7206240   7.3180407  40.8728973  39.4826310
   6.8908015  40.2478692  39.0491745   7.3105351  40.5903895  40.3085317
   7.2539548  40.7381754  39.5406138   8.3763237  28.0755382  43.1065533
   7.8803798  28.2719056  42.4157100   9.1332299  28.4748050  42.9354335
   8.4150061  28.1633116  42.9785670   5.6466116  31.7497728  39.6968844
   5.6708603  31.2157840  39.0081624   5.8977590  31.2415037  40.3594435
   5.6876035  31.5958632  39.6933489   1.9267438  30.4768546  39.0774588
   1.9665810  30.9777753  39.7909296   1.1017103  30.5678940  38.8080511
   1.8106964  30.5650363  39.1425127   4.1097051  40.0429286  47.1794883
   3.2592682  40.1801000  47.3152528   4.2725179  39.3093064  47.6242585
   4.0080915  39.9543387  47.2650482   3.3481802  36.9929056  41.3748487
   2.5173732  37.1602874  41.1683735   3.2933319  36.6165007  42.1597373
   3.2171217  36.9618787  41.4597015   1.1565585  30.4837949  47.0104898
   1.7818289  29.9400082  47.2834330   0.7016065  30.0032867  46.4412688
   1.1813846  30.3327430  46.9666492   1.7217846  35.2684648  31.9038605
   1.8620807  35.7657112  32.6067246   2.2200379  34.5670942  32.0452819
   1.8158927  35.2386626  32.0290184   1.7518068  36.1351759  29.2331182
   2.3863148  36.7312184  29.1680644   1.8343679  35.8355216  30.0477052
   1.8574619  36.1792667  29.3434268  14.7300634  38.6667236  42.1017546
  15.3218474  39.3064487  42.1335744  15.1659628  37.9690273  42.3909613
  14.8819065  38.6585586  42.1498379   3.3297051  32.0665734  29.2076624
   3.6512892  31.5868817  28.5535886   3.5923995  32.8765380  29.0167435
   3.4163076  32.1155632  29.0832116   6.5594024  43.0884608  42.7275440
   6.0519115  43.6420455  43.1716070   6.2620670  43.1492898  41.9094214
   6.4398909  43.1790920  42.6723897   8.7256206  31.4537928  41.5700103
   9.1511277  31.0010454  40.9583629   8.1113199  30.8997999  41.8464890
   8.6984851  31.3051904  41.5205128   9.1701804  47.0047866  30.6579383
   8.4531114  46.8308728  30.1926621   9.8208542  46.7700438  30.1254869
   9.1603655  46.9443659  30.5108601   7.1650429  27.9253028  34.9790680
   6.5218747  27.7750674  35.5475818   6.8249836  27.6795373  34.2139785
   7.0195506  27.8665150  34.9493695  11.7549775  35.8812455  34.4020688
  11.0840965  36.4242157  34.2733754  12.4489526  36.3507310  34.1602383
  11.7578643  36.0310726  34.3476216   5.8036509  48.0209167  39.6332447
   5.5802163  47.2627996  40.0016473   5.3146352  48.0507188  38.9112887
   5.6979958  47.9131391  39.5809188  11.9177903  32.3368338  37.3111062
  12.2705513  31.9098061  37.9856860  11.0592704  32.2519182  37.4412138
  11.8427347  32.2613079  37.4306072   9.9161169  35.6003707  41.2595904
   9.8959096  35.4187002  42.1130683   9.9640369  36.4715725  41.2355488
   9.9195810  35.7020245  41.3819199   7.8607498  42.1890899  47.1844381
   7.8203353  41.5440576  46.5989536   8.6730817  42.1327516  47.4969793
   7.9750652  42.0849866  47.1441330   4.4514966  48.2409625  37.0869531
   4.0375365  47.5783755  36.6973373   5.1362340  48.3887484  36.5665226
   4.4913338  48.1650283  36.9526029   7.8180260  47.3999710  37.8393148
   7.4196543  47.5101980  37.0713968   7.2031480  47.6081776  38.4219708
   7.6679149  47.4473278  37.8124447   6.3908162  34.0073858  30.7067288
   5.7973001  34.3290854  30.1551855   6.4283440  33.1614953  30.4988394
   6.3082551  33.9298186  30.5950059  13.3501963  27.4586750  38.2395374
  12.8432827  26.7515890  38.1716552  14.1469397  27.1279939  38.3696451
  13.3929202  27.3059901  38.2494369   9.2665979  33.9653362  34.1369038
   9.0379672  33.9886064  33.2947396   9.5264055  33.1410829  34.2564049
   9.2712167  33.8469442  34.0294236   3.5485207  35.8187835  43.7394138
   3.0364110  35.2109018  44.0979170   3.3764703  36.5344428  44.2068114
   3.4474844  35.8351135  43.8610362   2.3210741  32.5029909  35.4323234
   2.7968107  32.8646988  34.7973415   1.8199341  33.1586376  35.7123376
   2.3176100  32.6524097  35.3799975  15.5522103  41.9751677  31.2236239
  15.9355709  42.7243033  31.4534336  14.7566216  42.2217496  30.9648228
  15.4915885  42.1221371  31.2193812   7.4254277  33.7412080  46.1796394
   7.9825708  33.5125890  45.5474859   7.1015342  34.5017746  45.9031606
   7.4600688  33.8195917  46.0452891   5.1437395  36.8279733  47.1448401
   5.8948722  37.1431410  47.4587955   5.3359971  36.6258904  46.3182323
   5.2828809  36.8447115  47.0691797   4.3637394  34.6471108  28.7996618
   4.7436359  34.6650738  28.0147732   3.6229990  35.0925097  28.6787465
   4.3106232  34.7152883  28.6660186  11.9922685  32.9553300  34.3872196
  11.9916911  32.8001956  35.2456473  11.7878865  33.8016287  34.3313582
  11.9622463  33.0573920  34.5060136   9.7163537  37.6350801  38.0408403
  10.2117202  36.9173796  38.0012423   8.9063313  37.3321599  37.9262890
   9.6707430  37.4848448  38.0182129   5.1622148  41.4848615  30.1905408
   4.3533471  41.1615288  30.1438717   5.6697057  40.7781837  30.1233656
   5.1171815  41.3329931  30.1735702  11.7815356  40.3854489  40.7285532
  12.2070427  39.8628911  40.1755957  11.4172276  40.9835326  40.2074155
  11.7901958  40.3964716  40.5694542   1.4169436  48.6818706  39.4882877
   1.7315995  49.4955095  39.4960659   1.8262849  48.2968925  40.1565037
   1.5237534  48.7447409  39.5886969   8.3693955  44.0988753  37.0586689
   8.8405133  44.8129016  37.2276675   8.7054134  43.4987503  37.5946559
   8.4889070  44.1160217  37.1619065  10.4570940  45.7090067  49.2378761
  10.5667905  44.9198627  49.5935509  10.7861836  45.6196003  48.4353100
  10.5223346  45.5795919  49.1721152   5.2863450  28.8716224  44.0144784
   5.4191356  28.0747217  44.3425760   5.6708603  29.3982627  44.5943060
   5.3619779  28.8316140  44.1488287   9.0067902  43.8906687  43.8214382
   8.4588848  43.2664571  43.5534447   9.4680930  44.0800959  43.1058461
   8.9935111  43.8265738  43.6764813   8.3595805  25.7946550  40.6125877
   7.5541769  25.6844280  40.9293716   8.2302541  25.8959006  39.7555743
   8.2215938  25.7930220  40.5333918  11.8161766  31.9592042  41.2065574
  11.2324755  32.4601248  40.7943142  12.1366060  31.4521598  40.5729898
  11.7774941  31.9583877  41.0524082   4.3556565  30.8732637  31.4824249
   5.1772259  31.0430949  31.2405944   3.8926216  31.0279898  30.7590547
   4.4087727  30.9214370  31.3395893   2.9451897  28.8675399  42.2622678
   3.4896310  28.5266526  42.8527020   2.9988833  29.7260860  42.4043963
   3.0341016  28.9430658  42.3704551   8.5726228  44.8957760  40.3523723
   9.3924602  44.7520726  40.6140018   8.2920305  45.5203959  40.8940161
   8.6522971  44.9668112  40.4711663  12.6280703  61.1760981  33.8356762
  11.8763602  60.7976519  33.6072807  13.0766714  61.2079414  33.0875572
  12.5830370  61.1246588  33.6914264  21.5533280  57.9084788  47.6779986
  22.2600047  57.4136819  47.8066921  21.7421215  58.3493870  46.9482644
  21.6861185  57.9003139  47.5889032  18.0805663  61.5986350  29.2642309
  17.7457031  62.2763272  28.8286531  18.5932533  61.2091661  28.6759180
  18.1071244  61.6410928  29.1129100  17.6209954  63.5500619  35.2053420
  18.0049333  64.1187517  34.6658195  17.5569095  62.8250129  34.7259236
  17.6683381  63.5276082  35.0547283  21.0891384  53.6990307  40.7151182
  21.6347344  54.3775393  40.7745151  21.0308260  53.5577768  39.8552763
  21.1607298  53.7782308  40.5963242  14.2065459  61.1879373  36.1019534
  14.3075822  60.3779727  36.4116662  13.6107204  61.0936319  35.4719213
  14.1337998  61.0544401  36.0545773  14.0466199  66.1056962  37.5034390
  14.6903654  66.5470126  37.8930549  14.3722454  65.3010388  37.4164649
  14.1898027  66.0522157  37.5479867   7.4030503  57.2099659  35.7271868
   7.1680688  56.3767312  35.6204137   7.5416144  57.4904325  34.9133069
   7.3886166  57.1283163  35.5914223   9.7020591  49.3785390  38.6256175
   9.0825622  48.7878037  38.4566190   9.6004454  49.9696825  37.9920499
   9.5958266  49.3789472  38.5061165  14.7486778  59.1168937  32.8754252
  15.0702619  59.6574144  32.2715560  15.3958875  58.5465708  33.0076542
  14.8912833  59.1128112  32.8061287  16.7988486  51.1184932  32.9588639
  17.4968651  51.2973059  33.4510102  17.1140819  50.5955271  32.3359028
  16.9483824  51.0678704  32.9390649   9.4289724  52.9237672  40.8699744
   9.3048421  53.5100117  41.5049563  10.0808008  52.4297867  41.1712019
   9.5063373  52.9376476  41.0085674  16.9876422  57.5055377  32.9468430
  17.4270057  56.8972477  33.3923203  16.8381085  57.1262750  32.1753895
  17.0297887  57.3593848  32.8987597  14.4548065  56.0999389  40.1487256
  15.0997067  55.6071832  39.8298204  14.6949842  56.2424175  40.9753334
  14.5858650  56.0476831  40.2236789  16.9934156  58.9454294  39.7994148
  17.2757399  58.1505700  39.5780904  17.7220316  59.4234882  39.8199209
  17.1423720  58.8988891  39.7697163  14.9715350  46.4877328  37.0409913
  14.6418680  46.9388472  36.3713612  14.2960352  46.4093492  37.5882920
  14.8225786  46.5428464  37.0233136  20.5885758  55.8582558  29.8999199
  20.5037053  56.7143525  30.0448768  21.0770141  55.5826882  30.5681358
  20.6474656  55.9439879  30.0201281  26.9752244  58.0513657  36.7729979
  26.1449948  58.2624300  36.9363395  26.9261497  57.2250711  36.4972262
  26.8458980  57.9603263  36.7567344  13.4103799  56.3730569  30.2004402
  12.8261015  56.8780600  30.6070266  13.0073894  56.1472956  29.4600994
  13.2643103  56.4138817  30.1509428   8.9647828  62.0885330  37.0028074
   8.4815406  62.8135820  36.9787657   9.7771146  62.3861460  37.1138232
   9.0138576  62.2387684  37.0155353  15.0361982  60.8817511  39.6077888
  14.5188924  60.5224926  39.0039196  15.7336373  60.3579685  39.6183954
  15.0627563  60.7515199  39.5208147  18.6925574  61.3312325  45.5694061
  18.7808920  61.1438465  46.4172272  19.1215286  60.6849754  45.1698908
  18.7687676  61.2075333  45.6365813  16.2596034  60.6143485  44.5511724
  15.6966869  60.2016095  45.0751385  17.0217057  60.5396391  44.9704867
  16.2890482  60.5420885  44.6904724  17.8681014  52.6196221  28.6773323
  18.1077017  52.8274205  27.8648666  18.1896855  51.8153730  28.7862267
  17.9518172  52.5310322  28.5733876  13.1771304  44.5489617  32.5232861
  13.9317272  44.9167934  32.2849911  12.9998839  44.9229171  33.2912040
  13.2625782  44.6587805  32.6017749  11.8192025  62.6041506  37.1548354
  12.5212604  62.0893495  37.2121110  11.7389508  62.9315657  37.9595229
  11.9115786  62.5755732  37.2821146  12.8670932  52.8417093  46.2828769
  13.0391435  52.7322988  47.1314050  13.4040289  53.4871498  46.0459961
  12.9715936  52.9209095  46.3733866  11.5328369  46.9559936  29.2210974
  11.3503942  47.1731817  28.3951967  12.3953982  47.0698949  29.2769588
  11.6332958  47.0049834  29.1065461  11.1442801  58.7947858  36.6633962
  11.9831700  59.0270791  36.7107723  11.1754570  57.9252169  36.5940997
  11.2724518  58.7004804  36.6598606  11.7695504  59.2148733  40.9647267
  12.3093729  59.0719864  41.6350640  11.0865450  59.6145484  41.3331294
  11.7487657  59.2528404  41.1181689  17.2128088  43.9586346  32.2559998
  17.9414248  43.7802301  31.8098154  17.3022981  44.8004426  32.4667176
  17.3334750  44.0570225  32.2213515  24.2316560  58.7213011  36.9094695
  23.7951791  58.7249754  37.6653666  23.8979475  59.4018510  36.4774272
  24.1179180  58.8225467  36.9575527  18.8045633  60.7621344  48.2337845
  19.5886050  60.8752192  48.5993587  18.6042228  59.9362481  48.4296531
  18.8911659  60.6568063  48.3172231   7.1732649  55.4349024  41.1181689
   6.9071064  54.6188141  41.2772679   7.1871213  55.4802180  40.2477204
   7.1357371  55.3205929  41.0135171  11.0790396  50.2334108  27.7333447
  10.3648573  49.9472288  28.1455879  11.5634364  50.5730734  28.3739834
  11.0449759  50.2415758  27.8889082  11.9231255  48.9727402  43.7648697
  11.2303052  48.5024382  44.0109428  12.5391582  48.7465707  44.3390404
  11.9115785  48.8694534  43.8857849  18.9616027  62.6731446  41.8804301
  18.1631272  62.4330946  42.1378169  19.4102038  62.7245839  42.6271348
  18.9090638  62.6453837  42.0289225  18.2537714  58.7364062  28.1095255
  18.6688862  58.4049086  27.4179751  17.4229643  58.5032965  27.9815392
  18.1925722  58.6535318  27.9886103   7.5826062  56.2207803  38.3993433
   7.4001636  56.1954689  37.5465725   8.3175731  56.6906741  38.4382342
   7.6640126  56.2869166  38.2791352  10.6471814  52.9392806  44.9075542
  11.3711786  52.9245837  45.3940436  10.7487951  53.6488162  44.4097510
  10.7690023  53.0417509  44.9054329  18.0216763  56.4191891  49.7724489
  17.2289744  56.7335403  49.9577108  18.1365691  56.6343359  48.9345273
  17.9212174  56.4975728  49.6762824  18.9500556  56.3212095  44.7109785
  19.5239418  55.6839339  44.8658349  18.8715360  56.3216177  43.8419443
  19.0233791  56.2277206  44.6056196   7.5496973  53.1001304  38.5492500
   8.1270475  52.9637755  39.1884745   6.8511034  52.6437088  38.8038084
   7.5317994  53.0123570  38.6814789  20.9471104  54.9874622  27.2956457
  20.8651266  55.0576809  28.1611444  21.5850824  55.5504366  27.1040197
  21.0290941  55.0813593  27.3946406  14.3064275  54.7535360  36.7630983
  14.0483519  53.9207095  36.7362282  14.3612758  54.9792973  35.9223483
  14.2764053  54.6633131  36.6351120  13.2798987  52.3073122  37.2495878
  12.7048578  52.4665291  37.8859839  12.9034663  51.6708531  36.7864328
  13.1401799  52.2370935  37.2750436  16.9472276  50.7796472  42.1088256
  16.5586708  50.3550689  41.4540447  16.2826974  51.0278621  42.6165283
  16.7919203  50.7535193  42.0876124   3.0255806  51.9513197  35.2640318
   3.1116058  51.5745065  36.0453848   3.6531603  51.5773643  34.7860276
   3.1312357  51.8398679  35.3085796  18.0511214  55.0095076  30.3065063
  18.8651853  55.3009969  30.1947834  17.9870355  54.3554938  29.7323356
  18.1613953  54.9560271  30.2053900  24.2720704  57.6921072  44.7194639
  24.0359341  56.8609137  44.6006699  24.9163933  57.6406679  45.3049483
  24.3315375  57.5618760  44.7880532  13.9219122  58.4816594  35.4337375
  14.5593069  58.2428341  35.9789168  14.3474194  58.6853752  34.6990536
  14.0795288  58.4767604  35.4054532   8.6131765  60.7204930  39.3171679
   8.6535910  60.9919781  38.4891458   9.1726289  61.2446838  39.7329467
   8.7015110  60.8380685  39.2563567  14.5621937  53.7018883  29.7712264
  14.9467090  53.4826590  30.5228810  14.3133558  54.5281829  29.9013341
  14.5824010  53.7917030  29.9013341  14.7290478  46.9825299  49.4874849
  14.4143919  47.7524861  49.2244411  14.4080410  46.4195555  48.9027076
  14.6349397  47.0135567  49.3616199  25.2957125  57.4765521  40.7822933
  24.9902942  58.2093578  41.1436249  24.5763340  57.0703450  40.5015719
  25.1444467  57.5247254  40.7936070  16.3040594  58.9589016  37.1131161
  16.3779602  58.7964188  37.9673011  17.1210100  59.1479206  36.8691643
  16.4356953  58.9625759  37.2029187  10.0646351  59.3046879  34.1425605
   9.2384468  59.5508616  34.0159884  10.1258342  59.2258960  35.0087663
   9.9520518  59.3291828  34.2514549  12.2822375  45.3715820  35.1021045
  11.4144800  45.4438419  35.1678654  12.5697579  46.1737899  35.2909020
  12.1962123  45.5009967  35.1395812  21.4055263  45.5193679  43.4332367
  22.1508855  45.3303490  43.0195792  20.9892568  46.0451917  42.8746223
  21.4540238  45.5695825  43.2896940  14.8445180  61.9223759  31.8444635
  15.1343478  61.5312741  31.1203861  15.5748661  62.1040464  32.2849910
  14.9952064  61.8917573  31.8027442  15.4339925  56.7241505  42.9297765
  14.9351619  57.4357273  43.0082654  16.2440149  57.0442172  42.8915928
  15.4796032  56.8768354  42.9354334  12.7851095  63.8991142  34.9104784
  12.5651391  63.6088496  35.7031451  12.5645617  63.2406097  34.3822697
  12.7198690  63.7590850  34.9493693  11.6968043  55.9864458  37.1760486
  11.4081291  55.3601929  37.7106213  12.5651391  55.9284746  37.2425167
  11.7828295  55.8852002  37.2651441  14.9519051  65.2720532  33.6935477
  15.6043109  64.7396974  33.9226503  14.2544660  64.9189184  34.0803351
  14.9449769  65.1410055  33.7847645  11.9000316  57.6259709  33.1002851
  12.6546284  58.0072748  33.3138314  11.3070929  58.0770853  33.5549548
  11.9237030  57.7488537  33.1985730  14.3606983  49.5822550  48.2260064
  13.5506759  49.8880329  48.1149906  14.8381670  50.3028132  48.3412648
  14.3110462  49.7337151  48.2267135  13.2198543  58.7968271  38.4742967
  12.6979296  58.9368562  39.1594831  13.6072563  58.0378935  38.6645084
  13.2002243  58.7053794  38.6044043  10.2089727  48.8474079  32.5437921
   9.9214522  48.4775350  31.8069869  10.8960195  49.3168935  32.2821626
  10.2678624  48.8621049  32.3952997  19.4165548  60.5363730  32.4603535
  19.1752223  59.8031590  32.0530600  19.5966880  61.0850587  31.8069869
  19.4073172  60.5086121  32.3033758  14.6464868  55.8272290  33.8724458
  14.4507651  56.4347024  33.2784761  14.8699214  55.1340234  33.3916132
  14.6499509  55.8149815  33.7140538  13.0443398  52.7127028  33.9905326
  13.7666050  52.8768186  33.5309132  12.5651391  53.4336692  33.8844666
  13.0807129  52.8425257  33.9070940  10.6951015  55.1185100  43.0959466
  11.2072112  55.3969353  42.4468226  10.4087358  55.8574394  43.4622279
  10.7285878  55.2687454  43.0549344   7.7817921  49.6255292  33.3923202
   7.8834058  50.4281453  33.7204178   8.5773808  49.4242628  33.0946283
   7.9145827  49.7141191  33.3958558  14.2134740  47.2111489  43.1560507
  14.0217937  47.2266623  44.0059931  15.0633336  47.4075163  43.1327162
  14.3110462  47.2425840  43.2783802   8.5981653  49.7402470  41.1344324
   8.4567145  48.8886411  41.2588832   8.8822217  49.7831131  40.3106530
   8.6189499  49.6202220  41.0311948  22.6468294  58.2852920  39.0675593
  22.5082654  58.9833965  39.5724336  21.8668292  58.1301576  38.7111775
  22.5111521  58.3653086  39.0901868  20.9846380  54.5849295  45.3197975
  20.9794418  53.7129111  45.3240402  21.6907373  54.7837464  44.8467431
  21.0891384  54.4853169  45.2505011  14.7117273  54.3126279  44.6911795
  14.8560649  54.8927487  44.0554905  15.0592922  54.6902575  45.3961650
  14.7844734  54.4546983  44.7010790  16.8837190  53.5116447  42.4736927
  16.1360504  53.7047462  42.0685205  17.0378716  52.6861667  42.2361048
  16.7959618  53.4181559  42.3782333  13.7845028  62.5029051  41.5572822
  13.9334592  61.9431966  40.9046227  14.5645030  62.5821052  41.9405341
  13.9219122  62.4314616  41.5169771  24.1421667  57.6431173  29.8292093
  23.7628476  56.8568311  29.8221382  23.4787913  58.1918030  29.6863737
  23.9880142  57.6075997  29.8072890  16.3098329  62.6743693  42.8357313
  16.2342000  62.0052504  43.3908101  16.2388188  63.3761482  43.3497979
  16.2878935  62.6788601  42.9934161  17.1238967  47.4066998  43.3632331
  17.5811581  48.1390972  43.4905123  17.1995296  46.9833463  44.1219586
  17.2029937  47.4524236  43.4933407   9.3671959  47.6532818  44.4521774
   8.8314148  47.0413176  44.7682542   9.4289723  48.2280954  45.1055441
   9.2967591  47.6479745  44.5957201  16.9668576  61.1944692  33.6680919
  17.7318467  60.9254336  33.3463583  16.8646665  60.7094703  34.3850982
  17.0650071  61.0834257  33.7260746  15.0021345  49.3969102  40.2074155
  14.2117420  49.2160562  40.5291490  15.3981968  48.6196054  40.1904449
  14.9438221  49.2556563  40.2526703  19.4887236  58.2256876  25.6480868
  20.2560221  58.2857001  25.2386720  19.0418545  57.6537318  25.1637187
  19.5360663  58.1493452  25.5158579  20.3865032  57.0311532  37.9333601
  19.7110033  56.7996764  38.4346988  20.3957408  56.4232715  37.3075706
  20.2883536  56.9070457  37.9149753  17.5159176  51.8729361  44.6897654
  17.4518317  52.7339317  44.5617790  17.6556363  51.5561354  43.8893205
  17.5274646  51.9529528  44.5525866  22.3881766  59.8876664  30.1643778
  22.4701604  60.6943651  29.8405229  22.8731508  59.9072624  30.8884552
  22.4718924  60.0097327  30.2230677  16.1978269  54.5661500  38.8313856
  15.7740519  54.7665999  38.0952875  16.0223125  53.7190348  38.9438156
  16.1089150  54.4710282  38.7387547  15.6989963  66.0812013  41.2935314
  16.1885893  65.3822802  41.1110978  15.1274195  65.7835883  41.8811371
  15.6874493  65.9338237  41.3536355  11.4860714  55.0613552  34.2641829
  11.6425334  54.9960354  35.1197821  11.8261308  55.8362104  34.0520509
  11.5593949  55.1662750  34.3596423  18.0239859  54.4371435  33.1335192
  18.5655404  53.9341816  33.5973813  18.3386418  54.3836630  32.3224677
  18.1504256  54.3550856  33.0819004  21.8956966  58.6474083  50.2462104
  22.7091832  58.3759231  50.4067237  21.7351933  58.3481623  49.4422300
  21.9926915  58.5629009  50.1507510  16.1926309  59.8288787  30.4175220
  16.2619129  58.9703325  30.5568221  16.9714764  60.0460668  30.0894245
  16.3179159  59.7341651  30.3892377  19.1729128  49.3307740  43.1857493
  19.3871098  48.6918654  42.6320847  18.5563028  49.7753564  42.7565354
  19.1134458  49.3017883  43.0407924  20.5833796  62.2526488  34.6311714
  20.1913588  61.9493203  33.9134580  20.7386869  63.0895578  34.4416667
  20.5487386  62.3310325  34.4968211   8.0594976  52.2448502  34.5802596
   8.4393941  52.6633047  33.9162863   7.4850341  52.8261958  34.8871439
   8.0306301  52.3926361  34.5279337  21.3368216  50.9396805  44.1240800
  20.5244898  50.6322695  44.2053972  21.7958151  50.4595805  44.6883512
  21.2848601  50.8233297  44.2195394  20.7473471  58.8176477  34.5717744
  20.3888126  58.9891120  35.3481776  20.2612182  59.2789683  34.0145743
  20.6232168  58.9115448  34.6043013  15.5361836  54.4975642  27.1117978
  15.8254361  55.2740525  27.3861553  15.6233635  53.9864374  27.8132478
  15.5916093  54.5367561  27.2560476  18.4321724  52.3456876  48.9069502
  18.9021355  52.9698993  49.2937376  18.4783604  51.6773852  49.4662717
  18.5089600  52.3391557  49.0469573  15.5892998  44.4513904  39.6318306
  15.0731486  43.7594095  39.7569885  15.0286926  45.1184681  39.5780905
  15.4299511  44.4477162  39.6424372  17.6585231  44.9906864  41.4611158
  17.2716984  45.0155895  42.2424688  17.1718168  44.4248543  41.0085675
  17.5297740  44.9102615  41.5099062  21.9078210  59.7080373  45.5184945
  22.5457931  59.2140569  45.1847401  21.2652302  59.6357773  44.9337172
  21.9072437  59.6239381  45.3827300  17.1256288  46.6645044  46.0247830
  17.9529717  46.3930193  46.0806444  17.1464134  47.4605886  46.3811648
  17.2509138  46.7424798  46.0863013  21.9632467  60.4000181  42.1590302
  22.7524845  60.0489246  42.2792383  22.1376065  61.2136570  41.8966936
  22.1052749  60.4686038  42.1378170  11.7025777  53.8108907  39.2118091
  10.8613784  53.7112781  39.4196984  11.9115785  54.5804387  39.5632411
  11.6090470  53.9100950  39.2945405   9.1801344  51.4328444  37.0402841
   8.7858042  51.5071456  36.2652951   8.6241461  51.8186390  37.5911203
   9.0404157  51.5010218  37.0070501  15.5142442  51.7390306  38.4615688
  15.2105580  51.1846294  39.0626096  14.8121863  51.9182516  37.9743722
  15.3658652  51.6835088  38.4785394  14.5708539  49.0490826  33.0260390
  14.8468274  48.3309738  32.6137957  15.1707209  49.6475746  32.8181496
  14.7001804  49.0311197  32.9341151  13.5760793  58.9540027  43.1687786
  13.4681148  58.9642089  44.0349844  13.7856575  59.7794807  42.9792740
  13.5910904  59.0781102  43.2691877  18.0719060  46.7204343  31.3006985
  18.5262806  46.8914904  32.0254829  18.5459106  46.1072454  30.9004761
  18.2087380  46.6555228  31.3480747  11.5934585  56.2052669  40.6309723
  11.0022519  56.8462167  40.6012739  12.3555609  56.6290286  40.6041023
  11.6182846  56.3628508  40.6224871  11.9895208  47.3654667  41.2977741
  12.4496690  47.4393596  42.0352865  12.0351315  48.1635921  40.9477562
  12.0645763  47.4948814  41.3550498  13.6378558  48.0321362  45.8649768
  13.2464123  47.3854709  46.3005546  13.8064421  48.6232797  46.4844024
  13.6049468  48.0235630  46.0212474  27.7125007  56.0358439  41.6287002
  27.7708131  56.4845088  42.3746978  27.0791474  56.4457252  41.1917082
  27.6276302  56.1632174  41.6739550  21.3524102  61.6561981  38.0641748
  21.1543790  62.1452795  37.3697959  20.7311813  61.8603222  38.6425881
  21.2311666  61.7578519  38.0464971  15.4132080  53.4246878  32.4051992
  16.1574125  53.8121154  32.6434942  15.5592776  52.5804303  32.5692480
  15.5442665  53.3577350  32.4645962   8.7782986  50.9943858  43.6729457
   9.6408599  50.8939567  43.5866787   8.4474769  50.4138567  43.1115029
   8.8568182  50.8935484  43.5774863  23.2697903  55.2226133  43.5986996
  23.9932102  54.7698660  43.4198016  23.0047866  55.5030799  42.8159324
  23.3379177  55.1977102  43.4565712  12.1384772  49.8186307  40.3339875
  11.5137842  49.8304699  39.7265828  11.8030367  50.2946482  40.9831116
  11.9970264  49.8904824  40.3396444  12.3226521  48.1611425  26.3912560
  11.9739325  48.8131150  26.8544110  11.8422966  48.1468538  25.6636432
  12.1996764  48.2554479  26.3523652   8.8510447  57.8786767  41.7743640
   8.3210372  57.1879206  41.8238614   9.1235541  57.8696952  40.9456348
   8.8135170  57.7753899  41.6591056  19.8830538  58.4612469  30.4981322
  20.6064737  58.9270582  30.3545896  19.4431129  58.5286079  29.7478919
  19.9246230  58.5396306  30.3666104  19.0516693  55.3210011  41.7482011
  18.4373686  54.7768062  42.0430647  19.5683978  54.8074248  41.2687827
  19.0372355  55.1646420  41.7206240  11.4075517  51.4279454  42.5514744
  11.5669004  50.6722779  42.9566466  11.2268411  51.9770394  43.2055482
  11.4040876  51.3973268  42.7077450   4.1306290  54.5514531  39.1311988
   4.0249739  54.5061375  38.2664072   3.3806510  54.8968311  39.4126273
   4.0041893  54.5955439  39.0449318  12.9000022  45.9953854  39.0774588
  12.9398394  46.4963061  39.7909296  12.0749687  46.0864248  38.8080511
  12.7839548  46.0835670  39.1425127  15.0829635  55.5614594  47.1794883
  14.2325265  55.6986308  47.3152528  15.2457763  54.8278372  47.6242585
  14.9813498  55.4728695  47.2650482  14.3214385  52.5114364  41.3748487
  13.4906315  52.6788182  41.1683735  14.2665903  52.1350315  42.1597373
  14.1903800  52.4804095  41.4597015  12.1298169  46.0023257  47.0104898
  12.7550872  45.4585390  47.2834330  11.6748649  45.5218174  46.4412688
  12.1546429  45.8512738  46.9666492  12.6950429  50.7869956  31.9038605
  12.8353390  51.2842420  32.6067246  13.1932962  50.0856250  32.0452819
  12.7891510  50.7571934  32.0290184  12.7250652  51.6537067  29.2331182
  13.3595731  52.2497492  29.1680644  12.8076262  51.3540524  30.0477052
  12.8307203  51.6977975  29.3434268  25.7033217  54.1852544  42.1017546
  26.2951058  54.8249795  42.1335744  26.1392212  53.4875581  42.3909613
  25.8551649  54.1770894  42.1498379  14.3029635  47.5851042  29.2076624
  14.6245476  47.1054124  28.5535886  14.5656578  48.3950688  29.0167435
  14.3895660  47.6340940  29.0832116  17.5326607  58.6069916  42.7275440
  17.0251698  59.1605763  43.1716070  17.2353253  58.6678206  41.9094214
  17.4131492  58.6976227  42.6723897   9.2303640  53.8504907  32.5020728
   9.7395869  54.4469415  32.8832033   9.7037912  53.5830881  31.8197147
   9.3747015  53.8990723  32.4575251  20.1434388  62.5233174  30.6579383
  19.4263697  62.3494036  30.1926621  20.7941125  62.2885746  30.1254869
  20.1336238  62.4628967  30.5108601  18.1383012  43.4438336  34.9790680
  17.4951330  43.2935982  35.5475818  17.7982419  43.1980681  34.2139785
  17.9928090  43.3850458  34.9493695  16.7769093  63.5394475  39.6332447
  16.5534747  62.7813304  40.0016473  16.2878936  63.5692496  38.9112887
  16.6712542  63.4316699  39.5809188  11.5894171  50.4861166  35.3693908
  10.8706160  50.9025298  35.6366772  11.9606534  51.0515405  34.8185546
  11.5386103  50.6310447  35.3276715  20.8893752  51.1189015  41.2595904
  20.8691679  50.9372310  42.1130683  20.9372953  51.9901033  41.2355488
  20.8928393  51.2205553  41.3819199  18.8340082  57.7076207  47.1844381
  18.7935937  57.0625884  46.5989536  19.6463400  57.6512824  47.4969793
  18.9483235  57.6035174  47.1441330  15.4247550  63.7594933  37.0869531
  15.0107948  63.0969063  36.6973373  16.1094924  63.9072791  36.5665226
  15.4645921  63.6835591  36.9526029  18.7912844  62.9185018  37.8393148
  18.3929127  63.0287288  37.0713968  18.1764063  63.1267084  38.4219708
  18.6411733  62.9658586  37.8124447  17.3640746  49.5259166  30.7067288
  16.7705585  49.8476162  30.1551855  17.4016023  48.6800261  30.4988394
  17.2815135  49.4483494  30.5950059  14.5217791  51.3373143  43.7394138
  14.0096694  50.7294326  44.0979170  14.3497287  52.0529736  44.2068114
  14.4207428  51.3536443  43.8610362   9.3683505  49.7810719  46.3896500
   9.1986096  50.4412093  45.8444707   8.9249455  49.9917280  47.1108989
   9.2782839  49.9096701  46.4158129  13.2943325  48.0215217  35.4323234
  13.7700691  48.3832296  34.7973415  12.7931924  48.6771684  35.7123376
  13.2908684  48.1709405  35.3799975  26.5254686  57.4936985  31.2236239
  26.9088292  58.2428341  31.4534336  25.7298800  57.7402804  30.9648228
  26.4648469  57.6406678  31.2193812  18.3986861  49.2597388  46.1796394
  18.9558291  49.0311197  45.5474859  18.0747926  50.0203054  45.9031606
  18.4333271  49.3381225  46.0452891   6.2685570  52.6857584  41.6484990
   5.7212289  52.0158230  41.7665858   7.0577948  52.3187432  41.7128457
   6.3037754  52.5322571  41.6753690  16.1169978  52.3465041  47.1448401
  16.8681305  52.6616718  47.4587955  16.3092555  52.1444212  46.3182323
  16.2561392  52.3632423  47.0691797  15.3369978  50.1656416  28.7996618
  15.7168943  50.1836046  28.0147732  14.5962574  50.6110405  28.6787465
  15.2838816  50.2338191  28.6660186   5.0272539  51.8978392  38.8031013
   4.8494300  51.4455001  39.5285928   4.7391562  52.7004553  38.9869490
   4.9585493  51.9500950  38.9374516  20.6896120  53.1536109  38.0408403
  21.1849786  52.4359104  38.0012423  19.8795896  52.8506907  37.9262890
  20.6440014  53.0033756  38.0182129  16.1354732  57.0033923  30.1905408
  15.3266055  56.6800596  30.1438717  16.6429641  56.2967145  30.1233656
  16.0904399  56.8515239  30.1735702   6.7645009  54.4306116  35.9152772
   5.8990529  54.4191806  35.8035543   6.8643825  54.2436339  36.7623911
   6.6519176  54.4012177  36.0241716  22.7547939  55.9039797  40.7285532
  23.1803011  55.3814219  40.1755957  22.3904859  56.5020634  40.2074155
  22.7634542  55.9150024  40.5694542  12.3902019  64.2004014  39.4882877
  12.7048578  65.0140403  39.4960659  12.7995432  63.8154233  40.1565037
  12.4970117  64.2632717  39.5886969  19.3426539  59.6174061  37.0586689
  19.8137717  60.3314324  37.2276675  19.6786717  59.0172811  37.5946559
  19.4621654  59.6345525  37.1619065  21.4303523  61.2275374  49.2378761
  21.5400489  60.4383935  49.5935509  21.7594420  61.1381311  48.4353100
  21.4955929  61.0981227  49.1721152  16.2596034  44.3901532  44.0144784
  16.3923939  43.5932525  44.3425760  16.6441186  44.9167935  44.5943060
  16.3352363  44.3501448  44.1488287  19.9800485  59.4091995  43.8214382
  19.4321431  58.7849879  43.5534447  20.4413514  59.5986267  43.1058461
  19.9667695  59.3451045  43.6764813  15.3289149  46.3917945  31.4824249
  16.1504843  46.5616257  31.2405944  14.8658800  46.5465206  30.7590547
  15.3820311  46.4399678  31.3395893  13.9184481  44.3860707  42.2622678
  14.4628893  44.0451834  42.8527020  13.9721416  45.2446168  42.4043963
  14.0073600  44.4615966  42.3704551   9.7315039  58.1477123  39.1361486
  10.3359897  58.1072957  38.5075307   9.5242352  58.9948275  39.1665542
   9.7903937  58.2665125  39.0477602  19.5458811  60.4143068  40.3523723
  20.3657185  60.2706034  40.6140018  19.2652889  61.0389267  40.8940161
  19.6255555  60.4853420  40.4711663   4.9666322  57.1311740  39.0060409
   4.8690600  56.3208012  39.3150466   5.7495191  57.1103534  38.6206677
   5.0682458  57.0078831  38.9947272  36.0172462  68.0707920  33.3166600
  35.9866466  68.9252556  33.4884869  36.6153811  67.7703212  33.8752743
  36.1009620  68.1524416  33.4241402  29.2172147  67.1583571  38.0719530
  28.3610042  67.3192069  38.1228647  29.2639800  66.2875635  38.0924591
  29.0971258  67.0534373  38.0825596  32.5265863  73.4270096  47.6779986
  33.2332630  72.9322127  47.8066921  32.7153799  73.8679178  46.9482644
  32.6593769  73.4188447  47.5889032  32.0623968  69.2175615  40.7151182
  32.6079928  69.8960701  40.7745151  32.0040844  69.0763075  39.8552763
  32.1339882  69.2967616  40.5963242  33.8389036  70.6460222  31.5884909
  33.7228562  71.3967908  32.0177048  34.6344923  70.3884175  31.8380996
  33.9393626  70.7195069  31.6889001  20.6753174  64.8970698  38.6256175
  20.0558206  64.3063345  38.4566190  20.5737038  65.4882133  37.9920499
  20.5690850  64.8974780  38.5061165  27.7721070  66.6370240  32.9588639
  28.4701235  66.8158367  33.4510102  28.0873402  66.1140579  32.3359028
  27.9216407  66.5864012  32.9390649  20.4022307  68.4422980  40.8699744
  20.2781004  69.0285425  41.5049563  21.0540592  67.9483175  41.1712019
  20.4795957  68.4561784  41.0085674  27.9609005  73.0240685  32.9468430
  28.4002641  72.4157785  33.3923203  27.8113668  72.6448058  32.1753895
  28.0030471  72.8779156  32.8987597  25.4280648  71.6184697  40.1487256
  26.0729651  71.1257140  39.8298204  25.6682425  71.7609483  40.9753334
  25.5591233  71.5662139  40.2236789  27.9666740  74.4639602  39.7994148
  28.2489982  73.6691008  39.5780904  28.6952900  74.9420190  39.8199209
  28.1156303  74.4174199  39.7697163  25.9447933  62.0062636  37.0409913
  25.6151264  62.4573780  36.3713612  25.2692935  61.9278800  37.5882920
  25.7958370  62.0613772  37.0233136  31.5618342  71.3767866  29.8999199
  31.4769637  72.2328833  30.0448768  32.0502725  71.1012190  30.5681358
  31.6207239  71.4625187  30.0201281  33.1524341  57.9948159  35.2859524
  32.8377782  58.6851638  35.7179946  32.6351283  57.9392941  34.5845024
  33.0288812  58.0883048  35.2456473  32.4936775  67.9952660  31.3996934
  31.9648247  68.2112294  32.0594241  33.0161795  68.6888799  31.3197904
  32.4925228  68.1295797  31.4852534  37.9484828  73.5698965  36.7729979
  37.1182531  73.7809608  36.9363395  37.8994080  72.7436019  36.4972262
  37.8191563  73.4788571  36.7567344  24.3836383  71.8915877  30.2004402
  23.7993598  72.3965908  30.6070266  23.9806478  71.6658264  29.4600994
  24.2375687  71.9324125  30.1509428  28.8413597  68.1381529  28.6773323
  29.0809601  68.3459513  27.8648666  29.1629438  67.3339038  28.7862267
  28.9250755  68.0495630  28.5733876  24.1503888  60.0674925  32.5232861
  24.9049856  60.4353242  32.2849911  23.9731422  60.4414479  33.2912040
  24.2358366  60.1773113  32.6017749  37.4438786  66.2169365  40.5680400
  36.6067207  66.2871552  40.8027995  37.4127017  66.2193860  39.6954703
  37.3157069  66.2279592  40.4739948  23.8403515  68.3602401  46.2828769
  24.0124019  68.2508296  47.1314050  24.3772873  69.0056806  46.0459961
  23.9448519  68.4394403  46.3733866  22.5060952  62.4745244  29.2210974
  22.3236525  62.6917125  28.3951967  23.3686565  62.5884256  29.2769588
  22.6065542  62.5235142  29.1065461  28.1860671  59.4771654  32.2559998
  28.9146832  59.2987609  31.8098154  28.2755564  60.3189734  32.4667176
  28.3067333  59.5755533  32.2213515  32.1668972  70.4125042  36.1592292
  32.9226487  70.8456556  36.1981200  32.2731297  69.7629812  36.7326928
  32.2939143  70.3802526  36.2490317  35.2049143  74.2398319  36.9094695
  34.7684375  74.2435061  37.6653666  34.8712059  74.9203818  36.4774272
  35.0911763  74.3410775  36.9575527  18.1465232  70.9534332  41.1181689
  17.8803647  70.1373449  41.2772679  18.1603796  70.9987487  40.2477204
  18.1089955  70.8391237  41.0135171  35.1246626  61.2812147  39.1524123
  35.7672535  61.3510251  39.7386038  35.3769647  60.6141370  38.6503664
  35.2568758  61.1938495  39.1651402  22.0522979  65.7519416  27.7333447
  21.3381156  65.4657596  28.1455879  22.5366948  66.0916042  28.3739834
  22.0182343  65.7601066  27.8889082  22.8963839  64.4912710  43.7648697
  22.2035635  64.0209690  44.0109428  23.5124166  64.2651015  44.3390404
  22.8848369  64.3879842  43.8857849  38.3393489  70.9579239  35.8014332
  39.0009923  70.3969907  35.7010240  37.6984901  70.4631270  36.1267023
  38.3422357  70.8015648  35.8346672  29.2270297  74.2549370  28.1095255
  29.6421446  73.9234394  27.4179751  28.3962227  74.0218273  27.9815392
  29.1658306  74.1720626  27.9886103  34.6258320  71.9744621  35.5426321
  34.8613909  72.1189820  34.7153171  34.7747884  72.7387029  35.9357834
  34.6824123  72.1083676  35.4789925  21.6204398  68.4578114  44.9075542
  22.3444370  68.4431145  45.3940436  21.7220534  69.1673469  44.4097510
  21.7422607  68.5602817  44.9054329  36.4548777  70.8146287  33.3795924
  36.7856994  71.3473927  32.7736019  37.0281865  70.8685175  34.0357875
  36.5882456  70.9015856  33.3873706  28.9949347  71.9377199  49.7724489
  28.2022328  72.2520711  49.9577108  29.1098274  72.1528667  48.9345273
  28.8944758  72.0161036  49.6762824  31.6680666  68.6611190  34.0619505
  31.7627520  69.4000484  34.5159130  31.0439509  68.2328665  34.4954069
  31.5889696  68.7072511  34.1927652  29.9233140  71.8397403  44.7109785
  30.4972001  71.2024647  44.8658349  29.8447944  71.8401485  43.8419443
  29.9966375  71.7462514  44.6056196  18.5229556  68.6186612  38.5492500
  19.1003059  68.4823063  39.1884745  17.8243618  68.1622396  38.8038084
  18.5050578  68.5308878  38.6814789  31.9203687  70.5059930  27.2956457
  31.8383850  70.5762117  28.1611444  32.5583408  71.0689674  27.1040197
  32.0023525  70.5998901  27.3946406  25.2796858  70.2720668  36.7630983
  25.0216103  69.4392403  36.7362282  25.3345341  70.4978281  35.9223483
  25.2496636  70.1818439  36.6351120  30.3597909  62.3749118  36.8635076
  29.6554235  61.8858304  37.0218995  30.4082883  62.3871593  35.9923520
  30.2627960  62.3038766  36.7574415  24.2531571  67.8258430  37.2495878
  23.6781162  67.9850599  37.8859839  23.8767247  67.1893839  36.7864328
  24.1134383  67.7556243  37.2750436  27.9204859  66.2981779  42.1088256
  27.5319292  65.8735997  41.4540447  27.2559558  66.5463929  42.6165283
  27.7651787  66.2720501  42.0876124  37.5628128  66.0556784  34.8836086
  37.3064693  65.2436726  34.6933969  38.4057442  66.0634351  34.6566273
  37.6494154  65.9368782  34.8220903  13.9988389  67.4698505  35.2640318
  14.0848641  67.0930373  36.0453848  14.6264187  67.0958951  34.7860276
  14.1044940  67.3583987  35.3085796  31.7431221  59.9956408  39.6212240
  32.1241733  59.3134579  40.0080114  30.9394505  59.7066010  39.4387905
  31.6807682  59.8523457  39.6516296  29.0243797  70.5280384  30.3065063
  29.8384436  70.8195277  30.1947834  28.9602939  69.8740246  29.7323356
  29.1346537  70.4745579  30.2053900  35.2453288  73.2106380  44.7194639
  35.0091925  72.3794445  44.6006699  35.8896517  73.1591987  45.3049483
  35.3047958  73.0804068  44.7880532  25.5354521  69.2204191  29.7712264
  25.9199673  69.0011898  30.5228810  25.2866141  70.0467137  29.9013341
  25.5556593  69.3102338  29.9013341  25.7023061  62.5010606  49.4874849
  25.3876502  63.2710169  49.2244411  25.3812994  61.9380862  48.9027076
  25.6081980  62.5320875  49.3616199  36.2689708  72.9950829  40.7822933
  35.9635525  73.7278886  41.1436249  35.5495924  72.5888758  40.5015719
  36.1177051  73.0432562  40.7936070  27.2773178  74.4774324  37.1131161
  27.3512186  74.3149496  37.9673011  28.0942684  74.6664514  36.8691643
  27.4089536  74.4811066  37.2029187  41.9691500  69.6343830  40.1091277
  41.9016001  69.6539789  39.2393864  41.9547163  70.4774157  40.3346948
  41.9570257  69.7617564  40.0143754  23.2554958  60.8901128  35.1021045
  22.3877384  60.9623727  35.1678654  23.5430162  61.6923207  35.2909020
  23.1694706  61.0195275  35.1395812  32.3787847  61.0378987  43.4332367
  33.1241439  60.8488798  43.0195792  31.9625151  61.5637225  42.8746223
  32.4272821  61.0881133  43.2896940  39.7550118  68.4088216  38.3837872
  40.3058039  67.7756285  38.6234964  39.7394233  68.9403609  39.0753376
  39.8335314  68.3937164  38.5216730  26.4072509  72.2426813  42.9297765
  25.9084202  72.9542581  43.0082654  27.2172733  72.5627480  42.8915928
  26.4528615  72.3953662  42.9354334  22.6700626  71.5049766  37.1760486
  22.3813875  70.8787237  37.7106213  23.5383974  71.4470054  37.2425167
  22.7560878  71.4037310  37.2651441  33.4578524  66.6484549  37.4942468
  33.1143290  65.9274885  37.8449718  33.5571567  66.4398401  36.6520826
  33.4220567  66.5108753  37.4214148  33.9191553  73.1110254  33.0366456
  34.4849586  73.7703463  32.9524999  33.2719456  73.4559952  33.5082858
  33.9070309  73.2592195  33.0939213  25.3339567  65.1007858  48.2260064
  24.5239342  65.4065637  48.1149906  25.8114253  65.8213440  48.3412648
  25.2843045  65.2522459  48.2267135  21.1822310  64.3659387  32.5437921
  20.8947106  63.9960658  31.8069869  21.8692778  64.8354243  32.2821626
  21.2411207  64.3806357  32.3952997  25.6197452  71.3457598  33.8724458
  25.4240234  71.9532332  33.2784761  25.8431797  70.6525542  33.3916132
  25.6232093  71.3335123  33.7140538  24.0175982  68.2312335  33.9905326
  24.7398634  68.3953494  33.5309132  23.5383975  68.9522000  33.8844666
  24.0539712  68.3610565  33.9070940  31.9769489  64.5676134  39.3702011
  31.1380590  64.5937413  39.1340274  32.0473857  65.2146870  39.9507358
  31.8637883  64.6672260  39.4211128  21.6683598  70.6370408  43.0959466
  22.1804695  70.9154661  42.4468226  21.3819941  71.3759702  43.4622279
  21.7018462  70.7872762  43.0549344  30.4238768  61.4661511  34.1029627
  31.1265120  61.2669260  33.6249585  30.1582956  60.6937454  34.4098470
  30.4885400  61.3224477  34.0775068  35.8527013  69.7744121  36.6563253
  35.7660988  69.9299547  37.5098032  35.3977493  70.4182197  36.2822658
  35.7730270  69.8919876  36.7270359  18.7550505  65.1440600  33.3923202
  18.8566641  65.9466761  33.7204178  19.5506392  64.9427936  33.0946283
  18.8878410  65.2326498  33.3958558  25.1867324  62.7296796  43.1560507
  24.9950521  62.7451931  44.0059931  26.0365920  62.9260471  43.1327162
  25.2843046  62.7611148  43.2783802  19.5714237  65.2587778  41.1344324
  19.4299729  64.4071719  41.2588832  19.8554800  65.3016439  40.3106530
  19.5922083  65.1387528  41.0311948  29.7252829  67.0954868  35.2788812
  29.4787544  67.0150619  36.1125601  30.0537952  66.3108336  35.0851340
  29.7374073  66.9681133  35.3736335  33.6200878  73.8038227  39.0675593
  33.4815237  74.5019273  39.5724336  32.8400876  73.6486884  38.7111775
  33.4844105  73.8838394  39.0901868  31.9578963  70.1034603  45.3197975
  31.9527002  69.2314419  45.3240402  32.6639957  70.3022772  44.8467431
  32.0623967  70.0038477  45.2505011  25.6849857  69.8311587  44.6911795
  25.8293232  70.4112795  44.0554905  26.0325505  70.2087883  45.3961650
  25.7577318  69.9732291  44.7010790  27.8569774  69.0301755  42.4736927
  27.1093088  69.2232769  42.0685205  28.0111299  68.2046975  42.2361048
  27.7692201  68.9366866  42.3782333  35.1154251  73.1616481  29.8292093
  34.7361060  72.3753619  29.8221382  34.4520496  73.7103338  29.6863737
  34.9612726  73.1261305  29.8072890  20.3404542  63.1718126  44.4521774
  19.8046732  62.5598484  44.7682542  20.4022307  63.7466261  45.1055441
  20.2700175  63.1665053  44.5957201  32.5698877  56.1042181  37.2326174
  32.6882445  56.5618644  36.4993476  32.3961053  55.2987442  36.9462391
  32.5618048  56.0535953  37.0827107  25.9753929  64.9154410  40.2074155
  25.1850004  64.7345870  40.5291490  26.3714552  64.1381362  40.1904449
  25.9170805  64.7741871  40.2526703  30.4619820  73.7442184  25.6480868
  31.2292805  73.8042309  25.2386720  30.0151129  73.1722625  25.1637187
  30.5093247  73.6678760  25.5158579  31.3597615  72.5496840  37.9333601
  30.6842617  72.3182072  38.4346988  31.3689991  71.9418023  37.3075706
  31.2616120  72.4255765  37.9149753  28.4891759  67.3914669  44.6897654
  28.4250900  68.2524625  44.5617790  28.6288947  67.0746662  43.8893205
  28.5007229  67.4714835  44.5525866  33.3614350  75.4061972  30.1643778
  33.4434187  76.2128958  29.8405229  33.8464092  75.4257931  30.8884552
  33.4451508  75.5282635  30.2230677  27.1710853  70.0846808  38.8313856
  26.7473102  70.2851307  38.0952875  26.9955708  69.2375656  38.9438156
  27.0821734  69.9895590  38.7387547  22.4593298  70.5798860  34.2641829
  22.6157917  70.5145662  35.1197821  22.7993891  71.3547412  34.0520509
  22.5326533  70.6848058  34.3596423  28.9972443  69.9556743  33.1335192
  29.5387988  69.4527124  33.5973813  29.3119002  69.9021938  32.3224677
  29.1236840  69.8736164  33.0819004  32.8689550  74.1659391  50.2462104
  33.6824415  73.8944539  50.4067237  32.7084516  73.8666931  49.4422300
  32.9659498  74.0814317  50.1507510  30.1461712  64.8493048  43.1857493
  30.3603682  64.2103962  42.6320847  29.5295611  65.2938872  42.7565354
  30.0867041  64.8203191  43.0407924  19.0327559  67.7633810  34.5802596
  19.4126524  68.1818355  33.9162863  18.4582924  68.3447266  34.8871439
  19.0038884  67.9111669  34.5279337  32.3100800  66.4582113  44.1240800
  31.4977482  66.1508003  44.2053972  32.7690735  65.9781113  44.6883512
  32.2581185  66.3418605  44.2195394  31.7206055  74.3361785  34.5717744
  31.3620709  74.5076428  35.3481776  31.2344765  74.7974990  34.0145743
  31.5964752  74.4300756  34.6043013  29.5376441  57.9592983  38.1744835
  28.6669999  57.9331704  38.1278145  29.7916782  57.7870176  37.3570681
  29.4470001  57.9303127  38.0464972  26.5094420  70.0160950  27.1117978
  26.7986945  70.7925833  27.3861553  26.5966219  69.5049682  27.8132478
  26.5648676  70.0552869  27.2560476  29.4054307  67.8642184  48.9069502
  29.8753939  68.4884301  49.2937376  29.4516188  67.1959160  49.4662717
  29.4822183  67.8576865  49.0469573  26.5625581  59.9699212  39.6318306
  26.0464070  59.2779403  39.7569885  26.0019510  60.6369989  39.5780905
  26.4032094  59.9662469  39.6424372  28.6317815  60.5092172  41.4611158
  28.2449568  60.5341203  42.2424688  28.1450752  59.9433850  41.0085675
  28.5030323  60.4287923  41.5099062  32.8810794  75.2265681  45.5184945
  33.5190515  74.7325876  45.1847401  32.2384886  75.1543081  44.9337172
  32.8805021  75.1424689  45.3827300  34.6067794  67.0754827  40.0850861
  34.1795402  66.9881175  39.3298960  33.9693847  67.1832602  40.6705705
  34.4497401  67.0787487  40.0596302  28.2974956  57.3959157  43.7521418
  28.9268074  57.9319457  43.4742489  28.4660819  57.3036516  44.6034984
  28.4152751  57.4620520  43.8369946  28.0988871  62.1830352  46.0247830
  28.9262301  61.9115501  46.0806444  28.1196717  62.9791194  46.3811648
  28.2241721  62.2610106  46.0863013  32.9365051  75.9185489  42.1590302
  33.7257429  75.5674554  42.2792383  33.1108648  76.7321878  41.8966936
  33.0785332  75.9871346  42.1378170  22.6758361  69.3294215  39.2118091
  21.8346368  69.2298089  39.4196984  22.8848369  70.0989695  39.5632411
  22.5823054  69.4286258  39.2945405  20.1533928  66.9513752  37.0402841
  19.7590626  67.0256764  36.2652951  19.5974045  67.3371698  37.5911203
  20.0136740  67.0195526  37.0070501  31.7898875  59.9295046  36.7206720
  31.9948468  59.8617354  37.5663717  31.4625299  60.7353867  36.6527898
  31.7714123  60.0380986  36.8366375  26.4875026  67.2575614  38.4615688
  26.1838163  66.7031602  39.0626096  25.7854447  67.4367824  37.9743722
  26.3391236  67.2020396  38.4785394  25.5441123  64.5676134  33.0260390
  25.8200857  63.8495046  32.6137957  26.1439792  65.1661054  32.8181496
  25.6734388  64.5496505  32.9341151  35.0432562  60.4826810  36.2009486
  34.4306876  60.9697212  36.5863217  35.1396737  59.8070301  36.7447137
  34.9670460  60.4545119  36.3388344  29.0451643  62.2389651  31.3006985
  29.4995390  62.4100212  32.0254829  29.5191689  61.6257762  30.9004761
  29.1819964  62.1740536  31.3480747  22.5667169  71.7237977  40.6309723
  21.9755102  72.3647475  40.6012739  23.3288192  72.1475594  40.6041023
  22.5915430  71.8813816  40.6224871  22.9627792  62.8839975  41.2977741
  23.4229273  62.9578904  42.0352865  23.0083898  63.6821229  40.9477562
  23.0378347  63.0134122  41.3550498  24.6111141  63.5506670  45.8649768
  24.2196707  62.9040017  46.3005546  24.7797004  64.1418105  46.4844024
  24.5782052  63.5420938  46.0212474  38.6857590  71.5543747  41.6287002
  38.7440714  72.0030396  42.3746978  38.0524058  71.9642560  41.1917082
  38.6008886  71.6817481  41.6739550  26.3864663  68.9432186  32.4051992
  27.1306708  69.3306462  32.6434942  26.5325360  68.0989611  32.5692480
  26.5175249  68.8762658  32.4645962  28.3044239  60.7382444  37.4383854
  27.4580284  60.9105252  37.3125203  28.3015371  59.9331788  37.7749682
  28.1791389  60.6443473  37.4694981  29.3742539  64.5157659  38.3045912
  28.9002494  63.9899421  38.8151222  29.7460675  63.9687132  37.7360773
  29.3592428  64.3573655  38.2961059  19.7515569  66.5129166  43.6729457
  20.6141183  66.4124875  43.5866787  19.4207352  65.9323875  43.1115029
  19.8300766  66.4120792  43.5774863  35.6379270  69.5760035  39.7152692
  35.3977493  68.7366450  39.7195118  36.1171277  69.6560201  40.4393466
  35.6731454  69.4641434  39.8227494  31.3026039  65.4094213  31.3671665
  30.7749058  65.4922957  30.6777374  31.7621747  66.1512085  31.3636310
  31.2927889  65.5314876  31.2646360  37.6384457  66.3561492  37.6681951
  37.3994227  66.3157326  36.8302736  37.8018358  67.2032644  37.7947672
  37.6274760  66.4753577  37.5635433  34.2430487  70.7411441  43.5986996
  34.9664686  70.2883967  43.4198016  33.9780449  71.0216107  42.8159324
  34.3111760  70.7162410  43.4565712  23.1117355  65.3371615  40.3339875
  22.4870426  65.3490007  39.7265828  22.7762950  65.8131790  40.9831116
  22.9702847  65.4090132  40.3396444  23.2959104  63.6796733  26.3912560
  22.9471908  64.3316458  26.8544110  22.8155550  63.6653846  25.6636432
  23.1729348  63.7739787  26.3523652  30.8563122  73.9797777  30.4981322
  31.5797320  74.4455890  30.3545896  30.4163713  74.0471387  29.7478919
  30.8978814  74.0581614  30.3666104  30.0249277  70.8395319  41.7482011
  29.4106270  70.2953370  42.0430647  30.5416562  70.3259556  41.2687827
  30.0104939  70.6831728  41.7206240  29.2645574  71.9099589  39.4826310
  28.8373182  71.2849308  39.0491745  29.2570518  71.6274511  40.3085317
  29.2004715  71.7752370  39.5406138  22.3808101  66.9464762  42.5514744
  22.5401588  66.1908087  42.9566466  22.2000994  67.4955702  43.2055482
  22.3773460  66.9158576  42.7077450  30.3228404  59.1125998  43.1065533
  29.8268965  59.3089672  42.4157100  31.0797466  59.5118666  42.9354335
  30.3615229  59.2003732  42.9785670  27.5931283  62.7868344  39.6968844
  27.6173771  62.2528456  39.0081624  27.8442757  62.2785653  40.3594435
  27.6341202  62.6329248  39.6933489  23.8732606  61.5139162  39.0774588
  23.9130977  62.0148369  39.7909296  23.0482270  61.6049556  38.8080511
  23.7572132  61.6020978  39.1425127  26.0562219  71.0799902  47.1794883
  25.2057849  71.2171616  47.3152528  26.2190346  70.3463680  47.6242585
  25.9546082  70.9914003  47.2650482  25.2946969  68.0299672  41.3748487
  24.4638899  68.1973490  41.1683735  25.2398486  67.6535623  42.1597373
  25.1636384  67.9989403  41.4597015  23.1030752  61.5208565  47.0104898
  23.7283456  60.9770698  47.2834330  22.6481232  61.0403482  46.4412688
  23.1279013  61.3698046  46.9666492  23.6683013  66.3055263  31.9038605
  23.8085974  66.8027728  32.6067246  24.1665546  65.6041558  32.0452819
  23.7624094  66.2757242  32.0290184  23.6983235  67.1722374  29.2331182
  24.3328315  67.7682800  29.1680644  23.7808846  66.8725832  30.0477052
  23.8039786  67.2163283  29.3434268  36.6765801  69.7037852  42.1017546
  37.2683641  70.3435103  42.1335744  37.1124796  69.0060889  42.3909613
  36.8284232  69.6956202  42.1498379  25.2762218  63.1036350  29.2076624
  25.5978059  62.6239432  28.5535886  25.5389162  63.9135996  29.0167435
  25.3628244  63.1526248  29.0832116  28.5059191  74.1255224  42.7275440
  27.9984282  74.6791071  43.1716070  28.2085837  74.1863514  41.9094214
  28.3864076  74.2161535  42.6723897  30.6721373  62.4908544  41.5700103
  31.0976445  62.0381070  40.9583629  30.0578366  61.9368615  41.8464890
  30.6450018  62.3422520  41.5205128  20.2036223  69.3690215  32.5020728
  20.7128452  69.9654723  32.8832033  20.6770495  69.1016189  31.8197147
  20.3479599  69.4176031  32.4575251  29.1115596  58.9623644  34.9790680
  28.4683914  58.8121290  35.5475818  28.7715003  58.7165989  34.2139785
  28.9660673  58.9035766  34.9493695  33.7014942  66.9183070  34.4020688
  33.0306132  67.4612773  34.2733754  34.3954693  67.3877926  34.1602383
  33.7043810  67.0681342  34.3476216  33.8643070  63.3738954  37.3111062
  34.2170680  62.9468677  37.9856860  33.0057871  63.2889798  37.4412138
  33.7892515  63.2983695  37.4306072  22.5626755  66.0046474  35.3693908
  21.8438744  66.4210606  35.6366772  22.9339117  66.5700713  34.8185546
  22.5118687  66.1495755  35.3276715  31.8626336  66.6374323  41.2595904
  31.8424263  66.4557618  42.1130683  31.9105536  67.5086341  41.2355488
  31.8660977  66.7390861  41.3819199  29.8072666  73.2261515  47.1844381
  29.7668520  72.5811192  46.5989536  30.6195984  73.1698132  47.4969793
  29.9215819  73.1220482  47.1441330  28.3373329  65.0444474  30.7067288
  27.7438169  65.3661470  30.1551855  28.3748607  64.1985569  30.4988394
  28.2547718  64.9668802  30.5950059  35.2967130  58.4957366  38.2395374
  34.7897995  57.7886506  38.1716552  36.0934564  58.1650555  38.3696451
  35.3394369  58.3430517  38.2494369  31.2131146  65.0023978  34.1369038
  30.9844839  65.0256680  33.2947396  31.4729222  64.1781445  34.2564049
  31.2177334  64.8840058  34.0294236  25.4950374  66.8558451  43.7394138
  24.9829277  66.2479634  44.0979170  25.3229870  67.5715044  44.2068114
  25.3940011  66.8721751  43.8610362  20.3416089  65.2996027  46.3896500
  20.1718679  65.9597401  45.8444707  19.8982039  65.5102588  47.1108989
  20.2515423  65.4282009  46.4158129  24.2675908  63.5400524  35.4323234
  24.7433275  63.9017604  34.7973415  23.7664508  64.1956992  35.7123376
  24.2641267  63.6894713  35.3799975  37.4987270  73.0122293  31.2236239
  37.8820876  73.7613649  31.4534336  36.7031383  73.2588112  30.9648228
  37.4381052  73.1591986  31.2193812  29.3719445  64.7782696  46.1796394
  29.9290875  64.5496505  45.5474859  29.0480510  65.5388362  45.9031606
  29.4065855  64.8566533  46.0452891  17.2418153  68.2042892  41.6484990
  16.6944873  67.5343538  41.7665858  18.0310532  67.8372740  41.7128457
  17.2770337  68.0507879  41.6753690  27.0902562  67.8650349  47.1448401
  27.8413889  68.1802026  47.4587955  27.2825138  67.6629520  46.3182323
  27.2293976  67.8817731  47.0691797  26.3102561  65.6841724  28.7996618
  26.6901526  65.7021353  28.0147732  25.5695158  66.1295713  28.6787465
  26.2571399  65.7523499  28.6660186  33.9387852  63.9923915  34.3872196
  33.9382078  63.8372572  35.2456473  33.7344032  64.8386903  34.3313582
  33.9087630  64.0944536  34.5060136  16.0005123  67.4163700  38.8031013
  15.8226884  66.9640309  39.5285928  15.7124145  68.2189861  38.9869490
  15.9318076  67.4686258  38.9374516  31.6628704  68.6721417  38.0408403
  32.1582369  67.9544412  38.0012423  30.8528480  68.3692215  37.9262890
  31.6172597  68.5219064  38.0182129  27.1087316  72.5219231  30.1905408
  26.2998638  72.1985904  30.1438717  27.6162224  71.8152453  30.1233656
  27.0636982  72.3700547  30.1735702  17.7377593  69.9491424  35.9152772
  16.8723112  69.9377114  35.8035543  17.8376409  69.7621647  36.7623911
  17.6251760  69.9197485  36.0241716  33.7280523  71.4225105  40.7285532
  34.1535594  70.8999527  40.1755957  33.3637443  72.0205942  40.2074155
  33.7367125  71.4335332  40.5694542  30.3159122  75.1359369  37.0586689
  30.7870301  75.8499632  37.2276675  30.6519301  74.5358119  37.5946559
  30.4354237  75.1530833  37.1619065  27.2328617  59.9086840  44.0144784
  27.3656523  59.1117833  44.3425760  27.6173770  60.4353243  44.5943060
  27.3084946  59.8686756  44.1488287  30.9533069  74.9277303  43.8214382
  30.4054015  74.3035187  43.5534447  31.4146097  75.1171575  43.1058461
  30.9400278  74.8636353  43.6764813  30.3060972  56.8317166  40.6125877
  29.5006936  56.7214895  40.9293716  30.1767708  56.9329621  39.7555743
  30.1681105  56.8300836  40.5333918  33.7626933  62.9962658  41.2065574
  33.1789922  63.4971864  40.7943142  34.0831227  62.4892214  40.5729898
  33.7240108  62.9954493  41.0524082  26.3021732  61.9103252  31.4824249
  27.1237427  62.0801565  31.2405944  25.8391383  62.0650513  30.7590547
  26.3552894  61.9584985  31.3395893  24.8917064  59.9046015  42.2622678
  25.4361477  59.5637142  42.8527020  24.9454000  60.7631476  42.4043963
  24.9806183  59.9801274  42.3704551  44.1256925  73.5133467  35.2859524
  43.8110366  74.2036946  35.7179946  43.6083866  73.4578249  34.5845024
  44.0021395  73.6068356  35.2456473  35.1236471  75.5860233  32.5232861
  35.8782439  75.9538550  32.2849911  34.9464006  75.9599787  33.2912040
  35.2090950  75.6958421  32.6017749  48.4171370  81.7354673  40.5680400
  47.5799791  81.8056860  40.8027995  48.3859601  81.7379168  39.6954703
  48.2889652  81.7464900  40.4739948  39.1593255  74.9956962  32.2559998
  39.8879415  74.8172917  31.8098154  39.2488148  75.8375042  32.4667176
  39.2799917  75.0940841  32.2213515  46.0979210  76.7997455  39.1524123
  46.7405118  76.8695559  39.7386038  46.3502230  76.1326678  38.6503664
  46.2301342  76.7123803  39.1651402  41.3330492  77.8934426  36.8635076
  40.6286819  77.4043612  37.0218995  41.3815466  77.9056901  35.9923520
  41.2360544  77.8224074  36.7574415  48.5360712  81.5742092  34.8836086
  48.2797277  80.7622034  34.6933969  49.3790026  81.5819659  34.6566273
  48.6226737  81.4554090  34.8220903  42.7163804  75.5141716  39.6212240
  43.0974316  74.8319887  40.0080114  41.9127089  75.2251318  39.4387905
  42.6540266  75.3708765  39.6516296  34.2287542  76.4086436  35.1021045
  33.3609967  76.4809035  35.1678654  34.5162746  77.2108515  35.2909020
  34.1427290  76.5380583  35.1395812  43.3520430  76.5564295  43.4332367
  44.0974022  76.3674106  43.0195792  42.9357735  77.0822533  42.8746223
  43.4005405  76.6066441  43.2896940  41.3971351  76.9846819  34.1029627
  42.0997704  76.7854567  33.6249585  41.1315540  76.2122762  34.4098470
  41.4617984  76.8409785  34.0775068  43.5431460  71.6227489  37.2326174
  43.6615029  72.0803952  36.4993476  43.3693636  70.8172750  36.9462391
  43.5350631  71.5721261  37.0827107  40.5109024  73.4778291  38.1744835
  39.6402582  73.4517012  38.1278145  40.7649365  73.3055483  37.3570681
  40.4202584  73.4488435  38.0464972  37.5358165  75.4884520  39.6318306
  37.0196653  74.7964711  39.7569885  36.9752094  76.1555297  39.5780905
  37.3764678  75.4847777  39.6424372  39.6050398  76.0277480  41.4611158
  39.2182151  76.0526511  42.2424688  39.1183335  75.4619158  41.0085675
  39.4762907  75.9473231  41.5099062  39.2707540  72.9144465  43.7521418
  39.9000658  73.4504765  43.4742489  39.4393403  72.8221824  44.6034984
  39.3885334  72.9805828  43.8369946  39.0721455  77.7015660  46.0247830
  39.8994884  77.4300809  46.0806444  39.0929301  78.4976502  46.3811648
  39.1974305  77.7795414  46.0863013  42.7631458  75.4480354  36.7206720
  42.9681052  75.3802662  37.5663717  42.4357882  76.2539175  36.6527898
  42.7446706  75.5566294  36.8366375  46.0165146  76.0012118  36.2009486
  45.4039460  76.4882520  36.5863217  46.1129321  75.3255609  36.7447137
  45.9403044  75.9730427  36.3388344  40.0184227  77.7574959  31.3006985
  40.4727974  77.9285520  32.0254829  40.4924273  77.1443070  30.9004761
  40.1552547  77.6925844  31.3480747  39.2776823  76.2567752  37.4383854
  38.4312868  76.4290560  37.3125203  39.2747955  75.4517096  37.7749682
  39.1523972  76.1628781  37.4694981  41.2960987  74.6311306  43.1065533
  40.8001549  74.8274980  42.4157100  42.0530049  75.0303974  42.9354335
  41.3347812  74.7189040  42.9785670  38.5663867  78.3053652  39.6968844
  38.5906354  77.7713764  39.0081624  38.8175341  77.7970961  40.3594435
  38.6073786  78.1514556  39.6933489  34.0763336  77.0393873  47.0104898
  34.7016039  76.4956006  47.2834330  33.6213816  76.5588790  46.4412688
  34.1011596  76.8883354  46.9666492  41.6453957  78.0093852  41.5700103
  42.0709028  77.5566378  40.9583629  41.0310950  77.4553922  41.8464890
  41.6182602  77.8607828  41.5205128  40.0848180  74.4808952  34.9790680
  39.4416497  74.3306598  35.5475818  39.7447587  74.2351297  34.2139785
  39.9393257  74.4221074  34.9493695  44.8375653  78.8924262  37.3111062
  45.1903264  78.4653985  37.9856860  43.9790455  78.8075106  37.4412138
  44.7625098  78.8169003  37.4306072  46.2699714  74.0142674  38.2395374
  45.7630578  73.3071813  38.1716552  47.0667147  73.6835863  38.3696451
  46.3126953  73.8615825  38.2494369  44.9120436  79.5109223  34.3872196
  44.9114662  79.3557880  35.2456473  44.7076616  80.3572210  34.3313582
  44.8820213  79.6129844  34.5060136  38.2061201  75.4272148  44.0144784
  38.3389106  74.6303141  44.3425760  38.5906354  75.9538551  44.5943060
  38.2817530  75.3872064  44.1488287  41.2793556  72.3502474  40.6125877
  40.4739520  72.2400203  40.9293716  41.1500292  72.4514929  39.7555743
  41.1413689  72.3486144  40.5333918  44.7359517  78.5147966  41.2065574
  44.1522505  79.0157172  40.7943142  45.0563811  78.0077522  40.5729898
  44.6972692  78.5139801  41.0524082  37.2754316  77.4288560  31.4824249
  38.0970010  77.5986873  31.2405944  36.8123967  77.5835821  30.7590547
  37.3285478  77.4770293  31.3395893  35.8649648  75.4231323  42.2622678
  36.4094061  75.0822449  42.8527020  35.9186583  76.2816784  42.4043963
  35.9538767  75.4986582  42.3704551  13.7658119  13.9715435  20.2506646
  13.7352123  14.8260072  20.4224916  14.3639467  13.6710728  20.8092790
  13.8495276  14.0531932  20.3581449   6.9657803  13.0591086  25.0059577
   6.1095699  13.2199584  25.0568694   7.0125457  12.1883150  25.0264638
   6.8456915  12.9541888  25.0165643   1.3498943  22.5953804  20.7696808
   0.5981843  22.2169342  20.5412853   1.7984955  22.6272237  20.0215619
   1.3048610  22.5439411  20.6254311  10.2751520  19.3277612  34.6120033
  10.9818287  18.8329642  34.7406967  10.4639455  19.7686693  33.8822691
  10.4079426  19.3195962  34.5229078   6.8023903  23.0179173  16.1982355
   6.4675271  23.6956095  15.7626578   7.3150773  22.6284485  15.6099227
   6.8289484  23.0603752  16.0469147   6.3428194  24.9693442  22.1393467
   6.7267574  25.5380341  21.5998242   6.2787336  24.2442952  21.6599283
   6.3901622  24.9468905  21.9887330   9.8109624  15.1183130  27.6491228
  10.3565584  15.7968217  27.7085198   9.7526501  14.9770591  26.7892810
   9.8825539  15.1975132  27.5303289   2.9283699  22.6072196  23.0359581
   3.0294062  21.7972550  23.3456709   2.3325445  22.5129142  22.4059259
   2.8556238  22.4737224  22.9885819  11.5874693  16.5467737  18.5224956
  11.4714219  17.2975423  18.9517094  12.3830580  16.2891690  18.7721043
  11.6879283  16.6202584  18.6229048   2.7684439  27.5249785  24.4374437
   3.4121894  27.9662949  24.8270595   3.0940694  26.7203211  24.3504696
   2.9116268  27.4714980  24.4819914   3.4705019  20.5361760  19.8094299
   3.7920860  21.0766967  19.2055607   4.1177115  19.9658531  19.9416588
   3.6131074  20.5320935  19.7401334   5.7094662  18.9248200  19.8808477
   6.1488298  18.3165301  20.3263250   5.5599325  18.5455573  19.1093942
   5.7516128  18.7786671  19.8327644   3.1766305  17.5192212  27.0827302
   3.8215308  17.0264655  26.7638251   3.4168082  17.6616998  27.9093381
   3.3076890  17.4669654  27.1576836   5.7152396  20.3647118  26.7334195
   5.9975639  19.5698523  26.5120951   6.4438557  20.8427705  26.7539256
   5.8641960  20.3181715  26.7037210   9.3103999  17.2775381  16.8339246
   9.2255294  18.1336348  16.9788815   9.7988382  17.0019705  17.5021405
   9.3692896  17.3632703  16.9541328  10.2422432  13.8960175  18.3336981
   9.7133903  14.1119809  18.9934287  10.7647452  14.5896314  18.2537951
  10.2410885  14.0303312  18.4192580  15.6970485  19.4706480  23.7070026
  14.8668188  19.6817124  23.8703442  15.6479737  18.6443534  23.4312309
  15.5677220  19.3796086  23.6907391   3.7580222  22.3010334  26.5417935
   3.2407164  21.9417749  25.9379243   4.4554614  21.7772509  26.5524001
   3.7845803  22.1708022  26.4548194   7.4143814  22.7505148  32.5034108
   7.5027160  22.5631289  33.3512319   7.8433527  22.1042578  32.1038955
   7.4905917  22.6268156  32.5705860   4.9814274  22.0336308  31.4851770
   4.4185109  21.6208918  32.0091432   5.7435298  21.9589214  31.9044914
   5.0108723  21.9613709  31.6244771  15.1924443  12.1176881  27.5020447
  14.3552864  12.1879068  27.7368041  15.1612674  12.1201375  26.6294749
  15.0642725  12.1287108  27.4079995   1.5889172  14.2609916  33.2168816
   1.7609676  14.1515811  34.0654097   2.1258530  14.9064322  32.9800008
   1.6934176  14.3401918  33.3073912   9.9154629  16.3132557  23.0932338
  10.6712144  16.7464071  23.1321247  10.0216953  15.6637327  23.6666974
  10.0424799  16.2810041  23.1830364  12.9534800  20.1405834  23.8434741
  12.5170032  20.1442577  24.5993713  12.6197715  20.8211333  23.4114319
  12.8397420  20.2418290  23.8915574   7.5263874  22.1814167  35.1677892
   8.3104290  22.2945015  35.5333634   7.3260468  21.3555304  35.3636578
   7.6129899  22.0760887  35.2512278  12.8732283   7.1819662  26.0864169
  13.5158191   7.2517767  26.6726085  13.1255304   6.5148885  25.5843711
  13.0054415   7.0946011  26.0991449   7.6834267  24.0924269  28.8144347
   6.8849513  23.8523769  29.0718216   8.1320278  24.1438662  29.5611395
   7.6308878  24.0646660  28.9629272  16.0879146  16.8586754  22.7354379
  16.7495580  16.2977423  22.6350287  15.4470558  16.3638785  23.0607070
  16.0908014  16.7023163  22.7686719  12.3743977  17.8752137  22.4766367
  12.6099566  18.0197336  21.6493218  12.5233541  18.6394545  22.8697881
  12.4309780  18.0091191  22.4129971  14.2034434  16.7153803  20.3135971
  14.5342651  17.2481443  19.7076066  14.7767522  16.7692690  20.9697922
  14.3368113  16.8023371  20.3213753   6.7435004  17.8384714  36.7064536
   5.9507985  18.1528226  36.8917155   6.8583931  18.0536183  35.8685320
   6.6430414  17.9168551  36.6102870   9.4166323  14.5618705  20.9959551
   9.5113177  15.3007999  21.4499177   8.7925166  14.1336181  21.4294116
   9.3375353  14.6080026  21.1267699   7.6718797  17.7404918  31.6449832
   8.2457658  17.1032162  31.7998396   7.5933600  17.7409000  30.7759490
   7.7452031  17.6470029  31.5396243   3.0282515  16.1728183  23.6971030
   2.7701759  15.3399918  23.6702329   3.0830998  16.3985796  22.8563530
   2.9982293  16.0825954  23.5691166   8.1083565   8.2756634  23.7975122
   7.4039892   7.7865819  23.9559042   8.1568540   8.2879108  22.9263567
   8.0113617   8.2046282  23.6914462   2.0017227  13.7265945  24.1835924
   1.4266819  13.8858114  24.8199885   1.6252904  13.0901355  23.7204375
   1.8620040  13.6563758  24.2090483   5.6690516  12.1989295  29.0428303
   5.2804949  11.7743513  28.3880494   5.0045214  12.4471444  29.5505329
   5.5137444  12.1728016  29.0216171  15.3113785  11.9564299  21.8176133
  15.0550350  11.1444241  21.6274016  16.1543099  11.9641867  21.5906320
  15.3979811  11.8376297  21.7560950  12.9938944  19.1113895  31.6534685
  12.7577582  18.2801960  31.5346746  13.6382173  19.0599503  32.2389530
  13.0533615  18.9811583  31.7220579   2.6437363  19.9009417  22.3677422
   3.2811309  19.6621164  22.9129215   3.0692434  20.1046576  21.6330583
   2.8013529  19.8960427  22.3394579  14.0175365  18.8958344  27.7162980
  13.7121182  19.6286401  28.0776296  13.2981581  18.4896274  27.4355766
  13.8662707  18.9440077  27.7276117   5.0258834  20.3781839  24.0471208
   5.0997843  20.2157011  24.9013058   5.8428341  20.5672029  23.8031690
   5.1575193  20.3818582  24.1369234  19.7177157  15.5351345  27.0431324
  19.6501657  15.5547304  26.1733911  19.7032820  16.3781672  27.2686995
  19.7055914  15.6625080  26.9483801  10.1273504   6.9386503  30.3672414
  10.8727096   6.7496313  29.9535839   9.7110808   7.4644741  29.8086270
  10.1758478   6.9888648  30.2236987   3.5663420  23.3416582  18.7784682
   3.8561719  22.9505564  18.0543908   4.2966901  23.5233287  19.2189957
   3.7170304  23.3110396  18.7367489  17.5035775  14.3095731  25.3177919
  18.0543696  13.6763800  25.5575011  17.4879890  14.8411124  26.0093423
  17.5820971  14.2944679  25.4556777   4.1558165  18.1434328  29.8637812
   3.6569859  18.8550096  29.9422701   4.9658390  18.4634995  29.8255974
   4.2014272  18.2961177  29.8694381   1.5069336  25.3183965  21.8444831
   1.2869631  25.0281320  22.6371498   1.2863858  24.6598920  21.3162744
   1.4416930  25.1783673  21.8833740  11.2064181  12.5492065  24.4282515
  10.8628947  11.8282400  24.7789764  11.3057223  12.3405916  23.5860873
  11.1706224  12.4116268  24.3554195   3.6737291  26.6913355  20.6275524
   4.3261350  26.1589797  20.8566550   2.9762900  26.3382007  21.0143398
   3.6668009  26.5602878  20.7187691  11.6677210  19.0117769  19.9706503
  12.2335242  19.6710979  19.8865046  11.0205113  19.3567467  20.4422905
  11.6555966  19.1599710  20.0279259   3.0825223  11.0015373  35.1600110
   2.2724999  11.3073153  35.0489953   3.5599910  11.7220955  35.2752694
   3.0328702  11.1529974  35.1607181   1.9416783  20.2161094  25.4083013
   1.4197536  20.3561385  26.0934878   2.3290803  19.4571758  25.5985131
   1.9220484  20.1246618  25.5384090   8.1383788  21.9556553  19.3943582
   7.8970464  21.2224414  18.9870647   8.3185121  22.5043410  18.7409915
   8.1291412  21.9278944  19.2373805   3.3683109  17.2465113  20.8064504
   3.1725891  17.8539847  20.2124807   3.5917454  16.5533057  20.3256178
   3.3717750  17.2342638  20.6480585   9.7255146  10.4683650  26.3042058
   8.8866247  10.4944928  26.0680321   9.7959513  11.1154385  26.8847404
   9.6123540  10.5679775  26.3551175  13.6012670  15.6751636  23.5903300
  13.5146645  15.8307062  24.4438078  13.1463150  16.3189712  23.2162705
  13.5215927  15.7927391  23.6610406   7.4738486  12.9962383  22.2128859
   7.2273200  12.9158134  23.0465648   7.8023609  12.2115851  22.0191387
   7.4859730  12.8688649  22.3076382  11.3686535  19.7045743  26.0015640
  11.2300894  20.4026789  26.5064383  10.5886533  19.5494399  25.6451822
  11.2329762  19.7845909  26.0241914   9.7064620  16.0042118  32.2538022
   9.7012658  15.1321935  32.2580448  10.4125614  16.2030287  31.7807478
   9.8109624  15.9045992  32.1845057   3.4335513  15.7319102  31.6251842
   3.5778889  16.3120310  30.9894952   3.7811162  16.1095399  32.3301697
   3.5062975  15.8739806  31.6350837   5.6055431  14.9309270  29.4076974
   4.8578745  15.1240285  29.0025252   5.7596956  14.1054490  29.1701095
   5.5177858  14.8374382  29.3122380   2.5063268  23.9221874  28.4912869
   2.6552832  23.3624790  27.8386273   3.2863270  24.0013876  28.8745388
   2.6437362  23.8507439  28.4509818  12.8639908  19.0623997  16.7632139
  12.4846716  18.2761134  16.7561429  12.2006153  19.6110854  16.6203784
  12.7098382  19.0268821  16.7412936   5.0316569  24.0936517  29.7697360
   4.9560240  23.4245327  30.3248148   4.9606428  24.7954305  30.2838026
   5.0097176  24.0981424  29.9274208   5.8457208   8.8259821  30.2972377
   6.3029822   9.5583795  30.4245170   5.9213536   8.4026286  31.0559633
   5.9248178   8.8717059  30.4273454   5.6886816  22.6137516  20.6020966
   6.4536707  22.3447159  20.2803630   5.5864906  22.1287526  21.3191029
   5.7868311  22.5027080  20.6600793   3.7239586  10.8161925  27.1414201
   2.9335660  10.6353385  27.4631537   4.1200208  10.0388878  27.1244496
   3.6656462  10.6749386  27.1866750   9.1083272  18.4504355  24.8673647
   8.4328274  18.2189587  25.3687034   9.1175648  17.8425538  24.2415752
   9.0101776  18.3263280  24.8489800   6.2377416  13.2922184  31.6237700
   6.1736557  14.1532141  31.4957837   6.3774604  12.9754177  30.8233252
   6.2492886  13.3722351  31.4865913  11.1100007  21.3069488  17.0983825
  11.1919844  22.1136474  16.7745276  11.5949749  21.3265447  17.8224599
  11.1937164  21.4290150  17.1570724   4.9196510  15.9854323  25.7653903
   4.4958759  16.1858823  25.0292922   4.7441365  15.1383171  25.8778203
   4.8307390  15.8903105  25.6727593   4.4208203  27.5004836  28.2275361
   4.9104134  26.8015626  28.0451025   3.8492436  27.2028706  28.8151418
   4.4092733  27.3531060  28.2876401   6.7458099  15.8564259  20.0675239
   7.2873645  15.3534640  20.5313860   7.0604658  15.8029453  19.2564724
   6.8722496  15.7743679  20.0159051  10.6175207  20.0666906  37.1802151
  11.4310072  19.7952055  37.3407284  10.4570173  19.7674446  36.3762347
  10.7145155  19.9821832  37.0847557   4.9144549  21.2481610  17.3515267
   4.9837369  20.3896149  17.4908267   5.6933004  21.4653491  17.0234292
   5.0397399  21.1534474  17.3232424   7.8947369  10.7500563  30.1197539
   8.1089338  10.1111477  29.5660893   7.2781268  11.1946387  29.6905401
   7.8352698  10.7210707  29.9747971   9.3052037  23.6719311  21.5651760
   8.9131828  23.3686026  20.8474627   9.4605109  24.5088401  21.3756714
   9.2705627  23.7503148  21.4308257  10.0586457  12.3589628  31.0580847
   9.2463138  12.0515519  31.1394019  10.5176391  11.8788628  31.6223559
  10.0066842  12.2426121  31.1535441   9.4691711  20.2369300  21.5057791
   9.1106366  20.4083943  22.2821823   8.9830422  20.6982506  20.9485789
   9.3450408  20.3308271  21.5383060   7.1539964  13.7649700  35.8409549
   7.6239595  14.3891816  36.2277423   7.2001844  13.0966675  36.4002764
   7.2307840  13.7584380  35.9809620  10.6296451  21.1273196  32.4524992
  11.2676171  20.6333392  32.1187448   9.9870542  21.0550597  31.8677219
  10.6290677  21.0432205  32.3167347  12.3553451  12.9762342  27.0190907
  11.9281059  12.8888691  26.2639007  11.7179504  13.0840118  27.6045751
  12.1983058  12.9795002  26.9936349   5.8474528   8.0837867  32.9587877
   6.6747957   7.8123016  33.0146491   5.8682374   8.8798709  33.3151695
   5.9727378   8.1617622  33.0203060  10.6850707  21.8193004  29.0930349
  11.4743086  21.4682069  29.2132430  10.8594305  22.6329393  28.8306982
  10.8270989  21.8878862  29.0718217   9.5384532   5.8302561  23.6546767
   9.7434125   5.7624869  24.5003764   9.2110956   6.6361382  23.5867944
   9.5199779   5.9388502  23.7706422   4.2360683  13.1583129  25.3955735
   3.9323820  12.6039118  25.9966143   3.5340103  13.3375339  24.9083769
   4.0876892  13.1027912  25.4125441   2.2979034  20.3732850  30.1027833
   2.1899389  20.3834912  30.9689891   2.5074815  21.1987630  29.9132786
   2.3129145  20.4973925  30.2031924  12.7918219   6.3834325  23.1349532
  12.1792533   6.8704728  23.5203264  12.8882394   5.7077816  23.6787184
  12.7156117   6.3552634  23.2728391  16.4343247  17.4551262  28.5627049
  16.4926371  17.9037911  29.3087025  15.8009715  17.8650075  28.1257129
  16.3494542  17.5824997  28.6079597  10.0742342  23.0754804  24.9981795
   9.8762031  23.5645619  24.3038006   9.4530053  23.2796046  25.5765928
   9.9529906  23.1771342  24.9805018   7.1228196  10.4165174  25.2385958
   6.6488150   9.8906936  25.7491269   7.4946332   9.8694647  24.6700820
   7.1078085  10.2581171  25.2301106  13.3864927  15.4767550  26.6492739
  13.1463150  14.6373965  26.6535165  13.8656934  15.5567717  27.3733512
  13.4217110  15.3648950  26.7567541  15.3870114  12.2569007  24.6021998
  15.1479884  12.2164841  23.7642783  15.5504015  13.1040159  24.7287719
  15.3760417  12.3761092  24.4975480  11.9916144  16.6418956  30.5327043
  12.7150343  16.1891483  30.3538063  11.7266106  16.9223622  29.7499371
  12.0597417  16.6169925  30.3905758   8.6048778  19.8805292  17.4321369
   9.3282977  20.3463405  17.2885942   8.1649369  19.9478902  16.6818966
   8.6464470  19.9589129  17.3006151   7.7734933  16.7402835  28.6822058
   7.1591926  16.1960885  28.9770693   8.2902218  16.2267071  28.2027874
   7.7590596  16.5839244  28.6546287   7.0131231  17.8107105  26.4166357
   6.5858839  17.1856823  25.9831792   7.0056175  17.5282026  27.2425364
   6.9490372  17.6759885  26.4746184   3.8047875  16.9807417  34.1134930
   2.9543506  17.1179132  34.2492575   3.9676003  16.2471196  34.5582631
   3.7031739  16.8921519  34.1990529   3.0432626  13.9307187  28.3088534
   2.2124555  14.0981005  28.1023782   2.9884143  13.5543138  29.0937419
   2.9122041  13.8996919  28.3937062  14.4251458  15.6045367  29.0357593
  15.0169298  16.2442618  29.0675791  14.8610452  14.9068404  29.3249660
  14.5769889  15.5963718  29.0838425   6.2544848  20.0262740  29.6615487
   5.7469939  20.5798586  30.1056117   5.9571494  20.0871029  28.8434261
   6.1349733  20.1169051  29.6063943   8.4207030   8.3916059  28.5040150
   8.8462101   7.9388586  27.8923676   7.8064023   7.8376130  28.7804937
   8.3935675   8.2430035  28.4545175   8.8652628  23.9425997  17.5919430
   8.1481938  23.7686859  17.1266668   9.5159366  23.7078570  17.0594916
   8.8554478  23.8821790  17.4448648  11.4500599  12.8190586  21.3360735
  10.7791789  13.3620288  21.2073801  12.1440349  13.2885441  21.0942430
  11.4529467  12.9688857  21.2816263   5.4987333  24.9587298  26.5672494
   5.2752987  24.2006127  26.9356520   5.0097176  24.9885319  25.8452933
   5.3930782  24.8509522  26.5149235  11.6128727   9.2746469  24.2451109
  11.9656337   8.8476192  24.9196907  10.7543528   9.1897313  24.3752185
  11.5378171   9.1991210  24.3646119   9.6111992  12.5381838  28.1935951
   9.5909920  12.3565133  29.0470730   9.6591193  13.4093857  28.1695534
   9.6146633  12.6398376  28.3159246   7.5558322  19.1269030  34.1184427
   7.5154177  18.4818707  33.5329583   8.3681641  19.0705647  34.4309839
   7.6701476  19.0227997  34.0781377   4.1465790  25.1787756  24.0209578
   3.7326188  24.5161886  23.6313420   4.8313164  25.3265615  23.5005272
   4.1864162  25.1028414  23.8866075   7.5131084  24.3377841  24.7733195
   7.1147367  24.4480112  24.0054015   6.8982304  24.5459907  25.3559755
   7.3629973  24.3851409  24.7464494  13.0452787   4.3964881  25.1735421
  12.5383651   3.6894021  25.1056599  13.8420220   4.0658070  25.3036498
  13.0880026   4.2438033  25.1834416   8.9616803  10.9031493  21.0709085
   8.7330496  10.9264195  20.2287443   9.2214879  10.0788961  21.1904095
   8.9662991  10.7847573  20.9634282   3.2436031  12.7565967  30.6734185
   2.7314934  12.1487150  31.0319216   3.0715527  13.4722559  31.1408161
   3.1425668  12.7729266  30.7950409  15.2472927  18.9129808  18.1576285
  15.6306532  19.6621164  18.3874382  14.4517040  19.1595628  17.8988275
  15.1866709  19.0599502  18.1533859   7.1205101  10.6790211  33.1136441
   7.6776532  10.4504021  32.4814906   6.7966166  11.4395877  32.8371653
   7.1551512  10.7574048  32.9792938   4.8388219  13.7657864  34.0788448
   5.5899546  14.0809541  34.3928002   5.0310795  13.5637035  33.2522369
   4.9779633  13.7825246  34.0031843  11.6873509   9.8931431  21.3212243
  11.6867735   9.7380087  22.1796519  11.4829689  10.7394418  21.2653629
  11.6573287   9.9952052  21.4400182   9.4114361  14.5728933  24.9748450
   9.9068026  13.8551928  24.9352470   8.6014137  14.2699730  24.8602937
   9.3658254  14.4226579  24.9522176  11.4766180  17.3232620  27.6625579
  11.9021251  16.8007042  27.1096004  11.1123100  17.9213458  27.1414202
  11.4852782  17.3342847  27.5034588   1.1120260  25.6196838  26.4222924
   1.4266818  26.4333226  26.4300706   1.5213673  25.2347056  27.0905083
   1.2188357  25.6825540  26.5227016   8.0644779  21.0366884  23.9926736
   8.5355957  21.7507147  24.1616721   8.4004958  20.4365635  24.5286606
   8.1839894  21.0538349  24.0959112  10.1521764  22.6468198  36.1718808
  10.2618729  21.8576758  36.5275555  10.4812660  22.5574134  35.3693146
  10.2174170  22.5174051  36.1061199   8.7018725  20.8284819  30.7554429
   8.1539671  20.2042702  30.4874494   9.1631754  21.0179091  30.0398508
   8.6885935  20.7643869  30.6104860  11.5112590   8.8970173  28.1405621
  10.9275579   9.3979379  27.7283189  11.8316884   8.3899729  27.5069944
  11.4725765   8.8962008  27.9864128   8.2677052  21.8335891  27.2863770
   9.0875426  21.6898857  27.5480065   7.9871129  22.4582090  27.8280208
   8.3473795  21.9046243  27.4051709  24.7390702  29.4900743  20.2506646
  24.7084707  30.3445380  20.4224916  25.3372051  29.1896036  20.8092790
  24.8227860  29.5717239  20.3581449  17.9390387  28.5776394  25.0059577
  17.0828283  28.7384892  25.0568694  17.9858041  27.7068458  25.0264638
  17.8189498  28.4727196  25.0165643  12.3231527  38.1139112  20.7696808
  11.5714426  37.7354650  20.5412853  12.7717538  38.1457545  20.0215619
  12.2781194  38.0624719  20.6254311  17.7756487  38.5364481  16.1982355
  17.4407855  39.2141403  15.7626578  18.2883357  38.1469793  15.6099227
  17.8022068  38.5789060  16.0469147  17.3160778  40.4878750  22.1393467
  17.7000157  41.0565649  21.5998242  17.2519919  39.7628260  21.6599283
  17.3634205  40.4654213  21.9887330  20.7842208  30.6368438  27.6491228
  21.3298168  31.3153524  27.7085198  20.7259084  30.4955899  26.7892810
  20.8558122  30.7160440  27.5303289  13.9016283  38.1257504  23.0359581
  14.0026646  37.3157858  23.3456709  13.3058028  38.0314450  22.4059259
  13.8288822  37.9922532  22.9885819  22.5607277  32.0653045  18.5224956
  22.4446803  32.8160731  18.9517094  23.3563163  31.8076998  18.7721043
  22.6611866  32.1387892  18.6229048  13.7417022  43.0435093  24.4374437
  14.3854478  43.4848257  24.8270595  14.0673278  42.2388519  24.3504696
  13.8848851  42.9900288  24.4819914   7.0981327  34.1477791  22.6611915
   6.8631512  33.3145443  22.5544183   7.2366968  34.4282456  21.8473115
   7.0836990  34.0661294  22.5254270   9.3971415  26.3163521  25.5596222
   8.7776446  25.7256168  25.3906237   9.2955278  26.9074956  24.9260545
   9.2909090  26.3167604  25.4401212  14.4437602  36.0547068  19.8094299
  14.7653443  36.5952275  19.2055607  15.0909699  35.4843839  19.9416588
  14.5863657  36.0506243  19.7401334  16.4939310  28.0563063  19.8928685
  17.1919475  28.2351190  20.3850149  16.8091643  27.5333402  19.2699075
  16.6434647  28.0056835  19.8730695   9.1240548  29.8615803  27.8039791
   8.9999245  30.4478248  28.4389610   9.7758832  29.3675999  28.1052066
   9.2014197  29.8754607  27.9425721  16.6827246  34.4433508  19.8808477
  17.1220881  33.8350608  20.3263250  16.5331909  34.0640881  19.1093942
  16.7248711  34.2971979  19.8327644  14.1498889  33.0377520  27.0827302
  14.7947891  32.5449963  26.7638251  14.3900666  33.1802306  27.9093381
  14.2809474  32.9854962  27.1576836  16.6884980  35.8832426  26.7334195
  16.9708223  35.0883831  26.5120951  17.4171140  36.3613013  26.7539256
  16.8374544  35.8367023  26.7037210  14.6666174  23.4255460  23.9749960
  14.3369504  23.8766603  23.3053659  13.9911176  23.3471623  24.5222966
  14.5176610  23.4806595  23.9573183  20.2836582  32.7960689  16.8339246
  20.1987877  33.6521656  16.9788815  20.7720965  32.5205013  17.5021405
  20.3425479  32.8818011  16.9541328  21.8742582  19.4140982  22.2199571
  21.5596023  20.1044461  22.6519993  21.3569523  19.3585765  21.5185071
  21.7507052  19.5075871  22.1796520  21.2155015  29.4145483  18.3336981
  20.6866487  29.6305117  18.9934287  21.7380035  30.1081622  18.2537951
  21.2143468  29.5488620  18.4192580  26.6703068  34.9891788  23.7070026
  25.8400771  35.2002432  23.8703442  26.6212321  34.1628842  23.4312309
  26.5409804  34.8981394  23.6907391  13.1054623  33.3108700  17.1344449
  12.5211838  33.8158732  17.5410313  12.7024718  33.0851087  16.3941041
  12.9593927  33.3516948  17.0849474   8.6598652  39.0263461  23.9368121
   8.1766230  39.7513951  23.9127704   9.4721970  39.3239591  24.0478278
   8.7089400  39.1765815  23.9495400  14.7312806  37.8195642  26.5417935
  14.2139748  37.4603057  25.9379243  15.4287197  37.2957816  26.5524001
  14.7578387  37.6893330  26.4548194  18.3876398  38.2690456  32.5034108
  18.4759744  38.0816596  33.3512319  18.8166110  37.6227886  32.1038955
  18.4638500  38.1453464  32.5705860  15.9546858  37.5521616  31.4851770
  15.3917692  37.1394226  32.0091432  16.7167881  37.4774522  31.9044914
  15.9841306  37.4799017  31.6244771  17.5631838  29.5574352  15.6113370
  17.8027841  29.7652336  14.7988713  17.8847679  28.7531861  15.7202314
  17.6468996  29.4688453  15.5073923  12.8722128  21.4867748  19.4572908
  13.6268096  21.8546065  19.2189958  12.6949663  21.8607302  20.2252087
  12.9576606  21.5965936  19.5357796  11.5142849  39.5419637  24.0888401
  12.2163428  39.0271626  24.1461157  11.4340332  39.8693789  24.8935276
  11.6066610  39.5133863  24.2161193  12.5621756  29.7795224  33.2168816
  12.7342259  29.6701119  34.0654097  13.0991113  30.4249630  32.9800008
  12.6666760  29.8587226  33.3073912  11.2279193  23.8938067  16.1551021
  11.0454766  24.1109948  15.3292013  12.0904806  24.0077080  16.2109635
  11.3283782  23.9427965  16.0405508  10.8393625  35.7325989  23.5974009
  11.6782524  35.9648922  23.6447770  10.8705394  34.8630301  23.5281044
  10.9675342  35.6382936  23.5938653  11.4646328  36.1526864  27.8987314
  12.0044552  36.0097995  28.5690686  10.7816274  36.5523615  28.2671340
  11.4438481  36.1906535  28.0521736  16.9078912  20.8964478  19.1900044
  17.6365072  20.7180433  18.7438201  16.9973805  21.7382557  19.4007223
  17.0285574  20.9948356  19.1553562  20.8887212  31.8317865  23.0932338
  21.6444727  32.2649379  23.1321247  20.9949537  31.1822635  23.6666974
  21.0157383  31.7995349  23.1830364  23.9267384  35.6591142  23.8434741
  23.4902615  35.6627885  24.5993713  23.5930299  36.3396641  23.4114319
  23.8130003  35.7603598  23.8915574   6.8683473  32.3727155  28.0521736
   6.6021888  31.5566272  28.2112726   6.8822037  32.4180311  27.1817251
   6.8308195  32.2584060  27.9475218  23.8464866  22.7004970  26.0864169
  24.4890775  22.7703075  26.6726085  24.0987887  22.0334193  25.5843711
  23.9786999  22.6131319  26.0991449  10.7741220  27.1712240  14.6673494
  10.0599397  26.8850419  15.0795926  11.2585188  27.5108865  15.3079881
  10.7400583  27.1793889  14.8229129  11.6182079  25.9105533  30.6988743
  10.9253876  25.4402513  30.9449475  12.2342406  25.6843838  31.2730450
  11.6066609  25.8072665  30.8197896  18.6566850  39.6109577  28.8144347
  17.8582096  39.3709077  29.0718216  19.1052862  39.6623970  29.5611395
  18.6041462  39.5831968  28.9629272  27.0611730  32.3772062  22.7354379
  27.7228164  31.8162731  22.6350287  26.4203142  31.8824093  23.0607070
  27.0640597  32.2208471  22.7686719  17.9488537  35.6742194  15.0435302
  18.3639686  35.3427217  14.3519798  17.1180467  35.4411096  14.9155439
  17.8876546  35.5913450  14.9226149   7.2776886  33.1585935  25.3333480
   7.0952459  33.1332821  24.4805772   8.0126555  33.6284872  25.3722389
   7.3590950  33.2247297  25.2131398  23.3476560  33.3937445  22.4766367
  23.5832150  33.5382643  21.6493218  23.4966124  34.1579853  22.8697881
  23.4042364  33.5276499  22.4129971  10.3422638  29.8770937  31.8415589
  11.0662610  29.8623968  32.3280483  10.4438774  30.5866293  31.3437557
  10.4640847  29.9795641  31.8394375  25.1767017  32.2339110  20.3135971
  25.5075234  32.7666751  19.7076066  25.7500105  32.2877998  20.9697922
  25.3100696  32.3208679  20.3213753  17.7167587  33.3570022  36.7064536
  16.9240568  33.6713534  36.8917155  17.8316514  33.5721490  35.8685320
  17.6162998  33.4353859  36.6102870  20.3898906  30.0804013  20.9959551
  20.4845761  30.8193307  21.4499177  19.7657750  29.6521489  21.4294116
  20.3107936  30.1265334  21.1267699  18.6451380  33.2590226  31.6449832
  19.2190242  32.6217470  31.7998396  18.5666184  33.2594308  30.7759490
  18.7184615  33.1655337  31.5396243   7.2447797  30.0379435  25.4832546
   7.8221299  29.9015886  26.1224792   6.5461858  29.5815219  25.7378131
   7.2268818  29.9501701  25.6154836  20.6421928  31.9252753  14.2296503
  20.5602090  31.9954940  15.0951490  21.2801648  32.4882497  14.0380244
  20.7241765  32.0191724  14.3286453  14.0015099  31.6913491  23.6971030
  13.7434343  30.8585226  23.6702329  14.0563582  31.9171104  22.8563530
  13.9714877  31.6011262  23.5691166  19.0816149  23.7941942  23.7975122
  18.3772476  23.3051127  23.9559042  19.1301123  23.8064416  22.9263567
  18.9846201  23.7231590  23.6914462  12.9749811  29.2451253  24.1835924
  12.3999402  29.4043422  24.8199885  12.5985487  28.6086663  23.7204375
  12.8352623  29.1749066  24.2090483  16.6423100  27.7174603  29.0428303
  16.2537532  27.2928820  28.3880494  15.9777798  27.9656752  29.5505329
  16.4870027  27.6913324  29.0216171  26.2846369  27.4749607  21.8176133
  26.0282934  26.6629549  21.6274016  27.1275683  27.4827175  21.5906320
  26.3712394  27.3561605  21.7560950   2.7206630  28.8891328  22.1980365
   2.8066882  28.5123197  22.9793895   3.3482427  28.5151774  21.7200323
   2.8263181  28.7776810  22.2425842  20.4649461  21.4149231  26.5552287
  20.8459973  20.7327403  26.9420161  19.6612745  21.1258834  26.3727952
  20.4025923  21.2716280  26.5856343  17.7462038  31.9473207  17.2405110
  18.5602677  32.2388100  17.1287881  17.6821179  31.2933070  16.6663403
  17.8564777  31.8938402  17.1393947  13.6169946  35.4194725  22.3677422
  14.2543893  35.1806472  22.9129215  14.0425018  35.6231884  21.6330583
  13.7746112  35.4145735  22.3394579   8.3082588  37.6583061  26.2511726
   8.3486734  37.9297912  25.4231505   8.8677113  38.1824969  26.6669514
   8.3965934  37.7758816  26.1903614  14.2572761  30.6397015  16.7052311
  14.6417914  30.4204721  17.4568856  14.0084381  31.4659960  16.8353388
  14.2774834  30.7295161  16.8353388  14.4241302  23.9203430  36.4214896
  14.1094743  24.6902992  36.1584458  14.1031234  23.3573686  35.8367122
  14.3300221  23.9513698  36.2956245  24.9907949  34.4143652  27.7162980
  24.6853766  35.1471709  28.0776296  24.2714164  34.0081582  27.4355766
  24.8395291  34.4625385  27.7276117  15.9991418  35.8967147  24.0471208
  16.0730426  35.7342319  24.9013058  16.8160924  36.0857337  23.8031690
  16.1307777  35.9003890  24.1369234   9.7597175  36.2425010  21.0765652
   8.9335292  36.4886747  20.9499930   9.8209166  36.1637091  21.9427710
   9.6471342  36.2669959  21.1854596  11.9773198  22.3093951  22.0361092
  11.1095624  22.3816551  22.1018701  12.2648403  23.1116030  22.2249067
  11.8912947  22.4388098  22.0735858  21.1006087  22.4571811  30.3672414
  21.8459679  22.2681621  29.9535839  20.6843392  22.9830049  29.8086270
  21.1491061  22.5073956  30.2236987  14.5396004  38.8601890  18.7784682
  14.8294302  38.4690872  18.0543908  15.2699485  39.0418595  19.2189957
  14.6902888  38.8295704  18.7367489  15.1290749  33.6619636  29.8637812
  14.6302443  34.3735404  29.9422701  15.9390973  33.9820303  29.8255974
  15.1746856  33.8146485  29.8694381  12.4801919  40.8369273  21.8444831
  12.2602215  40.5466628  22.6371498  12.2596441  40.1784228  21.3162744
  12.4149514  40.6968981  21.8833740  11.3918867  32.9242589  24.1100533
  11.1032115  32.2980061  24.6446260  12.2602215  32.8662877  24.1765213
  11.4779118  32.8230134  24.1991488  22.1796764  28.0677373  24.4282515
  21.8361530  27.3467708  24.7789764  22.2789807  27.8591224  23.5860873
  22.1438807  27.9301576  24.3554195  14.6469875  42.2098663  20.6275524
  15.2993933  41.6775105  20.8566550  13.9495484  41.8567315  21.0143398
  14.6400593  42.0788186  20.7187691  11.5951140  34.5637840  20.0342898
  12.3497108  34.9450879  20.2478361  11.0021753  35.0148984  20.4889595
  11.6187853  34.6866668  20.1325776  22.6409793  34.5303077  19.9706503
  23.2067826  35.1896287  19.8865046  21.9937697  34.8752775  20.4422905
  22.6288550  34.6785018  20.0279259  14.0557807  26.5200681  35.1600110
  13.2457583  26.8258460  35.0489953  14.5332494  27.2406263  35.2752694
  14.0061286  26.6715282  35.1607181  12.9149367  35.7346402  25.4083013
  12.3930120  35.8746693  26.0934878  13.3023387  34.9757066  25.5985131
  12.8953067  35.6431926  25.5384090   9.9040551  25.7852210  19.4777968
   9.6165346  25.4153481  18.7409915  10.5911019  26.2547066  19.2161673
   9.9629448  25.7999180  19.3293044  19.1116372  37.4741861  19.3943582
  18.8703047  36.7409722  18.9870647  19.2917704  38.0228718  18.7409915
  19.1023995  37.4464252  19.2373805  14.3415692  32.7650421  20.8064504
  14.1458475  33.3725155  20.2124807  14.5650038  32.0718365  20.3256178
  14.3450333  32.7527946  20.6480585  12.7394222  29.6505159  20.9245373
  13.4616874  29.8146317  20.4649179  12.2602215  30.3714824  20.8184713
  12.7757953  29.7803388  20.8410987  20.6987730  25.9868957  26.3042058
  19.8598830  26.0130236  26.0680321  20.7692097  26.6339693  26.8847404
  20.5856123  26.0865083  26.3551175  10.3901839  32.0563231  30.0299513
  10.9022936  32.3347484  29.3808272  10.1038181  32.7952525  30.3962326
  10.4236702  32.2065585  29.9889391  19.1457008  22.8854335  21.0369674
  19.8483361  22.6862083  20.5589632  18.8801197  22.1130277  21.3438517
  19.2103640  22.7417301  21.0115115  24.5745254  31.1936944  23.5903300
  24.4879228  31.3492370  24.4438078  24.1195733  31.8375020  23.2162705
  24.4948510  31.3112699  23.6610406   7.4768745  26.5633423  20.3263249
   7.5784882  27.3659584  20.6544225   8.2724632  26.3620759  20.0286330
   7.6096651  26.6519322  20.3298605  13.9085564  24.1489620  30.0900554
  13.7168761  24.1644754  30.9399978  14.7584160  24.3453294  30.0667209
  14.0061286  24.1803971  30.2123849   8.2932477  26.6780601  28.0684371
   8.1517969  25.8264542  28.1928879   8.5773041  26.7209262  27.2446577
   8.3140323  26.5580351  27.9651995  18.4471070  28.5147691  22.2128859
  18.2005784  28.4343442  23.0465648  18.7756193  27.7301159  22.0191387
  18.4592313  28.3873957  22.3076382  22.3419118  35.2231051  26.0015640
  22.2033478  35.9212096  26.5064383  21.5619116  35.0679707  25.6451822
  22.2062345  35.3031217  26.0241914  20.6797204  31.5227426  32.2538022
  20.6745242  30.6507243  32.2580448  21.3858197  31.7215595  31.7807478
  20.7842208  31.4231300  32.1845057  14.4068097  31.2504410  31.6251842
  14.5511473  31.8305618  30.9894952  14.7543745  31.6280707  32.3301697
  14.4795558  31.3925114  31.6350837  16.5788014  30.4494578  29.4076974
  15.8311328  30.6425593  29.0025252  16.7329539  29.6239798  29.1701095
  16.4910442  30.3559690  29.3122380  13.4795852  39.4407182  28.4912869
  13.6285416  38.8810098  27.8386273  14.2595854  39.5199183  28.8745388
  13.6169946  39.3692747  28.4509818  23.8372491  34.5809304  16.7632139
  23.4579300  33.7946442  16.7561429  23.1738737  35.1296161  16.6203784
  23.6830966  34.5454128  16.7412936  16.0049153  39.6121825  29.7697360
  15.9292824  38.9430635  30.3248148  15.9339012  40.3139613  30.2838026
  15.9829759  39.6166732  29.9274208  16.8189791  24.3445129  30.2972377
  17.2762405  25.0769103  30.4245170  16.8946120  23.9211594  31.0559633
  16.8980761  24.3902367  30.4273454   9.0622783  24.5910949  31.3861821
   8.5264972  23.9791307  31.7022588   9.1240547  25.1659085  32.0395488
   8.9918415  24.5857877  31.5297248  21.2917117  17.5235004  24.1666220
  21.4100685  17.9811468  23.4333523  21.1179293  16.7180265  23.8802438
  21.2836288  17.4728776  24.0167154  16.6619399  38.1322824  20.6020966
  17.4269291  37.8632467  20.2803630  16.5597489  37.6472834  21.3191029
  16.7600895  38.0212388  20.6600793  14.6972169  26.3347233  27.1414201
  13.9068244  26.1538693  27.4631537  15.0932792  25.5574186  27.1244496
  14.6389045  26.1934694  27.1866750  19.1838060  35.1635007  12.5820915
  19.9511045  35.2235132  12.1726767  18.7369369  34.5915449  12.0977234
  19.2311487  35.0871583  12.4498625  20.0815856  33.9689663  24.8673647
  19.4060857  33.7374895  25.3687034  20.0908232  33.3610846  24.2415752
  19.9834360  33.8448588  24.8489800  17.2109999  28.8107492  31.6237700
  17.1469141  29.6717449  31.4957837  17.3507187  28.4939485  30.8233252
  17.2225470  28.8907659  31.4865913  22.0832590  36.8254796  17.0983825
  22.1652427  37.6321782  16.7745276  22.5682332  36.8450755  17.8224599
  22.1669748  36.9475458  17.1570724  15.8929093  31.5039631  25.7653903
  15.4691342  31.7044130  25.0292922  15.7173949  30.6568479  25.8778203
  15.8039974  31.4088413  25.6727593  15.3940787  43.0190144  28.2275361
  15.8836717  42.3200934  28.0451025  14.8225019  42.7214014  28.8151418
  15.3825317  42.8716368  28.2876401  11.1811538  31.9991683  21.1981876
  11.3376158  31.9338486  22.0537868  11.5212131  32.7740235  20.9860555
  11.2544773  32.1040881  21.2936470  17.7190683  31.3749566  20.0675239
  18.2606228  30.8719948  20.5313860  18.0337242  31.3214761  19.2564724
  17.8455080  31.2928987  20.0159051  15.8877133  36.7666918  17.3515267
  15.9569953  35.9081456  17.4908267  16.6665588  36.9838799  17.0234292
  16.0129983  36.6719782  17.3232424  18.8679952  26.2685871  30.1197539
  19.0821922  25.6296785  29.5660893  18.2513852  26.7131695  29.6905401
  18.8085282  26.2396015  29.9747971  20.2784620  39.1904619  21.5651760
  19.8864412  38.8871334  20.8474627  20.4337692  40.0273709  21.3756714
  20.2438210  39.2688456  21.4308257   7.7545800  29.1826633  21.5142643
   8.1344765  29.6011178  20.8502910   7.1801165  29.7640089  21.8211486
   7.7257125  29.3304492  21.4619384  21.0319040  27.8774936  31.0580847
  20.2195722  27.5700827  31.1394019  21.4908975  27.3973936  31.6223559
  20.9799425  27.7611429  31.1535441  20.4424295  35.7554608  21.5057791
  20.0838950  35.9269251  22.2821823  19.9563006  36.2167814  20.9485789
  20.3182992  35.8493579  21.5383060  18.2594681  19.3785807  25.1084882
  17.3888239  19.3524528  25.0618192  18.5135022  19.2062999  24.2910728
  18.1688241  19.3495950  24.9805019  15.2312660  31.4353774  14.0458025
  15.5205185  32.2118656  14.3201600  15.3184459  30.9242505  14.7472525
  15.2866917  31.4745692  14.1900523  18.1272548  29.2835008  35.8409549
  18.5972179  29.9077124  36.2277423  18.1734428  28.6151983  36.4002764
  18.2040424  29.2769688  35.9809620  15.2843821  21.3892035  26.5658353
  14.7682310  20.6972227  26.6909932  14.7237750  22.0562812  26.5120951
  15.1250335  21.3855293  26.5764419  17.3536055  21.9284995  28.3951205
  16.9667808  21.9534027  29.1764735  16.8668992  21.3626674  27.9425722
  17.2248564  21.8480746  28.4439109  21.6029034  36.6458504  32.4524992
  22.2408755  36.1518700  32.1187448  20.9603126  36.5735905  31.8677219
  21.6023261  36.5617513  32.3167347  23.3286034  28.4947650  27.0190907
  22.9013643  28.4073999  26.2639007  22.6912087  28.6025426  27.6045751
  23.1715642  28.4980310  26.9936349  17.0193197  18.8151981  30.6861465
  17.6486315  19.3512281  30.4082535  17.1879059  18.7229340  31.5375031
  17.1370991  18.8813343  30.7709993  16.8207112  23.6023175  32.9587877
  17.6480541  23.3308324  33.0146491  16.8414958  24.3984017  33.3151695
  16.9459962  23.6802930  33.0203060  21.6583291  37.3378312  29.0930349
  22.4475669  36.9867377  29.2132430  21.8326889  38.1514701  28.8306982
  21.8003573  37.4064169  29.0718217  11.3976601  30.7487038  26.1458137
  10.5564608  30.6490912  26.3537031  11.6066609  31.5182518  26.4972458
  11.3041294  30.8479081  26.2285452   8.8752168  28.3706575  23.9742888
   8.4808866  28.4449587  23.1992998   8.3192285  28.7564521  24.5251250
   8.7354981  28.4388350  23.9410548  20.5117115  21.3487869  23.6546767
  20.7166709  21.2810177  24.5003764  20.1843539  22.1546690  23.5867944
  20.4932363  21.4573809  23.7706422  15.2093266  28.6768437  25.3955735
  14.9056404  28.1224426  25.9966143  14.5072687  28.8560647  24.9083769
  15.0609476  28.6213220  25.4125441  14.2659363  25.9868957  19.9600437
  14.5419098  25.2687870  19.5478004  14.8658033  26.5853877  19.7521543
  14.3952628  25.9689328  19.8681198  13.2711617  35.8918158  30.1027833
  13.1631972  35.9020220  30.9689891  13.4807399  36.7172938  29.9132786
  13.2861728  36.0159233  30.2031924  23.7650803  21.9019633  23.1349532
  23.1525116  22.3890035  23.5203264  23.8614978  21.2263124  23.6787184
  23.6888700  21.8737942  23.2728391  17.7669884  23.6582474  18.2347032
  18.2213630  23.8293035  18.9594876  18.2409930  23.0450585  17.8344807
  17.9038204  23.5933360  18.2820793  11.2885409  33.1430800  27.5649770
  10.6973343  33.7840299  27.5352785  12.0506433  33.5668418  27.5381070
  11.3133670  33.3006639  27.5564917  11.6846032  24.3032798  28.2317788
  12.1447514  24.3771728  28.9692912  11.7302139  25.1014052  27.8817609
  11.7596587  24.4326945  28.2890544  13.3329382  24.9699493  32.7989815
  12.9414947  24.3232840  33.2345593  13.5015245  25.5610928  33.4184070
  13.3000292  24.9613761  32.9552521  21.0474925  38.5940112  24.9981795
  20.8494614  39.0830926  24.3038006  20.4262637  38.7981353  25.5765928
  20.9262490  38.6956650  24.9805018  15.1082904  30.3625009  19.3392039
  15.8524949  30.7499285  19.5774989  15.2543600  29.5182434  19.5032527
  15.2393489  30.2955482  19.3986009  17.0262479  22.1575268  24.3723900
  16.1798524  22.3298075  24.2465250  17.0233612  21.3524611  24.7089729
  16.9009629  22.0636297  24.4035027  18.0960780  25.9350482  25.2385958
  17.6220734  25.4092244  25.7491269  18.4678916  25.3879955  24.6700820
  18.0810669  25.7766479  25.2301106   8.4733810  27.9321989  30.6069504
   9.3359423  27.8317698  30.5206834   8.1425593  27.3516698  30.0455076
   8.5519006  27.8313616  30.5114910  24.3597510  30.9952858  26.6492739
  24.1195733  30.1559273  26.6535165  24.8389517  31.0753024  27.3733512
  24.3949694  30.8834257  26.7567541  20.0244279  26.8287037  18.3011712
  19.4967298  26.9115781  17.6117421  20.4839988  27.5704908  18.2976357
  20.0146130  26.9507699  18.1986407  11.8335596  26.7564438  27.2679922
  11.2088666  26.7682830  26.6605875  11.4981191  27.2324613  27.9171162
  11.6921088  26.8282955  27.2736491  12.0177345  25.0989556  13.3252607
  11.6690149  25.7509282  13.7884157  11.5373790  25.0846669  12.5976478
  11.8947588  25.1932610  13.2863699   8.5461271  34.8164898  28.7083687
   8.0161196  34.1257337  28.7578661   8.8186365  34.8075083  27.8796395
   8.5085994  34.7132030  28.5931103  19.5781362  35.3990600  17.4321369
  20.3015561  35.8648713  17.2885942  19.1381953  35.4664210  16.6818966
  19.6197054  35.4774437  17.3006151  18.7467517  32.2588143  28.6822058
  18.1324510  31.7146193  28.9770693  19.2634802  31.7452379  28.2027874
  18.7323179  32.1024552  28.6546287  17.9863814  33.3292413  26.4166357
  17.5591422  32.7042131  25.9831792  17.9788758  33.0467334  27.2425364
  17.9222955  33.1945193  26.4746184  11.1026341  28.3657586  29.4854791
  11.2619828  27.6100910  29.8906513  10.9219235  28.9148525  30.1395528
  11.0991700  28.3351399  29.6417497  19.0446644  20.5318821  30.0405580
  18.5487205  20.7282495  29.3497147  19.8015706  20.9311489  29.8694382
  19.0833469  20.6196555  29.9125717  16.3149524  24.2061167  26.6308891
  16.3392011  23.6721279  25.9421671  16.5660997  23.6978476  27.2934481
  16.3559442  24.0522071  26.6273535   3.8257114  31.4892662  26.0652035
   3.7200563  31.4439506  25.2004119   3.0757334  31.8346443  26.3466320
   3.6992717  31.5333570  25.9789365  12.5950846  22.9331985  26.0114635
  12.6349218  23.4341192  26.7249343  11.7700511  23.0242379  25.7420558
  12.4790372  23.0213802  26.0765173  14.7780459  32.4992725  34.1134930
  13.9276089  32.6364440  34.2492575  14.9408587  31.7656504  34.5582631
  14.6764322  32.4106827  34.1990529  14.0165209  29.4492495  28.3088534
  13.1857139  29.6166313  28.1023782  13.9616727  29.0728446  29.0937419
  13.8854624  29.4182226  28.3937062  11.8248993  22.9401388  33.9444945
  12.4501696  22.3963521  34.2174377  11.3699473  22.4596306  33.3752735
  11.8497253  22.7890869  33.9006539  12.3901253  27.7248087  18.8378652
  12.5304214  28.2220551  19.5407293  12.8883786  27.0234381  18.9792865
  12.4842334  27.6950065  18.9630231  12.4201476  28.5915198  16.1671229
  13.0546555  29.1875623  16.1020690  12.5027086  28.2918655  16.9817099
  12.5258027  28.6356106  16.2774315  13.9980458  24.5229173  16.1416671
  14.3196300  24.0432256  15.4875933  14.2607402  25.3328819  15.9507482
  14.0846484  24.5719071  16.0172163  17.2277431  35.5448047  29.6615487
  16.7202522  36.0983894  30.1056117  16.9304077  35.6056337  28.8434261
  17.1082316  35.6354359  29.6063943  19.3939613  23.9101367  28.5040150
  19.8194685  23.4573894  27.8923676  18.7796607  23.3561438  28.7804937
  19.3668259  23.7615343  28.4545175   8.9254464  30.7883038  19.4360775
   9.4346693  31.3847546  19.8172080   9.3988736  30.5209012  18.7537194
   9.0697839  30.8368854  19.3915297  19.8385212  39.4611305  17.5919430
  19.1214521  39.2872167  17.1266668  20.4891949  39.2263877  17.0594916
  19.8287062  39.4007098  17.4448648  17.8333836  20.3816467  21.9130727
  17.1902154  20.2314113  22.4815865  17.4933243  20.1358812  21.1479831
  17.6878914  20.3228589  21.8833742  22.4233183  28.3375894  21.3360735
  21.7524373  28.8805596  21.2073801  23.1172933  28.8070749  21.0942430
  22.4262050  28.4874165  21.2816263  16.4719917  40.4772606  26.5672494
  16.2485571  39.7191435  26.9356520  15.9829760  40.5070627  25.8452933
  16.3663366  40.3694830  26.5149235  22.5861310  24.7931777  24.2451109
  22.9388920  24.3661500  24.9196907  21.7276112  24.7082621  24.3752185
  22.5110755  24.7176518  24.3646119  11.2844995  27.4239297  22.3033955
  10.5656984  27.8403430  22.5706819  11.6557358  27.9893536  21.7525593
  11.2336927  27.5688578  22.2616762  20.5844576  28.0567146  28.1935951
  20.5642503  27.8750441  29.0470730  20.6323777  28.9279164  28.1695534
  20.5879217  28.1583684  28.3159246  18.5290906  34.6454338  34.1184427
  18.4886761  34.0004015  33.5329583  19.3414224  34.5890955  34.4309839
  18.6434059  34.5413305  34.0781377  15.1198373  40.6973064  24.0209578
  14.7058772  40.0347194  23.6313420  15.8045748  40.8450923  23.5005272
  15.1596745  40.6213722  23.8866075  18.4863668  39.8563149  24.7733195
  18.0879951  39.9665419  24.0054015  17.8714887  40.0645215  25.3559755
  18.3362557  39.9036717  24.7464494  17.0591570  26.4637297  17.6407335
  16.4656409  26.7854293  17.0891902  17.0966847  25.6178392  17.4328441
  16.9765959  26.3861625  17.5290106  24.0185370  19.9150189  25.1735421
  23.5116235  19.2079329  25.1056599  24.8152804  19.5843378  25.3036498
  24.0612610  19.7623341  25.1834416  19.9349386  26.4216801  21.0709085
  19.7063079  26.4449503  20.2287443  20.1947462  25.5974268  21.1904095
  19.9395574  26.3032881  20.9634282  14.2168615  28.2751274  30.6734185
  13.7047518  27.6672457  31.0319216  14.0448111  28.9907867  31.1408161
  14.1158252  28.2914574  30.7950409   9.0634329  26.7188850  33.3236547
   8.8936920  27.3790225  32.7784753   8.6200279  26.9295411  34.0449036
   8.9733663  26.8474832  33.3498176  12.9894149  24.9593348  22.3663280
  13.4651515  25.3210428  21.7313462  12.4882748  25.6149815  22.6463423
  12.9859508  25.1087536  22.3140021  26.2205510  34.4315116  18.1576285
  26.6039116  35.1806472  18.3874382  25.4249624  34.6780935  17.8988275
  26.1599292  34.5784810  18.1533859  18.0937685  26.1975519  33.1136441
  18.6509115  25.9689329  32.4814906  17.7698750  26.9581185  32.8371653
  18.1284095  26.2759356  32.9792938   5.9636394  29.6235715  28.5825037
   5.4163113  28.9536361  28.7005905   6.7528772  29.2565563  28.6468504
   5.9988577  29.4700702  28.6093737  15.8120802  29.2843172  34.0788448
  16.5632129  29.5994849  34.3928002  16.0043379  29.0822343  33.2522369
  15.9512216  29.3010554  34.0031843  15.0320802  27.1034548  15.7336664
  15.4119767  27.1214177  14.9487779  14.2913398  27.5488536  15.6127512
  14.9789640  27.1716322  15.6000233  22.6606092  25.4116739  21.3212243
  22.6600319  25.2565395  22.1796519  22.4562272  26.2579726  21.2653629
  22.6305870  25.5137359  21.4400182   4.7223363  28.8356523  25.7371060
   4.5445124  28.3833132  26.4625975   4.4342385  29.6382685  25.9209537
   4.6536316  28.8879081  25.8714563  20.3846944  30.0914241  24.9748450
  20.8800610  29.3737236  24.9352470  19.5746720  29.7885038  24.8602937
  20.3390838  29.9411887  24.9522176  15.8305556  33.9412054  17.1245454
  15.0216879  33.6178727  17.0778764  16.3380465  33.2345276  17.0573703
  15.7855223  33.7893370  17.1075749   6.4595833  31.3684247  22.8492819
   5.5941353  31.3569937  22.7375590   6.5594649  31.1814470  23.6963958
   6.3470000  31.3390308  22.9581763  22.4498763  32.8417928  27.6625579
  22.8753835  32.3192350  27.1096004  22.0855683  33.4398765  27.1414202
  22.4585366  32.8528155  27.5034588  12.0852843  41.1382146  26.4222924
  12.3999402  41.9518534  26.4300706  12.4946256  40.7532364  27.0905083
  12.1920941  41.2010848  26.5227016  19.0377363  36.5552192  23.9926736
  19.5088541  37.2692455  24.1616721  19.3737541  35.9550942  24.5286606
  19.1572478  36.5723657  24.0959112  15.9546858  21.3279663  30.9484831
  16.0874763  20.5310656  31.2765807  16.3392010  21.8546066  31.5283107
  16.0303187  21.2879580  31.0828334  19.6751309  36.3470126  30.7554429
  19.1272255  35.7228010  30.4874494  20.1364338  36.5364398  30.0398508
  19.6618519  36.2829177  30.6104860  19.0279213  18.2509989  27.5465924
  18.2225177  18.1407719  27.8633763  18.8985948  18.3522445  26.6895790
  18.8899346  18.2493659  27.4673965  22.4845173  24.4155481  28.1405621
  21.9008162  24.9164687  27.7283189  22.8049467  23.9085037  27.5069944
  22.4458349  24.4147316  27.9864128  15.0239973  23.3296076  18.4164296
  15.8455667  23.4994389  18.1745991  14.5609623  23.4843337  17.6930594
  15.0771135  23.3777809  18.2735940  13.6135304  21.3238838  29.1962725
  14.1579717  20.9829965  29.7867066  13.6672240  22.1824299  29.3384009
  13.7024424  21.3994097  29.3044598   9.4265863  35.0855254  26.0701533
  10.0310721  35.0451088  25.4415353   9.2193176  35.9326406  26.1005588
   9.4854760  35.2043256  25.9817649  19.2409635  37.3521199  27.2863770
  20.0608009  37.2084165  27.5480065  18.9603713  37.9767398  27.8280208
  19.3206379  37.4231551  27.4051709   4.6617146  34.0689872  25.9400456
   4.5641424  33.2586143  26.2490512   5.4446015  34.0481665  25.5546724
   4.7633282  33.9456962  25.9287319  24.7149606  58.5620401  24.4374437
  25.3587062  59.0033565  24.8270595  25.0405862  57.7573827  24.3504696
  24.8581435  58.5085596  24.4819914  18.0713911  49.6663098  22.6611915
  17.8364095  48.8330751  22.5544183  18.2099551  49.9467764  21.8473115
  18.0569573  49.5846602  22.5254270  20.3703998  41.8348829  25.5596222
  19.7509030  41.2441476  25.3906237  20.2687862  42.4260264  24.9260545
  20.2641674  41.8352912  25.4401212  20.0973131  45.3801111  27.8039791
  19.9731828  45.9663556  28.4389610  20.7491416  44.8861306  28.1052066
  20.1746781  45.3939915  27.9425721  27.6617564  51.4017734  26.7334195
  27.9440806  50.6069139  26.5120951  28.3903724  51.8798321  26.7539256
  27.8107127  51.3552330  26.7037210  25.6398757  38.9440768  23.9749960
  25.3102087  39.3951911  23.3053659  24.9643759  38.8656931  24.5222966
  25.4909194  38.9991903  23.9573183  19.6331235  54.5448769  23.9368121
  19.1498814  55.2699259  23.9127704  20.4454554  54.8424899  24.0478278
  19.6821983  54.6951123  23.9495400  28.5364421  45.0759660  15.6113370
  28.7760425  45.2837644  14.7988713  28.8580262  44.2717169  15.7202314
  28.6201579  44.9873761  15.5073923  23.8454711  37.0053056  19.4572908
  24.6000680  37.3731373  19.2189958  23.6682246  37.3792610  20.2252087
  23.9309190  37.1151244  19.5357796  22.4875433  55.0604945  24.0888401
  23.1896012  54.5456934  24.1461157  22.4072916  55.3879096  24.8935276
  22.5799193  55.0319171  24.2161193  22.2011776  39.4123375  16.1551021
  22.0187349  39.6295256  15.3292013  23.0637389  39.5262388  16.2109635
  22.3016366  39.4613273  16.0405508  27.8811495  36.4149786  19.1900044
  28.6097656  36.2365741  18.7438201  27.9706388  37.2567865  19.4007223
  28.0018157  36.5133664  19.1553562  17.8416056  47.8912463  28.0521736
  17.5754471  47.0751580  28.2112726  17.8554620  47.9365619  27.1817251
  17.8040779  47.7769368  27.9475218  21.7473803  42.6897548  14.6673494
  21.0331980  42.4035727  15.0795926  22.2317772  43.0294173  15.3079881
  21.7133166  42.6979197  14.8229129  18.2509470  48.6771243  25.3333480
  18.0685043  48.6518129  24.4805772  18.9859139  49.1470180  25.3722389
  18.3323534  48.7432605  25.2131398  18.2180380  45.5564743  25.4832546
  18.7953883  45.4201194  26.1224792  17.5194442  45.1000527  25.7378131
  18.2001402  45.4687009  25.6154836  23.9482395  44.7636561  24.1835924
  23.3731986  44.9228730  24.8199885  23.5718071  44.1271970  23.7204375
  23.8085207  44.6934374  24.2090483  13.6939213  44.4076636  22.1980365
  13.7799465  44.0308504  22.9793895  14.3215011  44.0337082  21.7200323
  13.7995764  44.2962118  22.2425842  19.2815172  53.1768369  26.2511726
  19.3219317  53.4483220  25.4231505  19.8409696  53.7010277  26.6669514
  19.3698518  53.2944124  26.1903614  20.7329758  51.7610318  21.0765652
  19.9067876  52.0072055  20.9499930  20.7941750  51.6822399  21.9427710
  20.6203925  51.7855267  21.1854596  22.9505782  37.8279259  22.0361092
  22.0828208  37.9001859  22.1018701  23.2380986  38.6301338  22.2249067
  22.8645530  37.9573406  22.0735858  23.4534503  56.3554581  21.8444831
  23.2334798  56.0651935  22.6371498  23.2329025  55.6969536  21.3162744
  23.3882097  56.2154289  21.8833740  20.8773134  41.3037518  19.4777968
  20.5897930  40.9338789  18.7409915  21.5643602  41.7732374  19.2161673
  20.9362031  41.3184488  19.3293044  18.4501329  42.0818731  20.3263249
  18.5517465  42.8844892  20.6544225  19.2457215  41.8806067  20.0286330
  18.5829234  42.1704630  20.3298605  19.2665061  42.1965909  28.0684371
  19.1250553  41.3449850  28.1928879  19.5505624  42.2394570  27.2446577
  19.2872907  42.0765659  27.9651995  24.4528435  54.9592490  28.4912869
  24.6017999  54.3995406  27.8386273  25.2328438  55.0384491  28.8745388
  24.5902529  54.8878055  28.4509818  20.0355366  40.1096257  31.3861821
  19.4997556  39.4976615  31.7022588  20.0973131  40.6844393  32.0395488
  19.9650999  40.1043184  31.5297248  30.1570644  50.6820315  12.5820915
  30.9243629  50.7420440  12.1726767  29.7101953  50.1100757  12.0977234
  30.2044071  50.6056891  12.4498625  26.3673370  58.5375452  28.2275361
  26.8569301  57.8386242  28.0451025  25.7957603  58.2399322  28.8151418
  26.3557900  58.3901676  28.2876401  18.7278383  44.7011941  21.5142643
  19.1077348  45.1196486  20.8502910  18.1533748  45.2825397  21.8211486
  18.6989708  44.8489800  21.4619384  26.2045244  46.9539081  14.0458025
  26.4937769  47.7303964  14.3201600  26.2917043  46.4427813  14.7472525
  26.2599500  46.9931000  14.1900523  26.2576405  36.9077343  26.5658353
  25.7414894  36.2157534  26.6909932  25.6970334  37.5748120  26.5120951
  26.0982918  36.9040601  26.5764419  28.3268639  37.4470303  28.3951205
  27.9400392  37.4719335  29.1764735  27.8401576  36.8811982  27.9425722
  28.1981147  37.3666054  28.4439109  22.3709185  46.2672346  26.1458137
  21.5297192  46.1676220  26.3537031  22.5799193  47.0367826  26.4972458
  22.2773878  46.3664389  26.2285452  19.8484752  43.8891883  23.9742888
  19.4541450  43.9634895  23.1992998  19.2924869  44.2749829  24.5251250
  19.7087564  43.9573658  23.9410548  25.2391947  41.5054265  19.9600437
  25.5151681  40.7873178  19.5478004  25.8390616  42.1039185  19.7521543
  25.3685212  41.4874636  19.8681198  28.7402467  39.1767782  18.2347032
  29.1946214  39.3478343  18.9594876  29.2142513  38.5635893  17.8344807
  28.8770788  39.1118668  18.2820793  22.6578616  39.8218106  28.2317788
  23.1180097  39.8957035  28.9692912  22.7034722  40.6199360  27.8817609
  22.7329171  39.9512253  28.2890544  27.9995063  37.6760576  24.3723900
  27.1531108  37.8483383  24.2465250  27.9966195  36.8709919  24.7089729
  27.8742213  37.5821605  24.4035027  19.4466393  43.4507297  30.6069504
  20.3092006  43.3503006  30.5206834  19.1158176  42.8702006  30.0455076
  19.5251590  43.3498923  30.5114910  22.8068179  42.2749746  27.2679922
  22.1821250  42.2868138  26.6605875  22.4713774  42.7509921  27.9171162
  22.6653671  42.3468263  27.2736491  22.9909928  40.6174864  13.3252607
  22.6422732  41.2694589  13.7884157  22.5106374  40.6031977  12.5976478
  22.8680172  40.7117918  13.2863699  19.5193855  50.3350206  28.7083687
  18.9893779  49.6442645  28.7578661  19.7918948  50.3260391  27.8796395
  19.4818577  50.2317338  28.5931103  14.7989697  47.0077970  26.0652035
  14.6933146  46.9624814  25.2004119  14.0489917  47.3531751  26.3466320
  14.6725300  47.0518878  25.9789365  23.5683430  38.4517293  26.0114635
  23.6081801  38.9526500  26.7249343  22.7433094  38.5427687  25.7420558
  23.4522956  38.5399110  26.0765173  23.3633837  43.2433395  18.8378652
  23.5036798  43.7405859  19.5407293  23.8616370  42.5419689  18.9792865
  23.4574918  43.2135373  18.9630231  23.3934059  44.1100506  16.1671229
  24.0279139  44.7060931  16.1020690  23.4759670  43.8103963  16.9817099
  23.4990610  44.1541414  16.2774315  24.9713042  40.0414481  16.1416671
  25.2928883  39.5617564  15.4875933  25.2339986  40.8514127  15.9507482
  25.0579067  40.0904379  16.0172163  19.8987047  46.3068346  19.4360775
  20.4079276  46.9032854  19.8172080  20.3721319  46.0394320  18.7537194
  20.0430423  46.3554162  19.3915297  28.8066420  35.9001775  21.9130727
  28.1634738  35.7499421  22.4815865  28.4665827  35.6544120  21.1479831
  28.6611497  35.8413897  21.8833742  27.4452500  55.9957914  26.5672494
  27.2218155  55.2376743  26.9356520  26.9562343  56.0255935  25.8452933
  27.3395949  55.8880138  26.5149235  22.2577579  42.9424605  22.3033955
  21.5389568  43.3588738  22.5706819  22.6289941  43.5078844  21.7525593
  22.2069511  43.0873886  22.2616762  28.0324153  41.9822605  17.6407335
  27.4388992  42.3039601  17.0891902  28.0699431  41.1363700  17.4328441
  27.9498542  41.9046933  17.5290106  23.9626732  40.4778656  22.3663280
  24.4384099  40.8395735  21.7313462  23.4615332  41.1335123  22.6463423
  23.9592091  40.6272844  22.3140021  16.9368977  45.1421023  28.5825037
  16.3895697  44.4721669  28.7005905  17.7261356  44.7750871  28.6468504
  16.9721161  44.9886010  28.6093737  26.0053385  42.6219855  15.7336664
  26.3852350  42.6399485  14.9487779  25.2645981  43.0673844  15.6127512
  25.9522223  42.6901630  15.6000233  15.6955947  44.3541831  25.7371060
  15.5177708  43.9018440  26.4625975  15.4074969  45.1567992  25.9209537
  15.6268900  44.4064389  25.8714563  17.4328417  46.8869555  22.8492819
  16.5673936  46.8755245  22.7375590  17.5327233  46.6999778  23.6963958
  17.3202584  46.8575616  22.9581763  23.0585427  56.6567453  26.4222924
  23.3731986  57.4703842  26.4300706  23.4678840  56.2717672  27.0905083
  23.1653525  56.7196156  26.5227016  25.9972556  38.8481384  18.4164296
  26.8188250  39.0179697  18.1745991  25.5342207  39.0028645  17.6930594
  26.0503718  38.8963117  18.2735940  24.5867888  36.8424146  29.1962725
  25.1312301  36.5015273  29.7867066  24.6404824  37.7009607  29.3384009
  24.6757007  36.9179405  29.3044598  20.3998447  50.6040562  26.0701533
  21.0043304  50.5636396  25.4415353  20.1925759  51.4511714  26.1005588
  20.4587344  50.7228564  25.9817649  30.2142219  52.8706507  27.2863770
  31.0340593  52.7269473  27.5480065  29.9336297  53.4952706  27.8280208
  30.2938962  52.9416859  27.4051709  15.6349729  49.5875179  25.9400456
  15.5374007  48.7771451  26.2490512  16.4178599  49.5666973  25.5546724
  15.7365866  49.4642270  25.9287319  46.6855869  60.5271359  20.2506646
  46.6549874  61.3815995  20.4224916  47.2837218  60.2266651  20.8092790
  46.7693027  60.6087855  20.3581449  39.8855554  59.6147010  25.0059577
  39.0293450  59.7755508  25.0568694  39.9323208  58.7439074  25.0264638
  39.7654666  59.5097812  25.0165643  34.2696694  69.1509728  20.7696808
  33.5179593  68.7725266  20.5412853  34.7182706  69.1828161  20.0215619
  34.2246361  69.0995335  20.6254311  43.1949271  65.8833535  34.6120033
  43.9016038  65.3885566  34.7406967  43.3837206  66.3242617  33.8822691
  43.3277176  65.8751886  34.5229078  39.7221654  69.5735097  16.1982355
  39.3873022  70.2512019  15.7626578  40.2348524  69.1840408  15.6099227
  39.7487235  69.6159675  16.0469147  39.2625945  71.5249366  22.1393467
  39.6465324  72.0936264  21.5998242  39.1985086  70.7998876  21.6599283
  39.3099372  71.5024829  21.9887330  42.7307375  61.6739054  27.6491228
  43.2763335  62.3524140  27.7085198  42.6724251  61.5326515  26.7892810
  42.8023290  61.7531055  27.5303289  35.8481450  69.1628120  23.0359581
  35.9491813  68.3528474  23.3456709  35.2523195  69.0685066  22.4059259
  35.7753989  69.0293148  22.9885819  44.5072444  63.1023661  18.5224956
  44.3911970  63.8531347  18.9517094  45.3028331  62.8447614  18.7721043
  44.6077033  63.1758508  18.6229048  35.6882190  74.0805709  24.4374437
  36.3319645  74.5218873  24.8270595  36.0138445  73.2759135  24.3504696
  35.8314018  74.0270904  24.4819914  29.0446494  65.1848406  22.6611915
  28.8096679  64.3516059  22.5544183  29.1832135  65.4653072  21.8473115
  29.0302157  65.1031910  22.5254270  31.3436582  57.3534137  25.5596222
  30.7241613  56.7626784  25.3906237  31.2420445  57.9445572  24.9260545
  31.2374257  57.3538219  25.4401212  36.3902769  67.0917684  19.8094299
  36.7118610  67.6322891  19.2055607  37.0374866  66.5214455  19.9416588
  36.5328825  67.0876859  19.7401334  38.4404477  59.0933679  19.8928685
  39.1384642  59.2721806  20.3850149  38.7556810  58.5704018  19.2699075
  38.5899815  59.0427451  19.8730695  31.0705715  60.8986419  27.8039791
  30.9464412  61.4848864  28.4389610  31.7223999  60.4046614  28.1052066
  31.1479364  60.9125223  27.9425721  38.6292413  65.4804124  19.8808477
  39.0686048  64.8721224  20.3263250  38.4797076  65.1011497  19.1093942
  38.6713878  65.3342595  19.8327644  36.0964056  64.0748136  27.0827302
  36.7413058  63.5820579  26.7638251  36.3365833  64.2172922  27.9093381
  36.2274641  64.0225578  27.1576836  38.6350147  66.9203041  26.7334195
  38.9173390  66.1254447  26.5120951  39.3636308  67.3983629  26.7539256
  38.7839711  66.8737638  26.7037210  36.6131341  54.4626075  23.9749960
  36.2834671  54.9137219  23.3053659  35.9376343  54.3842239  24.5222966
  36.4641777  54.5177211  23.9573183  42.2301749  63.8331305  16.8339246
  42.1453044  64.6892272  16.9788815  42.7186133  63.5575629  17.5021405
  42.2890647  63.9188626  16.9541328  43.8207749  50.4511598  22.2199571
  43.5061190  51.1415077  22.6519993  43.3034690  50.3956381  21.5185071
  43.6972219  50.5446487  22.1796520  43.1620183  60.4516099  18.3336981
  42.6331654  60.6675733  18.9934287  43.6845203  61.1452238  18.2537951
  43.1608636  60.5859236  18.4192580  48.6168235  66.0262404  23.7070026
  47.7865939  66.2373047  23.8703442  48.5677488  65.1999458  23.4312309
  48.4874971  65.9352010  23.6907391  35.0519790  64.3479316  17.1344449
  34.4677006  64.8529347  17.5410313  34.6489886  64.1221703  16.3941041
  34.9059094  64.3887564  17.0849474  30.6063819  70.0634077  23.9368121
  30.1231397  70.7884567  23.9127704  31.4187137  70.3610207  24.0478278
  30.6554567  70.2136431  23.9495400  36.6777973  68.8566258  26.5417935
  36.1604915  68.4973673  25.9379243  37.3752364  68.3328432  26.5524001
  36.7043554  68.7263946  26.4548194  40.3341565  69.3061072  32.5034108
  40.4224911  69.1187212  33.3512319  40.7631278  68.6598501  32.1038955
  40.4103667  69.1824080  32.5705860  37.9012025  68.5892232  31.4851770
  37.3382860  68.1764842  32.0091432  38.6633048  68.5145138  31.9044914
  37.9306473  68.5169632  31.6244771  39.5097005  60.5944968  15.6113370
  39.7493008  60.8022952  14.7988713  39.8312846  59.7902477  15.7202314
  39.5934163  60.5059069  15.5073923  33.4608016  70.5790253  24.0888401
  34.1628596  70.0642242  24.1461157  33.3805499  70.9064404  24.8935276
  33.5531777  70.5504479  24.2161193  48.1122194  58.6732804  27.5020447
  47.2750615  58.7434991  27.7368041  48.0810425  58.6757299  26.6294749
  47.9840476  58.6843031  27.4079995  34.5086923  60.8165840  33.2168816
  34.6807427  60.7071735  34.0654097  35.0456280  61.4620245  32.9800008
  34.6131927  60.8957842  33.3073912  32.7858792  66.7696605  23.5974009
  33.6247691  67.0019538  23.6447770  32.8170561  65.9000916  23.5281044
  32.9140509  66.6753552  23.5938653  33.4111495  67.1897480  27.8987314
  33.9509720  67.0468611  28.5690686  32.7281441  67.5894231  28.2671340
  33.3903649  67.2277151  28.0521736  42.8352380  62.8688481  23.0932338
  43.5909895  63.3019995  23.1321247  42.9414704  62.2193251  23.6666974
  42.9622550  62.8365965  23.1830364  45.8732551  66.6961758  23.8434741
  45.4367783  66.6998501  24.5993713  45.5395466  67.3767257  23.4114319
  45.7595171  66.7974214  23.8915574  40.4461624  68.7370091  35.1677892
  41.2302041  68.8500939  35.5333634  40.2458219  67.9111228  35.3636578
  40.5327650  68.6316810  35.2512278  28.8148640  63.4097771  28.0521736
  28.5487055  62.5936888  28.2112726  28.8287204  63.4550927  27.1817251
  28.7773362  63.2954676  27.9475218  45.7930034  53.7375586  26.0864169
  46.4355942  53.8073691  26.6726085  46.0453054  53.0704809  25.5843711
  45.9252166  53.6501935  26.0991449  32.7206387  58.2082855  14.6673494
  32.0064564  57.9221035  15.0795926  33.2050355  58.5479481  15.3079881
  32.6865750  58.2164505  14.8229129  33.5647246  56.9476149  30.6988743
  32.8719043  56.4773129  30.9449475  34.1807573  56.7214454  31.2730450
  33.5531776  56.8443281  30.8197896  40.6032018  70.6480193  28.8144347
  39.8047263  70.4079693  29.0718216  41.0518029  70.6994586  29.5611395
  40.5506629  70.6202584  28.9629272  49.0076897  63.4142678  22.7354379
  49.6693331  62.8533346  22.6350287  48.3668309  62.9194709  23.0607070
  49.0105764  63.2579087  22.7686719  39.8953705  66.7112809  15.0435302
  40.3104853  66.3797833  14.3519798  39.0645634  66.4781712  14.9155439
  39.8341713  66.6284065  14.9226149  29.2242053  64.1956550  25.3333480
  29.0417627  64.1703436  24.4805772  29.9591722  64.6655488  25.3722389
  29.3056117  64.2617913  25.2131398  45.2941728  64.4308060  22.4766367
  45.5297317  64.5753259  21.6493218  45.4431291  65.1950468  22.8697881
  45.3507531  64.5647115  22.4129971  32.2887805  60.9141553  31.8415589
  33.0127777  60.8994584  32.3280483  32.3903942  61.6236909  31.3437557
  32.4106014  61.0166257  31.8394375  47.1232184  63.2709726  20.3135971
  47.4540401  63.8037366  19.7076066  47.6965272  63.3248614  20.9697922
  47.2565863  63.3579295  20.3213753  39.6632755  64.3940638  36.7064536
  38.8705735  64.7084150  36.8917155  39.7781682  64.6092106  35.8685320
  39.5628165  64.4724475  36.6102870  42.3364073  61.1174629  20.9959551
  42.4310928  61.8563923  21.4499177  41.7122917  60.6892105  21.4294116
  42.2573104  61.1635950  21.1267699  40.5916547  64.2960842  31.6449832
  41.1655409  63.6588086  31.7998396  40.5131351  64.2964924  30.7759490
  40.6649782  64.2025953  31.5396243  29.1912964  61.0750051  25.4832546
  29.7686466  60.9386502  26.1224792  28.4927025  60.6185835  25.7378131
  29.1733985  60.9872317  25.6154836  42.5887095  62.9623369  14.2296503
  42.5067257  63.0325556  15.0951490  43.2266815  63.5253113  14.0380244
  42.6706932  63.0562340  14.3286453  35.9480266  62.7284107  23.6971030
  35.6899510  61.8955842  23.6702329  36.0028749  62.9541720  22.8563530
  35.9180044  62.6381878  23.5691166  41.0281316  54.8312557  23.7975122
  40.3237643  54.3421743  23.9559042  41.0766290  54.8435032  22.9263567
  40.9311368  54.7602205  23.6914462  34.9214978  60.2821869  24.1835924
  34.3464569  60.4414038  24.8199885  34.5450654  59.6457278  23.7204375
  34.7817790  60.2119682  24.2090483  38.5888267  58.7545219  29.0428303
  38.2002699  58.3299436  28.3880494  37.9242965  59.0027368  29.5505329
  38.4335195  58.7283940  29.0216171  48.2311536  58.5120223  21.8176133
  47.9748101  57.7000165  21.6274016  49.0740850  58.5197790  21.5906320
  48.3177561  58.3932221  21.7560950  24.6671797  59.9261944  22.1980365
  24.7532049  59.5493812  22.9793895  25.2947594  59.5522390  21.7200323
  24.7728348  59.8147426  22.2425842  42.4114628  52.4519847  26.5552287
  42.7925140  51.7698018  26.9420161  41.6077913  52.1629449  26.3727952
  42.3491090  52.3086896  26.5856343  39.6927205  62.9843823  17.2405110
  40.5067844  63.2758716  17.1287881  39.6286346  62.3303685  16.6663403
  39.8029944  62.9309018  17.1393947  45.9136695  65.6669819  31.6534685
  45.6775333  64.8357884  31.5346746  46.5579924  65.6155426  32.2389530
  45.9731366  65.5367507  31.7220579  35.5635113  66.4565341  22.3677422
  36.2009060  66.2177088  22.9129215  35.9890185  66.6602500  21.6330583
  35.7211279  66.4516351  22.3394579  30.2547756  68.6953677  26.2511726
  30.2951901  68.9668528  25.4231505  30.8142280  69.2195585  26.6669514
  30.3431102  68.8129432  26.1903614  36.2037928  61.6767630  16.7052311
  36.5883081  61.4575337  17.4568856  35.9549549  62.5030576  16.8353388
  36.2240001  61.7665777  16.8353388  36.3706469  54.9574046  36.4214896
  36.0559910  55.7273608  36.1584458  36.0496401  54.3944302  35.8367122
  36.2765388  54.9884314  36.2956245  46.9373116  65.4514268  27.7162980
  46.6318933  66.1842325  28.0776296  46.2179331  65.0452198  27.4355766
  46.7860458  65.4996001  27.7276117  37.9456585  66.9337763  24.0471208
  38.0195593  66.7712935  24.9013058  38.7626092  67.1227953  23.8031690
  38.0772944  66.9374506  24.1369234  52.6374908  62.0907269  27.0431324
  52.5699408  62.1103228  26.1733911  52.6230570  62.9337596  27.2686995
  52.6253664  62.2181003  26.9483801  31.7062342  67.2795626  21.0765652
  30.8800460  67.5257363  20.9499930  31.7674333  67.2007707  21.9427710
  31.5936509  67.3040575  21.1854596  43.0471254  53.4942426  30.3672414
  43.7924846  53.3052237  29.9535839  42.6308559  54.0200664  29.8086270
  43.0956229  53.5444572  30.2236987  36.4861171  69.8972506  18.7784682
  36.7759469  69.5061488  18.0543908  37.2164652  70.0789211  19.2189957
  36.6368055  69.8666320  18.7367489  50.4233525  60.8651655  25.3177919
  50.9741447  60.2319724  25.5575011  50.4077641  61.3967048  26.0093423
  50.5018722  60.8500603  25.4556777  37.0755916  64.6990252  29.8637812
  36.5767610  65.4106020  29.9422701  37.8856140  65.0190919  29.8255974
  37.1212023  64.8517101  29.8694381  34.4267087  71.8739889  21.8444831
  34.2067382  71.5837243  22.6371498  34.2061609  71.2154844  21.3162744
  34.3614681  71.7339597  21.8833740  33.3384034  63.9613205  24.1100533
  33.0497282  63.3350676  24.6446260  34.2067382  63.9033493  24.1765213
  33.4244286  63.8600749  24.1991488  44.1261931  59.1047989  24.4282515
  43.7826697  58.3838324  24.7789764  44.2254974  58.8961840  23.5860873
  44.0903974  58.9672192  24.3554195  36.5935042  73.2469279  20.6275524
  37.2459100  72.7145721  20.8566550  35.8960651  72.8937931  21.0143398
  36.5865760  73.1158802  20.7187691  33.5416307  65.6008456  20.0342898
  34.2962275  65.9821495  20.2478361  32.9486920  66.0519600  20.4889595
  33.5653021  65.7237284  20.1325776  44.5874961  65.5673693  19.9706503
  45.1532993  66.2266903  19.8865046  43.9402864  65.9123391  20.4422905
  44.5753717  65.7155634  20.0279259  36.0022974  57.5571297  35.1600110
  35.1922750  57.8629076  35.0489953  36.4797661  58.2776879  35.2752694
  35.9526453  57.7085898  35.1607181  34.8614534  66.7717018  25.4083013
  34.3395287  66.9117309  26.0934878  35.2488554  66.0127682  25.5985131
  34.8418235  66.6802541  25.5384090  41.0581539  68.5112477  19.3943582
  40.8168215  67.7780338  18.9870647  41.2382872  69.0599334  18.7409915
  41.0489163  68.4834868  19.2373805  36.2880859  63.8021037  20.8064504
  36.0923642  64.4095771  20.2124807  36.5115205  63.1088981  20.3256178
  36.2915500  63.7898562  20.6480585  42.6452897  57.0239573  26.3042058
  41.8063998  57.0500852  26.0680321  42.7157264  57.6710309  26.8847404
  42.5321290  57.1235699  26.3551175  32.3367006  63.0933847  30.0299513
  32.8488103  63.3718100  29.3808272  32.0503349  63.8323141  30.3962326
  32.3701869  63.2436201  29.9889391  41.0922175  53.9224950  21.0369674
  41.7948528  53.7232699  20.5589632  40.8266364  53.1500893  21.3438517
  41.1568807  53.7787916  21.0115115  46.5210421  62.2307560  23.5903300
  46.4344395  62.3862986  24.4438078  46.0660901  62.8745636  23.2162705
  46.4413677  62.3483315  23.6610406  35.8550731  55.1860236  30.0900554
  35.6633928  55.2015370  30.9399978  36.7049327  55.3823910  30.0667209
  35.9526453  55.2174587  30.2123849  30.2397644  57.7151217  28.0684371
  30.0983136  56.8635158  28.1928879  30.5238208  57.7579878  27.2446577
  30.2605491  57.5950967  27.9651995  40.3936237  59.5518307  22.2128859
  40.1470951  59.4714058  23.0465648  40.7221360  58.7671775  22.0191387
  40.4057480  59.4244573  22.3076382  44.2884286  66.2601667  26.0015640
  44.1498645  66.9582712  26.5064383  43.5084283  66.1050323  25.6451822
  44.1527512  66.3401833  26.0241914  42.6262371  62.5598042  32.2538022
  42.6210409  61.6877858  32.2580448  43.3323365  62.7586211  31.7807478
  42.7307375  62.4601916  32.1845057  36.3533264  62.2875026  31.6251842
  36.4976640  62.8676234  30.9894952  36.7008913  62.6651323  32.3301697
  36.4260725  62.4295730  31.6350837  38.5253181  61.4865194  29.4076974
  37.7776495  61.6796209  29.0025252  38.6794707  60.6610414  29.1701095
  38.4375609  61.3930306  29.3122380  35.4261019  70.4777798  28.4912869
  35.5750583  69.9180714  27.8386273  36.2061021  70.5569799  28.8745388
  35.5635113  70.4063363  28.4509818  45.7837658  65.6179920  16.7632139
  45.4044467  64.8317058  16.7561429  45.1203904  66.1666777  16.6203784
  45.6296133  65.5824744  16.7412936  37.9514320  70.6492441  29.7697360
  37.8757991  69.9801251  30.3248148  37.8804179  71.3510229  30.2838026
  37.9294927  70.6537348  29.9274208  38.7654958  55.3815745  30.2972377
  39.2227573  56.1139719  30.4245170  38.8411287  54.9582210  31.0559633
  38.8445928  55.4272983  30.4273454  38.6084567  69.1693439  20.6020966
  39.3734458  68.9003083  20.2803630  38.5062657  68.6843450  21.3191029
  38.7066062  69.0583004  20.6600793  36.6437336  57.3717849  27.1414201
  35.8533411  57.1909309  27.4631537  37.0397959  56.5944801  27.1244496
  36.5854213  57.2305310  27.1866750  41.1303227  66.2005623  12.5820915
  41.8976212  66.2605748  12.1726767  40.6834536  65.6286065  12.0977234
  41.1776654  66.1242199  12.4498625  42.0281023  65.0060279  24.8673647
  41.3526024  64.7745511  25.3687034  42.0373399  64.3981462  24.2415752
  41.9299527  64.8819204  24.8489800  39.1575167  59.8478108  31.6237700
  39.0934308  60.7088064  31.4957837  39.2972354  59.5310101  30.8233252
  39.1690637  59.9278275  31.4865913  44.0297757  67.8625411  17.0983825
  44.1117595  68.6692398  16.7745276  44.5147499  67.8821371  17.8224599
  44.1134915  67.9846074  17.1570724  37.8394261  62.5410247  25.7653903
  37.4156510  62.7414746  25.0292922  37.6639116  61.6939095  25.8778203
  37.7505141  62.4459029  25.6727593  37.3405954  74.0560760  28.2275361
  37.8301884  73.3571550  28.0451025  36.7690186  73.7584630  28.8151418
  37.3290484  73.9086984  28.2876401  33.1276706  63.0362299  21.1981876
  33.2841325  62.9709102  22.0537868  33.4677299  63.8110851  20.9860555
  33.2009940  63.1411497  21.2936470  39.6655850  62.4120182  20.0675239
  40.2071396  61.9090563  20.5313860  39.9802409  62.3585377  19.2564724
  39.7920247  62.3299603  20.0159051  43.5372958  66.6222830  37.1802151
  44.3507823  66.3507979  37.3407284  43.3767924  66.3230370  36.3762347
  43.6342906  66.5377756  37.0847557  37.8342300  67.8037534  17.3515267
  37.9035120  66.9452072  17.4908267  38.6130755  68.0209415  17.0234292
  37.9595150  67.7090398  17.3232424  40.8145120  57.3056487  30.1197539
  41.0287089  56.6667401  29.5660893  40.1979019  57.7502311  29.6905401
  40.7550449  57.2766631  29.9747971  42.2249787  70.2275235  21.5651760
  41.8329579  69.9241950  20.8474627  42.3802860  71.0644325  21.3756714
  42.1903377  70.3059072  21.4308257  29.7010967  60.2197249  21.5142643
  30.0809932  60.6381794  20.8502910  29.1266332  60.8010705  21.8211486
  29.6722292  60.3675108  21.4619384  42.9784208  58.9145552  31.0580847
  42.1660889  58.6071442  31.1394019  43.4374142  58.4344552  31.6223559
  42.9264592  58.7982044  31.1535441  42.3889462  66.7925224  21.5057791
  42.0304117  66.9639867  22.2821823  41.9028173  67.2538430  20.9485789
  42.2648159  66.8864195  21.5383060  37.1777828  62.4724389  14.0458025
  37.4670352  63.2489272  14.3201600  37.2649626  61.9613121  14.7472525
  37.2332084  62.5116308  14.1900523  40.0737715  60.3205623  35.8409549
  40.5437346  60.9447740  36.2277423  40.1199595  59.6522599  36.4002764
  40.1505591  60.3140304  35.9809620  43.5494202  67.6829120  32.4524992
  44.1873922  67.1889316  32.1187448  42.9068293  67.6106520  31.8677219
  43.5488428  67.5988128  32.3167347  45.2751202  59.5318266  27.0190907
  44.8478810  59.4444614  26.2639007  44.6377255  59.6396041  27.6045751
  45.1180809  59.5350926  26.9936349  38.7672279  54.6393791  32.9587877
  39.5945708  54.3678940  33.0146491  38.7880125  55.4354633  33.3151695
  38.8925129  54.7173545  33.0203060  43.6048458  68.3748928  29.0930349
  44.3940836  68.0237993  29.2132430  43.7792056  69.1885317  28.8306982
  43.7468740  68.4434785  29.0718217  33.3441769  61.7857654  26.1458137
  32.5029775  61.6861528  26.3537031  33.5531776  62.5553134  26.4972458
  33.2506461  61.8849697  26.2285452  30.8217335  59.4077191  23.9742888
  30.4274033  59.4820203  23.1992998  30.2657452  59.7935137  24.5251250
  30.6820148  59.4758966  23.9410548  42.4582282  52.3858485  23.6546767
  42.6631876  52.3180793  24.5003764  42.1308706  53.1917306  23.5867944
  42.4397530  52.4944425  23.7706422  37.1558433  59.7139053  25.3955735
  36.8521571  59.1595041  25.9966143  36.4537854  59.8931263  24.9083769
  37.0074643  59.6583835  25.4125441  36.2124531  57.0239573  19.9600437
  36.4884265  56.3058485  19.5478004  36.8123200  57.6224493  19.7521543
  36.3417795  57.0059944  19.8681198  35.2176784  66.9288774  30.1027833
  35.1097139  66.9390836  30.9689891  35.4272566  67.7543554  29.9132786
  35.2326895  67.0529849  30.2031924  45.7115970  52.9390249  23.1349532
  45.0990284  53.4260651  23.5203264  45.8080145  52.2633740  23.6787184
  45.6353868  52.9108558  23.2728391  39.7135051  54.6953090  18.2347032
  40.1678798  54.8663651  18.9594876  40.1875097  54.0821201  17.8344807
  39.8503371  54.6303976  18.2820793  33.2350576  64.1801416  27.5649770
  32.6438510  64.8210914  27.5352785  33.9971600  64.6039034  27.5381070
  33.2598837  64.3377255  27.5564917  33.6311199  55.3403414  28.2317788
  34.0912681  55.4142343  28.9692912  33.6767306  56.1384668  27.8817609
  33.7061755  55.4697561  28.2890544  35.2794549  56.0070109  32.7989815
  34.8880114  55.3603456  33.2345593  35.4480412  56.5981544  33.4184070
  35.2465459  55.9984377  32.9552521  49.3540998  64.0107186  28.5627049
  49.4124122  64.4593835  29.3087025  48.7207466  64.4205999  28.1257129
  49.2692293  64.1380921  28.6079597  42.9940093  69.6310728  24.9981795
  42.7959781  70.1201542  24.3038006  42.3727804  69.8351969  25.5765928
  42.8727657  69.7327266  24.9805018  37.0548071  61.3995625  19.3392039
  37.7990116  61.7869901  19.5774989  37.2008767  60.5553050  19.5032527
  37.1858656  61.3326097  19.3986009  40.0425947  56.9721098  25.2385958
  39.5685901  56.4462860  25.7491269  40.4144083  56.4250571  24.6700820
  40.0275836  56.8137095  25.2301106  30.4198977  58.9692605  30.6069504
  31.2824590  58.8688314  30.5206834  30.0890760  58.3887314  30.0455076
  30.4984173  58.8684231  30.5114910  46.3062677  62.0323474  26.6492739
  46.0660900  61.1929889  26.6535165  46.7854685  62.1123640  27.3733512
  46.3414861  61.9204873  26.7567541  41.9709447  57.8657653  18.3011712
  41.4432465  57.9486397  17.6117421  42.4305155  58.6075524  18.2976357
  41.9611297  57.9878315  18.1986407  48.3067864  58.8124931  24.6021998
  48.0677634  58.7720765  23.7642783  48.4701766  59.6596083  24.7287719
  48.2958168  58.9317016  24.4975480  44.9113895  63.1974880  30.5327043
  45.6348093  62.7447407  30.3538063  44.6463857  63.4779546  29.7499371
  44.9795168  63.1725849  30.3905758  33.7800763  57.7935054  27.2679922
  33.1553833  57.8053446  26.6605875  33.4446358  58.2695229  27.9171162
  33.6386255  57.8653571  27.2736491  33.9642512  56.1360172  13.3252607
  33.6155316  56.7879897  13.7884157  33.4838957  56.1217285  12.5976478
  33.8412756  56.2303226  13.2863699  30.4926439  65.8535514  28.7083687
  29.9626363  65.1627953  28.7578661  30.7651532  65.8445699  27.8796395
  30.4551161  65.7502646  28.5931103  41.5246529  66.4361216  17.4321369
  42.2480728  66.9019329  17.2885942  41.0847120  66.5034826  16.6818966
  41.5662221  66.5145053  17.3006151  40.6932684  63.2958758  28.6822058
  40.0789677  62.7516809  28.9770693  41.2099969  62.7822995  28.2027874
  40.6788347  63.1395167  28.6546287  39.9328981  64.3663028  26.4166357
  39.5056589  63.7412747  25.9831792  39.9253926  64.0837950  27.2425364
  39.8688122  64.2315809  26.4746184  33.0491508  59.4028201  29.4854791
  33.2084995  58.6471526  29.8906513  32.8684402  59.9519141  30.1395528
  33.0456867  59.3722015  29.6417497  40.9911811  51.5689437  30.0405580
  40.4952373  51.7653111  29.3497147  41.7480873  51.9682105  29.8694382
  41.0298636  51.6567171  29.9125717  38.2614691  55.2431783  26.6308891
  38.2857178  54.7091895  25.9421671  38.5126165  54.7349092  27.2934481
  38.3024610  55.0892687  26.6273535  25.7722281  62.5263278  26.0652035
  25.6665730  62.4810122  25.2004119  25.0222501  62.8717058  26.3466320
  25.6457884  62.5704186  25.9789365  36.7245626  63.5363341  34.1134930
  35.8741257  63.6735055  34.2492575  36.8873754  62.8027119  34.5582631
  36.6229490  63.4477442  34.1990529  35.9630377  60.4863111  28.3088534
  35.1322306  60.6536929  28.1023782  35.9081894  60.1099062  29.0937419
  35.8319791  60.4552842  28.3937062  34.3366420  58.7618703  18.8378652
  34.4769381  59.2591167  19.5407293  34.8348953  58.0604997  18.9792865
  34.4307501  58.7320681  18.9630231  34.3666643  59.6285814  16.1671229
  35.0011722  60.2246239  16.1020690  34.4492254  59.3289271  16.9817099
  34.4723194  59.6726722  16.2774315  47.3449209  62.1601291  29.0357593
  47.9367049  62.7998542  29.0675791  47.7808203  61.4624328  29.3249660
  47.4967640  62.1519641  29.0838425  35.9445626  55.5599789  16.1416671
  36.2661467  55.0802872  15.4875933  36.2072569  56.3699435  15.9507482
  36.0311651  55.6089687  16.0172163  39.1742598  66.5818663  29.6615487
  38.6667689  67.1354510  30.1056117  38.8769245  66.6426953  28.8434261
  39.0547483  66.6724975  29.6063943  30.8719631  61.8253654  19.4360775
  31.3811860  62.4218162  19.8172080  31.3453903  61.5579628  18.7537194
  31.0163006  61.8739470  19.3915297  41.7850379  70.4981921  17.5919430
  41.0679688  70.3242783  17.1266668  42.4357116  70.2634493  17.0594916
  41.7752229  70.4377714  17.4448648  44.3698350  59.3746510  21.3360735
  43.6989540  59.9176212  21.2073801  45.0638100  59.8441365  21.0942430
  44.3727217  59.5244781  21.2816263  38.4185084  71.5143222  26.5672494
  38.1950738  70.7562051  26.9356520  37.9294927  71.5441243  25.8452933
  38.3128533  71.4065446  26.5149235  44.5326477  55.8302393  24.2451109
  44.8854087  55.4032116  24.9196907  43.6741279  55.7453237  24.3752185
  44.4575922  55.7547134  24.3646119  33.2310162  58.4609913  22.3033955
  32.5122152  58.8774045  22.5706819  33.6022525  59.0264152  21.7525593
  33.1802094  58.6059194  22.2616762  42.5309743  59.0937762  28.1935951
  42.5107671  58.9121057  29.0470730  42.5788944  59.9649780  28.1695534
  42.5344384  59.1954300  28.3159246  40.4756073  65.6824954  34.1184427
  40.4351928  65.0374631  33.5329583  41.2879391  65.6261571  34.4309839
  40.5899227  65.5783921  34.0781377  37.0663541  71.7343680  24.0209578
  36.6523939  71.0717810  23.6313420  37.7510915  71.8821538  23.5005272
  37.1061912  71.6584338  23.8866075  40.4328835  70.8933765  24.7733195
  40.0345118  71.0036035  24.0054015  39.8180054  71.1015831  25.3559755
  40.2827724  70.9407333  24.7464494  39.0056737  57.5007913  17.6407335
  38.4121576  57.8224909  17.0891902  39.0432014  56.6549008  17.4328441
  38.9231126  57.4232241  17.5290106  45.9650537  50.9520805  25.1735421
  45.4581402  50.2449945  25.1056599  46.7617971  50.6213994  25.3036498
  46.0077777  50.7993956  25.1834416  41.8814553  57.4587417  21.0709085
  41.6528246  57.4820119  20.2287443  42.1412630  56.6344884  21.1904095
  41.8860741  57.3403497  20.9634282  36.1633782  59.3121890  30.6734185
  35.6512685  58.7043073  31.0319216  35.9913278  60.0278483  31.1408161
  36.0623419  59.3285190  30.7950409  31.0099496  57.7559466  33.3236547
  30.8402087  58.4160840  32.7784753  30.5665446  57.9666027  34.0449036
  30.9198830  57.8845448  33.3498176  34.9359316  55.9963964  22.3663280
  35.4116682  56.3581043  21.7313462  34.4347915  56.6520431  22.6463423
  34.9324675  56.1458152  22.3140021  48.1670677  65.4685732  18.1576285
  48.5504283  66.2177088  18.3874382  47.3714791  65.7151551  17.8988275
  48.1064460  65.6155426  18.1533859  40.0402852  57.2346135  33.1136441
  40.5974282  57.0059945  32.4814906  39.7163917  57.9951801  32.8371653
  40.0749262  57.3129972  32.9792938  27.9101561  60.6606331  28.5825037
  27.3628280  59.9906977  28.7005905  28.6993939  60.2936179  28.6468504
  27.9453745  60.5071318  28.6093737  37.7585969  60.3213788  34.0788448
  38.5097296  60.6365465  34.3928002  37.9508546  60.1192959  33.2522369
  37.8977384  60.3381170  34.0031843  36.9785969  58.1405163  15.7336664
  37.3584934  58.1584793  14.9487779  36.2378565  58.5859152  15.6127512
  36.9254807  58.2086938  15.6000233  44.6071260  56.4487355  21.3212243
  44.6065486  56.2936011  22.1796519  44.4027440  57.2950342  21.2653629
  44.5771037  56.5507975  21.4400182  26.6688530  59.8727139  25.7371060
  26.4910292  59.4203748  26.4625975  26.3807553  60.6753300  25.9209537
  26.6001484  59.9249697  25.8714563  42.3312112  61.1284856  24.9748450
  42.8265777  60.4107851  24.9352470  41.5211887  60.8255654  24.8602937
  42.2856005  60.9782503  24.9522176  37.7770723  64.9782670  17.1245454
  36.9682046  64.6549343  17.0778764  38.2845632  64.2715892  17.0573703
  37.7320390  64.8263986  17.1075749  28.4061000  62.4054863  22.8492819
  27.5406520  62.3940553  22.7375590  28.5059816  62.2185086  23.6963958
  28.2935167  62.3760924  22.9581763  44.3963930  63.8788544  27.6625579
  44.8219002  63.3562966  27.1096004  44.0320850  64.4769381  27.1414202
  44.4050533  63.8898771  27.5034588  34.0318010  72.1752761  26.4222924
  34.3464569  72.9889150  26.4300706  34.4411424  71.7902980  27.0905083
  34.1386108  72.2381464  26.5227016  40.9842530  67.5922808  23.9926736
  41.4553708  68.3063071  24.1616721  41.3202708  66.9921558  24.5286606
  41.1037645  67.6094272  24.0959112  43.0719514  69.2024122  36.1718808
  43.1816480  68.4132682  36.5275555  43.4010411  69.1130058  35.3693146
  43.1371920  69.0729974  36.1061199  41.6216476  67.3840742  30.7554429
  41.0737422  66.7598626  30.4874494  42.0829505  67.5735014  30.0398508
  41.6083686  67.3199792  30.6104860  44.4310341  55.4526097  28.1405621
  43.8473329  55.9535303  27.7283189  44.7514635  54.9455653  27.5069944
  44.3923516  55.4517932  27.9864128  36.9705140  54.3666692  18.4164296
  37.7920834  54.5365004  18.1745991  36.5074791  54.5213953  17.6930594
  37.0236302  54.4148425  18.2735940  31.3731030  66.1225870  26.0701533
  31.9775888  66.0821704  25.4415353  31.1658343  66.9697022  26.1005588
  31.4319928  66.2413872  25.9817649  41.1874803  68.3891815  27.2863770
  42.0073176  68.2454781  27.5480065  40.9068880  69.0138014  27.8280208
  41.2671546  68.4602167  27.4051709  26.6082313  65.1060487  25.9400456
  26.5106591  64.2956759  26.2490512  27.3911182  65.0852281  25.5546724
  26.7098449  64.9827578  25.9287319  50.8588138  75.1332318  25.0059577
  50.0026033  75.2940816  25.0568694  50.9055791  74.2624382  25.0264638
  50.7387249  75.0283120  25.0165643  53.7039959  77.1924362  27.6491228
  54.2495919  77.8709448  27.7085198  53.6456835  77.0511822  26.7892810
  53.7755873  77.2716363  27.5303289  42.3169165  72.8719445  25.5596222
  41.6974197  72.2812092  25.3906237  42.2153029  73.4630880  24.9260545
  42.2106841  72.8723527  25.4401212  49.4137061  74.6118987  19.8928685
  50.1117226  74.7907114  20.3850149  49.7289394  74.0889326  19.2699075
  49.5632398  74.5612759  19.8730695  42.0438298  76.4171727  27.8039791
  41.9196995  77.0034172  28.4389610  42.6956583  75.9231922  28.1052066
  42.1211948  76.4310531  27.9425721  47.0696639  79.5933444  27.0827302
  47.7145642  79.1005887  26.7638251  47.3098416  79.7358230  27.9093381
  47.2007224  79.5410886  27.1576836  47.5863925  69.9811383  23.9749960
  47.2567255  70.4322527  23.3053659  46.9108926  69.9027547  24.5222966
  47.4374361  70.0362519  23.9573183  54.7940332  65.9696906  22.2199571
  54.4793773  66.6600385  22.6519993  54.2767274  65.9141689  21.5185071
  54.6704803  66.0631795  22.1796520  45.7919879  68.0423672  19.4572908
  46.5465847  68.4101989  19.2189958  45.6147413  68.4163226  20.2252087
  45.8774357  68.1521860  19.5357796  59.0854777  74.1918112  27.5020447
  58.2483198  74.2620299  27.7368041  59.0543008  74.1942607  26.6294749
  58.9573060  74.2028339  27.4079995  45.4819506  76.3351148  33.2168816
  45.6540010  76.2257043  34.0654097  46.0188864  76.9805553  32.9800008
  45.5864510  76.4143150  33.3073912  44.1476943  70.4493991  16.1551021
  43.9652517  70.6665872  15.3292013  45.0102556  70.5633003  16.2109635
  44.2481533  70.4983889  16.0405508  49.8276662  67.4520401  19.1900044
  50.5562823  67.2736356  18.7438201  49.9171555  68.2938481  19.4007223
  49.9483325  67.5504280  19.1553562  53.8084963  78.3873789  23.0932338
  54.5642478  78.8205303  23.1321247  53.9147288  77.7378559  23.6666974
  53.9355134  78.3551273  23.1830364  39.7881223  78.9283079  28.0521736
  39.5219639  78.1122196  28.2112726  39.8019787  78.9736235  27.1817251
  39.7505946  78.8139984  27.9475218  56.7662617  69.2560894  26.0864169
  57.4088526  69.3258998  26.6726085  57.0185638  68.5890117  25.5843711
  56.8984749  69.1687243  26.0991449  43.6938970  73.7268163  14.6673494
  42.9797147  73.4406343  15.0795926  44.1782939  74.0664789  15.3079881
  43.6598334  73.7349813  14.8229129  44.5379830  72.4661457  30.6988743
  43.8451626  71.9958437  30.9449475  45.1540157  72.2399762  31.2730450
  44.5264360  72.3628589  30.8197896  43.2620389  76.4326861  31.8415589
  43.9860361  76.4179892  32.3280483  43.3636525  77.1422216  31.3437557
  43.3838598  76.5351564  31.8394375  50.6365338  79.9125946  36.7064536
  49.8438319  80.2269458  36.8917155  50.7514265  80.1277414  35.8685320
  50.5360749  79.9909783  36.6102870  53.3096657  76.6359937  20.9959551
  53.4043511  77.3749231  21.4499177  52.6855501  76.2077412  21.4294116
  53.2305687  76.6821258  21.1267699  51.5649131  79.8146150  31.6449832
  52.1387993  79.1773394  31.7998396  51.4863935  79.8150232  30.7759490
  51.6382366  79.7211261  31.5396243  40.1645547  76.5935359  25.4832546
  40.7419050  76.4571810  26.1224792  39.4659609  76.1371143  25.7378131
  40.1466569  76.5057625  25.6154836  46.9212849  78.2469415  23.6971030
  46.6632094  77.4141150  23.6702329  46.9761332  78.4727028  22.8563530
  46.8912627  78.1567186  23.5691166  52.0013900  70.3497865  23.7975122
  51.2970226  69.8607051  23.9559042  52.0498874  70.3620340  22.9263567
  51.9043951  70.2787513  23.6914462  45.8947562  75.8007177  24.1835924
  45.3197153  75.9599346  24.8199885  45.5183238  75.1642586  23.7204375
  45.7550374  75.7304990  24.2090483  49.5620850  74.2730526  29.0428303
  49.1735283  73.8484744  28.3880494  48.8975549  74.5212676  29.5505329
  49.4067778  74.2469248  29.0216171  59.2044119  74.0305531  21.8176133
  58.9480684  73.2185473  21.6274016  60.0473433  74.0383098  21.5906320
  59.2910145  73.9117529  21.7560950  35.6404381  75.4447252  22.1980365
  35.7264632  75.0679120  22.9793895  36.2680178  75.0707698  21.7200323
  35.7460932  75.3332734  22.2425842  53.3847212  67.9705155  26.5552287
  53.7657724  67.2883326  26.9420161  52.5810496  67.6814757  26.3727952
  53.3223674  67.8272204  26.5856343  47.3439052  70.4759353  36.4214896
  47.0292493  71.2458916  36.1584458  47.0228985  69.9129610  35.8367122
  47.2497971  70.5069622  36.2956245  44.8970949  68.8649875  22.0361092
  44.0293375  68.9372474  22.1018701  45.1846154  69.6671954  22.2249067
  44.8110697  68.9944022  22.0735858  54.0203838  69.0127734  30.3672414
  54.7657430  68.8237545  29.9535839  53.6041143  69.5385972  29.8086270
  54.0688812  69.0629880  30.2236987  48.0488500  80.2175560  29.8637812
  47.5500193  80.9291328  29.9422701  48.8588724  80.5376227  29.8255974
  48.0944606  80.3702409  29.8694381  44.3116617  79.4798513  24.1100533
  44.0229866  78.8535984  24.6446260  45.1799965  79.4218801  24.1765213
  44.3976869  79.3786057  24.1991488  55.0994515  74.6233297  24.4282515
  54.7559281  73.9023632  24.7789764  55.1987558  74.4147148  23.5860873
  55.0636558  74.4857500  24.3554195  46.9755558  73.0756605  35.1600110
  46.1655333  73.3814384  35.0489953  47.4530244  73.7962187  35.2752694
  46.9259036  73.2271206  35.1607181  42.8238301  72.3408134  19.4777968
  42.5363097  71.9709405  18.7409915  43.5108770  72.8102990  19.2161673
  42.8827199  72.3555104  19.3293044  47.2613443  79.3206345  20.8064504
  47.0656226  79.9281079  20.2124807  47.4847788  78.6274289  20.3256178
  47.2648084  79.3083870  20.6480585  45.6591973  76.2061082  20.9245373
  46.3814625  76.3702241  20.4649179  45.1799966  76.9270747  20.8184713
  45.6955704  76.3359312  20.8410987  53.6185480  72.5424881  26.3042058
  52.7796581  72.5686160  26.0680321  53.6889848  73.1895617  26.8847404
  53.5053874  72.6421007  26.3551175  43.3099590  78.6119155  30.0299513
  43.8220687  78.8903408  29.3808272  43.0235932  79.3508449  30.3962326
  43.3434453  78.7621509  29.9889391  52.0654759  69.4410258  21.0369674
  52.7681112  69.2418007  20.5589632  51.7998947  68.6686201  21.3438517
  52.1301391  69.2973224  21.0115115  57.4943004  77.7492868  23.5903300
  57.4076979  77.9048294  24.4438078  57.0393484  78.3930944  23.2162705
  57.4146261  77.8668623  23.6610406  40.3966496  73.1189347  20.3263249
  40.4982632  73.9215508  20.6544225  41.1922383  72.9176683  20.0286330
  40.5294402  73.2075246  20.3298605  46.8283315  70.7045543  30.0900554
  46.6366512  70.7200678  30.9399978  47.6781911  70.9009218  30.0667209
  46.9259037  70.7359895  30.2123849  41.2130228  73.2336525  28.0684371
  41.0715720  72.3820466  28.1928879  41.4970791  73.2765186  27.2446577
  41.2338074  73.1136275  27.9651995  51.3668820  75.0703615  22.2128859
  51.1203535  74.9899366  23.0465648  51.6953943  74.2857083  22.0191387
  51.3790064  74.9429880  22.3076382  53.5994954  78.0783350  32.2538022
  53.5942993  77.2063166  32.2580448  54.3055948  78.2771519  31.7807478
  53.7039958  77.9787224  32.1845057  47.3265848  77.8060334  31.6251842
  47.4709223  78.3861542  30.9894952  47.6741496  78.1836630  32.3301697
  47.3993309  77.9481038  31.6350837  49.4985765  77.0050502  29.4076974
  48.7509079  77.1981516  29.0025252  49.6527290  76.1795722  29.1701095
  49.4108193  76.9115614  29.3122380  49.7387542  70.9001053  30.2972377
  50.1960156  71.6325027  30.4245170  49.8143871  70.4767518  31.0559633
  49.8178512  70.9458291  30.4273454  41.9820533  71.1466873  31.3861821
  41.4462723  70.5347231  31.7022588  42.0438298  71.7215009  32.0395488
  41.9116166  71.1413800  31.5297248  54.2114868  64.0790928  24.1666220
  54.3298436  64.5367391  23.4333523  54.0377044  63.2736189  23.8802438
  54.2034039  64.0284700  24.0167154  47.6169920  72.8903157  27.1414201
  46.8265995  72.7094617  27.4631537  48.0130543  72.1130109  27.1244496
  47.5586796  72.7490618  27.1866750  53.0013606  80.5245587  24.8673647
  52.3258608  80.2930819  25.3687034  53.0105982  79.9166770  24.2415752
  52.9032111  80.4004512  24.8489800  50.1307750  75.3663416  31.6237700
  50.0666891  76.2273372  31.4957837  50.2704938  75.0495409  30.8233252
  50.1423220  75.4463583  31.4865913  48.8126844  78.0595555  25.7653903
  48.3889093  78.2600054  25.0292922  48.6371699  77.2124403  25.8778203
  48.7237725  77.9644337  25.6727593  44.1009289  78.5547607  21.1981876
  44.2573908  78.4894409  22.0537868  44.4409882  79.3296159  20.9860555
  44.1742524  78.6596805  21.2936470  51.7877703  72.8241795  30.1197539
  52.0019673  72.1852709  29.5660893  51.1711602  73.2687619  29.6905401
  51.7283032  72.7951938  29.9747971  40.6743551  75.7382557  21.5142643
  41.0542515  76.1567102  20.8502910  40.0998915  76.3196013  21.8211486
  40.6454875  75.8860416  21.4619384  53.9516791  74.4330860  31.0580847
  53.1393473  74.1256750  31.1394019  54.4106726  73.9529860  31.6223559
  53.8997176  74.3167352  31.1535441  51.1792432  65.9341730  25.1084882
  50.3085990  65.9080452  25.0618192  51.4332773  65.7618923  24.2910728
  51.0885992  65.9051874  24.9805019  51.0470299  75.8390931  35.8409549
  51.5169930  76.4633048  36.2277423  51.0932179  75.1707907  36.4002764
  51.1238174  75.8325612  35.9809620  48.2041572  67.9447959  26.5658353
  47.6880061  67.2528150  26.6909932  47.6435501  68.6118736  26.5120951
  48.0448085  67.9411216  26.5764419  50.2733806  68.4840919  28.3951205
  49.8865559  68.5089950  29.1764735  49.7866743  67.9182598  27.9425722
  50.1446315  68.4036670  28.4439109  56.2483785  75.0503574  27.0190907
  55.8211393  74.9629922  26.2639007  55.6109838  75.1581349  27.6045751
  56.0913392  75.0536234  26.9936349  49.9390947  65.3707904  30.6861465
  50.5684065  65.9068204  30.4082535  50.1076810  65.2785263  31.5375031
  50.0568742  65.4369267  30.7709993  49.7404862  70.1579099  32.9587877
  50.5678292  69.8864248  33.0146491  49.7612708  70.9539941  33.3151695
  49.8657712  70.2358853  33.0203060  41.7949919  74.9262499  23.9742888
  41.4006617  75.0005511  23.1992998  41.2390036  75.3120445  24.5251250
  41.6552731  74.9944273  23.9410548  53.4314866  67.9043793  23.6546767
  53.6364459  67.8366101  24.5003764  53.1041290  68.7102614  23.5867944
  53.4130114  68.0129733  23.7706422  48.1291017  75.2324361  25.3955735
  47.8254154  74.6780349  25.9966143  47.4270438  75.4116571  24.9083769
  47.9807227  75.1769143  25.4125441  47.1857114  72.5424881  19.9600437
  47.4616848  71.8243793  19.5478004  47.7855783  73.1409801  19.7521543
  47.3150379  72.5245252  19.8681198  56.6848554  68.4575557  23.1349532
  56.0722867  68.9445959  23.5203264  56.7812728  67.7819048  23.6787184
  56.6086451  68.4293866  23.2728391  50.6867635  70.2138398  18.2347032
  51.1411381  70.3848959  18.9594876  51.1607680  69.6006509  17.8344807
  50.8235955  70.1489283  18.2820793  44.2083160  79.6986724  27.5649770
  43.6171093  80.3396222  27.5352785  44.9704184  80.1224341  27.5381070
  44.2331421  79.8562563  27.5564917  44.6043783  70.8588722  28.2317788
  45.0645264  70.9327651  28.9692912  44.6499890  71.6569976  27.8817609
  44.6794338  70.9882869  28.2890544  46.2527133  71.5255417  32.7989815
  45.8612698  70.8788764  33.2345593  46.4212995  72.1166852  33.4184070
  46.2198043  71.5169685  32.9552521  48.0280655  76.9180933  19.3392039
  48.7722700  77.3055209  19.5774989  48.1741351  76.0738358  19.5032527
  48.1591240  76.8511405  19.3986009  49.9460230  68.7131191  24.3723900
  49.0996275  68.8853999  24.2465250  49.9431362  67.9080535  24.7089729
  49.8207380  68.6192220  24.4035027  51.0158530  72.4906406  25.2385958
  50.5418485  71.9648168  25.7491269  51.3876666  71.9435879  24.6700820
  51.0008419  72.3322402  25.2301106  41.3931561  74.4877913  30.6069504
  42.2557174  74.3873622  30.5206834  41.0623344  73.9072622  30.0455076
  41.4716757  74.3869539  30.5114910  57.2795261  77.5508782  26.6492739
  57.0393484  76.7115197  26.6535165  57.7587268  77.6308948  27.3733512
  57.3147445  77.4390181  26.7567541  59.2800448  74.3310239  24.6021998
  59.0410218  74.2906073  23.7642783  59.4434349  75.1781391  24.7287719
  59.2690751  74.4502324  24.4975480  55.8846478  78.7160188  30.5327043
  56.6080677  78.2632714  30.3538063  55.6196440  78.9964854  29.7499371
  55.9527751  78.6911157  30.3905758  44.7533347  73.3120362  27.2679922
  44.1286417  73.3238754  26.6605875  44.4178941  73.7880537  27.9171162
  44.6118838  73.3838879  27.2736491  51.6665268  78.8144066  28.6822058
  51.0522261  78.2702117  28.9770693  52.1832553  78.3008303  28.2027874
  51.6520930  78.6580475  28.6546287  50.9061565  79.8848336  26.4166357
  50.4789173  79.2598055  25.9831792  50.8986509  79.6023258  27.2425364
  50.8420706  79.7501117  26.4746184  44.0224092  74.9213509  29.4854791
  44.1817579  74.1656834  29.8906513  43.8416986  75.4704449  30.1395528
  44.0189451  74.8907323  29.6417497  51.9644395  67.0874745  30.0405580
  51.4684956  67.2838419  29.3497147  52.7213457  67.4867413  29.8694382
  52.0031220  67.1752479  29.9125717  49.2347275  70.7617091  26.6308891
  49.2589762  70.2277203  25.9421671  49.4858748  70.2534400  27.2934481
  49.2757193  70.6077995  26.6273535  45.5148597  69.4887909  26.0114635
  45.5546968  69.9897116  26.7249343  44.6898261  69.5798303  25.7420558
  45.3988123  69.5769725  26.0765173  47.6978210  79.0548649  34.1134930
  46.8473840  79.1920363  34.2492575  47.8606337  78.3212427  34.5582631
  47.5962073  78.9662750  34.1990529  46.9362960  76.0048419  28.3088534
  46.1054890  76.1722237  28.1023782  46.8814477  75.6284370  29.0937419
  46.8052375  75.9738150  28.3937062  44.7446743  69.4957312  33.9444945
  45.3699447  68.9519445  34.2174377  44.2897223  69.0152229  33.3752735
  44.7695004  69.3446793  33.9006539  45.3099004  74.2804010  18.8378652
  45.4501965  74.7776475  19.5407293  45.8081537  73.5790305  18.9792865
  45.4040085  74.2505989  18.9630231  46.9178209  71.0785097  16.1416671
  47.2394050  70.5988179  15.4875933  47.1805153  71.8884743  15.9507482
  47.0044235  71.1274995  16.0172163  52.3137364  70.4657291  28.5040150
  52.7392436  70.0129817  27.8923676  51.6994357  69.9117362  28.7804937
  52.2866010  70.3171267  28.4545175  41.8452214  77.3438962  19.4360775
  42.3544444  77.9403470  19.8172080  42.3186487  77.0764936  18.7537194
  41.9895590  77.3924778  19.3915297  50.7531587  66.9372391  21.9130727
  50.1099905  66.7870037  22.4815865  50.4130994  66.6914736  21.1479831
  50.6076664  66.8784513  21.8833742  55.3430933  74.8931817  21.3360735
  54.6722123  75.4361520  21.2073801  56.0370684  75.3626673  21.0942430
  55.3459801  75.0430089  21.2816263  55.5059061  71.3487701  24.2451109
  55.8586671  70.9217424  24.9196907  54.6473862  71.2638545  24.3752185
  55.4308506  71.2732442  24.3646119  44.2042746  73.9795221  22.3033955
  43.4854735  74.3959353  22.5706819  44.5755108  74.5449460  21.7525593
  44.1534678  74.1244502  22.2616762  53.5042327  74.6123070  28.1935951
  53.4840254  74.4306365  29.0470730  53.5521527  75.4835088  28.1695534
  53.5076968  74.7139608  28.3159246  51.4488657  81.2010262  34.1184427
  51.4084511  80.5559939  33.5329583  52.2611975  81.1446879  34.4309839
  51.5631810  81.0969229  34.0781377  49.9789320  73.0193221  17.6407335
  49.3854160  73.3410217  17.0891902  50.0164598  72.1734316  17.4328441
  49.8963709  72.9417549  17.5290106  56.9383121  66.4706113  25.1735421
  56.4313986  65.7635253  25.1056599  57.7350555  66.1399302  25.3036498
  56.9810360  66.3179264  25.1834416  52.8547137  72.9772725  21.0709085
  52.6260830  73.0005427  20.2287443  53.1145213  72.1530192  21.1904095
  52.8593325  72.8588805  20.9634282  47.1366365  74.8307198  30.6734185
  46.6245268  74.2228381  31.0319216  46.9645861  75.5463791  31.1408161
  47.0356002  74.8470498  30.7950409  41.9832080  73.2744774  33.3236547
  41.8134670  73.9346148  32.7784753  41.5398030  73.4851335  34.0449036
  41.8931414  73.4030756  33.3498176  45.9091899  71.5149272  22.3663280
  46.3849266  71.8766351  21.7313462  45.4080499  72.1705739  22.6463423
  45.9057258  71.6643460  22.3140021  51.0135436  72.7531443  33.1136441
  51.5706866  72.5245252  32.4814906  50.6896501  73.5137109  32.8371653
  51.0481846  72.8315280  32.9792938  38.8834145  76.1791639  28.5825037
  38.3360864  75.5092285  28.7005905  39.6726523  75.8121487  28.6468504
  38.9186328  76.0256626  28.6093737  48.7318553  75.8399096  34.0788448
  49.4829880  76.1550773  34.3928002  48.9241129  75.6378267  33.2522369
  48.8709967  75.8566478  34.0031843  55.5803843  71.9672663  21.3212243
  55.5798070  71.8121319  22.1796519  55.3760023  72.8135650  21.2653629
  55.5503621  72.0693283  21.4400182  37.6421114  75.3912447  25.7371060
  37.4642875  74.9389056  26.4625975  37.3540136  76.1938608  25.9209537
  37.5734067  75.4435005  25.8714563  53.3044695  76.6470164  24.9748450
  53.7998360  75.9293159  24.9352470  52.4944471  76.3440962  24.8602937
  53.2588588  76.4967811  24.9522176  39.3793584  77.9240171  22.8492819
  38.5139103  77.9125861  22.7375590  39.4792400  77.7370394  23.6963958
  39.2667751  77.8946232  22.9581763  55.3696514  79.3973852  27.6625579
  55.7951586  78.8748274  27.1096004  55.0053434  79.9954689  27.1414202
  55.3783117  79.4084079  27.5034588  48.8744608  67.8835587  30.9484831
  49.0072514  67.0866580  31.2765807  49.2589761  68.4101990  31.5283107
  48.9500937  67.8435503  31.0828334  51.9476964  64.8065913  27.5465924
  51.1422927  64.6963642  27.8633763  51.8183699  64.9078368  26.6895790
  51.8097096  64.8049583  27.4673965  55.4042924  70.9711405  28.1405621
  54.8205913  71.4720611  27.7283189  55.7247218  70.4640961  27.5069944
  55.3656099  70.9703240  27.9864128  46.5333055  67.8794762  29.1962725
  47.0777468  67.5385889  29.7867066  46.5869991  68.7380223  29.3384009
  46.6222175  67.9550021  29.3044598  20.9434927  11.7841051  21.5460080
  21.6501695  11.2893081  21.6747014  21.1322863  12.2250132  20.8162738
  21.0762833  11.7759401  21.4569125  18.0827222  15.2068587  19.4374155
  18.1710568  15.0194728  20.2852365  18.5116934  14.5606017  19.0379002
  18.1589324  15.0831595  19.5045906  15.6497682  14.4899747  18.4191817
  15.0868516  14.0772357  18.9431478  16.4118705  14.4152653  18.8384960
  15.6792130  14.4177148  18.5584818  18.1947281  14.6377606  22.1017939
  18.9787698  14.7508454  22.4673681  17.9943876  13.8118743  22.2976624
  18.2813306  14.5324326  22.1852325  18.3517674  16.5487708  15.7484394
  17.5532920  16.3087208  16.0058263  18.8003686  16.6002101  16.4951442
  18.2992286  16.5210099  15.8969318  17.4118411  10.2948153  23.6404582
  16.6191392  10.6091665  23.8257202  17.5267338  10.5099622  22.8025367
  17.3113822  10.3731990  23.5442917  18.3402204  10.1968357  18.5789879
  18.9141066   9.5595601  18.7338443  18.2617008  10.1972439  17.7099537
  18.4135439  10.1033468  18.4736290  23.6622352  11.5677335  18.5874732
  23.4260989  10.7365399  18.4686793  24.3065581  11.5162942  19.1729577
  23.7217023  11.4375023  18.6560626  24.6858773  11.3521783  14.6503027
  24.3804590  12.0849840  15.0116342  23.9664988  10.9459713  14.3695813
  24.5346115  11.4003516  14.6616164  30.3860565   7.9914784  13.9771371
  30.3185065   8.0110743  13.1073958  30.3716227   8.8345111  14.2027042
  30.3739321   8.1188519  13.8823848  20.3748028   8.4605557  19.1878069
  20.3696066   7.5885374  19.1920495  21.0809021   8.6593726  18.7147524
  20.4793032   8.3609431  19.1185104  15.6999976  16.5499956  16.7037407
  15.6243648  15.8808766  17.2588195  15.6289836  17.2517744  17.2178073
  15.6780583  16.5544863  16.8614255  15.0891611  19.9568276  15.1615407
  15.5787541  19.2579065  14.9791072  14.5175843  19.6592146  15.7491465
  15.0776141  19.8094499  15.2216448  21.2858614  12.5230345  24.1142198
  22.0993480  12.2515494  24.2747331  21.1253581  12.2237885  23.3102394
  21.3828563  12.4385271  24.0187604  17.8223372   6.2213139  22.7749596
  18.2923003   6.8455255  23.1617470  17.8685252   5.5530114  23.3342810
  17.8991248   6.2147819  22.9149667  21.2979858  13.5836635  19.3865039
  21.9359579  13.0896831  19.0527495  20.6553950  13.5114036  18.8017265
  21.2974085  13.4995644  19.2507394  21.3534115  14.2756444  16.0270395
  22.1426493  13.9245508  16.1472477  21.5277713  15.0892832  15.7647029
  21.4954397  14.3442301  16.0058263  27.1026655   9.9114701  15.4967095
  27.1609778  10.3601350  16.2427072  26.4693122  10.3213514  15.0597175
  27.0177950  10.0388436  15.5419644  22.6599551   9.0982395  17.4667090
  23.3833750   8.6454922  17.2878110  22.3949514   9.3787061  16.6839418
  22.7280825   9.0733364  17.3245805  14.4731283   9.4370856  21.0474976
  13.6226913   9.5742571  21.1832621  14.6359411   8.7034635  21.4922678
  14.3715146   9.3484958  21.1330576  25.0934865   8.0608806  15.9697640
  25.6852706   8.7006057  16.0015838  25.5293860   7.3631843  16.2589706
  25.2453297   8.0527157  16.0178472  16.9228255  12.4826179  16.5955534
  16.4153346  13.0362025  17.0396164  16.6254901  12.5434469  15.7774308
  16.8033140  12.5732490  16.5403990  18.2241730  11.5832469  21.0524474
  18.1837585  10.9382146  20.4669630  19.0365048  11.5269086  21.3649886
  18.3384883  11.4791436  21.0121423  15.5071626   6.2221304  21.0128494
  16.2582953   6.5372980  21.3268049  15.6994203   6.0200475  20.1862416
  15.6463040   6.2388685  20.9371890  20.8205171  15.1031637  23.1058855
  20.9302137  14.3140197  23.4615602  21.1496068  15.0137573  22.3033193
  20.8857577  14.9737490  23.0401246  19.3702133  13.2848258  17.6894476
  18.8223079  12.6606141  17.4214541  19.8315162  13.4742530  16.9738555
  19.3569342  13.2207308  17.5444907  18.9360459  14.2899330  14.2203817
  19.7558833  14.1462296  14.4820112  18.6554537  14.9145529  14.7620255
  19.0157203  14.3609682  14.3391756  35.4074110  21.9464182   7.1846693
  35.3768114  22.8008819   7.3564963  36.0055458  21.6459475   7.7432837
  35.4911268  22.0280679   7.2921495  28.6073795  21.0339833  11.9399624
  27.7511690  21.1948331  11.9908740  28.6541448  20.1631897  11.9604685
  28.4872906  20.9290635  11.9505690  22.9914934  30.5702551   7.7036855
  22.2397834  30.1918089   7.4752900  23.4400946  30.6020985   6.9555665
  22.9464601  30.5188158   7.5594357  31.9167511  27.3026359  21.5460080
  32.6234278  26.8078389  21.6747014  32.1055446  27.7435440  20.8162738
  32.0495417  27.2944709  21.4569125  28.4439894  30.9927920   3.1322402
  28.1091263  31.6704842   2.6966624  28.9566765  30.6033232   2.5439274
  28.4705475  31.0352499   2.9809194  27.9844185  32.9442189   9.0733514
  28.3683565  33.5129088   8.5338289  27.9203327  32.2191699   8.5939330
  28.0317613  32.9217653   8.9227376  31.4525616  23.0931877  14.5831275
  31.9981576  23.7716964  14.6425245  31.3942492  22.9519338  13.7232857
  31.5241530  23.1723879  14.4643336  24.5699690  30.5820943   9.9699628
  24.6710053  29.7721297  10.2796755  23.9741436  30.4877889   9.3399306
  24.4972229  30.4485971   9.9225866  33.2290684  24.5216484   5.4565003
  33.1130210  25.2724170   5.8857141  34.0246571  24.2640437   5.7061090
  33.3295274  24.5951331   5.5569095  24.4100430  35.4998532  11.3714484
  25.0537885  35.9411696  11.7610642  24.7356686  34.6951958  11.2844742
  24.5532259  35.4463727  11.4159961  17.7664735  26.6041230   9.5951961
  17.5314919  25.7708882   9.4884230  17.9050375  26.8845895   8.7813162
  17.7520397  26.5224733   9.4594316  20.0654822  18.7726960  12.4936269
  19.4459854  18.1819607  12.3246284  19.9638686  19.3638395  11.8600592
  19.9592498  18.7731043  12.3741259  25.1121010  28.5110507   6.7434345
  25.4336851  29.0515714   6.1395654  25.7593106  27.9407278   6.8756635
  25.2547065  28.5069682   6.6741381  19.7923955  22.3179242  14.7379838
  19.6682652  22.9041687  15.3729657  20.4442240  21.8239438  15.0392113
  19.8697605  22.3318046  14.8765767  27.3510653  26.8996947   6.8148524
  27.7904289  26.2914048   7.2603296  27.2015316  26.5204320   6.0433989
  27.3932119  26.7535418   6.7667691  24.8182296  25.4940959  14.0167349
  25.4631299  25.0013402  13.6978298  25.0584073  25.6365745  14.8433427
  24.9492881  25.4418401  14.0916882  27.3568388  28.3395865  13.6674242
  27.6391630  27.5447270  13.4460998  28.0854548  28.8176452  13.6879303
  27.5057951  28.2930462  13.6377257  25.3349581  15.8818899  10.9090007
  25.0052911  16.3330042  10.2393706  24.6594583  15.8035062  11.4563013
  25.1860018  15.9370034  10.8913230  30.9519990  25.2524128   3.7679293
  30.8671285  26.1085095   3.9128862  31.4404373  24.9768452   4.4361452
  31.0108887  25.3381450   3.8881374  31.8838423  21.8708923   5.2677028
  31.3549894  22.0868556   5.9274334  32.4063443  22.5645061   5.1877997
  31.8826876  22.0052059   5.3532627  37.3386476  27.4455227  10.6410072
  36.5084179  27.6565871  10.8043489  37.2895728  26.6192282  10.3652356
  37.2093211  27.3544833  10.6247438  19.3282059  31.4826900  10.8708168
  18.8449638  32.2077390  10.8467751  20.1405378  31.7803030  10.9818325
  19.3772807  31.6329254  10.8835447  25.3996213  30.2759081  13.4757982
  24.8823155  29.9166496  12.8719290  26.0970605  29.7521256  13.4864048
  25.4261795  30.1456769  13.3888241  29.0559805  30.7253895  19.4374155
  29.1443151  30.5380036  20.2852365  29.4849518  30.0791325  19.0379002
  29.1321908  30.6016903  19.5045906  26.6230265  30.0085055  18.4191817
  26.0601100  29.5957665  18.9431478  27.3851289  29.9337961  18.8384960
  26.6524714  29.9362456  18.5584818  22.1826257  31.9983076  11.0228447
  22.8846836  31.4835065  11.0801204  22.1023740  32.3257228  11.8275322
  22.2750017  31.9697303  11.1501240  36.8340434  20.0925628  14.4360494
  35.9968855  20.1627815  14.6708088  36.8028665  20.0950122  13.5634796
  36.7058717  20.1035855  14.3420042  23.2305163  22.2358663  20.1508862
  23.4025667  22.1264558  20.9994144  23.7674521  22.8813069  19.9140055
  23.3350167  22.3150665  20.2413959  21.5077032  28.1889428  10.5314055
  22.3465931  28.4212361  10.5787817  21.5388801  27.3193740  10.4621091
  21.6358750  28.0946375  10.5278700  22.1329735  28.6090304  14.8327361
  22.6727960  28.4661435  15.5030733  21.4499681  29.0087054  15.2011387
  22.1121889  28.6469974  14.9861783  31.5570620  24.2881304  10.0272385
  32.3128135  24.7212818  10.0661294  31.6632944  23.6386074  10.6007021
  31.6840791  24.2558788  10.1170411  34.5950791  28.1154581  10.7774788
  34.1586023  28.1191324  11.5333760  34.2613707  28.7960080  10.3454366
  34.4813411  28.2167037  10.8255621  29.1679865  30.1562914  22.1017939
  29.9520281  30.2693762  22.4673681  28.9676459  29.3304051  22.2976624
  29.2545890  30.0509634  22.1852325  17.5366880  24.8290594  14.9861782
  17.2705295  24.0129711  15.1452773  17.5505444  24.8743750  14.1157298
  17.4991602  24.7147499  14.8815264  34.5148274  15.1568409  13.0204216
  35.1574182  15.2266514  13.6066131  34.7671295  14.4897632  12.5183758
  34.6470406  15.0694758  13.0331495  22.2865487  18.3668973  17.6328790
  21.5937283  17.8965952  17.8789522  22.9025814  18.1407277  18.2070497
  22.2750016  18.2636104  17.7537943  29.3250258  32.0673016  15.7484394
  28.5265504  31.8272516  16.0058263  29.7736270  32.1187409  16.4951442
  29.2724869  32.0395407  15.8969318  37.7295137  24.8335501   9.6694425
  38.3911571  24.2726170   9.5690334  37.0886549  24.3387532   9.9947117
  37.7324005  24.6771910   9.7026766  17.9460294  25.6149374  12.2673527
  17.7635867  25.5896260  11.4145819  18.6809963  26.0848312  12.3062435
  18.0274358  25.6810736  12.1471445  34.0159968  25.8500884   9.4106414
  34.2515557  25.9946083   8.5833265  34.1649532  26.6143292   9.8037928
  34.0725771  25.9839938   9.3470018  21.0106045  22.3334377  18.7755635
  21.7346018  22.3187407  19.2620530  21.1122182  23.0429732  18.2777604
  21.1324255  22.4359080  18.7734422  35.8450425  24.6902550   7.2476018
  36.1758642  25.2230190   6.6416113  36.4183513  24.7441437   7.9037969
  35.9784104  24.7772118   7.2553800  31.0582314  22.5367452   7.9299598
  31.1529168  23.2756746   8.3839224  30.4341157  22.1084928   8.3634163
  30.9791344  22.5828773   8.0607746  29.3134788  25.7153665  18.5789879
  29.8873649  25.0780909  18.7338443  29.2349591  25.7157747  17.7099537
  29.3868023  25.6218776  18.4736290  17.9131204  22.4942874  12.4172593
  18.4904707  22.3579325  13.0564839  17.2145266  22.0378659  12.6718178
  17.8952226  22.4065141  12.5494883  24.6698506  24.1476930  10.6311077
  24.4117751  23.3148665  10.6042376  24.7246989  24.3734543   9.7903577
  24.6398284  24.0574701  10.5031213  29.7499556  16.2505381  10.7315169
  29.0455883  15.7614566  10.8899088  29.7984531  16.2627855   9.8603614
  29.6529608  16.1795029  10.6254509  23.6433218  21.7014693  11.1175971
  23.0682810  21.8606861  11.7539932  23.2668895  21.0650102  10.6544422
  23.5036031  21.6312505  11.1430530  27.3106507  20.1738042  15.9768350
  26.9220940  19.7492260  15.3220541  26.6461205  20.4220191  16.4845376
  27.1553435  20.1476763  15.9556218  36.9529776  19.9313046   8.7516180
  36.6966341  19.1192988   8.5614063  37.7959090  19.9390614   8.5246367
  37.0395802  19.8125044   8.6900997  31.1332869  13.8712671  13.4892334
  31.5143380  13.1890842  13.8760208  30.3296153  13.5822273  13.3067998
  31.0709330  13.7279719  13.5196390  34.6354935  27.0862643  18.5874732
  34.3993573  26.2550707  18.4686793  35.2798164  27.0348250  19.1729577
  34.6949606  26.9560330  18.6560626  24.2853354  27.8758164   9.3017469
  24.9227301  27.6369911   9.8469262  24.7108425  28.0795323   8.5670629
  24.4429520  27.8709174   9.2734626  18.9765996  30.1146500  13.1851773
  19.0170141  30.3861351  12.3571552  19.5360520  30.6388408  13.6009560
  19.0649342  30.2322255  13.1243661  25.0924709  16.3766869  23.3554942
  24.7778150  17.1466432  23.0924505  24.7714642  15.8137125  22.7707169
  24.9983628  16.4077137  23.2296292  35.6591356  26.8707091  14.6503027
  35.3537173  27.6035148  15.0116342  34.9397572  26.4645021  14.3695813
  35.5078698  26.9188824  14.6616164  26.6674826  28.3530586  10.9811255
  26.7413834  28.1905758  11.8353105  27.4844332  28.5420776  10.7371737
  26.7991184  28.3567329  11.0709281  41.3593148  23.5100092  13.9771371
  41.2917649  23.5296051  13.1073958  41.3448811  24.3530419  14.2027042
  41.3471905  23.6373827  13.8823848  20.4280582  28.6988449   8.0105699
  19.6018700  28.9450186   7.8839977  20.4892573  28.6200530   8.8767757
  20.3154749  28.7233398   8.1194643  31.7689495  14.9135250  17.3012460
  32.5143087  14.7245060  16.8875886  31.3526799  15.4393488  16.7426317
  31.8174469  14.9637395  17.1577034  25.2079411  31.3165330   5.7124728
  25.4977710  30.9254311   4.9883955  25.9382892  31.4982034   6.1530004
  25.3586295  31.2859143   5.6707535  39.1451766  22.2844478  12.2517965
  39.6959687  21.6512547  12.4915058  39.1295881  22.8159871  12.9433470
  39.2236962  22.2693426  12.3896824  25.7974156  26.1183075  16.7977859
  25.2985850  26.8298843  16.8762747  26.6074381  26.4383742  16.7596021
  25.8430263  26.2709924  16.8034427  23.1485327  33.2932712   8.7784878
  22.9285622  33.0030067   9.5711545  22.9279849  32.6347667   8.2502790
  23.0832921  33.1532420   8.8173787  22.0602274  25.3806028  11.0440580
  21.7715523  24.7543500  11.5786307  22.9285622  25.3226316  11.1105260
  22.1462526  25.2793573  11.1331534  32.8480172  20.5240812  11.3622562
  32.5044938  19.8031147  11.7129811  32.9473214  20.3154663  10.5200920
  32.8122215  20.3865015  11.2894242  25.3153283  34.6662102   7.5615571
  25.9677341  34.1338544   7.7906597  24.6178891  34.3130754   7.9483445
  25.3084001  34.5351625   7.6527738  22.2634547  27.0201280   6.9682945
  23.0180515  27.4014319   7.1818407  21.6705160  27.4712423   7.4229641
  22.2871261  27.1430107   7.0665823  33.3093201  26.9866516   6.9046550
  33.8751234  27.6459726   6.8205093  32.6621104  27.3316214   7.3762952
  33.2971957  27.1348457   6.9619306  24.7241214  18.9764120  22.0940157
  23.9140990  19.2821900  21.9829999  25.2015901  19.6969702  22.2092741
  24.6744693  19.1278721  22.0947228  23.5832774  28.1909841  12.3423060
  23.0613528  28.3310133  13.0274925  23.9706794  27.4320505  12.5325178
  23.5636475  28.0995365  12.4724137  29.7799779  29.9305300   6.3283629
  29.5386455  29.1973161   5.9210694  29.9601112  30.4792157   5.6749962
  29.7707403  29.9027691   6.1713852  25.0099100  25.2213860   7.7404551
  24.8141882  25.8288594   7.1464854  25.2333445  24.5281804   7.2596225
  25.0133741  25.2091385   7.5820632  23.4077630  22.1068598   7.8585420
  24.1300282  22.2709756   7.3989226  22.9285622  22.8278263   7.7524759
  23.4441360  22.2366827   7.7751034  31.3671137  18.4432397  13.2382105
  30.5282238  18.4693675  13.0020368  31.4375505  19.0903132  13.8187451
  31.2539531  18.5428522  13.2891221  21.0585246  24.5126670  16.9639559
  21.5706343  24.7910923  16.3148319  20.7721589  25.2515964  17.3302373
  21.0920110  24.6629024  16.9229438  35.2428661  23.6500383  10.5243346
  35.1562636  23.8055809  11.3778125  34.7879141  24.2938459  10.1502751
  35.1631918  23.7676138  10.5950453  24.5768972  16.6053059  17.0240601
  24.3852169  16.6208193  17.8740025  25.4267568  16.8016733  17.0007256
  24.6744694  16.6367410  17.1463896  18.9615885  19.1344040  15.0024418
  18.8201377  18.2827981  15.1268926  19.2456448  19.1772701  14.1786624
  18.9823731  19.0143790  14.8992042  29.1154477  20.9711130   9.1468906
  28.8689191  20.8906881   9.9805695  29.4439600  20.1864598   8.9531433
  29.1275721  20.8437396   9.2416429  33.0102526  27.6794490  12.9355687
  32.8716885  28.3775536  13.4404429  32.2302524  27.5243146  12.5791869
  32.8745753  27.7594656  12.9581961  31.3480611  23.9790865  19.1878069
  31.3428650  23.1070682  19.1920495  32.0541605  24.1779034  18.7147524
  31.4525615  23.8794739  19.1185104  25.0751504  23.7067849  18.5591889
  25.2194880  24.2869057  17.9234999  25.4227153  24.0844146  19.2641744
  25.1478966  23.8488553  18.5690884  27.2471422  22.9058017  16.3417021
  26.4994736  23.0989032  15.9365299  27.4012947  22.0803237  16.1041142
  27.1593849  22.8123129  16.2462426  24.1479259  31.8970621  15.4252916
  24.2968823  31.3373537  14.7726320  24.9279262  31.9762623  15.8085435
  24.2853353  31.8256186  15.3849865  34.5055899  27.0372744   3.6972186
  34.1262708  26.2509881   3.6901476  33.8422144  27.5859601   3.5543831
  34.3514374  27.0017568   3.6752983  26.6732560  32.0685264  16.7037407
  26.5976231  31.3994074  17.2588195  26.6022419  32.7703052  17.2178073
  26.6513167  32.0730171  16.8614255  27.4873199  16.8008568  17.2312424
  27.9445813  17.5332542  17.3585216  27.5629528  16.3775033  17.9899680
  27.5664169  16.8465806  17.3613501  19.7306190  17.0474388  18.3201868
  19.1948380  16.4354746  18.6362635  19.7923955  17.6222524  18.9735535
  19.6601823  17.0421316  18.4637295  27.3302807  30.5886263   7.5361013
  28.0952698  30.3195906   7.2143677  27.2280897  30.1036273   8.2531075
  27.4284302  30.4775827   7.5940840  25.3655577  18.7910672  14.0754248
  24.5751651  18.6102132  14.3971584  25.7616200  18.0137625  14.0584543
  25.3072453  18.6498133  14.1206797  30.7499263  26.4253102  11.8013694
  30.0744265  26.1938334  12.3027081  30.7591639  25.8174285  11.1755799
  30.6517768  26.3012027  11.7829846  27.8793407  21.2670931  18.5577747
  27.8152548  22.1280888  18.4297884  28.0190595  20.9502924  17.7573298
  27.8908877  21.3471098  18.4205960  32.7515998  29.2818235   4.0323872
  32.8335835  30.0885221   3.7085323  33.2365740  29.3014194   4.7564646
  32.8353155  29.4038897   4.0910771  26.5612501  23.9603071  12.6993950
  26.1374750  24.1607570  11.9632968  26.3857356  23.1131919  12.8118250
  26.4723382  23.8651852  12.6067640  26.0624194  35.4753583  15.1615407
  26.5520125  34.7764373  14.9791072  25.4908427  35.1777453  15.7491465
  26.0508724  35.3279807  15.2216448  21.8494946  24.4555122   8.1321923
  22.0059565  24.3901925   8.9877915  22.1895539  25.2303675   7.9200602
  21.9228181  24.5604320   8.2276517  28.3874090  23.8313006   7.0015286
  28.9289636  23.3283387   7.4653906  28.7020650  23.7778200   6.1904771
  28.5138488  23.7492426   6.9499098  32.2591198  28.0415653  24.1142198
  33.0726063  27.7700802  24.2747331  32.0986164  27.7423193  23.3102394
  32.3561146  27.9570579  24.0187604  26.5560540  29.2230357   4.2855314
  26.6253360  28.3644896   4.4248314  27.3348995  29.4402238   3.9574338
  26.6813390  29.1283221   4.2572471  29.5363360  18.7249310  17.0537586
  29.7505329  18.0860224  16.5000940  28.9197259  19.1695134  16.6245448
  29.4768689  18.6959454  16.9088017  30.9468028  31.6468058   8.4991807
  30.5547819  31.3434774   7.7814673  31.1021100  32.4837148   8.3096761
  30.9121618  31.7251895   8.3648304  31.7002448  20.3338375  17.9920893
  30.8879130  20.0264266  18.0734066  32.1592382  19.8537375  18.5563606
  31.6482833  20.2174868  18.0875488  31.1107703  28.2118047   8.4397838
  30.7522357  28.3832690   9.2161870  30.6246413  28.6731253   7.8825836
  30.9866399  28.3057018   8.4723107  28.9278089  11.8349246  12.0424929
  28.0571646  11.8087967  11.9958239  29.1818430  11.6626438  11.2250775
  28.8371649  11.8059389  11.9145066  28.7955955  21.7398447  22.7749596
  29.2655587  22.3640563  23.1617470  28.8417836  21.0715422  23.3342810
  28.8723831  21.7333127  22.9149667  25.9527229  13.8455474  13.4998399
  25.4365718  13.1535666  13.6249978  25.3921158  14.5126251  13.4460998
  25.7933742  13.8418732  13.5104465  28.0219462  14.3848434  15.3291252
  27.6351216  14.4097466  16.1104782  27.5352400  13.8190113  14.8765769
  27.8931971  14.3044185  15.3779156  32.2712442  29.1021943  19.3865039
  32.9092162  28.6082139  19.0527495  31.6286533  29.0299344  18.8017265
  32.2706668  29.0180952  19.2507394  33.9969442  20.9511089  13.9530954
  33.5697050  20.8637438  13.1979054  33.3595495  21.0588865  14.5385798
  33.8399049  20.9543749  13.9276396  27.4890519  16.0586614  19.8927924
  28.3163948  15.7871763  19.9486538  27.5098365  16.8547456  20.2491742
  27.6143369  16.1366369  19.9543106  32.3266698  29.7941751  16.0270395
  33.1159077  29.4430816  16.1472477  32.5010296  30.6078140  15.7647029
  32.4686980  29.8627609  16.0058263  22.0660009  23.2050477  13.0798184
  21.2248015  23.1054351  13.2877078  22.2750017  23.9745957  13.4312505
  21.9724701  23.3042521  13.1625499  19.5435576  20.8270014  10.9082935
  19.1492274  20.9013026  10.1333044  18.9875693  21.2127960  11.4591297
  19.4038388  20.8951789  10.8750595  31.1800523  13.8051308  10.5886814
  31.3850116  13.7373616  11.4343811  30.8526947  14.6110129  10.5207991
  31.1615771  13.9137249  10.7046469  25.8776674  21.1331876  12.3295782
  25.5739811  20.5787865  12.9306189  25.1756095  21.3124086  11.8423816
  25.7292884  21.0776659  12.3465487  23.9395025  28.3481597  17.0367879
  23.8315380  28.3583659  17.9029938  24.1490806  29.1736377  16.8472833
  23.9545136  28.4722672  17.1371971  34.4334210  14.3583072  10.0689579
  33.8208524  14.8453475  10.4543311  34.5298385  13.6826563  10.6127230
  34.3572108  14.3301381  10.2068437  21.9568817  25.5994240  14.4989817
  21.3656750  26.2403738  14.4692832  22.7189840  26.0231857  14.4721117
  21.9817077  25.7570078  14.4904964  22.3529440  16.7596237  15.1657835
  22.8130921  16.8335167  15.9032958  22.3985546  17.5577491  14.8157656
  22.4279995  16.8890384  15.2230591  24.0012789  17.4262932  19.7329862
  23.6098354  16.7796279  20.1685640  24.1698652  18.0174367  20.3524117
  23.9683700  17.4177200  19.8892568  38.0759238  25.4300009  15.4967095
  38.1342362  25.8786658  16.2427072  37.4425706  25.8398822  15.0597175
  37.9910533  25.5573744  15.5419644  31.7158333  31.0503551  11.9321842
  31.5178022  31.5394366  11.2378053  31.0946044  31.2544793  12.5105975
  31.5945897  31.1520089  11.9145065  27.6945887  14.6138707  11.3063947
  26.8481932  14.7861515  11.1805297  27.6917019  13.8088051  11.6429776
  27.5693037  14.5199736  11.3375074  28.7644187  18.3913921  12.1726005
  28.2904141  17.8655683  12.6831316  29.1362323  17.8443394  11.6040867
  28.7494076  18.2329918  12.1641152  19.1417217  20.3885428  17.5409551
  20.0042830  20.2881137  17.4546881  18.8109000  19.8080137  16.9795123
  19.2202414  20.2877055  17.4454957  35.0280918  23.4516297  13.5832786
  34.7879141  22.6122712  13.5875212  35.5072925  23.5316464  14.3073559
  35.0633101  23.3397697  13.6907588  37.0286105  20.2317754  11.5362045
  36.7895875  20.1913588  10.6982829  37.1920006  21.0788906  11.6627766
  37.0176408  20.3509839  11.4315527  22.5019003  19.2127877  14.2019969
  21.8772073  19.2246269  13.5945922  22.1664598  19.6888052  14.8511209
  22.3604495  19.2846394  14.2076538  19.2144679  27.2728337  15.6423733
  18.6844603  26.5820776  15.6918708  19.4869772  27.2638522  14.8136442
  19.1769401  27.1695469  15.5271149  30.2464769  27.8554039   4.3661416
  30.9698968  28.3212152   4.2225989  29.8065360  27.9227649   3.6159013
  30.2880462  27.9337876   4.2346197  29.4150924  24.7151582  15.6162105
  28.8007918  24.1709632  15.9110740  29.9318209  24.2015818  15.1367921
  29.4006587  24.5587991  15.5886333  28.6547222  25.7855852  13.3506404
  28.2274830  25.1605570  12.9171839  28.6472166  25.5030774  14.1765411
  28.5906363  25.6508632  13.4086231  21.7709749  20.8221025  16.4194838
  21.9303235  20.0664349  16.8246560  21.5902642  21.3711964  17.0735575
  21.7675108  20.7914838  16.5757544  29.7130052  12.9882260  16.9745627
  29.2170613  13.1845934  16.2837194  30.4699114  13.3874929  16.8034429
  29.7516876  13.0759994  16.8465764  26.9832931  16.6624606  13.5648938
  27.0075418  16.1284718  12.8761718  27.2344405  16.1541915  14.2274528
  27.0242850  16.5085510  13.5613582  14.4940521  23.9456101  12.9992082
  14.3883970  23.9002946  12.1344166  13.7440741  24.2909882  13.2806367
  14.3676124  23.9897009  12.9129411  23.2634254  15.3895424  12.9454682
  23.3032625  15.8904631  13.6589389  22.4383918  15.4805818  12.6760605
  23.1473779  15.4777241  13.0105220  25.4463866  24.9556164  21.0474976
  24.5959497  25.0927879  21.1832621  25.6091994  24.2219943  21.4922678
  25.3447730  24.8670266  21.1330576  24.6848617  21.9055934  15.2428581
  23.8540547  22.0729752  15.0363829  24.6300134  21.5291885  16.0277466
  24.5538032  21.8745666  15.3277109  22.4932400  15.3964827  20.8784992
  23.1185104  14.8526960  21.1514424  22.0382880  14.9159745  20.3092782
  22.5180661  15.2454309  20.8346585  36.0667449  23.5794114  15.9697640
  36.6585289  24.2191365  16.0015838  36.5026443  22.8817151  16.2589706
  36.2185880  23.5712465  16.0178472  27.8960839  28.0011487  16.5955534
  27.3885930  28.5547333  17.0396164  27.5987485  28.0619776  15.7774308
  27.7765724  28.0917798  16.5403990  30.0623021  16.3664806  15.4380197
  30.4878093  15.9137333  14.8263723  29.4480014  15.8124877  15.7144984
  30.0351666  16.2178782  15.3885222  30.5068619  31.9174744   4.5259477
  29.7897929  31.7435607   4.0606714  31.1575357  31.6827317   3.9934963
  30.4970470  31.8570537   4.3788695  33.0916590  20.7939333   8.2700782
  32.4207780  21.3369035   8.1413848  33.7856341  21.2634188   8.0282477
  33.0945458  20.9437604   8.2156310  27.1403324  32.9336045  13.5012540
  26.9168978  32.1754874  13.8696567  26.6513167  32.9634066  12.7792980
  27.0346773  32.8258269  13.4489281  33.2544718  17.2495216  11.1791155
  33.6072328  16.8224939  11.8536954  32.3959519  17.1646060  11.3092232
  33.1794162  17.1739957  11.2986166  31.2527984  20.5130585  15.1275998
  31.2325911  20.3313880  15.9810776  31.3007184  21.3842604  15.1035581
  31.2562625  20.6147123  15.2499292  29.1974313  27.1017777  21.0524474
  29.1570168  26.4567454  20.4669630  30.0097632  27.0454394  21.3649886
  29.3117467  26.9976744  21.0121423  25.7881781  33.1536503  10.9549625
  25.3742180  32.4910633  10.5653467  26.4729155  33.3014362  10.4345319
  25.8280153  33.0777161  10.8206122  29.1547075  32.3126588  11.7073242
  28.7563358  32.4228859  10.9394062  28.5398295  32.5208655  12.2899801
  29.0045964  32.3600156  11.6804541  34.6868778  12.3713628  12.1075468
  34.1799642  11.6642768  12.0396645  35.4836212  12.0406817  12.2376544
  34.7296017  12.2186780  12.1174463  30.6032794  18.8780241   8.0049132
  30.3746487  18.9012942   7.1627490  30.8630870  18.0537708   8.1244142
  30.6078982  18.7596320   7.8974329  24.8852022  20.7314714  17.6074232
  24.3730925  20.1235897  17.9659263  24.7131518  21.4471306  18.0748208
  24.7841659  20.7478013  17.7290455  19.7317737  19.1752289  20.2576594
  19.5620327  19.8353664  19.7124800  19.2883687  19.3858850  20.9789083
  19.6417070  19.3038271  20.2838223  36.8888918  26.8878555   5.0916332
  37.2722524  27.6369911   5.3214429  36.0933031  27.1344375   4.8328321
  36.8282700  27.0348249   5.0873906  28.7621092  18.6538958  20.0476487
  29.3192523  18.4252768  19.4154953  28.4382157  19.4144624  19.7711700
  28.7967503  18.7322795  19.9132984  16.6319801  22.0799154  15.5165083
  16.0846521  21.4099800  15.6345952  17.4212180  21.7129002  15.5808551
  16.6671985  21.9264141  15.5433784  26.4804210  21.7406612  21.0128494
  27.2315537  22.0558288  21.3268049  26.6726786  21.5385782  20.1862416
  26.6195624  21.7573993  20.9371890  33.3289500  17.8680178   8.2552290
  33.3283726  17.7128834   9.1136566  33.1245680  18.7143165   8.1993675
  33.2989278  17.9700799   8.3740229  15.3906771  21.2919962  12.6711106
  15.2128532  20.8396571  13.3966022  15.1025793  22.0946124  12.8549584
  15.3219724  21.3442520  12.8054609  31.0530352  22.5477680  11.9088497
  31.5484017  21.8300675  11.8692517  30.2430128  22.2448477  11.7942984
  31.0074245  22.3975326  11.8862223  17.1279241  23.8247686   9.7832866
  16.2624760  23.8133376   9.6715637  17.2278057  23.6377909  10.6304005
  17.0153408  23.7953747   9.8921810  33.1182171  25.2981367  14.5965626
  33.5437242  24.7755789  14.0436051  32.7539091  25.8962205  14.0754248
  33.1268773  25.3091594  14.4374635  22.7536251  33.5945585  13.3562971
  23.0682810  34.4081973  13.3640753  23.1629664  33.2095803  14.0245130
  22.8604349  33.6574287  13.4567063  29.7060770  29.0115631  10.9266783
  30.1771948  29.7255894  11.0956768  30.0420949  28.4114382  11.4626652
  29.8255885  29.0287096  11.0299159  31.7937755  30.6216945  23.1058855
  31.9034720  29.8325505  23.4615602  32.1228651  30.5322881  22.3033193
  31.8590161  30.4922798  23.0401246  26.6230265  13.7843102  17.8824878
  26.7558171  12.9874095  18.2105853  27.0075418  14.3109505  18.4623153
  26.6986594  13.7443019  18.0168381  30.3434717  28.8033566  17.6894476
  29.7955663  28.1791449  17.4214541  30.8047745  28.9927838  16.9738555
  30.3301926  28.7392616  17.5444907  29.6962620  10.7073428  14.4805971
  28.8908584  10.5971158  14.7973809  29.5669356  10.8085884  13.6235837
  29.5582753  10.7057098  14.4014011  33.1528581  16.8718920  15.0745668
  32.5691570  17.3728127  14.6623235  33.4732875  16.3648476  14.4409991
  33.1141756  16.8710755  14.9204175  24.2818712  13.7802277  16.1302772
  24.8263125  13.4393404  16.7207113  24.3355648  14.6387739  16.2724056
  24.3707831  13.8557536  16.2384645  20.0949271  27.5418693  13.0041579
  20.6994128  27.5014527  12.3755400  19.8876583  28.3889845  13.0345635
  20.1538168  27.6606696  12.9157696  29.9093043  29.8084638  14.2203817
  30.7291417  29.6647604  14.4820112  29.6287121  30.4330837  14.7620255
  29.9889786  29.8794990  14.3391756  15.3300553  26.5253311  12.8740503
  15.2324831  25.7149582  13.1830559  16.1129423  26.5045104  12.4886771
  15.4316690  26.4020401  12.8627366  46.3806693  37.4649490   7.1846693
  46.3500698  38.3194127   7.3564963  46.9788042  37.1644783   7.7432837
  46.4643851  37.5465987   7.2921495  39.5806378  36.5525141  11.9399624
  38.7244274  36.7133639  11.9908740  39.6274032  35.6817205  11.9604685
  39.4605490  36.4475943  11.9505690  33.9647518  46.0887859   7.7036855
  33.2130417  45.7103397   7.4752900  34.4133529  46.1206292   6.9555665
  33.9197185  46.0373466   7.5594357  39.4172478  46.5113228   3.1322402
  39.0823846  47.1890150   2.6966624  39.9299348  46.1218540   2.5439274
  39.4438059  46.5537807   2.9809194  38.9576769  48.4627497   9.0733514
  39.3416148  49.0314396   8.5338289  38.8935910  47.7377007   8.5939330
  39.0050196  48.4402960   8.9227376  42.4258199  38.6117185  14.5831275
  42.9714159  39.2902271  14.6425245  42.3675075  38.4704646  13.7232857
  42.4974113  38.6909187  14.4643336  35.5432274  46.1006251   9.9699628
  35.6442637  45.2906605  10.2796755  34.9474019  46.0063197   9.3399306
  35.4704813  45.9671279   9.9225866  44.2023268  40.0401792   5.4565003
  44.0862794  40.7909478   5.8857141  44.9979154  39.7825745   5.7061090
  44.3027857  40.1136639   5.5569095  35.3833014  51.0183840  11.3714484
  36.0270469  51.4597004  11.7610642  35.7089269  50.2137266  11.2844742
  35.5264842  50.9649035  11.4159961  28.7397318  42.1226538   9.5951961
  28.5047503  41.2894190   9.4884230  28.8782959  42.4031203   8.7813162
  28.7252981  42.0410041   9.4594316  31.0387406  34.2912268  12.4936269
  30.4192437  33.7004915  12.3246284  30.9371269  34.8823703  11.8600592
  30.9325081  34.2916351  12.3741259  36.0853593  44.0295815   6.7434345
  36.4069434  44.5701022   6.1395654  36.7325690  43.4592586   6.8756635
  36.2279648  44.0254990   6.6741381  38.1355301  36.0311810   6.8268732
  38.8335466  36.2099937   7.3190195  38.4507634  35.5082149   6.2039121
  38.2850639  35.9805582   6.8070742  30.7656539  37.8364550  14.7379838
  30.6415236  38.4226995  15.3729657  31.4174823  37.3424746  15.0392113
  30.8430188  37.8503354  14.8765767  38.3243237  42.4182255   6.8148524
  38.7636872  41.8099355   7.2603296  38.1747900  42.0389628   6.0433989
  38.3664702  42.2720726   6.7667691  35.7914880  41.0126267  14.0167349
  36.4363882  40.5198710  13.6978298  36.0316657  41.1551053  14.8433427
  35.9225465  40.9603709  14.0916882  38.3300971  43.8581173  13.6674242
  38.6124214  43.0632578  13.4460998  39.0587131  44.3361760  13.6879303
  38.4790535  43.8115770  13.6377257  36.3082165  31.4004207  10.9090007
  35.9785495  31.8515350  10.2393706  35.6327167  31.3220370  11.4563013
  36.1592601  31.4555342  10.8913230  41.9252573  40.7709436   3.7679293
  41.8403868  41.6270403   3.9128862  42.4136957  40.4953760   4.4361452
  41.9841471  40.8566758   3.8881374  43.5158573  27.3889729   9.1539617
  43.2012014  28.0793208   9.5860040  42.9985514  27.3334512   8.4525118
  43.3923043  27.4824618   9.1136567  42.8571007  37.3894230   5.2677028
  42.3282478  37.6053864   5.9274334  43.3796026  38.0830369   5.1877997
  42.8559459  37.5237367   5.3532627  48.3119059  42.9640535  10.6410072
  47.4816763  43.1751179  10.8043489  48.2628312  42.1377589  10.3652356
  48.1825795  42.8730141  10.6247438  34.7470614  41.2857447   4.0684496
  34.1627830  41.7907479   4.4750360  34.3440709  41.0599834   3.3281088
  34.6009918  41.3265695   4.0189521  30.3014643  47.0012208  10.8708168
  29.8182221  47.7262698  10.8467751  31.1137961  47.2988338  10.9818325
  30.3505391  47.1514562  10.8835447  36.3728797  45.7944389  13.4757982
  35.8555739  45.4351804  12.8719290  37.0703188  45.2706563  13.4864048
  36.3994378  45.6642077  13.3888241  40.0292389  46.2439203  19.4374155
  40.1175735  46.0565344  20.2852365  40.4582102  45.5976633  19.0379002
  40.1054491  46.1202211  19.5045906  37.5962849  45.5270363  18.4191817
  37.0333684  45.1142973  18.9431478  38.3583872  45.4523269  18.8384960
  37.6257297  45.4547764  18.5584818  39.2047829  37.5323099   2.5453417
  39.4443832  37.7401083   1.7328760  39.5263670  36.7280608   2.6542361
  39.2884987  37.4437200   2.4413970  34.5138119  29.4616495   6.3912955
  35.2684087  29.8294812   6.1530005  34.3365654  29.8356049   7.1592134
  34.5992597  29.5714683   6.4697843  33.1558840  47.5168384  11.0228447
  33.8579419  47.0020373  11.0801204  33.0756323  47.8442536  11.8275322
  33.2482601  47.4882610  11.1501240  47.8073018  35.6110936  14.4360494
  46.9701439  35.6813123  14.6708088  47.7761249  35.6135430  13.5634796
  47.6791300  35.6221163  14.3420042  32.8695184  31.8686814   3.0891068
  32.6870757  32.0858695   2.2632060  33.7320797  31.9825827   3.1449682
  32.9699773  31.9176712   2.9745555  32.4809616  43.7074736  10.5314055
  33.3198515  43.9397669  10.5787817  32.5121385  42.8379048  10.4621091
  32.6091333  43.6131683  10.5278700  33.1062319  44.1275611  14.8327361
  33.6460544  43.9846742  15.5030733  32.4232265  44.5272362  15.2011387
  33.0854473  44.1655282  14.9861783  38.5494903  28.8713225   6.1240091
  39.2781063  28.6929180   5.6778248  38.6389796  29.7131304   6.3347269
  38.6701565  28.9697103   6.0893609  42.5303204  39.8066612  10.0272385
  43.2860719  40.2398126  10.0661294  42.6365528  39.1571382  10.6007021
  42.6573374  39.7744096  10.1170411  45.5683375  43.6339889  10.7774788
  45.1318607  43.6376632  11.5333760  45.2346290  44.3145388  10.3454366
  45.4545995  43.7352345  10.8255621  28.5099464  40.3475902  14.9861782
  28.2437879  39.5315019  15.1452773  28.5238028  40.3929058  14.1157298
  28.4724186  40.2332807  14.8815264  45.4880858  30.6753717  13.0204216
  46.1306766  30.7451822  13.6066131  45.7403878  30.0082940  12.5183758
  45.6202990  30.5880066  13.0331495  32.4157211  35.1460987   1.6013541
  31.7015388  34.8599166   2.0135973  32.9001179  35.4857612   2.2419928
  32.3816574  35.1542636   1.7569175  33.2598070  33.8854281  17.6328790
  32.5669867  33.4151260  17.8789522  33.8758397  33.6592585  18.2070497
  33.2482600  33.7821412  17.7537943  40.2982842  47.5858324  15.7484394
  39.4998087  47.3457824  16.0058263  40.7468853  47.6372717  16.4951442
  40.2457453  47.5580715  15.8969318  48.7027721  40.3520809   9.6694425
  49.3644155  39.7911478   9.5690334  48.0619133  39.8572840   9.9947117
  48.7056588  40.1957218   9.7026766  39.5904529  43.6490941   1.9775349
  40.0055677  43.3175964   1.2859844  38.7596458  43.4159843   1.8495485
  39.5292537  43.5662197   1.8566196  28.9192877  41.1334682  12.2673527
  28.7368451  41.1081568  11.4145819  29.6542546  41.6033619  12.3062435
  29.0006941  41.1996044  12.1471445  44.9892552  41.3686192   9.4106414
  45.2248141  41.5131390   8.5833265  45.1382115  42.1328600   9.8037928
  45.0458355  41.5025246   9.3470018  31.9838629  37.8519684  18.7755635
  32.7078601  37.8372715  19.2620530  32.0854766  38.5615040  18.2777604
  32.1056838  37.9544388  18.7734422  46.8183008  40.2087858   7.2476018
  47.1491225  40.7415498   6.6416113  47.3916096  40.2626745   7.9037969
  46.9516687  40.2957426   7.2553800  42.0314897  38.0552760   7.9299598
  42.1261752  38.7942054   8.3839224  41.4073741  37.6270236   8.3634163
  41.9523928  38.1014081   8.0607746  28.8863788  38.0128182  12.4172593
  29.4637290  37.8764633  13.0564839  28.1877849  37.5563966  12.6718178
  28.8684809  37.9250449  12.5494883  42.2837919  39.9001500   1.1636550
  42.2018081  39.9703687   2.0291537  42.9217639  40.4631244   0.9720291
  42.3657756  39.9940471   1.2626500  35.6431090  39.6662238  10.6311077
  35.3850334  38.8333973  10.6042376  35.6979573  39.8919851   9.7903577
  35.6130868  39.5760009  10.5031213  40.7232140  31.7690689  10.7315169
  40.0188467  31.2799874  10.8899088  40.7717114  31.7813163   9.8603614
  40.6262192  31.6980337  10.6254509  34.6165802  37.2200000  11.1175971
  34.0415393  37.3792169  11.7539932  34.2401478  36.5835410  10.6544422
  34.4768614  37.1497813  11.1430530  38.2839091  35.6923350  15.9768350
  37.8953523  35.2677567  15.3220541  37.6193789  35.9405499  16.4845376
  38.1286018  35.6662071  15.9556218  47.9262360  35.4498354   8.7516180
  47.6698925  34.6378296   8.5614063  48.7691674  35.4575922   8.5246367
  48.0128385  35.3310352   8.6900997  24.3622621  36.8640075   9.1320412
  24.4482873  36.4871944   9.9133942  24.9898418  36.4900521   8.6540370
  24.4679172  36.7525557   9.1765889  42.1065452  29.3897978  13.4892334
  42.4875964  28.7076150  13.8760208  41.3028736  29.1007581  13.3067998
  42.0441914  29.2465027  13.5196390  39.3878029  39.9221954   4.1745157
  40.2018668  40.2136847   4.0627928  39.3237170  39.2681817   3.6003450
  39.4980768  39.8687149   4.0733994  45.6087519  42.6047950  18.5874732
  45.3726156  41.7736015  18.4686793  46.2530748  42.5533558  19.1729577
  45.6682190  42.4745638  18.6560626  35.2585937  43.3943472   9.3017469
  35.8959884  43.1555219   9.8469262  35.6841009  43.5980631   8.5670629
  35.4162103  43.3894482   9.2734626  29.9498580  45.6331808  13.1851773
  29.9902725  45.9046659  12.3571552  30.5093104  46.1573716  13.6009560
  30.0381925  45.7507563  13.1243661  35.8988752  38.6145762   3.6392358
  36.2833905  38.3953468   4.3908903  35.6500373  39.4408707   3.7693434
  35.9190825  38.7043908   3.7693435  36.0657293  31.8952177  23.3554942
  35.7510734  32.6651739  23.0924505  35.7447225  31.3322433  22.7707169
  35.9716212  31.9262445  23.2296292  46.6323940  42.3892399  14.6503027
  46.3269757  43.1220456  15.0116342  45.9130155  41.9830329  14.3695813
  46.4811282  42.4374132  14.6616164  37.6407409  43.8715894  10.9811255
  37.7146417  43.7091066  11.8353105  38.4576915  44.0606084  10.7371737
  37.7723768  43.8752637  11.0709281  52.3325732  39.0285400  13.9771371
  52.2650232  39.0481359  13.1073958  52.3181394  39.8715727  14.2027042
  52.3204488  39.1559135  13.8823848  31.4013166  44.2173757   8.0105699
  30.5751283  44.4635494   7.8839977  31.4625157  44.1385838   8.8767757
  31.2887333  44.2418706   8.1194643  33.6189190  30.2842698   8.9701139
  32.7511615  30.3565298   9.0358748  33.9064394  31.0864777   9.1589114
  33.5328938  30.4136845   9.0075905  42.7422078  30.4320558  17.3012460
  43.4875670  30.2430368  16.8875886  42.3259383  30.9578796  16.7426317
  42.7907053  30.4822703  17.1577034  36.1811995  46.8350637   5.7124728
  36.4710293  46.4439619   4.9883955  36.9115476  47.0167342   6.1530004
  36.3318879  46.8044451   5.6707535  50.1184349  37.8029786  12.2517965
  50.6692271  37.1697855  12.4915058  50.1028465  38.3345179  12.9433470
  50.1969546  37.7878734  12.3896824  36.7706740  41.6368383  16.7977859
  36.2718434  42.3484151  16.8762747  37.5806964  41.9569050  16.7596021
  36.8162847  41.7895232  16.8034427  34.1217910  48.8118020   8.7784878
  33.9018206  48.5215375   9.5711545  33.9012432  48.1532975   8.2502790
  34.0565505  48.6717728   8.8173787  33.0334858  40.8991336  11.0440580
  32.7448106  40.2728808  11.5786307  33.9018206  40.8411624  11.1105260
  33.1195110  40.7978881  11.1331534  43.8212755  36.0426120  11.3622562
  43.4777521  35.3216455  11.7129811  43.9205798  35.8339971  10.5200920
  43.7854798  35.9050323  11.2894242  36.2885866  50.1847410   7.5615571
  36.9409924  49.6523852   7.7906597  35.5911475  49.8316062   7.9483445
  36.2816584  50.0536933   7.6527738  33.2367131  42.5386587   6.9682945
  33.9913099  42.9199626   7.1818407  32.6437744  42.9897731   7.4229641
  33.2603845  42.6615415   7.0665823  44.2825784  42.5051824   6.9046550
  44.8483817  43.1645034   6.8205093  43.6353688  42.8501522   7.3762952
  44.2704541  42.6533765   6.9619306  34.5565358  43.7095149  12.3423060
  34.0346111  43.8495440  13.0274925  34.9439378  42.9505813  12.5325178
  34.5369059  43.6180673  12.4724137  31.5456542  33.7600958   6.4118015
  31.2581337  33.3902228   5.6749962  32.2327010  34.2295813   6.1501720
  31.6045439  33.7747927   6.2633091  40.7532363  45.4490608   6.3283629
  40.5119039  44.7158469   5.9210694  40.9333695  45.9977465   5.6749962
  40.7439987  45.4212999   6.1713852  35.9831683  40.7399168   7.7404551
  35.7874466  41.3473902   7.1464854  36.2066029  40.0467112   7.2596225
  35.9866324  40.7276693   7.5820632  34.3810213  37.6253906   7.8585420
  35.1032865  37.7895064   7.3989226  33.9018206  38.3463571   7.7524759
  34.4173944  37.7552135   7.7751034  42.3403721  33.9617705  13.2382105
  41.5014821  33.9878983  13.0020368  42.4108088  34.6088440  13.8187451
  42.2272114  34.0613830  13.2891221  32.0317830  40.0311978  16.9639559
  32.5438927  40.3096231  16.3148319  31.7454173  40.7701272  17.3302373
  32.0652693  40.1814332  16.9229438  40.7872999  30.8603082   7.9709720
  41.4899352  30.6610830   7.4929679  40.5217188  30.0879024   8.2778564
  40.8519631  30.7166048   7.9455162  46.2161245  39.1685691  10.5243346
  46.1295219  39.3241117  11.3778125  45.7611725  39.8123767  10.1502751
  46.1364501  39.2861446  10.5950453  29.1184736  34.5382170   7.2603296
  29.2200873  35.3408331   7.5884271  29.9140623  34.3369506   6.9626377
  29.2512642  34.6268069   7.2638651  35.5501555  32.1238367  17.0240601
  35.3584752  32.1393501  17.8740025  36.4000151  32.3202041  17.0007256
  35.6477277  32.1552718  17.1463896  29.9348468  34.6529348  15.0024418
  29.7933960  33.8013289  15.1268926  30.2189032  34.6958009  14.1786624
  29.9556314  34.5329098  14.8992042  40.0887061  36.4896438   9.1468906
  39.8421775  36.4092189   9.9805695  40.4172184  35.7049906   8.9531433
  40.1008304  36.3622704   9.2416429  43.9835110  43.1979798  12.9355687
  43.8449469  43.8960844  13.4404429  43.2035107  43.0428454  12.5791869
  43.8478336  43.2779964  12.9581961  38.2204005  38.4243325  16.3417021
  37.4727319  38.6174340  15.9365299  38.3745531  37.5988545  16.1041142
  38.1326433  38.3308437  16.2462426  45.4788482  42.5558052   3.6972186
  45.0995291  41.7695189   3.6901476  44.8154728  43.1044909   3.5543831
  45.3246957  42.5202875   3.6752983  38.4605782  32.3193876  17.2312424
  38.9178396  33.0517850  17.3585216  38.5362111  31.8960341  17.9899680
  38.5396752  32.3651114  17.3613501  30.7038774  32.5659696  18.3201868
  30.1680963  31.9540054  18.6362635  30.7656538  33.1407832  18.9735535
  30.6334406  32.5606624  18.4637295  42.9333108  25.4983751  11.1006267
  43.0516676  25.9560215  10.3673570  42.7595284  24.6929012  10.8142485
  42.9252279  25.4477523  10.9507201  38.3035391  46.1071571   7.5361013
  39.0685282  45.8381214   7.2143677  38.2013481  45.6221581   8.2531075
  38.4016886  45.9961135   7.5940840  36.3388160  34.3095980  14.0754248
  35.5484235  34.1287440  14.3971584  36.7348783  33.5322933  14.0584543
  36.2805037  34.1683441  14.1206797  40.8254051  43.1383754  -0.4839038
  41.5927036  43.1983879  -0.8933186  40.3785360  42.5664196  -0.9682720
  40.8727478  43.0620330  -0.6161328  41.7231847  41.9438410  11.8013694
  41.0476848  41.7123642  12.3027081  41.7324223  41.3359593  11.1755799
  41.6250351  41.8197335  11.7829846  43.7248581  44.8003543   4.0323872
  43.8068419  45.6070529   3.7085323  44.2098323  44.8199502   4.7564646
  43.8085739  44.9224205   4.0910771  37.5345084  39.4788378  12.6993950
  37.1107334  39.6792878  11.9632968  37.3589940  38.6317226  12.8118250
  37.4455965  39.3837160  12.6067640  32.8227529  39.9740430   8.1321923
  32.9792149  39.9087233   8.9877915  33.1628123  40.7488982   7.9200602
  32.8960764  40.0789628   8.2276517  39.3606674  39.3498313   7.0015286
  39.9022220  38.8468695   7.4653906  39.6753233  39.2963508   6.1904771
  39.4871071  39.2677734   6.9499098  37.5293124  44.7415665   4.2855314
  37.5985944  43.8830203   4.4248314  38.3081579  44.9587546   3.9574338
  37.6545974  44.6468529   4.2572471  40.5095943  34.2434618  17.0537586
  40.7237913  33.6045532  16.5000940  39.8929843  34.6880442  16.6245448
  40.4501273  34.2144762  16.9088017  41.9200611  47.1653366   8.4991807
  41.5280403  46.8620081   7.7814673  42.0753684  48.0022456   8.3096761
  41.8854201  47.2437203   8.3648304  29.3961791  37.1575380   8.4482690
  29.7760756  37.5759925   7.7842957  28.8217156  37.7388836   8.7551533
  29.3673116  37.3053239   8.3959431  42.0840286  43.7303355   8.4397838
  41.7254941  43.9017998   9.2161870  41.5978997  44.1916561   7.8825836
  41.9598983  43.8242326   8.4723107  39.9010672  27.3534554  12.0424929
  39.0304230  27.3273275  11.9958239  40.1551013  27.1811746  11.2250775
  39.8104232  27.3244697  11.9145066  36.8728652  39.4102521   0.9798072
  37.1621176  40.1867403   1.2541646  36.9600450  38.8991252   1.6812571
  36.9282908  39.4494439   1.1240570  36.9259813  29.3640782  13.4998399
  36.4098301  28.6720974  13.6249978  36.3653741  30.0311559  13.4460998
  36.7666326  29.3604040  13.5104465  38.9952046  29.9033742  15.3291252
  38.6083799  29.9282774  16.1104782  38.5084983  29.3375421  14.8765769
  38.8664555  29.8229493  15.3779156  43.2445025  44.6207251  19.3865039
  43.8824746  44.1267447  19.0527495  42.6019117  44.5484652  18.8017265
  43.2439252  44.5366260  19.2507394  44.9702026  36.4696397  13.9530954
  44.5429634  36.3822746  13.1979054  44.3328079  36.5774173  14.5385798
  44.8131633  36.4729057  13.9276396  38.6609188  26.7900728  17.6201512
  39.2902306  27.3261028  17.3422582  38.8295050  26.6978087  18.4715078
  38.7786982  26.8562090  17.7050040  38.4623103  31.5771922  19.8927924
  39.2896532  31.3057071  19.9486538  38.4830949  32.3732764  20.2491742
  38.5875953  31.6551677  19.9543106  43.2999282  45.3127059  16.0270395
  44.0891660  44.9616124  16.1472477  43.4742880  46.1263448  15.7647029
  43.4419564  45.3812917  16.0058263  33.0392592  38.7235785  13.0798184
  32.1980599  38.6239659  13.2877078  33.2482600  39.4931265  13.4312505
  32.9457285  38.8227828  13.1625499  30.5168159  36.3455322  10.9082935
  30.1224857  36.4198334  10.1333044  29.9608276  36.7313268  11.4591297
  30.3770972  36.4137097  10.8750595  42.1533106  29.3236616  10.5886814
  42.3582700  29.2558924  11.4343811  41.8259530  30.1295437  10.5207991
  42.1348354  29.4322557  10.7046469  36.8509257  36.6517184  12.3295782
  36.5472395  36.0973173  12.9306189  36.1488678  36.8309394  11.8423816
  36.7025467  36.5961967  12.3465487  35.9075354  33.9617704   6.8940484
  36.1835089  33.2436617   6.4818051  36.5074024  34.5602624   6.6861590
  36.0368619  33.9438075   6.8021245  45.4066794  29.8768380  10.0689579
  44.7941108  30.3638782  10.4543311  45.5030969  29.2011871  10.6127230
  45.3304692  29.8486689  10.2068437  39.4085875  31.6331221   5.1687079
  39.8629621  31.8041782   5.8934923  39.8825921  31.0199332   4.7684854
  39.5454195  31.5682107   5.2160840  32.9301400  41.1179547  14.4989817
  32.3389334  41.7589046  14.4692832  33.6922424  41.5417165  14.4721117
  32.9549661  41.2755386  14.4904964  33.3262023  32.2781545  15.1657835
  33.7863505  32.3520475  15.9032958  33.3718130  33.0762799  14.8157656
  33.4012578  32.4075692  15.2230591  34.9745373  32.9448240  19.7329862
  34.5830938  32.2981587  20.1685640  35.1431236  33.5359675  20.3524117
  34.9416283  32.9362508  19.8892568  49.0491822  40.9485317  15.4967095
  49.1074946  41.3971966  16.2427072  48.4158289  41.3584130  15.0597175
  48.9643117  41.0759052  15.5419644  42.6890917  46.5688859  11.9321842
  42.4910605  47.0579673  11.2378053  42.0678628  46.7730100  12.5105975
  42.5678481  46.6705397  11.9145065  36.7498895  38.3373756   6.2732086
  37.4940940  38.7248032   6.5115036  36.8959591  37.4931181   6.4372574
  36.8809480  38.2704229   6.3326056  38.6678470  30.1324015  11.3063947
  37.8214515  30.3046823  11.1805297  38.6649603  29.3273358  11.6429776
  38.5425620  30.0385044  11.3375074  39.7376771  33.9099229  12.1726005
  39.2636725  33.3840991  12.6831316  40.1094907  33.3628702  11.6040867
  39.7226660  33.7515226  12.1641152  30.1149801  35.9070736  17.5409551
  30.9775414  35.8066445  17.4546881  29.7841584  35.3265445  16.9795123
  30.1934997  35.8062363  17.4454957  46.0013501  38.9701605  13.5832786
  45.7611724  38.1308020  13.5875212  46.4805509  39.0501772  14.3073559
  46.0365685  38.8583005  13.6907588  41.6660270  34.8035784   5.2351759
  41.1383289  34.8864528   4.5457468  42.1255979  35.5453655   5.2316404
  41.6562121  34.9256446   5.1326454  48.0018688  35.7503062  11.5362045
  47.7628458  35.7098896  10.6982829  48.1652590  36.5974214  11.6627766
  47.9908992  35.8695147  11.4315527  44.6064719  40.1353011  17.4667090
  45.3298917  39.6825538  17.2878110  44.3414681  40.4157677  16.6839418
  44.6745992  40.1103980  17.3245805  33.4751587  34.7313185  14.2019969
  32.8504657  34.7431577  13.5945922  33.1397182  35.2073360  14.8511209
  33.3337079  34.8031702  14.2076538  33.6593336  33.0738303   0.2592654
  33.3106140  33.7258029   0.7224203  33.1789781  33.0595416  -0.4683475
  33.5363580  33.1681357   0.2203745  30.1877262  42.7913645  15.6423733
  29.6577187  42.1006084  15.6918708  30.4602356  42.7823830  14.8136442
  30.1501985  42.6880777  15.5271149  41.2197353  43.3739347   4.3661416
  41.9431552  43.8397460   4.2225989  40.7797944  43.4412957   3.6159013
  41.2613045  43.4523184   4.2346197  40.3883508  40.2336890  15.6162105
  39.7740501  39.6894940  15.9110740  40.9050793  39.7201126  15.1367921
  40.3739170  40.0773299  15.5886333  39.6279805  41.3041160  13.3506404
  39.2007413  40.6790878  12.9171839  39.6204750  41.0216081  14.1765411
  39.5638946  41.1693940  13.4086231  32.7442332  36.3406333  16.4194838
  32.9035819  35.5849657  16.8246560  32.5635226  36.8897272  17.0735575
  32.7407691  36.3100146  16.5757544  40.6862635  28.5067568  16.9745627
  40.1903197  28.7031242  16.2837194  41.4431697  28.9060236  16.8034429
  40.7249460  28.5945302  16.8465764  37.9565515  32.1809914  13.5648938
  37.9808002  31.6470026  12.8761718  38.2076988  31.6727223  14.2274528
  37.9975434  32.0270818  13.5613582  25.4673105  39.4641409  12.9992082
  25.3616554  39.4188253  12.1344166  24.7173325  39.8095190  13.2806367
  25.3408708  39.5082317  12.9129411  34.2366837  30.9080732  12.9454682
  34.2765209  31.4089939  13.6589389  33.4116502  30.9991126  12.6760605
  34.1206363  30.9962549  13.0105220  35.6581200  37.4241242  15.2428581
  34.8273130  37.5915060  15.0363829  35.6032718  37.0477193  16.0277466
  35.5270615  37.3930973  15.3277109  33.4664984  30.9150135  20.8784992
  34.0917687  30.3712268  21.1514424  33.0115464  30.4345053  20.3092782
  33.4913244  30.7639616  20.8346585  34.0317244  35.6996834   5.7718699
  34.1720205  36.1969298   6.4747340  34.5299777  34.9983128   5.9132912
  34.1258325  35.6698812   5.8970278  34.0617467  36.5663945   3.1011275
  34.6962546  37.1624370   3.0360737  34.1443078  36.2667402   3.9157146
  34.1674018  36.6104853   3.2114362  47.0400032  39.0979422  15.9697640
  47.6317873  39.7376673  16.0015838  47.4759027  38.4002459  16.2589706
  47.1918464  39.0897772  16.0178472  35.6396450  32.4977920   3.0756717
  35.9612291  32.0181003   2.4215980  35.9023393  33.3077566   2.8847529
  35.7262475  32.5467818   2.9512210  38.8693422  43.5196795  16.5955534
  38.3618513  44.0732641  17.0396164  38.5720069  43.5805084  15.7774308
  38.7498307  43.6103106  16.5403990  41.0355605  31.8850114  15.4380197
  41.4610676  31.4322641  14.8263723  40.4212598  31.3310185  15.7144984
  41.0084250  31.7364090  15.3885222  30.5670455  38.7631785   6.3700821
  31.0762684  39.3596293   6.7512127  31.0404727  38.4957759   5.6877241
  30.7113830  38.8117601   6.3255344  41.4801203  47.4360052   4.5259477
  40.7630512  47.2620914   4.0606714  42.1307940  47.2012624   3.9934963
  41.4703053  47.3755845   4.3788695  39.4749827  28.3565214   8.8470774
  38.8318145  28.2062860   9.4155912  39.1349234  28.1107559   8.0819878
  39.3294905  28.2977336   8.8173789  44.0649174  36.3124641   8.2700782
  43.3940364  36.8554343   8.1413848  44.7588924  36.7819496   8.0282477
  44.0678041  36.4622912   8.2156310  44.2277301  32.7680524  11.1791155
  44.5804911  32.3410247  11.8536954  43.3692103  32.6831368  11.3092232
  44.1526746  32.6925265  11.2986166  32.9260986  35.3988044   9.2374002
  32.2072975  35.8152177   9.5046865  33.2973349  35.9642283   8.6865640
  32.8752918  35.5437326   9.1956809  42.2260567  36.0315893  15.1275998
  42.2058494  35.8499188  15.9810776  42.2739768  36.9027911  15.1035581
  42.2295208  36.1332431  15.2499292  36.7614365  48.6721811  10.9549625
  36.3474763  48.0095941  10.5653467  37.4461739  48.8199670  10.4345319
  36.8012736  48.5962469  10.8206122  40.1279659  47.8311896  11.7073242
  39.7295942  47.9414166  10.9394062  39.5130878  48.0393962  12.2899801
  39.9778548  47.8785464  11.6804541  38.7007561  34.4386044   4.5747381
  38.1072400  34.7603040   4.0231948  38.7382838  33.5927139   4.3668487
  38.6181950  34.3610372   4.4630153  45.6601361  27.8898936  12.1075468
  45.1532226  27.1828076  12.0396645  46.4568795  27.5592125  12.2376544
  45.7028601  27.7372088  12.1174463  41.5765377  34.3965548   8.0049132
  41.3479070  34.4198250   7.1627490  41.8363453  33.5723015   8.1244142
  41.5811565  34.2781628   7.8974329  35.8584606  36.2500021  17.6074232
  35.3463509  35.6421204  17.9659263  35.6864102  36.9656614  18.0748208
  35.7574243  36.2663321  17.7290455  30.7050320  34.6937597  20.2576594
  30.5352911  35.3538972  19.7124800  30.2616270  34.9044158  20.9789083
  30.6149654  34.8223579  20.2838223  34.6310140  32.9342095   9.3003327
  35.1067506  33.2959175   8.6653508  34.1298739  33.5898562   9.5803470
  34.6275499  33.0836284   9.2480068  47.8621501  42.4063863   5.0916332
  48.2455107  43.1555219   5.3214429  47.0665615  42.6529683   4.8328321
  47.8015284  42.5533557   5.0873906  27.6052385  37.5984462  15.5165083
  27.0579104  36.9285108  15.6345952  28.3944763  37.2314310  15.5808551
  27.6404569  37.4449449  15.5433784  36.6736793  35.0783295   2.6676711
  37.0535758  35.0962924   1.8827826  35.9329389  35.5237283   2.5467559
  36.6205631  35.1465069   2.5340279  44.3022083  33.3865486   8.2552290
  44.3016310  33.2314142   9.1136566  44.0978264  34.2328473   8.1993675
  44.2721861  33.4886107   8.3740229  26.3639354  36.8105270  12.6711106
  26.1861116  36.3581879  13.3966022  26.0758377  37.6131432  12.8549584
  26.2952308  36.8627828  12.8054609  42.0262936  38.0662988  11.9088497
  42.5216601  37.3485983  11.8692517  41.2162711  37.7633785  11.7942984
  41.9806829  37.9160634  11.8862223  37.4721547  41.9160801   4.0585501
  36.6632870  41.5927474   4.0118811  37.9796456  41.2094023   3.9913750
  37.4271214  41.7642117   4.0415796  28.1011824  39.3432994   9.7832866
  27.2357344  39.3318684   9.6715637  28.2010640  39.1563217  10.6304005
  27.9885991  39.3139055   9.8921810  44.0914754  40.8166675  14.5965626
  44.5169826  40.2941097  14.0436051  43.7271674  41.4147512  14.0754248
  44.1001357  40.8276902  14.4374635  33.7268834  49.1130893  13.3562971
  34.0415393  49.9267281  13.3640753  34.1362248  48.7281111  14.0245130
  33.8336932  49.1759595  13.4567063  40.6793354  44.5300939  10.9266783
  41.1504532  45.2441202  11.0956768  41.0153532  43.9299689  11.4626652
  40.7988469  44.5472404  11.0299159  37.5962849  29.3028410  17.8824878
  37.7290754  28.5059403  18.2105853  37.9808002  29.8294813  18.4623153
  37.6719178  29.2628327  18.0168381  41.3167300  44.3218873  17.6894476
  40.7688246  43.6976757  17.4214541  41.7780329  44.5113146  16.9738555
  41.3034510  44.2577924  17.5444907  40.6695204  26.2258736  14.4805971
  39.8641168  26.1156466  14.7973809  40.5401939  26.3271192  13.6235837
  40.5315337  26.2242406  14.4014011  44.1261164  32.3904228  15.0745668
  43.5424153  32.8913434  14.6623235  44.4465459  31.8833784  14.4409991
  44.0874340  32.3896063  14.9204175  36.6655964  31.3044823   5.3504343
  37.4871658  31.4743136   5.1086038  36.2025615  31.4592084   4.6270640
  36.7187126  31.3526556   5.2075987  35.2551296  29.2987585  16.1302772
  35.7995709  28.9578712  16.7207113  35.3088231  30.1573047  16.2724056
  35.3440415  29.3742844  16.2384645  31.0681854  43.0604001  13.0041579
  31.6726712  43.0199835  12.3755400  30.8609167  43.9075153  13.0345635
  31.1270752  43.1792004  12.9157696  40.8825626  45.3269946  14.2203817
  41.7024000  45.1832912  14.4820112  40.6019704  45.9516145  14.7620255
  40.9622370  45.3980298  14.3391756  26.3033137  42.0438619  12.8740503
  26.2057415  41.2334890  13.1830559  27.0862006  42.0230412  12.4886771
  26.4049273  41.9205709  12.8627366  50.5538962  52.0710449  11.9399624
  49.6976857  52.2318947  11.9908740  50.6006615  51.2002513  11.9604685
  50.4338073  51.9661251  11.9505690  53.8632678  58.3396975  21.5460080
  54.5699445  57.8449005  21.6747014  54.0520614  58.7806056  20.8162738
  53.9960584  58.3315325  21.4569125  53.3990783  54.1302493  14.5831275
  53.9446743  54.8087579  14.6425245  53.3407659  53.9889954  13.7232857
  53.4706697  54.2094494  14.4643336  46.5164858  61.6191559   9.9699628
  46.6175220  60.8091913  10.2796755  45.9206603  61.5248505   9.3399306
  46.4437396  61.4856587   9.9225866  39.7129902  57.6411845   9.5951961
  39.4780086  56.8079498   9.4884230  39.8515543  57.9216511   8.7813162
  39.6985564  57.5595349   9.4594316  42.0119989  49.8097576  12.4936269
  41.3925021  49.2190223  12.3246284  41.9103853  50.4009011  11.8600592
  41.9057665  49.8101659  12.3741259  49.1087885  51.5497118   6.8268732
  49.8068050  51.7285245   7.3190195  49.4240217  51.0267457   6.2039121
  49.2583222  51.4990890   6.8070742  41.7389122  53.3549858  14.7379838
  41.6147819  53.9412303  15.3729657  42.3907407  52.8610053  15.0392113
  41.8162772  53.3688662  14.8765767  46.7647463  56.5311575  14.0167349
  47.4096466  56.0384018  13.6978298  47.0049240  56.6736361  14.8433427
  46.8958048  56.4789017  14.0916882  49.3033555  59.3766481  13.6674242
  49.5856798  58.5817886  13.4460998  50.0319715  59.8547068  13.6879303
  49.4523118  59.3301078  13.6377257  47.2814749  46.9189515  10.9090007
  46.9518079  47.3700658  10.2393706  46.6059750  46.8405678  11.4563013
  47.1325185  46.9740650  10.8913230  54.4891156  42.9075037   9.1539617
  54.1744597  43.5978516   9.5860040  53.9718098  42.8519820   8.4525118
  54.3655627  43.0009926   9.1136567  41.2747227  62.5197516  10.8708168
  40.7914805  63.2448006  10.8467751  42.0870545  62.8173646  10.9818325
  41.3237974  62.6699870  10.8835447  47.3461381  61.3129697  13.4757982
  46.8288322  60.9537112  12.8719290  48.0435772  60.7891871  13.4864048
  47.3726962  61.1827385  13.3888241  51.0024973  61.7624511  19.4374155
  51.0908318  61.5750651  20.2852365  51.4314685  61.1161941  19.0379002
  51.0787075  61.6387519  19.5045906  48.5695432  61.0455671  18.4191817
  48.0066267  60.6328281  18.9431478  49.3316456  60.9708577  18.8384960
  48.5989881  60.9733072  18.5584818  45.4870703  44.9801803   6.3912955
  46.2416671  45.3480120   6.1530005  45.3098237  45.3541357   7.1592134
  45.5725181  45.0899991   6.4697843  44.1291424  63.0353692  11.0228447
  44.8312003  62.5205681  11.0801204  44.0488907  63.3627844  11.8275322
  44.2215184  63.0067918  11.1501240  58.7805601  51.1296243  14.4360494
  57.9434022  51.1998431  14.6708088  58.7493832  51.1320738  13.5634796
  58.6523884  51.1406470  14.3420042  45.1770330  53.2729279  20.1508862
  45.3490834  53.1635174  20.9994144  45.7139688  53.9183685  19.9140055
  45.2815334  53.3521281  20.2413959  43.8427767  47.3872122   3.0891068
  43.6603340  47.6044003   2.2632060  44.7053380  47.5011135   3.1449682
  43.9432357  47.4362020   2.9745555  43.4542199  59.2260044  10.5314055
  44.2931099  59.4582977  10.5787817  43.4853968  58.3564356  10.4621091
  43.5823917  59.1316991  10.5278700  44.0794902  59.6460919  14.8327361
  44.6193127  59.5032050  15.5030733  43.3964848  60.0457670  15.2011387
  44.0587056  59.6840590  14.9861783  49.5227486  44.3898533   6.1240091
  50.2513647  44.2114488   5.6778248  49.6122379  45.2316612   6.3347269
  49.6434148  44.4882411   6.0893609  53.5035787  55.3251920  10.0272385
  54.2593302  55.7583434  10.0661294  53.6098112  54.6756690  10.6007021
  53.6305958  55.2929404  10.1170411  51.1145032  61.1933530  22.1017939
  51.8985448  61.3064378  22.4673681  50.9141626  60.3674667  22.2976624
  51.2011057  61.0880249  22.1852325  39.4832047  55.8661210  14.9861782
  39.2170463  55.0500327  15.1452773  39.4970611  55.9114366  14.1157298
  39.4456770  55.7518115  14.8815264  56.4613441  46.1939025  13.0204216
  57.1039350  46.2637130  13.6066131  56.7136462  45.5268248  12.5183758
  56.5935573  46.1065374  13.0331495  43.3889794  50.6646295   1.6013541
  42.6747971  50.3784474   2.0135973  43.8733763  51.0042920   2.2419928
  43.3549158  50.6727944   1.7569175  44.2330654  49.4039588  17.6328790
  43.5402450  48.9336568  17.8789522  44.8490981  49.1777893  18.2070497
  44.2215184  49.3006720  17.7537943  51.2715425  63.1043632  15.7484394
  50.4730671  62.8643132  16.0058263  51.7201437  63.1558025  16.4951442
  51.2190036  63.0766023  15.8969318  39.8925461  56.6519990  12.2673527
  39.7101034  56.6266876  11.4145819  40.6275130  57.1218927  12.3062435
  39.9739525  56.7181352  12.1471445  42.9571213  53.3704992  18.7755635
  43.6811185  53.3558023  19.2620530  43.0587349  54.0800348  18.2777604
  43.0789422  53.4729696  18.7734422  50.3316162  56.8504077  23.6404582
  49.5389143  57.1647589  23.8257202  50.4465089  57.0655545  22.8025367
  50.2311573  56.9287914  23.5442917  53.0047481  53.5738068   7.9299598
  53.0994335  54.3127362   8.3839224  52.3806325  53.1455544   8.3634163
  52.9256511  53.6199389   8.0607746  51.2599955  56.7524281  18.5789879
  51.8338816  56.1151525  18.7338443  51.1814759  56.7528363  17.7099537
  51.3333190  56.6589392  18.4736290  39.8596371  53.5313490  12.4172593
  40.4369874  53.3949941  13.0564839  39.1610433  53.0749274  12.6718178
  39.8417393  53.4435756  12.5494883  46.6163673  55.1847546  10.6311077
  46.3582918  54.3519281  10.6042376  46.6712156  55.4105159   9.7903577
  46.5863451  55.0945317  10.5031213  51.6964724  47.2875997  10.7315169
  50.9921050  46.7985182  10.8899088  51.7449698  47.2998471   9.8603614
  51.5994775  47.2165645  10.6254509  45.5898386  52.7385308  11.1175971
  45.0147977  52.8977477  11.7539932  45.2134062  52.1020717  10.6544422
  45.4501198  52.6683121  11.1430530  49.2571674  51.2108658  15.9768350
  48.8686107  50.7862875  15.3220541  48.5926373  51.4590807  16.4845376
  49.1018602  51.1847379  15.9556218  58.8994943  50.9683662   8.7516180
  58.6431508  50.1563604   8.5614063  59.7424257  50.9761229   8.5246367
  58.9860969  50.8495660   8.6900997  35.3355204  52.3825383   9.1320412
  35.4215456  52.0057251   9.9133942  35.9631002  52.0085829   8.6540370
  35.4411755  52.2710865   9.1765889  53.0798036  44.9083286  13.4892334
  53.4608548  44.2261458  13.8760208  52.2761320  44.6192889  13.3067998
  53.0174498  44.7650335  13.5196390  56.5820103  58.1233258  18.5874732
  56.3458740  57.2921323  18.4686793  57.2263332  58.0718866  19.1729577
  56.6414773  57.9930946  18.6560626  46.2318521  58.9128780   9.3017469
  46.8692468  58.6740527   9.8469262  46.6573592  59.1165939   8.5670629
  46.3894687  58.9079790   9.2734626  40.9231163  61.1517116  13.1851773
  40.9635308  61.4231967  12.3571552  41.4825687  61.6759024  13.6009560
  41.0114509  61.2692871  13.1243661  57.6056523  57.9077707  14.6503027
  57.3002340  58.6405764  15.0116342  56.8862739  57.5015637  14.3695813
  57.4543866  57.9559440  14.6616164  48.6139993  59.3901202  10.9811255
  48.6879001  59.2276374  11.8353105  49.4309499  59.5791392  10.7371737
  48.7456351  59.3937945  11.0709281  63.3058315  54.5470708  13.9771371
  63.2382816  54.5666667  13.1073958  63.2913978  55.3901035  14.2027042
  63.2937072  54.6744442  13.8823848  42.3745749  59.7359065   8.0105699
  41.5483867  59.9820802   7.8839977  42.4357741  59.6571146   8.8767757
  42.2619916  59.7604014   8.1194643  44.5921773  45.8028006   8.9701139
  43.7244199  45.8750606   9.0358748  44.8796977  46.6050085   9.1589114
  44.5061521  45.9322153   9.0075905  53.7154662  45.9505866  17.3012460
  54.4608254  45.7615676  16.8875886  53.2991967  46.4764103  16.7426317
  53.7639636  46.0008011  17.1577034  61.0916933  53.3215094  12.2517965
  61.6424854  52.6883163  12.4915058  61.0761048  53.8530487  12.9433470
  61.1702129  53.3064042  12.3896824  47.7439324  57.1553691  16.7977859
  47.2451017  57.8669459  16.8762747  48.5539548  57.4754358  16.7596021
  47.7895430  57.3080540  16.8034427  44.0067441  56.4176644  11.0440580
  43.7180690  55.7914116  11.5786307  44.8750789  56.3596932  11.1105260
  44.0927693  56.3164189  11.1331534  54.7945339  51.5611428  11.3622562
  54.4510105  50.8401763  11.7129811  54.8938382  51.3525279  10.5200920
  54.7587382  51.4235631  11.2894242  44.2099715  58.0571895   6.9682945
  44.9645683  58.4384934   7.1818407  43.6170327  58.5083039   7.4229641
  44.2336428  58.1800723   7.0665823  46.6706382  50.0134736  22.0940157
  45.8606157  50.3192515  21.9829999  47.1481068  50.7340318  22.2092741
  46.6209860  50.1649337  22.0947228  45.5297941  59.2280457  12.3423060
  45.0078695  59.3680748  13.0274925  45.9171962  58.4691121  12.5325178
  45.5101642  59.1365981  12.4724137  42.5189125  49.2786265   6.4118015
  42.2313921  48.9087536   5.6749962  43.2059593  49.7481121   6.1501720
  42.5778023  49.2933235   6.2633091  46.9564267  56.2584476   7.7404551
  46.7607049  56.8659210   7.1464854  47.1798612  55.5652420   7.2596225
  46.9598908  56.2462001   7.5820632  45.3542797  53.1439214   7.8585420
  46.0765449  53.3080372   7.3989226  44.8750790  53.8648878   7.7524759
  45.3906527  53.2737443   7.7751034  53.3136304  49.4803012  13.2382105
  52.4747405  49.5064291  13.0020368  53.3840672  50.1273748  13.8187451
  53.2004698  49.5799138  13.2891221  43.0050414  55.5497286  16.9639559
  43.5171510  55.8281539  16.3148319  42.7186756  56.2886580  17.3302373
  43.0385277  55.6999640  16.9229438  51.7605583  46.3788389   7.9709720
  52.4631935  46.1796138   7.4929679  51.4949771  45.6064332   8.2778564
  51.8252215  46.2351355   7.9455162  57.1893828  54.6870999  10.5243346
  57.1027803  54.8426425  11.3778125  56.7344308  55.3309075  10.1502751
  57.1097085  54.8046754  10.5950453  40.0917320  50.0567478   7.2603296
  40.1933456  50.8593639   7.5884271  40.8873207  49.8554814   6.9626377
  40.2245225  50.1453377   7.2638651  46.5234139  47.6423675  17.0240601
  46.3317336  47.6578809  17.8740025  47.3732735  47.8387349  17.0007256
  46.6209861  47.6738026  17.1463896  51.0619644  52.0081746   9.1468906
  50.8154359  51.9277497   9.9805695  51.3904767  51.2235214   8.9531433
  51.0740888  51.8808012   9.2416429  54.9567693  58.7165106  12.9355687
  54.8182052  59.4146151  13.4404429  54.1767691  58.5613762  12.5791869
  54.8210920  58.7965272  12.9581961  53.2945778  55.0161481  19.1878069
  53.2893817  54.1441298  19.1920495  54.0006772  55.2149650  18.7147524
  53.3990782  54.9165355  19.1185104  47.0216672  54.7438465  18.5591889
  47.1660047  55.3239673  17.9234999  47.3692320  55.1214762  19.2641744
  47.0944133  54.8859169  18.5690884  49.1936589  53.9428633  16.3417021
  48.4459903  54.1359648  15.9365299  49.3478114  53.1173853  16.1041142
  49.1059017  53.8493745  16.2462426  46.0944427  62.9341237  15.4252916
  46.2433990  62.3744153  14.7726320  46.8744429  63.0133238  15.8085435
  46.2318520  62.8626802  15.3849865  48.6197727  63.1055880  16.7037407
  48.5441398  62.4364690  17.2588195  48.5487586  63.8073668  17.2178073
  48.5978334  63.1100787  16.8614255  49.4338366  47.8379184  17.2312424
  49.8910980  48.5703158  17.3585216  49.5094695  47.4145649  17.9899680
  49.5129336  47.8836422  17.3613501  41.6771357  48.0845004  18.3201868
  41.1413547  47.4725362  18.6362635  41.7389122  48.6593140  18.9735535
  41.6066990  48.0791931  18.4637295  53.9065692  41.0169059  11.1006267
  54.0249260  41.4745522  10.3673570  53.7327868  40.2114320  10.8142485
  53.8984863  40.9662831  10.9507201  47.3120744  49.8281288  14.0754248
  46.5216819  49.6472748  14.3971584  47.7081367  49.0508240  14.0584543
  47.2537620  49.6868749  14.1206797  52.6964430  57.4623718  11.8013694
  52.0209432  57.2308950  12.3027081  52.7056806  56.8544901  11.1755799
  52.5982935  57.3382643  11.7829846  49.8258574  52.3041547  18.5577747
  49.7617715  53.1651503  18.4297884  49.9655762  51.9873540  17.7573298
  49.8374044  52.3841714  18.4205960  48.5077668  54.9973686  12.6993950
  48.0839917  55.1978185  11.9632968  48.3322523  54.1502534  12.8118250
  48.4188549  54.9022468  12.6067640  48.0089362  66.5124199  15.1615407
  48.4985292  65.8134989  14.9791072  47.4373594  66.2148069  15.7491465
  47.9973891  66.3650423  15.2216448  43.7960113  55.4925738   8.1321923
  43.9524732  55.4272541   8.9877915  44.1360706  56.2674290   7.9200602
  43.8693348  55.5974936   8.2276517  54.2056365  59.0786269  24.1142198
  55.0191230  58.8071418  24.2747331  54.0451331  58.7793809  23.3102394
  54.3026314  58.9941195  24.0187604  51.4828527  49.7619926  17.0537586
  51.6970497  49.1230840  16.5000940  50.8662426  50.2065750  16.6245448
  51.4233856  49.7330070  16.9088017  40.3694375  52.6760688   8.4482690
  40.7493339  53.0945233   7.7842957  39.7949739  53.2574144   8.7551533
  40.3405699  52.8238547   8.3959431  53.6467615  51.3708991  17.9920893
  52.8344297  51.0634881  18.0734066  54.1057550  50.8907991  18.5563606
  53.5948000  51.2545483  18.0875488  50.8743256  42.8719862  12.0424929
  50.0036814  42.8458583  11.9958239  51.1283597  42.6997054  11.2250775
  50.7836816  42.8430005  11.9145066  50.7421123  52.7769063  22.7749596
  51.2120754  53.4011179  23.1617470  50.7883003  52.1086038  23.3342810
  50.8188998  52.7703743  22.9149667  47.8992396  44.8826090  13.4998399
  47.3830885  44.1906281  13.6249978  47.3386325  45.5496867  13.4460998
  47.7398909  44.8789348  13.5104465  49.9684630  45.4219050  15.3291252
  49.5816383  45.4468082  16.1104782  49.4817567  44.8560729  14.8765769
  49.8397139  45.3414801  15.3779156  54.2177609  60.1392559  19.3865039
  54.8557330  59.6452755  19.0527495  53.5751701  60.0669959  18.8017265
  54.2171836  60.0551568  19.2507394  55.9434609  51.9881705  13.9530954
  55.5162217  51.9008054  13.1979054  55.3060662  52.0959481  14.5385798
  55.7864216  51.9914365  13.9276396  49.6341771  42.3086036  17.6201512
  50.2634889  42.8446336  17.3422582  49.8027634  42.2163394  18.4715078
  49.7519566  42.3747398  17.7050040  54.2731866  60.8312367  16.0270395
  55.0624244  60.4801432  16.1472477  54.4475463  61.6448756  15.7647029
  54.4152147  60.8998224  16.0058263  44.0125176  54.2421093  13.0798184
  43.1713183  54.1424967  13.2877078  44.2215184  55.0116573  13.4312505
  43.9189869  54.3413136  13.1625499  41.4900743  51.8640630  10.9082935
  41.0957441  51.9383642  10.1333044  40.9340860  52.2498576  11.4591297
  41.3503555  51.9322405  10.8750595  53.1265690  44.8421924  10.5886814
  53.3315283  44.7744232  11.4343811  52.7992114  45.6480745  10.5207991
  53.1080938  44.9507864  10.7046469  47.8241841  52.1702492  12.3295782
  47.5204978  51.6158480  12.9306189  47.1221262  52.3494702  11.8423816
  47.6758051  52.1147275  12.3465487  46.8807938  49.4803012   6.8940484
  47.1567672  48.7621925   6.4818051  47.4806607  50.0787932   6.6861590
  47.0101203  49.4623383   6.8021245  45.8860192  59.3852213  17.0367879
  45.7780547  59.3954275  17.9029938  46.0955973  60.2106993  16.8472833
  45.9010303  59.5093288  17.1371971  56.3799378  45.3953688  10.0689579
  55.7673691  45.8824090  10.4543311  56.4763552  44.7197179  10.6127230
  56.3037275  45.3671997  10.2068437  50.3818459  47.1516529   5.1687079
  50.8362205  47.3227090   5.8934923  50.8558504  46.5384640   4.7684854
  50.5186779  47.0867415   5.2160840  43.9033984  56.6364855  14.4989817
  43.3121917  57.2774354  14.4692832  44.6655007  57.0602473  14.4721117
  43.9282245  56.7940694  14.4904964  44.2994607  47.7966853  15.1657835
  44.7596088  47.8705783  15.9032958  44.3450713  48.5948107  14.8157656
  44.3745162  47.9261000  15.2230591  45.9477956  48.4633548  19.7329862
  45.5563522  47.8166895  20.1685640  46.1163819  49.0544983  20.3524117
  45.9148867  48.4547816  19.8892568  60.0224405  56.4670625  15.4967095
  60.0807529  56.9157274  16.2427072  59.3890873  56.8769438  15.0597175
  59.9375701  56.5944360  15.5419644  47.7231479  53.8559064   6.2732086
  48.4673523  54.2433340   6.5115036  47.8692175  53.0116489   6.4372574
  47.8542064  53.7889537   6.3326056  49.6411054  45.6509323  11.3063947
  48.7947099  45.8232130  11.1805297  49.6382186  44.8458666  11.6429776
  49.5158204  45.5570352  11.3375074  50.7109354  49.4284537  12.1726005
  50.2369309  48.9026299  12.6831316  51.0827490  48.8814010  11.6040867
  50.6959243  49.2700534  12.1641152  56.9746085  54.4886913  13.5832786
  56.7344308  53.6493328  13.5875212  57.4538092  54.5687079  14.3073559
  57.0098269  54.3768312  13.6907588  58.9751272  51.2688370  11.5362045
  58.7361042  51.2284204  10.6982829  59.1385173  52.1159522  11.6627766
  58.9641575  51.3880455  11.4315527  55.5797302  55.6538319  17.4667090
  56.3031501  55.2010846  17.2878110  55.3147264  55.9342985  16.6839418
  55.6478575  55.6289288  17.3245805  44.4484170  50.2498493  14.2019969
  43.8237241  50.2616885  13.5945922  44.1129765  50.7258668  14.8511209
  44.3069662  50.3217010  14.2076538  41.1609846  58.3098953  15.6423733
  40.6309771  57.6191392  15.6918708  41.4334939  58.3009138  14.8136442
  41.1234568  58.2066085  15.5271149  51.3616092  55.7522197  15.6162105
  50.7473085  55.2080248  15.9110740  51.8783377  55.2386434  15.1367921
  51.3471754  55.5958607  15.5886333  50.6012389  56.8226467  13.3506404
  50.1739997  56.1976186  12.9171839  50.5937333  56.5401389  14.1765411
  50.5371530  56.6879248  13.4086231  43.7174916  51.8591641  16.4194838
  43.8768403  51.1034965  16.8246560  43.5367809  52.4082580  17.0735575
  43.7140275  51.8285454  16.5757544  51.6595219  44.0252876  16.9745627
  51.1635780  44.2216550  16.2837194  52.4164281  44.4245544  16.8034429
  51.6982044  44.1130610  16.8465764  48.9298098  47.6995222  13.5648938
  48.9540586  47.1655334  12.8761718  49.1809572  47.1912531  14.2274528
  48.9708017  47.5456126  13.5613582  36.4405688  54.9826717  12.9992082
  36.3349137  54.9373561  12.1344166  35.6905908  55.3280498  13.2806367
  36.3141291  55.0267625  12.9129411  45.2099421  46.4266040  12.9454682
  45.2497792  46.9275247  13.6589389  44.3849085  46.5176434  12.6760605
  45.0938947  46.5147857  13.0105220  47.3929034  55.9926780  21.0474976
  46.5424664  56.1298495  21.1832621  47.5557161  55.2590559  21.4922678
  47.2912897  55.9040881  21.1330576  46.6313784  52.9426550  15.2428581
  45.8005714  53.1100368  15.0363829  46.5765301  52.5662501  16.0277466
  46.5003199  52.9116281  15.3277109  45.0049828  51.2182142   5.7718699
  45.1452789  51.7154606   6.4747340  45.5032361  50.5168436   5.9132912
  45.0990909  51.1884120   5.8970278  58.0132616  54.6164730  15.9697640
  58.6050456  55.2561981  16.0015838  58.4491611  53.9187767  16.2589706
  58.1651047  54.6083080  16.0178472  46.6129033  48.0163228   3.0756717
  46.9344874  47.5366311   2.4215980  46.8755977  48.8262874   2.8847529
  46.6995059  48.0653126   2.9512210  49.8426006  59.0382102  16.5955534
  49.3351097  59.5917949  17.0396164  49.5452652  59.0990392  15.7774308
  49.7230891  59.1288414  16.5403990  52.0088188  47.4035422  15.4380197
  52.4343260  46.9507948  14.8263723  51.3945181  46.8495493  15.7144984
  51.9816834  47.2549398  15.3885222  41.5403038  54.2817093   6.3700821
  42.0495268  54.8781601   6.7512127  42.0137310  54.0143067   5.6877241
  41.6846414  54.3302909   6.3255344  50.4482411  43.8750522   8.8470774
  49.8050729  43.7248168   9.4155912  50.1081818  43.6292867   8.0819878
  50.3027488  43.8162644   8.8173789  55.0381757  51.8309949   8.2700782
  54.3672947  52.3739651   8.1413848  55.7321508  52.3004804   8.0282477
  55.0410625  51.9808220   8.2156310  49.0868491  63.9706661  13.5012540
  48.8634146  63.2125490  13.8696567  48.5978334  64.0004682  12.7792980
  48.9811940  63.8628885  13.4489281  55.2009885  48.2865832  11.1791155
  55.5537495  47.8595555  11.8536954  54.3424686  48.2016676  11.3092232
  55.1259330  48.2110573  11.2986166  43.8993570  50.9173352   9.2374002
  43.1805559  51.3337485   9.5046865  44.2705932  51.4827591   8.6865640
  43.8485502  51.0622633   9.1956809  53.1993151  51.5501201  15.1275998
  53.1791078  51.3684496  15.9810776  53.2472351  52.4213219  15.1035581
  53.2027792  51.6517739  15.2499292  51.1439481  58.1388393  21.0524474
  51.1035335  57.4938070  20.4669630  51.9562799  58.0825010  21.3649886
  51.2582634  58.0347360  21.0121423  49.6740144  49.9571352   4.5747381
  49.0804984  50.2788348   4.0231948  49.7115422  49.1112447   4.3668487
  49.5914533  49.8795680   4.4630153  56.6333945  43.4084244  12.1075468
  56.1264810  42.7013384  12.0396645  57.4301379  43.0777433  12.2376544
  56.6761184  43.2557396  12.1174463  52.5497961  49.9150856   8.0049132
  52.3211654  49.9383558   7.1627490  52.8096037  49.0908323   8.1244142
  52.5544149  49.7966936   7.8974329  46.8317189  51.7685329  17.6074232
  46.3196092  51.1606512  17.9659263  46.6596685  52.4841922  18.0748208
  46.7306826  51.7848629  17.7290455  41.6782904  50.2122905  20.2576594
  41.5085494  50.8724280  19.7124800  41.2348854  50.4229466  20.9789083
  41.5882238  50.3408887  20.2838223  45.6042723  48.4527403   9.3003327
  46.0800090  48.8144483   8.6653508  45.1031323  49.1083870   9.5803470
  45.6008082  48.6021591   9.2480068  50.7086260  49.6909574  20.0476487
  51.2657690  49.4623384  19.4154953  50.3847325  50.4515240  19.7711700
  50.7432670  49.7693411  19.9132984  48.4269377  52.7777227  21.0128494
  49.1780704  53.0928904  21.3268049  48.6191953  52.5756398  20.1862416
  48.5660791  52.7944609  20.9371890  55.2754667  48.9050794   8.2552290
  55.2748893  48.7499450   9.1136566  55.0710847  49.7513781   8.1993675
  55.2454445  49.0071414   8.3740229  37.3371938  52.3290578  12.6711106
  37.1593699  51.8767187  13.3966022  37.0490960  53.1316740  12.8549584
  37.2684891  52.3813136  12.8054609  52.9995519  53.5848295  11.9088497
  53.4949184  52.8671291  11.8692517  52.1895295  53.2819093  11.7942984
  52.9539412  53.4345942  11.8862223  39.0744408  54.8618302   9.7832866
  38.2089927  54.8503992   9.6715637  39.1743224  54.6748525  10.6304005
  38.9618575  54.8324363   9.8921810  55.0647338  56.3351983  14.5965626
  55.4902409  55.8126405  14.0436051  54.7004258  56.9332820  14.0754248
  55.0733941  56.3462210  14.4374635  44.7001418  64.6316200  13.3562971
  45.0147977  65.4452589  13.3640753  45.1094831  64.2466419  14.0245130
  44.8069516  64.6944903  13.4567063  51.6525937  60.0486247  10.9266783
  52.1237116  60.7626510  11.0956768  51.9886116  59.4484997  11.4626652
  51.7721052  60.0657712  11.0299159  53.7402922  61.6587561  23.1058855
  53.8499887  60.8696121  23.4615602  54.0693819  61.5693497  22.3033193
  53.8055328  61.5293414  23.0401246  48.5695432  44.8213718  17.8824878
  48.7023338  44.0244711  18.2105853  48.9540585  45.3480121  18.4623153
  48.6451761  44.7813635  18.0168381  52.2899884  59.8404181  17.6894476
  51.7420830  59.2162065  17.4214541  52.7512912  60.0298453  16.9738555
  52.2767093  59.7763232  17.5444907  51.6427788  41.7444044  14.4805971
  50.8373751  41.6341774  14.7973809  51.5134523  41.8456500  13.6235837
  51.5047920  41.7427714  14.4014011  55.0993748  47.9089536  15.0745668
  54.5156737  48.4098742  14.6623235  55.4198042  47.4019092  14.4409991
  55.0606923  47.9081371  14.9204175  47.6388547  46.8230131   5.3504343
  48.4604242  46.9928444   5.1086038  47.1758198  46.9777392   4.6270640
  47.6919709  46.8711864   5.2075987  46.2283879  44.8172893  16.1302772
  46.7728292  44.4764020  16.7207113  46.2820815  45.6758354  16.2724056
  46.3172999  44.8928152  16.2384645  42.0414438  58.5789309  13.0041579
  42.6459295  58.5385143  12.3755400  41.8341750  59.4260461  13.0345635
  42.1003335  58.6977311  12.9157696  51.8558210  60.8455254  14.2203817
  52.6756584  60.7018220  14.4820112  51.5752288  61.4701453  14.7620255
  51.9354953  60.9165606  14.3391756  37.2765720  57.5623926  12.8740503
  37.1789998  56.7520198  13.1830559  38.0594590  57.5415720  12.4886771
  37.3781857  57.4391017  12.8627366  56.1502914  68.7914587  20.1508862
  56.3223418  68.6820482  20.9994144  56.6872271  69.4368992  19.9140055
  56.2547918  68.8706589  20.2413959  55.2063237  64.9224896  17.6328790
  54.5135034  64.4521876  17.8789522  55.8223565  64.6963201  18.2070497
  55.1947767  64.8192028  17.7537943  53.9303796  68.8890300  18.7755635
  54.6543769  68.8743331  19.2620530  54.0319933  69.5985656  18.2777604
  54.0522005  68.9915004  18.7734422  61.3048746  72.3689385  23.6404582
  60.5121726  72.6832897  23.8257202  61.4197673  72.5840853  22.8025367
  61.2044156  72.4473222  23.5442917  58.0122460  62.9322793  23.3554942
  57.6975901  63.7022355  23.0924505  57.6912392  62.3693049  22.7707169
  57.9181379  62.9633061  23.2296292  64.6887245  61.4691173  17.3012460
  65.4340837  61.2800984  16.8875886  64.2724550  61.9949411  16.7426317
  64.7372220  61.5193319  17.1577034  57.6438965  65.5320044  22.0940157
  56.8338741  65.8377823  21.9829999  58.1213652  66.2525626  22.2092741
  57.5942444  65.6834645  22.0947228  57.4966722  63.1608983  17.0240601
  57.3049920  63.1764117  17.8740025  58.3465318  63.3572657  17.0007256
  57.5942444  63.1923334  17.1463896  51.8813635  65.6899964  15.0024418
  51.7399127  64.8383905  15.1268926  52.1654199  65.7328625  14.1786624
  51.9021482  65.5699714  14.8992042  60.4070950  63.3564492  17.2312424
  60.8643564  64.0888466  17.3585216  60.4827278  62.9330957  17.9899680
  60.4861919  63.4021730  17.3613501  52.6503941  63.6030312  18.3201868
  52.1146130  62.9910670  18.6362635  52.7121705  64.1778448  18.9735535
  52.5799573  63.5977239  18.4637295  61.7153706  68.2954370  22.7749596
  62.1853337  68.9196487  23.1617470  61.7615586  67.6271346  23.3342810
  61.7921582  68.2889051  22.9149667  58.8724980  60.4011398  13.4998399
  58.3563468  59.7091589  13.6249978  58.3118909  61.0682175  13.4460998
  58.7131493  60.3974656  13.5104465  60.9417213  60.9404358  15.3291252
  60.5548966  60.9653389  16.1104782  60.4550150  60.3746037  14.8765769
  60.8129722  60.8600109  15.3779156  60.6074355  57.8271343  17.6201512
  61.2367473  58.3631644  17.3422582  60.7760218  57.7348702  18.4715078
  60.7252149  57.8932706  17.7050040  60.4088270  62.6142538  19.8927924
  61.2361699  62.3427687  19.9486538  60.4296116  63.4103380  20.2491742
  60.5341120  62.6922292  19.9543106  55.2727190  63.3152161  15.1657835
  55.7328672  63.3891090  15.9032958  55.3183297  64.1133415  14.8157656
  55.3477746  63.4446308  15.2230591  56.9210540  63.9818856  19.7329862
  56.5296105  63.3352203  20.1685640  57.0896403  64.5730291  20.3524117
  56.8881450  63.9733124  19.8892568  52.0614968  66.9441352  17.5409551
  52.9240581  66.8437061  17.4546881  51.7306751  66.3636061  16.9795123
  52.1400164  66.8432978  17.4454957  54.6907499  67.3776948  16.4194838
  54.8500986  66.6220273  16.8246560  54.5100393  67.9267888  17.0735575
  54.6872858  67.3470762  16.5757544  62.6327802  59.5438184  16.9745627
  62.1368364  59.7401858  16.2837194  63.3896864  59.9430852  16.8034429
  62.6714627  59.6315918  16.8465764  56.1832004  61.9451348  12.9454682
  56.2230376  62.4460555  13.6589389  55.3581669  62.0361742  12.6760605
  56.0671530  62.0333165  13.0105220  58.3661617  71.5112088  21.0474976
  57.5157248  71.6483802  21.1832621  58.5289745  70.7775866  21.4922678
  58.2645481  71.4226189  21.1330576  55.4130151  61.9520751  20.8784992
  56.0382854  61.4082884  21.1514424  54.9580631  61.4715669  20.3092782
  55.4378412  61.8010232  20.8346585  57.8049773  67.2870637  17.6074232
  57.2928676  66.6791820  17.9659263  57.6329269  68.0027230  18.0748208
  57.7039410  67.3033937  17.7290455  52.6515488  65.7308213  20.2576594
  52.4818078  66.3909588  19.7124800  52.2081437  65.9414774  20.9789083
  52.5614821  65.8594195  20.2838223  61.6818843  65.2094882  20.0476487
  62.2390273  64.9808692  19.4154953  61.3579908  65.9700548  19.7711700
  61.7165253  65.2878719  19.9132984  49.5517552  68.6355078  15.5165083
  49.0044272  67.9655724  15.6345952  50.3409930  68.2684926  15.5808551
  49.5869736  68.4820065  15.5433784  59.4001960  68.2962535  21.0128494
  60.1513287  68.6114212  21.3268049  59.5924537  68.0941706  20.1862416
  59.5393375  68.3129917  20.9371890  59.5428016  60.3399026  17.8824878
  59.6755922  59.5430019  18.2105853  59.9273169  60.8665429  18.4623153
  59.6184345  60.2998942  18.0168381  62.6160371  57.2629352  14.4805971
  61.8106335  57.1527082  14.7973809  62.4867107  57.3641808  13.6235837
  62.4780504  57.2613022  14.4014011  57.2016463  60.3358201  16.1302772
  57.7460876  59.9949328  16.7207113  57.2553398  61.1943662  16.2724056
  57.2905582  60.4113460  16.2384645  42.5850919  19.7589798   8.4800127
  43.2917686  19.2641828   8.6087061  42.7738854  20.1998879   7.7502785
  42.7178824  19.7508148   8.3909172  39.7243213  23.1817334   6.3714202
  39.8126559  22.9943475   7.2192412  40.1532925  22.5354764   5.9719049
  39.8005315  23.0580342   6.4385953  37.2913673  22.4648494   5.3531864
  36.7284507  22.0521104   5.8771525  38.0534696  22.3901400   5.7725007
  37.3208121  22.3925895   5.4924864  39.8363272  22.6126353   9.0357985
  40.6203689  22.7257201   9.4013728  39.6359867  21.7867490   9.2316671
  39.9229298  22.5073073   9.1192371  39.9933666  24.5236455   2.6824441
  39.1948911  24.2835955   2.9398310  40.4419677  24.5750848   3.4291489
  39.9408277  24.4958847   2.8309365  39.0534402  18.2696900  10.5744629
  38.2607383  18.5840412  10.7597249  39.1683330  18.4848369   9.7365414
  38.9529813  18.3480737  10.4782964  39.9818195  18.1717104   5.5129926
  40.5557057  17.5344348   5.6678490  39.9032999  18.1721186   4.6439584
  40.0551430  18.0782215   5.4076337  45.3038343  19.5426082   5.5214779
  45.0676980  18.7114146   5.4026840  45.9481572  19.4911689   6.1069623
  45.3633014  19.4123770   5.5900673  46.3274764  19.3270530   1.5843074
  46.0220581  20.0598587   1.9456389  45.6080979  18.9208460   1.3035860
  46.1762106  19.3752263   1.5956211  35.3924622  11.4327559   9.0280204
  34.5824398  11.7385339   8.9170046  35.8699309  12.1533141   9.1432788
  35.3428101  11.5842160   9.0287275  42.0164019  16.4354304   6.1218116
  42.0112057  15.5634121   6.1260542  42.7225012  16.6342473   5.6487571
  42.1209023  16.3358178   6.0525151  37.3415968  24.5248703   3.6377453
  37.2659639  23.8557513   4.1928242  37.2705827  25.2266491   4.1518120
  37.3196574  24.5293610   3.7954301  36.7307602  27.9317023   2.0955454
  37.2203532  27.2327812   1.9131119  36.1591834  27.6340893   2.6831511
  36.7192132  27.7843246   2.1556495  42.9274605  20.4979092  11.0482245
  43.7409471  20.2264241  11.2087377  42.7669572  20.1986632  10.2442441
  43.0244554  20.4134018  10.9527651  39.4639363  14.1961886   9.7089642
  39.9338994  14.8204002  10.0957517  39.5101243  13.5278861  10.2682857
  39.5407239  14.1896566   9.8489714  42.9395849  21.5585382   6.3205085
  43.5775570  21.0645578   5.9867541  42.2969941  21.4862783   5.7357312
  42.9390076  21.4744391   6.1847440  42.9950106  22.2505191   2.9610442
  43.7842484  21.8994255   3.0812524  43.1693704  23.0641579   2.6987076
  43.1370388  22.3191048   2.9398310  34.6078432  20.8045036   3.9707926
  34.4998787  20.8147098   4.8369984  34.8174214  21.6299817   3.7812880
  34.6228543  20.9286111   4.0712018  48.7442646  17.8863448   2.4307142
  48.8025770  18.3350097   3.1767119  48.1109113  18.2962261   1.9937222
  48.6593941  18.0137183   2.4759690  44.3015542  17.0731142   4.4007137
  45.0249741  16.6203669   4.2218157  44.0365505  17.3535808   3.6179465
  44.3696816  17.0482111   4.2585852  36.1147274  17.4119604   7.9815023
  35.2642904  17.5491318   8.1172668  36.2775402  16.6783382   8.4262725
  36.0131137  17.3233705   8.0670622  46.7350856  16.0357553   2.9037686
  47.3268697  16.6754804   2.9355884  47.1709851  15.3380590   3.1929753
  46.8869288  16.0275904   2.9518519  38.5644246  20.4574926   3.5295580
  38.0569337  21.0110773   3.9736211  38.2670892  20.5183216   2.7114355
  38.4449131  20.5481237   3.4744037  39.8657721  19.5581216   7.9864521
  39.8253576  18.9130893   7.4009677  40.6781039  19.5017834   8.2989933
  39.9800874  19.4540183   7.9461470  37.1487617  14.1970051   7.9468541
  37.8998944  14.5121727   8.2608095  37.3410194  13.9949222   7.1202463
  37.2879031  14.2137432   7.8711937  42.4621162  23.0780384  10.0398902
  42.5718128  22.2888944  10.3955649  42.7912059  22.9886320   9.2373240
  42.5273568  22.9486237   9.9741293  41.0118124  21.2597005   4.6234522
  40.4639070  20.6354888   4.3554588  41.4731153  21.4491277   3.9078602
  40.9985334  21.1956055   4.4784954  40.5776450  22.2648077   1.1543864
  41.3974824  22.1211043   1.4160159  40.2970528  22.8894276   1.6960302
  40.6573194  22.3358429   1.2731803  50.2489786  29.0088580  -1.1260330
  49.3927681  29.1697078  -1.0751213  50.2957439  28.1380644  -1.1055269
  50.1288897  28.9039382  -1.1154264  53.5583502  35.2775106   8.4800127
  54.2650269  34.7827136   8.6087061  53.7471438  35.7184187   7.7502785
  53.6911408  35.2693456   8.3909172  53.0941607  31.0680624   1.5171322
  53.6397567  31.7465711   1.5765292  53.0358483  30.9268085   0.6572904
  53.1657521  31.1472626   1.3983383  46.2115681  38.5569690  -3.0960326
  46.3126044  37.7470044  -2.7863198  45.6157427  38.4626636  -3.7260647
  46.1388220  38.4234718  -3.1434087  46.0516421  43.4747279  -1.6945469
  46.6953877  43.9160443  -1.3049311  46.3772677  42.6700705  -1.7815211
  46.1948250  43.4212474  -1.6499992  39.4080726  34.5789977  -3.4707992
  39.1730910  33.7457629  -3.5775723  39.5466367  34.8594642  -4.2846791
  39.3936388  34.4973480  -3.6065637  41.7070813  26.7475707  -0.5723684
  41.0875845  26.1568355  -0.7413669  41.6054677  27.3387142  -1.2059361
  41.6008489  26.7479790  -0.6918695  41.4339946  30.2927989   1.6719885
  41.3098643  30.8790434   2.3069704  42.0858231  29.7988185   1.9732160
  41.5113596  30.3066793   1.8105814  46.4598287  33.4689706   0.9507396
  47.1047290  32.9762149   0.6318344  46.7000064  33.6114493   1.7773474
  46.5908872  33.4167148   1.0256929  48.9984379  36.3144612   0.6014288
  49.2807621  35.5196018   0.3801044  49.7270539  36.7925199   0.6219349
  49.1473942  36.2679209   0.5717304  46.9765572  23.8567646  -2.1569946
  46.6468902  24.3078789  -2.8266248  46.3010574  23.7783809  -1.6096940
  46.8276009  23.9118781  -2.1746723  40.9698050  39.4575647  -2.1951786
  40.4865629  40.1826137  -2.2192202  41.7821369  39.7551777  -2.0841628
  41.0188798  39.6078001  -2.1824506  47.0412205  38.2507828   0.4098029
  46.5239146  37.8915243  -0.1940663  47.7386596  37.7270003   0.4204095
  47.0677786  38.1205516   0.3228287  50.6975796  38.7002642   6.3714202
  50.7859142  38.5128783   7.2192412  51.1265509  38.0540072   5.9719049
  50.7737899  38.5765650   6.4385953  48.2646256  37.9833802   5.3531864
  47.7017091  37.5706412   5.8771525  49.0267280  37.9086708   5.7725007
  48.2940705  37.9111203   5.4924864  43.8242248  39.9731823  -2.0431506
  44.5262827  39.4583812  -1.9858749  43.7439731  40.3005975  -1.2384631
  43.9166008  39.9446050  -1.9158714  58.4756425  28.0674375   1.3700541
  57.6384846  28.1376562   1.6048135  58.4444656  28.0698869   0.4974843
  58.3474708  28.0784602   1.2760089  44.8721154  30.2107410   7.0848909
  45.0441658  30.1013305   7.9334191  45.4090512  30.8561816   6.8480102
  44.9766158  30.2899412   7.1754006  43.1493023  36.1638175  -2.5345898
  43.9881923  36.3961108  -2.4872136  43.1804792  35.2942487  -2.6038862
  43.2774741  36.0695122  -2.5381253  43.7745726  36.5839051   1.7667408
  44.3143951  36.4410182   2.4370780  43.0915672  36.9835801   2.1351434
  43.7537880  36.6218721   1.9201829  53.1986611  32.2630051  -3.0387568
  53.9544126  32.6961566  -2.9998659  53.3048935  31.6134821  -2.4652932
  53.3256782  32.2307535  -2.9489542  50.8095856  38.1311661   9.0357985
  51.5936272  38.2442509   9.4013728  50.6092450  37.3052798   9.2316671
  50.8961881  38.0258381   9.1192371  39.1782871  32.8039341   1.9201829
  38.9121286  31.9878458   2.0792820  39.1921435  32.8492497   1.0497345
  39.1407594  32.6896246   1.8155311  43.9281478  26.3417720   4.5668837
  43.2353274  25.8714699   4.8129569  44.5441805  26.1156024   5.1410544
  43.9166008  26.2384851   4.6877990  50.9666249  40.0421763   2.6824441
  50.1681495  39.8021263   2.9398310  51.4152261  40.0936156   3.4291489
  50.9140860  40.0144154   2.8309365  39.5876285  33.5898121  -0.7986426
  39.4051858  33.5645007  -1.6514134  40.3225954  34.0597059  -0.7597518
  39.6690349  33.6559483  -0.9188508  42.6522037  30.3083124   5.7095682
  43.3762009  30.2936154   6.1960577  42.7538173  31.0178479   5.2117650
  42.7740246  30.4107827   5.7074469  50.0266986  33.7882208  10.5744629
  49.2339967  34.1025720  10.7597249  50.1415913  34.0033677   9.7365414
  49.9262397  33.8666045  10.4782964  52.6998305  30.5116199  -5.1360355
  52.7945159  31.2505493  -4.6820729  52.0757148  30.0833675  -4.7025790
  52.6207335  30.5577520  -5.0052207  50.9550779  33.6902412   5.5129926
  51.5289640  33.0529656   5.6678490  50.8765582  33.6906494   4.6439584
  51.0284014  33.5967523   5.4076337  39.5547195  30.4691621  -0.6487360
  40.1320698  30.3328072  -0.0095115  38.8561257  30.0127406  -0.3941776
  39.5368217  30.3813888  -0.5165070  46.3114497  32.1225677  -2.4348877
  46.0533742  31.2897412  -2.4617577  46.3662980  32.3483290  -3.2756376
  46.2814275  32.0323448  -2.5628740  51.3915548  24.2254128  -2.3344784
  50.6871874  23.7363313  -2.1760865  51.4400522  24.2376602  -3.2056340
  51.2945599  24.1543776  -2.4405444  45.2849210  29.6763440  -1.9483982
  44.7098801  29.8355608  -1.3120021  44.9084886  29.0398849  -2.4115531
  45.1452022  29.6061252  -1.9229424  48.9522498  28.1486789   2.9108397
  48.5636931  27.7241007   2.2560588  48.2877197  28.3968938   3.4185423
  48.7969426  28.1225510   2.8896264  52.7748860  21.8461418   0.4232381
  53.1559371  21.1639589   0.8100255  51.9712144  21.5571020   0.2408045
  52.7125321  21.7028466   0.4536437  56.2770927  35.0611390   5.5214779
  56.0409564  34.2299454   5.4026840  56.9214156  35.0096997   6.1069623
  56.3365597  34.9309078   5.5900673  45.9269345  35.8506911  -3.7642484
  46.5643292  35.6118658  -3.2190691  46.3524416  36.0544070  -4.4989324
  46.0845511  35.8457921  -3.7925327  40.6181987  38.0895247   0.1191819
  40.6586132  38.3610098  -0.7088401  41.1776511  38.6137155   0.5349607
  40.7065333  38.2071002   0.0583708  46.7340700  24.3515616  10.2894989
  46.4194141  25.1215179  10.0264552  46.4130633  23.7885872   9.7047216
  46.6399619  24.3825885  10.1636339  57.3007347  34.8455838   1.5843074
  56.9953164  35.5783895   1.9456389  56.5813563  34.4393768   1.3035860
  57.1494690  34.8937571   1.5956211  48.3090817  36.3279333  -2.0848698
  48.3829825  36.1654505  -1.2306848  49.1260323  36.5169523  -2.3288217
  48.4407175  36.3316076  -1.9950673  42.0696573  36.6737196  -5.0554255
  41.2434691  36.9198934  -5.1819976  42.1308565  36.5949277  -4.1892197
  41.9570740  36.6982145  -4.9465310  53.4105486  22.8883997   4.2352507
  54.1559078  22.6993807   3.8215933  52.9942790  23.4142235   3.6766364
  53.4590460  22.9386142   4.0917081  47.4390148  34.0931822   3.7317906
  46.9401841  34.8047590   3.8102794  48.2490372  34.4132489   3.6936068
  47.4846254  34.2458671   3.7374474  43.7018265  33.3554775  -2.0219373
  43.4131514  32.7292247  -1.4873646  44.5701613  33.2975063  -1.9554693
  43.7878517  33.2542320  -1.9328419  54.4896163  28.4989559  -1.7037392
  54.1460929  27.7779894  -1.3530142  54.5889205  28.2903410  -2.5459033
  54.4538206  28.3613762  -1.7765712  43.9050539  34.9950027  -6.0977008
  44.6596507  35.3763066  -5.8841546  43.3121151  35.4461170  -5.6430312
  43.9287252  35.1178854  -5.9994130  46.3657206  26.9512867   9.0280204
  45.5556981  27.2570647   8.9170046  46.8431892  27.6718449   9.1432788
  46.3160684  27.1027468   9.0287275  45.2248765  36.1658588  -0.7236893
  44.7029519  36.3058880  -0.0385028  45.6122785  35.4069252  -0.5334776
  45.2052466  36.0744112  -0.5935816  46.6515091  33.1962607  -5.3255402
  46.4557873  33.8037341  -5.9195099  46.8749436  32.5030551  -5.8063728
  46.6549732  33.1840132  -5.4839321  45.0493621  30.0817345  -5.2074534
  45.7716273  30.2458503  -5.6670728  44.5701614  30.8027010  -5.3135194
  45.0857351  30.2115574  -5.2908920  53.0087128  26.4181144   0.1722151
  52.1698229  26.4442423  -0.0639585  53.0791496  27.0651879   0.7527498
  52.8955522  26.5177269   0.2231268  42.7001237  32.4875417   3.8979606
  43.2122334  32.7659671   3.2488366  42.4137580  33.2264711   4.2642419
  42.7336101  32.6377771   3.8569484  56.8844652  31.6249130  -2.5416607
  56.7978627  31.7804556  -1.6881828  56.4295132  32.2687206  -2.9157202
  56.8047909  31.7424885  -2.4709500  46.2184963  24.5801806   3.9580648
  46.0268160  24.5956940   4.8080071  47.0683559  24.7765480   3.9347303
  46.3160685  24.6116157   4.0803943  40.6031876  27.1092787   1.9364464
  40.4617368  26.2576728   2.0608972  40.8872439  27.1521448   1.1126670
  40.6239722  26.9892537   1.8332088  50.7570468  28.9459877  -3.9191047
  50.5105183  28.8655628  -3.0854258  51.0855591  28.1613345  -4.1128520
  50.7691712  28.8186143  -3.8243524  54.6518517  35.6543237  -0.1304266
  54.5132876  36.3524283   0.3744476  53.8718515  35.4991893  -0.4868084
  54.5161744  35.7343403  -0.1077992  52.9896602  31.9539612   6.1218116
  52.9844641  31.0819429   6.1260542  53.6957596  32.1527781   5.6487571
  53.0941606  31.8543486   6.0525151  46.7167496  31.6816596   5.4931936
  46.8610871  32.2617804   4.8575046  47.0643144  32.0592893   6.1981790
  46.7894957  31.8237300   5.5030931  48.8887413  30.8806764   3.2757067
  48.1410727  31.0737779   2.8705345  49.0428938  30.0551984   3.0381189
  48.8009840  30.7871876   3.1802473  45.7895250  39.8719368   2.3592963
  45.9384814  39.3122284   1.7066367  46.5695253  39.9511370   2.7425481
  45.9269344  39.8004933   2.3189912  48.3148551  40.0434011   3.6377453
  48.2392222  39.3742821   4.1928242  48.2438410  40.7451799   4.1518120
  48.2929158  40.0478918   3.7954301  49.1289190  24.7757315   4.1652471
  49.5861804  25.5081290   4.2925263  49.2045519  24.3523780   4.9239727
  49.2080160  24.8214553   4.2953548  41.3722181  25.0223135   5.2541915
  40.8364371  24.4103493   5.5702682  41.4339946  25.5971271   5.9075581
  41.3017814  25.0170063   5.3977341  47.0071568  26.7659419   1.0094295
  46.2167643  26.5850879   1.3311631  47.4032191  25.9886372   0.9924590
  46.9488444  26.6246880   1.0546843  52.3915254  34.4001849  -1.2646259
  51.7160256  34.1687082  -0.7632872  52.4007630  33.7923032  -1.8904154
  52.2933759  34.2760774  -1.2830107  49.5209398  29.2419678   5.4917794
  49.4568539  30.1029635   5.3637931  49.6606586  28.9251671   4.6913345
  49.5324868  29.3219845   5.3546007  48.2028492  31.9351818  -0.3666003
  47.7790741  32.1356317  -1.1026985  48.0273347  31.0880666  -0.2541703
  48.1139373  31.8400599  -0.4592313  47.7040185  43.4502331   2.0955454
  48.1936116  42.7513120   1.9131119  47.1324418  43.1526201   2.6831511
  47.6924715  43.3028554   2.1556495  43.4910937  32.4303869  -4.9338031
  43.6475556  32.3650672  -4.0782039  43.8311530  33.2052422  -5.1459351
  43.5644172  32.5353067  -4.8383436  50.0290082  31.8061753  -6.0644667
  50.5705627  31.3032134  -5.6006047  50.3436641  31.7526947  -6.8755182
  50.1554479  31.7241174  -6.1160855  53.9007189  36.0164400  11.0482245
  54.7142054  35.7449549  11.2087377  53.7402155  35.7171940  10.2442441
  53.9977137  35.9319326  10.9527651  51.1779351  26.6998057   3.9877633
  51.3921321  26.0608971   3.4340987  50.5613250  27.1443881   3.5585495
  51.1184680  26.6708201   3.8428064  53.3418439  28.3087122   4.9260940
  52.5295121  28.0013013   5.0074113  53.8008374  27.8286122   5.4903652
  53.2898824  28.1923615   5.0215534  50.5694080  19.8097993  -1.0235024
  49.6987638  19.7836714  -1.0701715  50.8234421  19.6375185  -1.8409178
  50.4787640  19.7808136  -1.1514887  50.4371946  29.7147194   9.7089642
  50.9071578  30.3389310  10.0957517  50.4833827  29.0464169  10.2682857
  50.5139822  29.7081874   9.8489714  47.5943220  21.8204221   0.4338446
  47.0781709  21.1284413   0.5590025  47.0337149  22.4874998   0.3801045
  47.4349733  21.8167479   0.4444512  49.6635454  22.3597181   2.2631299
  49.2767207  22.3846213   3.0444829  49.1768391  21.7938860   1.8105815
  49.5347962  22.2792932   2.3119203  53.9128433  37.0770690   6.3205085
  54.5508153  36.5830886   5.9867541  53.2702525  37.0048091   5.7357312
  53.9122660  36.9929699   6.1847440  55.6385433  28.9259836   0.8871001
  55.2113041  28.8386185   0.1319101  55.0011486  29.0337612   1.4725845
  55.4815040  28.9292496   0.8616443  49.3292595  19.2464167   4.5541559
  49.9585713  19.7824467   4.2762629  49.4978458  19.1541526   5.4055124
  49.4470390  19.3125529   4.6390087  49.1306510  24.0335361   6.8267970
  49.9579940  23.7620510   6.8826585  49.1514356  24.8296203   7.1831788
  49.2559360  24.1115116   6.8883153  53.9682690  37.7690498   2.9610442
  54.7575068  37.4179563   3.0812524  54.1426287  38.5826887   2.6987076
  54.1102971  37.8376356   2.9398310  43.7076000  31.1799224   0.0138231
  42.8664007  31.0803098   0.2217125  43.9166008  31.9494705   0.3652552
  43.6140693  31.2791268   0.0965546  41.1851567  28.8018761  -2.1577018
  40.7908265  28.8761773  -2.9326909  40.6291684  29.1876708  -1.6068657
  41.0454379  28.8700536  -2.1909359  47.5192665  29.1080623  -0.7364171
  47.2155802  28.5536612  -0.1353764  46.8172086  29.2872833  -1.2236137
  47.3708875  29.0525406  -0.7194466  45.5811016  36.3230344   3.9707926
  45.4731371  36.3332406   4.8369984  45.7906797  37.1485125   3.7812880
  45.5961127  36.4471419   4.0712018  43.5984808  33.5742987   1.4329864
  43.0072741  34.2152485   1.4032879  44.3605831  33.9980604   1.4061163
  43.6233068  33.7318825   1.4245011  43.9945431  24.7344984   2.0997881
  44.4546912  24.8083914   2.8373005  44.0401537  25.5326238   1.7497703
  44.0695986  24.8639131   2.1570638  45.6428780  25.4011679   6.6669909
  45.2514346  24.7545026   7.1025686  45.8114643  25.9923114   7.2864164
  45.6099691  25.3925947   6.8232615  59.7175229  33.4048756   2.4307142
  59.7758353  33.8535405   3.1767119  59.0841697  33.8147569   1.9937222
  59.6326525  33.5322491   2.4759690  47.4182302  30.7937195  -6.7927867
  48.1624347  31.1811471  -6.5544917  47.5642999  29.9494620  -6.6287380
  47.5492888  30.7267668  -6.7333898  49.3361878  22.5887454  -1.7596006
  48.4897923  22.7610262  -1.8854656  49.3333010  21.7836798  -1.4230178
  49.2109028  22.4948483  -1.7284879  50.4060178  26.3662668  -0.8933948
  49.9320133  25.8404430  -0.3828637  50.7778314  25.8192141  -1.4619087
  50.3910067  26.2078665  -0.9018801  40.7833208  28.3634175   4.4749598
  41.6458821  28.2629884   4.3886928  40.4524991  27.7828884   3.9135170
  40.8618405  28.2625802   4.3795004  56.6696909  31.4265044   0.5172832
  56.4295132  30.5871459   0.5215259  57.1488916  31.5065211   1.2413606
  56.7049093  31.3146444   0.6247635  55.2748126  32.5916450   4.4007137
  55.9982325  32.1388977   4.2218157  55.0098088  32.8721116   3.6179465
  55.3429399  32.5667419   4.2585852  44.1434994  27.1876624   1.1360016
  43.5188065  27.1995016   0.5285969  43.8080589  27.6636799   1.7851256
  44.0020486  27.2595141   1.1416584  40.8560670  35.2477084   2.5763780
  40.3260594  34.5569523   2.6258755  41.1285763  35.2387269   1.7476489
  40.8185392  35.1444216   2.4611196  51.0566916  32.6900329   2.5502152
  50.4423909  32.1458379   2.8450787  51.5734200  32.1764565   2.0707968
  51.0422578  32.5336738   2.5226380  50.2963213  33.7604599   0.2846450
  49.8690821  33.1354317  -0.1488114  50.2888157  33.4779521   1.1105458
  50.2322354  33.6257379   0.3426278  43.4125740  28.7969772   3.3534884
  43.5719227  28.0413096   3.7586606  43.2318633  29.3460711   4.0075622
  43.4091099  28.7663586   3.5097590  51.3546043  20.9631007   3.9085674
  50.8586604  21.1594682   3.2177241  52.1115105  21.3623676   3.7374476
  51.3932867  21.0508741   3.7805811  48.6248922  24.6373353   0.4988984
  48.6491410  24.1033466  -0.1898236  48.8760396  24.1290662   1.1614575
  48.6658841  24.4834257   0.4953629  36.1356512  31.9204848  -0.0667872
  36.0299961  31.8751693  -0.9315787  35.3856732  32.2658629   0.2146413
  36.0092115  31.9645756  -0.1530542  44.9050245  23.3644171  -0.1205271
  44.9448616  23.8653378   0.5929436  44.0799909  23.4554565  -0.3899348
  44.7889771  23.4525988  -0.0554733  47.0879858  32.9304911   7.9815023
  46.2375488  33.0676626   8.1172668  47.2507985  32.1968690   8.4262725
  46.9863721  32.8419013   8.0670622  46.3264608  29.8804681   2.1768628
  45.4956538  30.0478499   1.9703876  46.2716125  29.5040632   2.9617513
  46.1954023  29.8494413   2.2617156  44.1348391  23.3713574   7.8125038
  44.7601095  22.8275707   8.0854471  43.6798871  22.8908492   7.2432829
  44.1596652  23.2203056   7.7686632  57.7083440  31.5542861   2.9037686
  58.3001280  32.1940112   2.9355884  58.1442435  30.8565898   3.1929753
  57.8601871  31.5461212   2.9518519  49.5376830  35.9760234   3.5295580
  49.0301921  36.5296080   3.9736211  49.2403476  36.0368524   2.7114355
  49.4181715  36.0666545   3.4744037  51.7039012  24.3413553   2.3720243
  52.1294084  23.8886080   1.7603770  51.0896005  23.7873624   2.6485031
  51.6767657  24.1927529   2.3225269  48.7819315  40.9084792   0.4352587
  48.5584970  40.1503621   0.8036614  48.2929158  40.9382813  -0.2866973
  48.6762764  40.8007016   0.3829328  54.8960709  25.2243963  -1.8868798
  55.2488319  24.7973686  -1.2122999  54.0375510  25.1394807  -1.7567721
  54.8210153  25.1488704  -1.7673787  43.5944394  27.8551483  -3.8285951
  42.8756383  28.2715616  -3.5613088  43.9656756  28.4205722  -4.3794313
  43.5436326  28.0000765  -3.8703144  52.8943975  28.4879332   2.0616044
  52.8741902  28.3062627   2.9150823  52.9423175  29.3591351   2.0375628
  52.8978616  28.5895870   2.1839339  50.8390305  35.0766524   7.9864521
  50.7986159  34.4316201   7.4009677  51.6513623  35.0203141   8.2989933
  50.9533458  34.9725491   7.9461470  46.5268013  28.7063461   4.5414279
  46.0146916  28.0984644   4.8999310  46.3547509  29.4220053   5.0088254
  46.4257650  28.7226760   4.6630502  41.3733728  27.1501036   7.1916640
  41.2036318  27.8102411   6.6464847  40.9299678  27.3607597   7.9129130
  41.2833062  27.2787018   7.2178270  50.4037084  26.6287705   6.9816534
  50.9608514  26.4001515   6.3495000  50.0798149  27.3893371   6.7051747
  50.4383494  26.7071542   6.8473031  38.2735792  30.0547901   2.4505130
  37.7262512  29.3848547   2.5685999  39.0628171  29.6877749   2.5148597
  38.3087976  29.9012888   2.4773831  48.1220201  29.7155359   7.9468541
  48.8731528  30.0307035   8.2608095  48.3142777  29.5134529   7.1202463
  48.2611615  29.7322740   7.8711937  37.0322762  29.2668709  -0.3948847
  36.8544523  28.8145318   0.3306069  36.7441784  30.0694871  -0.2110369
  36.9635715  29.3191267  -0.2605344  52.6946343  30.5226427  -1.1571456
  53.1900008  29.8049422  -1.1967436  51.8846119  30.2197224  -1.2716969
  52.6490236  30.3724073  -1.1797731  38.7695232  31.7996433  -3.2827088
  37.9040751  31.7882124  -3.3944316  38.8694048  31.6126656  -2.4355948
  38.6569399  31.7702494  -3.1738143  54.7598162  33.2730114   1.5305672
  55.1853233  32.7504536   0.9776097  54.3955082  33.8710952   1.0094295
  54.7684764  33.2840341   1.3714682  44.3952242  41.5694332   0.2903018
  44.7098801  42.3830720   0.2980800  44.8045655  41.1844550   0.9585177
  44.5020340  41.6323034   0.3907110  51.3476761  36.9864378  -2.1393170
  51.8187940  37.7004641  -1.9703185  51.6836940  36.3863129  -1.6033301
  51.4671876  37.0035843  -2.0360794  53.4353746  38.5965692  10.0398902
  53.5450711  37.8074252  10.3955649  53.7644643  38.5071628   9.2373240
  53.5006152  38.4671545   9.9741293  48.2646256  21.7591849   4.8164925
  48.3974162  20.9622842   5.1445900  48.6491409  22.2858252   5.3963200
  48.3402585  21.7191766   4.9508428  51.9850708  36.7782313   4.6234522
  51.4371654  36.1540196   4.3554588  52.4463736  36.9676585   3.9078602
  51.9717917  36.7141363   4.4784954  51.3378611  18.6822175   1.4146018
  50.5324575  18.5719905   1.7313856  51.2085347  18.7834631   0.5575884
  51.1998744  18.6805845   1.3354058  54.7944572  24.8467667   2.0085715
  54.2107561  25.3476874   1.5963282  55.1148866  24.3397223   1.3750038
  54.7557747  24.8459502   1.8544222  45.9234703  21.7551024   3.0642818
  46.4679116  21.4142151   3.6547160  45.9771639  22.6136486   3.2064103
  46.0123822  21.8306283   3.1724692  41.7365262  35.5167440  -0.0618374
  42.3410119  35.4763274  -0.6904553  41.5292574  36.3638592  -0.0314318
  41.7954159  35.6355443  -0.1502257  51.5509034  37.7833385   1.1543864
  52.3707408  37.6396351   1.4160159  51.2703112  38.4079584   1.6960302
  51.6305777  37.8543737   1.2731803  36.9716544  34.5002058  -0.1919451
  36.8740822  33.6898329   0.1170606  37.7545414  34.4793851  -0.5773182
  37.0732681  34.3769148  -0.2032588  55.8453738  45.7292718   7.0848909
  56.0174242  45.6198613   7.9334191  56.3823095  46.3747124   6.8480102
  55.9498742  45.8084720   7.1754006  54.9014061  41.8603028   4.5668837
  54.2085858  41.3900007   4.8129569  55.5174388  41.6341332   5.1410544
  54.8898591  41.7570159   4.6877990  53.6254620  45.8268432   5.7095682
  54.3494592  45.8121462   6.1960577  53.7270757  46.5363787   5.2117650
  53.7472829  45.9293135   5.7074469  60.9999570  49.3067516  10.5744629
  60.2072550  49.6211028  10.7597249  61.1148497  49.5218985   9.7365414
  60.8994980  49.3851353  10.4782964  57.7073284  39.8700924  10.2894989
  57.3926725  40.6400487  10.0264552  57.3863216  39.3071180   9.7047216
  57.6132203  39.9011192  10.1636339  64.3838069  38.4069305   4.2352507
  65.1291661  38.2179115   3.8215933  63.9675374  38.9327543   3.6766364
  64.4323044  38.4571450   4.0917081  57.3389789  42.4698175   9.0280204
  56.5289565  42.7755955   8.9170046  57.8164476  43.1903757   9.1432788
  57.2893268  42.6212776   9.0287275  57.1917546  40.0987114   3.9580648
  57.0000743  40.1142248   4.8080071  58.0416142  40.2950788   3.9347303
  57.2893268  40.1301465   4.0803943  51.5764459  42.6278095   1.9364464
  51.4349951  41.7762036   2.0608972  51.8605023  42.6706756   1.1126670
  51.5972306  42.5077845   1.8332088  60.1021773  40.2942623   4.1652471
  60.5594388  41.0266597   4.2925263  60.1778102  39.8709088   4.9239727
  60.1812743  40.3399861   4.2953548  52.3454765  40.5408443   5.2541915
  51.8096954  39.9288801   5.5702682  52.4072529  41.1156579   5.9075581
  52.2750397  40.5355371   5.3977341  60.4941982  44.7604986   5.4917794
  60.4301123  45.6214943   5.3637931  60.6339169  44.4436979   4.6913345
  60.5057452  44.8405153   5.3546007  64.8739773  51.5349708  11.0482245
  65.6874638  51.2634857  11.2087377  64.7134739  51.2357248  10.2442441
  64.9709721  51.4504634  10.9527651  61.4104530  45.2332502   9.7089642
  61.8804161  45.8574618  10.0957517  61.4566410  44.5649477  10.2682857
  61.4872406  45.2267182   9.8489714  60.6368037  37.8782489   2.2631299
  60.2499790  37.9031521   3.0444829  60.1500974  37.3124168   1.8105815
  60.5080546  37.7978240   2.3119203  60.3025179  34.7649475   4.5541559
  60.9318297  35.3009775   4.2762629  60.4711042  34.6726834   5.4055124
  60.4202973  34.8310837   4.6390087  60.1039094  39.5520669   6.8267970
  60.9312523  39.2805818   6.8826585  60.1246940  40.3481511   7.1831788
  60.2291944  39.6300424   6.8883153  54.9678014  40.2530292   2.0997881
  55.4279496  40.3269222   2.8373005  55.0134121  41.0511546   1.7497703
  55.0428570  40.3824439   2.1570638  56.6161364  40.9196987   6.6669909
  56.2246929  40.2730334   7.1025686  56.7847227  41.5108422   7.2864164
  56.5832274  40.9111255   6.8232615  51.7565792  43.8819483   4.4749598
  52.6191405  43.7815192   4.3886928  51.4257575  43.3014192   3.9135170
  51.8350988  43.7811110   4.3795004  54.3858323  44.3155080   3.3534884
  54.5451810  43.5598404   3.7586606  54.2051217  44.8646019   4.0075622
  54.3823682  44.2848893   3.5097590  62.3278626  36.4816315   3.9085674
  61.8319188  36.6779989   3.2177241  63.0847688  36.8808983   3.7374476
  62.3665451  36.5694049   3.7805811  55.8782828  38.8829479  -0.1205271
  55.9181200  39.3838686   0.5929436  55.0532493  38.9739873  -0.3899348
  55.7622354  38.9711296  -0.0554733  58.0612441  48.4490219   7.9815023
  57.2108072  48.5861934   8.1172668  58.2240569  47.7153998   8.4262725
  57.9596305  48.3604321   8.0670622  55.1080975  38.8898882   7.8125038
  55.7333678  38.3461015   8.0854471  54.6531455  38.4093800   7.2432829
  55.1329235  38.7388363   7.7686632  57.5000597  44.2248769   4.5414279
  56.9879500  43.6169952   4.8999310  57.3280093  44.9405361   5.0088254
  57.3990234  44.2412068   4.6630502  52.3466312  42.6686344   7.1916640
  52.1768902  43.3287719   6.6464847  51.9032261  42.8792905   7.9129130
  52.2565645  42.7972326   7.2178270  61.3769667  42.1473013   6.9816534
  61.9341097  41.9186823   6.3495000  61.0530732  42.9078679   6.7051747
  61.4116077  42.2256850   6.8473031  49.2468376  45.5733209   2.4505130
  48.6995095  44.9033855   2.5685999  50.0360754  45.2063057   2.5148597
  49.2820560  45.4198196   2.4773831  59.0952784  45.2340666   7.9468541
  59.8464111  45.5492343   8.2608095  59.2875361  45.0319837   7.1202463
  59.2344199  45.2508048   7.8711937  59.2378840  37.2777157   4.8164925
  59.3706745  36.4808150   5.1445900  59.6223993  37.8043560   5.3963200
  59.3135169  37.2377074   4.9508428  62.3111195  34.2007483   1.4146018
  61.5057159  34.0905213   1.7313856  62.1817931  34.3019939   0.5575884
  62.1731328  34.1991153   1.3354058  56.8967287  37.2736332   3.0642818
  57.4411700  36.9327459   3.6547160  56.9504222  38.1321794   3.2064103
  56.9856406  37.3491591   3.1724692   4.9106569  65.9436020  40.2945761
   4.0734990  66.0138208  40.5293355   4.8794800  65.9460515  39.4220063
   4.7824851  65.9546247  40.2005309   2.5914409  61.0078802  38.8789483
   3.2340317  61.0776907  39.4651398   2.8437429  60.3408025  38.3769025
   2.7236541  60.9205151  38.8916762   5.0295911  65.7823439  34.6101447
   4.7732476  64.9703381  34.4199329   5.8725225  65.7901006  34.3831634
   5.1161936  65.6635437  34.5486264   2.5100345  60.2093465  35.9274846
   1.8974659  60.6963867  36.3128578   2.6064520  59.5336956  36.4712497
   2.4338243  60.1811774  36.0653704   2.7634913  58.2224021  37.9660735
   2.2565777  57.5153161  37.8981912   3.5602346  57.8917210  38.0961811
   2.8062152  58.0697173  37.9759730   1.4055635  63.7190571  34.1137557
   1.4049861  63.5639227  34.9721833   1.2011815  64.5653558  34.0578942
   1.3755412  63.8211191  34.2325496   1.2294716  62.7229313  40.9330935
   0.6457704  63.2238519  40.5208502   1.5499010  62.2158869  40.2995258
   1.1907891  62.7221148  40.7789442   3.1791068  44.7352706  19.9772007
   3.1485073  45.5897343  20.1490276   3.7772417  44.4347999  20.5358150
   3.2628226  44.8169203  20.0846809   1.0007643  47.3105008  18.2490317
   0.8847169  48.0612694  18.6782455   1.7963529  47.0528961  18.4986404
   1.1012232  47.3839855  18.3494408   5.1103434  50.2343751  23.4335386
   4.2801138  50.4454395  23.5968803   5.0612687  49.4080806  23.1577670
   4.9810170  50.1433357  23.4172752   4.6057393  42.8814152  27.2285807
   3.7685814  42.9516339  27.4633402   4.5745624  42.8838646  26.3560110
   4.4775675  42.8924379  27.1345355   2.3667750  50.9043105  23.5700102
   1.9302982  50.9079848  24.3259073   2.0330665  51.5848604  23.1379679
   2.2530370  51.0055561  23.6180934   2.2865233  37.9456933  25.8129530
   2.9291141  38.0155038  26.3991445   2.5388253  37.2786156  25.3109072
   2.4187365  37.8583282  25.8256809   5.5012096  47.6224025  22.4619739
   6.1628530  47.0614694  22.3615648   4.8603508  47.1276056  22.7872430
   5.5040963  47.4660434  22.4952079   1.7876927  48.6389408  22.2031728
   2.0232516  48.7834607  21.3758579   1.9366490  49.4031816  22.5963242
   1.8442730  48.7728462  22.1395332   3.6167383  47.4791074  20.0401332
   3.9475600  48.0118714  19.4341427   4.1900471  47.5329961  20.6963283
   3.7501062  47.5660642  20.0479113   4.7246735  42.7201571  21.5441493
   4.4683300  41.9081512  21.3539376   5.5676049  42.7279138  21.3171681
   4.8112760  42.6013568  21.4826310   2.4071894  49.8751167  31.3800046
   2.1710532  49.0439231  31.2612107   3.0515123  49.8236774  31.9654890
   2.4666565  49.7448855  31.4485940   3.4308315  49.6595615  27.4428340
   3.1254132  50.3923672  27.8041656   2.7114530  49.2533545  27.1621127
   3.2795657  49.7077348  27.4541478   9.1310107  46.2988616  26.7696685
   9.0634607  46.3184575  25.8999271   9.1165769  47.1418943  26.9952355
   9.1188863  46.4262351  26.6749162   6.9168724  45.0733002  25.0443279
   7.4676646  44.4401071  25.2840371   6.9012840  45.6048395  25.7358783
   6.9953921  45.0581950  25.1822137   3.0145620  46.4388907  23.3168660
   2.9279594  46.5944333  24.1703439   2.5596100  47.0826983  22.9428065
   2.9348876  46.5564662  23.3875767   2.2772857  49.8261268  16.4897500
   1.8979666  49.0398406  16.4826789   1.6139103  50.3748125  16.3469144
   2.1231332  49.7906092  16.4678297   0.5232956  52.0706759  16.8249186
   0.6052794  52.8773745  16.5010637   1.0082698  52.0902718  17.5489959
   0.6070114  52.1927421  16.8836084   1.7686401  43.7399613  26.7456268
   1.3414009  43.6525962  25.9904367   1.1312454  43.8477389  27.3311112
   1.6116008  43.7432273  26.7201709   2.2051169  37.1471596  22.8614893
   1.5925483  37.6341999  23.2468625   2.3015344  36.4715087  23.4052544
   2.1289067  37.1189905  22.9993751   5.8476197  48.2188533  28.2892409
   5.9059321  48.6675182  29.0352385   5.2142665  48.6287346  27.8522489
   5.7627492  48.3462268  28.3344957   2.7997876  46.2404821  26.3758099
   2.5596099  45.4011236  26.3800526   3.2789884  46.3204988  27.0998873
   2.8350060  46.1286221  26.4832902   4.8003063  43.0206278  24.3287358
   4.5612833  42.9802112  23.4908143   4.9636965  43.8677430  24.4553079
   4.7893367  43.1398363  24.2240840   1.4049094  47.4056227  30.2592404
   2.1283292  46.9528754  30.0803423   1.1399056  47.6860893  29.4764731
   1.4730367  47.3807196  30.1171119   3.8384408  46.3682638  28.7622953
   4.4302248  47.0079889  28.7941151   4.2743402  45.6705675  29.0515020
   3.9902839  46.3600989  28.8103786   2.4585736  35.1602152  24.9000781
   1.9516601  34.4531292  24.8321959   3.2553170  34.8295341  25.0301858
   2.5012976  35.0075304  24.9099776   4.6605876  49.6767079  17.8841646
   5.0439482  50.4258435  18.1139743   3.8649990  49.9232899  17.6253635
   4.5999659  49.8236773  17.8799219   1.1006458  40.6568702  21.0477604
   1.1000685  40.5017358  21.9061880   0.8962639  41.5031689  20.9918989
   1.0706236  40.7589323  21.1665543   0.8899129  48.0869891  27.3890939
   1.3154201  47.5644313  26.8361364   0.5256049  48.6850729  26.8679562
   0.8985732  48.0980118  27.2299949  14.1523652  60.2538014  19.9772007
  14.1217656  61.1082651  20.1490276  14.7505001  59.9533307  20.5358150
  14.2360810  60.3354511  20.0846809   7.3523337  59.3413665  24.7324937
   6.4961232  59.5022163  24.7834054   7.3990990  58.4705729  24.7529998
   7.2322448  59.2364467  24.7431003  10.6617053  65.6100191  34.3385393
  11.3683821  65.1152221  34.4672328  10.8504989  66.0509272  33.6088051
  10.7944959  65.6018541  34.2494439  10.1975158  61.4005709  27.3756589
  10.7431118  62.0790796  27.4350559  10.1392034  61.2593170  26.5158170
  10.2691072  61.4797711  27.2568649  11.9740226  62.8290316  18.2490317
  11.8579752  63.5798002  18.6782455  12.7696113  62.5714269  18.4986404
  12.0744816  62.9025163  18.3494408   5.9072260  58.8200334  19.6194046
   6.6052425  58.9988462  20.1115509   6.2224592  58.2970673  18.9964435
   6.0567597  58.7694106  19.5996056   6.0960195  65.2070779  19.6073837
   6.5353831  64.5987879  20.0528610   5.9464858  64.8278152  18.8359302
   6.1381661  65.0609250  19.5593005   3.5631838  63.8014791  26.8092663
   4.2080841  63.3087234  26.4903611   3.8033615  63.9439577  27.6358741
   3.6942423  63.7492233  26.8842196   6.1017930  66.6469697  26.4599555
   6.3841173  65.8521102  26.2386311   6.8304090  67.1250284  26.4804616
   6.2507493  66.6004294  26.4302570   4.0799124  54.1892731  23.7015320
   3.7502454  54.6403874  23.0319019   3.4044125  54.1108894  24.2488327
   3.9309560  54.2443866  23.6838544   9.6969532  63.5597960  16.5604607
   9.6120827  64.4158927  16.7054175  10.1853915  63.2842284  17.2286766
   9.7558429  63.6455282  16.6806688  11.2875531  50.1778254  21.9464931
  10.9728972  50.8681732  22.3785353  10.7702473  50.1223036  21.2450432
  11.1640002  50.2713142  21.9061880  10.6287965  60.1782754  18.0602342
  10.0999437  60.3942388  18.7199648  11.1512985  60.8718893  17.9803311
  10.6276418  60.3125891  18.1457941  16.0836018  65.7529059  23.4335386
  15.2533721  65.9639703  23.5968803  16.0345270  64.9266113  23.1577670
  15.9542753  65.6618665  23.4172752   2.2855078  52.2505019  19.1838268
   3.0401046  52.6183336  18.9455318   2.1082612  52.6244573  19.9517448
   2.3709556  52.3603207  19.2623157  15.5789976  58.3999460  27.2285807
  14.7418397  58.4701647  27.4633402  15.5478207  58.4023954  26.3560110
  15.4508259  58.4109687  27.1345355   1.9754705  60.5432495  32.9434176
   2.1475209  60.4338390  33.7919458   2.5124063  61.1886901  32.7065368
   2.0799709  60.6224497  33.0339273   6.3211861  51.6601749  18.9165405
   7.0498022  51.4817704  18.4703561   6.4106754  52.5019828  19.1272583
   6.4418524  51.7585627  18.8818923  10.3020162  62.5955136  22.8197699
  11.0577677  63.0286650  22.8586608  10.4082487  61.9459906  23.3932335
  10.4290333  62.5632620  22.9095725  13.3400333  66.4228413  23.5700102
  12.9035565  66.4265156  24.3259073  13.0063249  67.1033912  23.1379679
  13.2262953  66.5240869  23.6180934  13.2597816  53.4642241  25.8129530
  13.9023725  53.5340346  26.3991445  13.5120837  52.7971464  25.3109072
  13.3919948  53.3768590  25.8256809  16.4744679  63.1409333  22.4619739
  17.1361114  62.5800002  22.3615648  15.8336091  62.6461364  22.7872430
  16.4773547  62.9845742  22.4952079  12.7609510  64.1574716  22.2031728
  12.9965099  64.3019915  21.3758579  12.9099074  64.9217124  22.5963242
  12.8175313  64.2913770  22.1395332  14.5899967  62.9976382  20.0401332
  14.9208184  63.5304022  19.4341427  15.1633055  63.0515269  20.6963283
  14.7233646  63.0845950  20.0479113   7.1300537  64.1207293  36.4329896
   6.3373518  64.4350805  36.6182516   7.2449464  64.3358762  35.5950681
   7.0295948  64.1991130  36.3368231   9.8031856  60.8441284  20.7224912
   9.8978710  61.5830578  21.1764537   9.1790700  60.4158760  21.1559476
   9.7240886  60.8902605  20.8533059   8.0584330  64.0227497  31.3715193
   8.6323192  63.3854741  31.5263757   7.9799134  64.0231579  30.5024850
   8.1317565  63.9292608  31.2661604  10.0554877  62.6890024  13.9561864
   9.9735040  62.7592211  14.8216851  10.6934598  63.2519768  13.7645604
  10.1374715  62.7828995  14.0551813   3.4148048  62.4550762  23.4236390
   3.1567293  61.6222497  23.3967690   3.4696531  62.6808375  22.5828891
   3.3847826  62.3648533  23.2956527   8.4949099  54.5579213  23.5240483
   7.7905425  54.0688398  23.6824402   8.5434073  54.5701687  22.6528927
   8.3979150  54.4868861  23.4179823   2.3882761  60.0088524  23.9101285
   1.8132352  60.1680693  24.5465246   2.0118437  59.3723934  23.4469735
   2.2485573  59.9386337  23.9355843   6.0556049  58.4811874  28.7693663
   5.6670482  58.0566091  28.1145855   5.3910748  58.7294023  29.2770690
   5.9002977  58.4550595  28.7481531  15.6979318  58.2386878  21.5441493
  15.4415883  57.4266820  21.3539376  16.5408632  58.2464446  21.3171681
  15.7845344  58.1198876  21.4826310   9.8782411  52.1786503  26.2817648
  10.2592923  51.4964674  26.6685522   9.0745695  51.8896105  26.0993312
   9.8158873  52.0353551  26.3121703   7.1594988  62.7110478  16.9670470
   7.9735626  63.0025371  16.8553242   7.0954129  62.0570341  16.3928763
   7.2697727  62.6575673  16.8659308  13.3804478  65.3936474  31.3800046
  13.1443115  64.5624539  31.2612107  14.0247707  65.3422082  31.9654890
  13.4399148  65.2634162  31.4485940   3.8374251  54.6840701  36.1480256
   3.5227692  55.4540263  35.8849819   3.5164184  54.1210957  35.5632483
   3.7433170  54.7150969  36.0221606  14.4040898  65.1780923  27.4428340
  14.0986715  65.9108980  27.8041656  13.6847114  64.7718853  27.1621127
  14.2528241  65.2262656  27.4541478   5.4124368  66.6604418  23.7736569
   5.4863376  66.4979590  24.6278419   6.2293874  66.8494608  23.5297050
   5.5440726  66.6641161  23.8634594  20.1042690  61.8173924  26.7696685
  20.0367191  61.8369883  25.8999271  20.0898353  62.6604251  26.9952355
  20.0921447  61.9447659  26.6749162   1.3906148  53.0731222  21.7626452
   0.5228574  53.1453822  21.8284062   1.6781353  53.8753301  21.9514427
   1.3045896  53.2025369  21.8001219  10.5139037  53.2209082  30.0937774
  11.2592629  53.0318892  29.6801200  10.0976342  53.7467320  29.5351630
  10.5624011  53.2711227  29.9502347  17.8901308  60.5918310  25.0443279
  18.4409229  59.9586379  25.2840371  17.8745423  61.1233703  25.7358783
  17.9686504  60.5767258  25.1822137   4.5423699  64.4256907  29.5903173
   4.0435392  65.1372675  29.6688061   5.3523923  64.7457574  29.5521335
   4.5879805  64.5783756  29.5959741   0.8051816  63.6879860  23.8365893
   0.5165065  63.0617332  24.3711621   1.6735164  63.6300148  23.9030574
   0.8912068  63.5867405  23.9256848  11.5929714  58.8314644  24.1547875
  11.2494480  58.1104979  24.5055125  11.6922757  58.6228495  23.3126234
  11.5571757  58.6938847  24.0819555  12.0542743  65.2940348  19.6971863
  12.6200776  65.9533558  19.6130406  11.4070647  65.6390046  20.1688266
  12.0421500  65.4422289  19.7544620   3.4690757  57.2837952  34.8865471
   2.6590532  57.5895731  34.7755313   3.9465443  58.0043534  35.0018055
   3.4194235  57.4352553  34.8872542   3.7548642  63.5287692  20.5329865
   3.5591424  64.1362426  19.9390168   3.9782987  62.8355636  20.0521539
   3.7583283  63.5165217  20.3745946   2.1527172  60.4142430  20.6510733
   2.8749824  60.5783588  20.1914539   1.6735165  61.1352095  20.5450073
   2.1890903  60.5440659  20.5676347  10.1120679  56.7506229  26.0307418
   9.2731780  56.7767507  25.7945681  10.1825047  57.3976964  26.6112765
   9.9989073  56.8502354  26.0816535   8.5589958  53.6491606  20.7635034
   9.2616311  53.4499354  20.2854992   8.2934146  52.8767548  21.0703878
   8.6236590  53.5054572  20.7380476  13.9878203  61.9574215  23.3168660
  13.9012178  62.1129641  24.1703439  13.5328683  62.6012291  22.9428065
  13.9081460  62.0749970  23.3875767   3.3218514  54.9126891  29.8165915
   3.1301711  54.9282025  30.6665338   4.1717110  55.1090565  29.7932570
   3.4194236  54.9441242  29.9389209   7.8604019  59.2784962  21.9394219
   7.6138734  59.1980713  22.7731008   8.1889142  58.4938430  21.7456747
   7.8725263  59.1511228  22.0341743  11.7552068  65.9868322  25.7281001
  11.6166427  66.6849368  26.2329743  10.9752066  65.8316978  25.3717182
  11.6195295  66.0668488  25.7507275  10.0930153  62.2864697  31.9803382
  10.0878192  61.4144514  31.9845809  10.7991147  62.4852866  31.5072838
  10.1975157  62.1868571  31.9110418   3.8201047  62.0141681  31.3517203
   3.9644422  62.5942889  30.7160313   4.1676695  62.3917978  32.0567057
   3.8928508  62.1562385  31.3616197   5.9920964  61.2131849  29.1342334
   5.2444278  61.4062864  28.7290612   6.1462489  60.3877069  28.8966455
   5.9043392  61.1196961  29.0387740  13.2505441  65.3446576  16.4897500
  12.8712250  64.5583713  16.4826789  12.5871686  65.8933433  16.3469144
  13.0963916  65.3091400  16.4678297   6.2322741  55.1082400  30.0237738
   6.6895355  55.8406374  30.1510530   6.3079070  54.6848865  30.7824994
   6.3113711  55.1539638  30.1538814  10.7050067  48.2872275  23.8931581
  10.8233635  48.7448739  23.1598883  10.5312243  47.4817537  23.6067798
  10.6969238  48.2366047  23.7432514   4.1105119  57.0984504  26.8679562
   3.3201194  56.9175964  27.1896898   4.5065742  56.3211457  26.8509856
   4.0521995  56.9571965  26.9132110   9.4948805  64.7326934  24.5939008
   8.8193807  64.5012166  25.0952395   9.5041181  64.1248117  23.9681113
   9.3967310  64.6085859  24.5755160   6.6242949  59.5744763  31.3503061
   6.5602090  60.4354720  31.2223197   6.7640137  59.2576756  30.5498612
   6.6358419  59.6544930  31.2131274  11.4965540  67.5892067  16.8249186
  11.5785377  68.3959053  16.5010637  11.9815282  67.6088026  17.5489959
  11.5802698  67.7112729  16.8836084   5.3062043  62.2676902  25.4919264
   4.8824292  62.4681402  24.7558282   5.1306898  61.4205750  25.6043564
   5.2172924  62.1725684  25.3992954   7.1323633  62.1386837  19.7940599
   7.6739178  61.6357219  20.2579220   7.4470192  62.0852032  18.9830085
   7.2588030  62.0566258  19.7424412  11.0040740  66.3489485  36.9067512
  11.8175605  66.0774634  37.0672644  10.8435706  66.0497025  36.1027708
  11.1010689  66.2644411  36.8112918   8.2812902  57.0323142  29.8462900
   8.4954872  56.3934056  29.2926254   7.6646801  57.4768966  29.4170762
   8.2218231  57.0033286  29.7013331  10.4451990  58.6412207  30.7846207
   9.6328672  58.3338098  30.8659380  10.9041925  58.1611207  31.3488919
  10.3932375  58.5248700  30.8800801   9.8557245  66.5191879  21.2323151
   9.4971899  66.6906522  22.0087184   9.3695956  66.9805085  20.6751150
   9.7315942  66.6130850  21.2648420   7.6727631  50.1423078  24.8350243
   6.8021189  50.1161799  24.7883552   7.9267972  49.9700270  24.0176088
   7.5821191  50.1133221  24.7070379   7.5405498  60.0472279  35.5674909
   8.0105129  60.6714395  35.9542783   7.5867378  59.3789254  36.1268124
   7.6173373  60.0406959  35.7074981   4.6976771  52.1529306  26.2923713
   4.1815260  51.4609498  26.4175292   4.1370700  52.8200083  26.2386312
   4.5383284  52.1492564  26.3029779   6.7669005  52.6922266  28.1216566
   6.3800758  52.7171298  28.9030096   6.2801942  52.1263945  27.6691082
   6.6381514  52.6118017  28.1704469  11.0161984  67.4095775  32.1790352
  11.6541705  66.9155971  31.8452808  10.3736076  67.3373176  31.5942579
  11.0156211  67.3254784  32.0432707  12.7418984  59.2584921  26.7456268
  12.3146592  59.1711270  25.9904367  12.1045037  59.3662697  27.3311112
  12.5848591  59.2617581  26.7201709   6.4326146  49.5789252  30.4126826
   7.0619264  50.1149552  30.1347896   6.6012009  49.4866611  31.2640391
   6.5503941  49.6450614  30.4975354   6.2340061  54.3660446  32.6853237
   7.0613491  54.0945595  32.7411852   6.2547907  55.1621288  33.0417055
   6.3592911  54.4440201  32.7468420  11.0716241  68.1015583  28.8195709
  11.8608619  67.7504648  28.9397791  11.2459839  68.9151972  28.5572343
  11.2136522  68.1701441  28.7983577   9.9250065  52.1125140  23.3812127
  10.1299658  52.0447448  24.2269125   9.5976489  52.9183961  23.3133305
   9.9065313  52.2211081  23.4971783   4.6226216  59.4405708  25.1221095
   4.3189353  58.8861697  25.7231503   3.9205637  59.6197918  24.6349130
   4.4742426  59.3850491  25.1390801   3.6792313  56.7506228  19.6865797
   3.9552047  56.0325141  19.2743365   4.2790982  57.3491148  19.4786903
   3.8085578  56.7326599  19.5946558  13.1783753  52.6656904  22.8614893
  12.5658066  53.1527307  23.2468625  13.2747927  51.9900395  23.4052544
  13.1021650  52.6375213  22.9993751   7.1802834  54.4219746  17.9612392
   7.6346580  54.5930306  18.6860237   7.6542879  53.8087856  17.5610168
   7.3171154  54.3570631  18.0086154   1.0978982  55.0670069  27.9583148
   1.5580463  55.1408999  28.6958272   1.1435088  55.8651323  27.6082970
   1.1729537  55.1964216  28.0155905   2.7462331  55.7336764  32.5255175
   2.3547897  55.0870111  32.9610953   2.9148194  56.3248199  33.1449431
   2.7133242  55.7251032  32.6817881  16.8208781  63.7373841  28.2892409
  16.8791904  64.1860490  29.0352385  16.1875248  64.1472654  27.8522489
  16.7360076  63.8647576  28.3344957   4.5215854  61.1262280  19.0657399
   5.2657898  61.5136556  19.3040349   4.6676550  60.2819705  19.2297887
   4.6526439  61.0592753  19.1251369   6.4395429  52.9212539  24.0989261
   5.5931474  53.0935347  23.9730611   6.4366561  52.1161883  24.4355089
   6.3142579  52.8273568  24.1300388   7.5093729  56.6987753  24.9651319
   7.0353684  56.1729515  25.4756630   7.8811865  56.1517226  24.3966180
   7.4943618  56.5403750  24.9566466  13.7730460  61.7590129  26.3758099
  13.5328683  60.9196544  26.3800526  14.2522467  61.8390296  27.0998873
  13.8082644  61.6471529  26.4832902   9.4377229  57.5924308  18.0277073
   8.9100248  57.6753052  17.3382781   9.8972937  58.3342179  18.0241717
   9.4279080  57.7144970  17.9251768  15.7735647  58.5391586  24.3287358
  15.5345417  58.4987420  23.4908143  15.9369548  59.3862738  24.4553079
  15.7625950  58.6583671  24.2240840  12.3781677  62.9241535  30.2592404
  13.1015876  62.4714062  30.0803423  12.1131639  63.2046201  29.4764731
  12.4462950  62.8992504  30.1171119   1.2468546  57.5201709  26.9945283
   0.6221616  57.5320101  26.3871235   0.9114140  57.9961884  27.6436523
   1.1054037  57.5920226  27.0001851   8.1600467  63.0225414  28.4087419
   7.5457460  62.4783464  28.7036054   8.6767752  62.5089650  27.9293235
   8.1456129  62.8661823  28.3811647   7.3996764  64.0929684  26.1431717
   6.9724372  63.4679402  25.7097153   7.3921708  63.8104605  26.9690724
   7.3355905  63.9582464  26.2011545   8.4579594  51.2956092  29.7670941
   7.9620155  51.4919766  29.0762507   9.2148656  51.6948760  29.5959742
   8.4966419  51.3833826  29.6391077   5.7282473  54.9698438  26.3574251
   5.7524961  54.4358550  25.6687031   5.9793947  54.4615747  27.0199842
   5.7692392  54.8159342  26.3538896   2.0083796  53.6969256  25.7379996
   2.0482167  54.1978463  26.4514703   1.1833460  53.7879650  25.4685919
   1.8923322  53.7851073  25.8030534   4.1913409  63.2629996  33.8400290
   3.3409039  63.4001711  33.9757935   4.3541536  62.5293775  34.2847992
   4.0897272  63.1744098  33.9255889   3.4298159  60.2129766  28.0353895
   2.5990089  60.3803584  27.8289143   3.3749676  59.8365717  28.8202780
   3.2987574  60.1819497  28.1202423   1.2381942  53.7038659  33.6710305
   1.8634646  53.1600792  33.9439738   0.7832422  53.2233577  33.1018096
   1.2630203  53.5528140  33.6271899   1.8034203  58.4885358  18.5644012
   1.9437164  58.9857822  19.2672654   2.3016736  57.7871652  18.7058226
   1.8975284  58.4587337  18.6895591  14.8116991  61.8867946  28.7622953
  15.4034831  62.5265197  28.7941151  15.2475986  61.1890983  29.0515020
  14.9635422  61.8786296  28.8103786   3.4113408  55.2866444  15.8682031
   3.7329249  54.8069527  15.2141293   3.6740352  56.0966090  15.6772843
   3.4979434  55.3356342  15.7437523   6.6410381  66.3085319  29.3880847
   6.1335472  66.8621165  29.8321478   6.3437027  66.3693608  28.5699622
   6.5215266  66.3991630  29.3329304   7.2466786  51.1453738  21.6396087
   6.6035104  50.9951384  22.2081226   6.9066193  50.8996083  20.8745192
   7.1011863  51.0865860  21.6099102  11.8366132  59.1013165  21.0626096
  11.1657322  59.6442867  20.9339161  12.5305883  59.5708020  20.8207791
  11.8395000  59.2511436  21.0081624  11.9994260  55.5569048  23.9716469
  12.3521870  55.1298771  24.6462268  11.1409061  55.4719892  24.1017545
  11.9243705  55.4813789  24.0911479   9.9977526  58.8204417  27.9201311
   9.9775453  58.6387712  28.7736090  10.0456726  59.6916436  27.8960895
  10.0012167  58.9220955  28.0424606   7.9423856  65.4091609  33.8449788
   7.9019710  64.7641286  33.2594944   8.7547174  65.3528226  34.1575200
   8.0567009  65.3050576  33.8046737   6.4724519  57.2274568  17.3672695
   5.8789359  57.5491564  16.8157262   6.5099797  56.3815663  17.1593801
   6.3898908  57.1498896  17.2555466  13.4318320  50.6787460  24.9000781
  12.9249185  49.9716600  24.8321959  14.2285754  50.3480649  25.0301858
  13.4745559  50.5260612  24.9099776   9.3482336  57.1854072  20.7974445
   9.1196029  57.2086774  19.9552803   9.6080412  56.3611540  20.9169456
   9.3528524  57.0670152  20.6899643   3.6301564  59.0388546  30.3999545
   3.1180467  58.4309728  30.7584577   3.4581060  59.7545138  30.8673521
   3.5291201  59.0551845  30.5215769   2.4027098  55.7230619  22.0928641
   2.8784465  56.0847699  21.4578822   1.9015698  56.3787086  22.3728784
   2.3992457  55.8724808  22.0405382  15.6338460  65.1952387  17.8841646
  16.0172066  65.9443743  18.1139743  14.8382573  65.4418207  17.6253635
  15.5732242  65.3422081  17.8799219   7.5070635  56.9612790  32.8401801
   8.0642065  56.7326600  32.2080266   7.1831700  57.7218456  32.5637013
   7.5417045  57.0396627  32.7058298   5.2253752  60.0480443  33.8053808
   5.9765079  60.3632120  34.1193362   5.4176328  59.8459614  32.9787730
   5.3645166  60.0647825  33.7297204  12.0739042  56.1754010  21.0477604
  12.0733268  56.0202666  21.9061880  11.8695222  57.0216997  20.9918989
  12.0438820  56.2774631  21.1665543   9.7979894  60.8551512  24.7013810
  10.2933559  60.1374507  24.6617831   8.9879670  60.5522309  24.5868297
   9.7523787  60.7049158  24.6787536  11.8631713  63.6055199  27.3890939
  12.2886785  63.0829621  26.8361364  11.4988633  64.2036037  26.8679562
  11.8718316  63.6165426  27.2299949   8.4510312  67.3189463  23.7192097
   8.9221491  68.0329726  23.8882082   8.7870491  66.7188214  24.2551966
   8.5705427  67.3360928  23.8224473   5.3679807  52.0916934  30.6750191
   5.5007713  51.2947927  31.0031167   5.7524960  52.6183337  31.2548467
   5.4436136  52.0516851  30.8093694   9.0884259  67.1107398  30.4819789
   8.5405205  66.4865281  30.2139855   9.5497287  67.3001670  29.7663869
   9.0751468  67.0466448  30.3370220   8.4412163  49.0147260  27.2731285
   7.6358126  48.9044990  27.5899123   8.3118898  49.1159716  26.4161151
   8.3032295  49.0130930  27.1939325  11.8978123  55.1792752  27.8670982
  11.3141112  55.6801958  27.4548549  12.2182417  54.6722308  27.2335305
  11.8591298  55.1784587  27.7129489   4.4372922  54.0933347  18.1429656
   5.2588617  54.2631660  17.9011351   3.9742573  54.2480608  17.4195954
   4.4904085  54.1415080  18.0001301   3.0268254  52.0876109  28.9228085
   3.5712667  51.7467236  29.5132427   3.0805190  52.9461571  29.0649370
   3.1157374  52.1631368  29.0309959  15.0531707  69.7078039  23.7015320
  14.7235037  70.1589182  23.0319019  14.3776709  69.6294202  24.2488327
  14.9042143  69.7629174  23.6838544  22.2608115  65.6963561  21.9464931
  21.9461556  66.3867040  22.3785353  21.7435057  65.6408344  21.2450432
  22.1372585  65.7898450  21.9061880  13.2587661  67.7690327  19.1838268
  14.0133629  68.1368644  18.9455318  13.0815196  68.1429881  19.9517448
  13.3442140  67.8788515  19.2623157  26.5522560  73.9184767  27.2285807
  25.7150981  73.9886955  27.4633402  26.5210791  73.9209262  26.3560110
  26.4240842  73.9294995  27.1345355  17.2944445  67.1787057  18.9165405
  18.0230605  67.0003012  18.4703561  17.3839338  68.0205136  19.1272583
  17.4151107  67.2770935  18.8818923  24.2330400  68.9827549  25.8129530
  24.8756308  69.0525654  26.3991445  24.4853420  68.3156772  25.3109072
  24.3652532  68.8953898  25.8256809  19.4681682  70.0764521  23.5240483
  18.7638009  69.5873706  23.6824402  19.5166657  70.0886995  22.6528927
  19.3711734  70.0054169  23.4179823  26.6711902  73.7572186  21.5441493
  26.4148467  72.9452128  21.3539376  27.5141216  73.7649754  21.3171681
  26.7577927  73.6384184  21.4826310  20.8514994  67.6971810  26.2817648
  21.2325506  67.0149982  26.6685522  20.0478279  67.4081413  26.0993312
  20.7891456  67.5538859  26.3121703  12.3638732  68.5916530  21.7626452
  11.4961157  68.6639130  21.8284062  12.6513936  69.3938609  21.9514427
  12.2778480  68.7210677  21.8001219  21.4871621  68.7394390  30.0937774
  22.2325213  68.5504200  29.6801200  21.0708925  69.2652627  29.5351630
  21.5356595  68.7896535  29.9502347  19.5322541  69.1676913  20.7635034
  20.2348894  68.9684662  20.2854992  19.2666730  68.3952856  21.0703878
  19.5969174  69.0239880  20.7380476  21.6782651  63.8057583  23.8931581
  21.7966219  64.2634047  23.1598883  21.5044826  63.0002844  23.6067798
  21.6701821  63.7551355  23.7432514  18.6460214  65.6608386  24.8350243
  17.7753772  65.6347107  24.7883552  18.9000556  65.4885578  24.0176088
  18.5553774  65.6318529  24.7070379  15.6709355  67.6714614  26.2923713
  15.1547843  66.9794805  26.4175292  15.1103284  68.3385391  26.2386312
  15.5115868  67.6677872  26.3029779  17.7401588  68.2107574  28.1216566
  17.3533341  68.2356606  28.9030096  17.2534526  67.6449253  27.6691082
  17.6114097  68.1303325  28.1704469  17.4058730  65.0974560  30.4126826
  18.0351848  65.6334860  30.1347896  17.5744593  65.0051918  31.2640391
  17.5236525  65.1635922  30.4975354  17.2072645  69.8845754  32.6853237
  18.0346074  69.6130903  32.7411852  17.2280491  70.6806596  33.0417055
  17.3325495  69.9625509  32.7468420  20.8982648  67.6310448  23.3812127
  21.1032242  67.5632756  24.2269125  20.5709072  68.4369269  23.3133305
  20.8797896  67.7396388  23.4971783  24.1516336  68.1842212  22.8614893
  23.5390650  68.6712614  23.2468625  24.2480511  67.5085703  23.4052544
  24.0754234  68.1560521  22.9993751  18.1535417  69.9405053  17.9612392
  18.6079164  70.1115614  18.6860237  18.6275463  69.3273164  17.5610168
  18.2903737  69.8755939  18.0086154  17.4128013  68.4397847  24.0989261
  16.5664058  68.6120654  23.9730611  17.4099145  67.6347190  24.4355089
  17.2875163  68.3458876  24.1300388  19.4312177  66.8141400  29.7670941
  18.9352739  67.0105074  29.0762507  20.1881240  67.2134068  29.5959742
  19.4699002  66.9019134  29.6391077  16.7015057  70.4883746  26.3574251
  16.7257544  69.9543858  25.6687031  16.9526531  69.9801055  27.0199842
  16.7424976  70.3344650  26.3538896  12.2114526  69.2223967  33.6710305
  12.8367229  68.6786100  33.9439738  11.7565006  68.7418885  33.1018096
  12.2362787  69.0713448  33.6271899  19.7805147  70.1923946  28.2305510
  20.2060218  69.7396472  27.6189037  19.1662140  69.6384017  28.5070298
  19.7533792  70.0437922  28.1810535  18.2199370  66.6639046  21.6396087
  17.5767688  66.5136692  22.2081226  17.8798777  66.4181391  20.8745192
  18.0744447  66.6051168  21.6099102  22.9726844  71.0754356  23.9716469
  23.3254454  70.6484079  24.6462268  22.1141645  70.9905200  24.1017545
  22.8976288  70.9999097  24.0911479  24.4050904  66.1972768  24.9000781
  23.8981768  65.4901908  24.8321959  25.2018337  65.8665957  25.0301858
  24.4478143  66.0445920  24.9099776  23.0471626  71.6939318  21.0477604
  23.0465852  71.5387974  21.9061880  22.8427806  72.5402305  20.9918989
  23.0171404  71.7959938  21.1665543  16.3412391  67.6102242  30.6750191
  16.4740297  66.8133235  31.0031167  16.7257544  68.1368645  31.2548467
  16.4168720  67.5702159  30.8093694  19.4144746  64.5332568  27.2731285
  18.6090710  64.4230298  27.5899123  19.2851482  64.6345024  26.4161151
  19.2764879  64.5316238  27.1939325  22.8710707  70.6978060  27.8670982
  22.2873696  71.1987266  27.4548549  23.1915001  70.1907616  27.2335305
  22.8323882  70.6969895  27.7129489  15.4105506  69.6118655  18.1429656
  16.2321200  69.7816968  17.9011351  14.9475157  69.7665916  17.4195954
  15.4636668  69.6600388  18.0001301  14.0000838  67.6061417  28.9228085
  14.5445251  67.2652544  29.5132427  14.0537773  68.4646878  29.0649370
  14.0889957  67.6816676  29.0309959   2.1022718  26.8129298  18.3140093
   1.8661355  25.9817363  18.1952153   2.7465947  26.7614905  18.8994937
   2.1617389  26.6826986  18.3825986   3.1259139  26.5973746  14.3768387
   2.8204956  27.3301803  14.7381703   2.4065354  26.1911676  14.0961173
   2.9746481  26.6455479  14.3881524   8.8260931  23.2366747  13.7036731
   8.7585431  23.2562706  12.8339318   8.8116593  24.0797074  13.9292402
   8.8139687  23.3640482  13.6089208   5.5427021  25.1566664  15.2232456
   5.6010145  25.6053313  15.9692432   4.9093488  25.5665477  14.7862536
   5.4578316  25.2840399  15.2685004   1.0999917  24.3434359  17.1932450
   1.8234116  23.8906885  17.0143470   0.8349880  24.6239024  16.4104778
   1.1681191  24.3185327  17.0511166   3.5335231  23.3060769  15.6963000
   4.1253072  23.9458020  15.7281198   3.9694226  22.6083806  15.9855067
   3.6853663  23.2979120  15.7443833  13.8474476  37.1916145   6.9112054
  13.8168480  38.0460782   7.0830323  14.4455825  36.8911438   7.4698197
  13.9311634  37.2732642   7.0186856  10.3567877  42.5478322  21.2725440
  11.0634644  42.0530353  21.4012375  10.5455813  42.9887403  20.5428098
  10.4895783  42.5396672  21.1834486   6.4244552  48.1894152   8.7998874
   6.8083931  48.7581051   8.2603650   6.3603693  47.4643663   8.3204690
   6.4717979  48.1669616   8.6492737   9.8925982  38.3383840  14.3096636
  10.4381942  39.0168927  14.3690605   9.8342858  38.1971301  13.4498217
   9.9641896  38.4175842  14.1908696  11.6691050  39.7668447   5.1830364
  11.5530576  40.5176133   5.6122502  12.4646937  39.5092400   5.4326451
  11.7695640  39.8403294   5.2834455   5.7911019  42.1448910   6.5413884
   6.2304655  41.5366011   6.9868657   5.6415682  41.7656284   5.7699349
   5.8332485  41.9987381   6.4933051   3.2582662  40.7392922  13.7432710
   3.9031665  40.2465365  13.4243658   3.4984439  40.8817709  14.5698788
   3.3893247  40.6870364  13.8182243   5.7968754  43.5847828  13.3939602
   6.0791996  42.7899234  13.1726358   6.5254914  44.0628415  13.4144663
   5.9458317  43.5382425  13.3642617   9.3920356  40.4976091   3.4944653
   9.3071651  41.3537058   3.6394222   9.8804739  40.2220416   4.1626812
   9.4509253  40.5833413   3.6146735  10.3238789  37.1160886   4.9942388
   9.7950261  37.3320519   5.6539695  10.8463809  37.8097024   4.9143358
  10.3227242  37.2504023   5.0797988  15.7786842  42.6907190  10.3675433
  14.9484545  42.9017834  10.5308849  15.7296094  41.8644245  10.0917717
  15.6493577  42.5996796  10.3512798   3.8396580  45.5211044  13.2023342
   3.3223521  45.1618459  12.5984651   4.5370971  44.9973219  13.2129409
   3.8662161  45.3908732  13.1153601   7.4960172  45.9705858  19.1639515
   7.5843517  45.7831999  20.0117726   7.9249884  45.3243288  18.7644362
   7.5722274  45.8468866  19.2311267   5.0630631  45.2537018  18.1457178
   4.5001466  44.8409628  18.6696839   5.8251655  45.1789924  18.5650321
   5.0925080  45.1814419  18.2850178  15.2740800  35.3377591  14.1625854
  14.4369221  35.4079778  14.3973449  15.2429031  35.3402086  13.2900157
  15.1459083  35.3487818  14.0685402   1.6705529  37.4810626  19.8774223
   1.8426033  37.3716521  20.7259504   2.2074887  38.1265032  19.6405415
   1.7750533  37.5602628  19.9679320   9.9970986  39.5333267   9.7537746
  10.7528501  39.9664782   9.7926654  10.1033311  38.8838037  10.3272382
  10.1241157  39.5010751   9.8435771  13.0351157  43.3606545  10.5040149
  12.5986389  43.3643287  11.2599120  12.7014073  44.0412044  10.0719726
  12.9213777  43.4619000  10.5520981   7.6080231  45.4014877  21.8283299
   8.3920647  45.5145725  22.1939041   7.4076825  44.5756014  22.0241985
   7.6946256  45.2961597  21.9117685  12.9548640  30.4020372  12.7469577
  13.5974549  30.4718477  13.3331492  13.2071661  29.7349595  12.2449119
  13.0870772  30.3146721  12.7596856   7.7650624  47.3124979  15.4749755
   6.9665870  47.0724479  15.7323623   8.2136636  47.3639372  16.2216802
   7.7125235  47.2847371  15.6234679  16.1695503  40.0787464   9.3959786
  16.8311937  39.5178133   9.2955694  15.5286915  39.5839495   9.7212477
  16.1724371  39.9223873   9.4292126  12.4560334  41.0952847   9.1371775
  12.6915923  41.2398046   8.3098625  12.6049898  41.8595255   9.5303288
  12.5126137  41.2291901   9.0735379  14.2850791  39.9354513   6.9741379
  14.6159008  40.4682153   6.3681473  14.8583879  39.9893401   7.6303330
  14.4184470  40.0224082   6.9819160   6.8251361  41.0585424  23.3669943
   6.0324342  41.3728936  23.5522562   6.9400288  41.2736893  22.5290727
   6.7246772  41.1369261  23.2708278   9.4982680  37.7819415   7.6564959
   9.5929534  38.5208710   8.1104584   8.8741524  37.3536891   8.0899523
   9.4191710  37.8280736   7.7873106   7.7535154  40.9605628  18.3055240
   8.3274015  40.3232872  18.4603803   7.6749958  40.9609710  17.4364897
   7.8268389  40.8670739  18.2001650   3.1098872  39.3928893  10.3576437
   2.8518117  38.5600628  10.3307736   3.1647355  39.6186506   9.5168937
   3.0798650  39.3026664  10.2296574   8.1899923  31.4957344  10.4580530
   7.4856249  31.0066529  10.6164449   8.2384897  31.5079818   9.5868974
   8.0929974  31.4246992  10.3519869   2.0833585  36.9466656  10.8441332
   1.5083176  37.1058824  11.4805293   1.7069261  36.3102065  10.3809782
   1.9436397  36.8764469  10.8695890   5.7506873  35.4190005  15.7033710
   5.3621306  34.9944223  15.0485901   5.0861572  35.6672155  16.2110737
   5.5953801  35.3928726  15.6821578  15.3930142  35.1765010   8.4781540
  15.1366707  34.3644951   8.2879423  16.2359456  35.1842577   8.2511727
  15.4796168  35.0577007   8.4166357   9.5733235  29.1164634  13.2157694
   9.9543747  28.4342805  13.6025569   8.7696519  28.8274236  13.0333359
   9.5109696  28.9731682  13.2461750  13.0755302  42.3314606  18.3140093
  12.8393939  41.5002670  18.1952153  13.7198531  42.2800213  18.8994937
  13.1349972  42.2012294  18.3825986   2.7253720  43.1210127   9.0282829
   3.3627667  42.8821875   9.5734623   3.1508791  43.3247286   8.2935990
   2.8829886  43.1161137   8.9999987   3.5325075  31.6218832  23.0820303
   3.2178516  32.3918395  22.8189866   3.2115008  31.0589088  22.4972530
   3.4383994  31.6529101  22.9561653  14.0991722  42.1159054  14.3768387
  13.7937539  42.8487111  14.7381703  13.3797938  41.7096984  14.0961173
  13.9479065  42.1640787  14.3881524   5.1075192  43.5982550  10.7076615
   5.1814200  43.4357721  11.5618465   5.9244698  43.7872739  10.4637097
   5.2391550  43.6019292  10.7974641  19.7993514  38.7552055  13.7036731
  19.7318015  38.7748014  12.8339318  19.7849177  39.5982382  13.9292402
  19.7872271  38.8825790  13.6089208  10.2089861  30.1587213  17.0277821
  10.9543453  29.9697023  16.6141246   9.7927165  30.6845451  16.4691677
  10.2574835  30.2089358  16.8842394  17.5852132  37.5296441  11.9783326
  18.1360053  36.8964510  12.2180418  17.5696247  38.0611834  12.6698830
  17.6637328  37.5145389  12.1162184   4.2374523  41.3635039  16.5243219
   3.7386216  42.0750806  16.6028108   5.0474747  41.6835705  16.4861382
   4.2830629  41.5161887  16.5299788  11.2880538  35.7692775  11.0887922
  10.9445304  35.0483110  11.4395172  11.3873581  35.5606626  10.2466280
  11.2522581  35.6316978  11.0159602  11.7493567  42.2318479   6.6311910
  12.3151600  42.8911689   6.5470453  11.1021470  42.5768177   7.1028312
  11.7372323  42.3800420   6.6884667   3.1641581  34.2216083  21.8205518
   2.3541356  34.5273863  21.7095360   3.6416267  34.9421665  21.9358102
   3.1145059  34.3730684  21.8212589   2.0233140  43.4361804  12.0688421
   1.5013894  43.5762096  12.7540285   2.4107160  42.6772468  12.2590538
   2.0036841  43.3447328  12.1989497   8.2200145  45.1757263   6.0548989
   7.9786821  44.4425124   5.6476054   8.4001478  45.7244120   5.4015323
   8.2107769  45.1479654   5.8979212   3.4499466  40.4665823   7.4669912
   3.2542248  41.0740558   6.8730215   3.6733811  39.7733767   6.9861586
   3.4534107  40.4543349   7.3085993   1.8477996  37.3520561   7.5850780
   2.5700648  37.5161719   7.1254586   1.3685989  38.0730226   7.4790120
   1.8841726  37.4818791   7.5016394   9.8071503  33.6884360  12.9647465
   8.9682604  33.7145639  12.7285728   9.8775871  34.3355095  13.5452812
   9.6939897  33.7880486  13.0156582  13.6829027  38.8952347  10.2508707
  13.5963002  39.0507773  11.1043486  13.2279507  39.5390422   9.8768112
  13.6032284  39.0128102  10.3215814   3.0169338  31.8505022  16.7505962
   2.8252535  31.8660156  17.6005385   3.8667934  32.0468696  16.7272616
   3.1145060  31.8819373  16.8729256   7.5554843  36.2163094   8.8734266
   7.3089558  36.1358845   9.7071055   7.8839966  35.4316561   8.6796794
   7.5676087  36.0889359   8.9681789  11.4502892  42.9246453  12.6621048
  11.3117251  43.6227499  13.1669790  10.6702890  42.7695109  12.3057229
  11.3146119  43.0046620  12.6847322   9.7880977  39.2242828  18.9143429
   9.7829016  38.3522645  18.9185856  10.4941971  39.4230997  18.4412885
   9.8925981  39.1246702  18.8450465   3.5151871  38.9519812  18.2857249
   3.6595246  39.5321020  17.6500359   3.8627519  39.3296109  18.9907104
   3.5879332  39.0940516  18.2956244   5.6871788  38.1509981  16.0682381
   4.9395102  38.3440995  15.6630659   5.8413313  37.3255200  15.8306502
   5.5994215  38.0575092  15.9727787   2.5879626  47.1422584  15.1518276
   2.7369189  46.5825500  14.4991681   3.3679628  47.2214586  15.5350795
   2.7253719  47.0708149  15.1115225  12.9456265  42.2824707   3.4237547
  12.5663074  41.4961845   3.4166836  12.2822510  42.8311564   3.2809191
  12.7914740  42.2469531   3.4018344   5.1132926  47.3137227  16.4302767
   5.0376597  46.6446037  16.9853555   5.0422785  48.0155015  16.9443433
   5.0913533  47.3182134  16.5879615   5.9273565  32.0460531  16.9577785
   6.3846179  32.7784506  17.0850577   6.0029894  31.6226997  17.7165040
   6.0064535  32.0917769  17.0878861   3.8055943  34.0362635  13.8019609
   3.0152018  33.8554095  14.1236945   4.2016566  33.2589588  13.7849903
   3.7472819  33.8950096  13.8472157   9.1899629  41.6705065  11.5279055
   8.5144631  41.4390298  12.0292442   9.1992005  41.0626248  10.9021160
   9.0918134  41.5463991  11.5095207   6.3193773  36.5122894  18.2843108
   6.2552914  37.3732851  18.1563244   6.4590961  36.1954888  17.4838659
   6.3309243  36.5923061  18.1471320  11.1916364  44.5270198   3.7589233
  11.2736201  45.3337184   3.4350683  11.6766106  44.5466157   4.4830006
  11.2753522  44.6490860   3.8176131   5.0012867  39.2055034  12.4259311
   4.5775116  39.4059533  11.6898329   4.8257722  38.3583882  12.5383610
   4.9123748  39.1103815  12.3333001   4.5024560  50.7205547  14.8880768
   4.9920491  50.0216336  14.7056432   3.9308793  50.4229417  15.4756825
   4.4909090  50.5731770  14.9481809   6.8274457  39.0764969   6.7280646
   7.3690002  38.5735350   7.1919267   7.1421016  39.0230163   5.9170132
   6.9538854  38.9944390   6.6764458  10.6991564  43.2867616  23.8407558
  11.5126429  43.0152765  24.0012691  10.5386530  42.9875156  23.0367754
  10.7961512  43.2022542  23.7452964   7.9763726  33.9701273  16.7802947
   8.1905696  33.3312187  16.2266301   7.3597625  34.4147097  16.3510808
   7.9169055  33.9411417  16.6353378   9.3868394  46.8920022   8.2257168
   8.9948186  46.5886737   7.5080034   9.5421466  47.7289111   8.0362121
   9.3521984  46.9703858   8.0913665  10.1402814  35.5790338  17.7186254
   9.3279496  35.2716229  17.7999427  10.5992749  35.0989339  18.2828966
  10.0883199  35.4626831  17.8140848   9.5508069  43.4570010   8.1663198
   9.1922723  43.6284653   8.9427231   9.0646779  43.9183216   7.6091197
   9.4266766  43.5508981   8.1988467   7.2356322  36.9850410  22.5014956
   7.7055953  37.6092526  22.8882830   7.2818202  36.3167385  23.0608171
   7.3124197  36.9785090  22.6415028   4.3927595  29.0907437  13.2263760
   3.8766084  28.3987629  13.3515339   3.8321524  29.7578214  13.1726359
   4.2334108  29.0870695  13.2369826   6.4619829  29.6300397  15.0556612
   6.0751582  29.6549429  15.8370142   5.9752766  29.0642076  14.6031129
   6.3332337  29.5496148  15.1044516  10.7112808  44.3473906  19.1130399
  11.3492529  43.8534102  18.7792855  10.0686900  44.2751307  18.5282626
  10.7107035  44.2632915  18.9772754  12.4369808  36.1963052  13.6796315
  12.0097416  36.1089401  12.9244414  11.7995861  36.3040828  14.2651159
  12.2799415  36.1995712  13.6541756   6.1276970  26.5167383  17.3466872
   6.7570088  27.0527683  17.0687943   6.2962833  26.4244742  18.1980438
   6.2454765  26.5828745  17.4315401   5.9290885  31.3038578  19.6193284
   6.7564315  31.0323726  19.6751898   5.9498731  32.0999419  19.9757102
   6.0543735  31.3818332  19.6808467  10.7667065  45.0393715  15.7535756
  11.5559443  44.6882779  15.8737837  10.9410662  45.8530103  15.4912390
  10.9087346  45.1079572  15.7323624   9.6200889  29.0503271  10.3152174
   9.8250482  28.9825579  11.1609171   9.2927313  29.8562093  10.2473352
   9.6016137  29.1589212  10.4311829   4.3177040  36.3783840  12.0561142
   4.0140177  35.8239828  12.6571550   3.6156461  36.5576049  11.5689176
   4.1693250  36.3228622  12.0730848   2.3795391  43.5933560  16.7633240
   2.2715746  43.6035622  17.6295298   2.5891172  44.4188341  16.5738194
   2.3945502  43.7174635  16.8637332  12.8734576  29.6035036   9.7954940
  12.2608890  30.0905438  10.1808672  12.9698751  28.9278526  10.3392591
  12.7972474  29.5753344   9.9333798   0.7929806  32.0048200  14.8923195
   1.2531287  32.0787130  15.6298319   0.8385912  32.8029454  14.5423017
   0.8680361  32.1342347  14.9495952   2.4413155  32.6714895  19.4595222
   2.0498721  32.0248242  19.8951000   2.6099018  33.2626331  20.0789478
   2.4084066  32.6629163  19.6157928  16.5159604  40.6751972  15.2232456
  16.5742728  41.1238621  15.9692432  15.8826072  41.0850785  14.7862536
  16.4310900  40.8025707  15.2685004  10.1558699  46.2955514  11.6587202
   9.9578388  46.7846329  10.9643413   9.5346410  46.4996756  12.2371335
  10.0346264  46.3972052  11.6410425   6.1346253  29.8590670  11.0329308
   5.2882298  30.0313478  10.9070658   6.1317385  29.0540014  11.3695136
   6.0093403  29.7651699  11.0640435   7.2044553  33.6365884  11.8991366
   6.7304508  33.1107646  12.4096677   7.5762689  33.0895357  11.3306227
   7.1894442  33.4781881  11.8906513  13.4681284  38.6968260  13.3098146
  13.2279507  37.8574675  13.3140573  13.9473291  38.7768427  14.0338920
  13.5033468  38.5849660  13.4172948  15.4686471  35.4769717  11.2627405
  15.2296241  35.4365551  10.4248190  15.6320372  36.3240869  11.3893126
  15.4576774  35.5961802  11.1580887  12.0732501  39.8619666  17.1932450
  12.7966700  39.4092193  17.0143470  11.8082463  40.1424332  16.4104778
  12.1413774  39.8370635  17.0511166   7.8551291  39.9603545  15.3427465
   7.2408284  39.4161595  15.6376101   8.3718576  39.4467781  14.8633282
   7.8406953  39.8039954  15.3151694   7.0947588  41.0307815  13.0771764
   6.6675196  40.4057533  12.6437199   7.0872532  40.7482737  13.9030771
   7.0306729  40.8960595  13.1351592   8.1530418  28.2334223  16.7010988
   7.6570979  28.4297898  16.0102554   8.9099480  28.6326892  16.5299789
   8.1917243  28.3211957  16.5731124   5.4233297  31.9076569  13.2914298
   5.4475785  31.3736682  12.6027078   5.6744771  31.3993878  13.9539889
   5.4643216  31.7537473  13.2878943   1.7034620  30.6347388  12.6720042
   1.7432991  31.1356594  13.3854750   0.8784284  30.7257781  12.4025965
   1.5874146  30.7229204  12.7370581   3.8864233  40.2008128  20.7740337
   3.0359863  40.3379842  20.9097982   4.0492360  39.4671906  21.2188039
   3.7848096  40.1122229  20.8595936   3.1248983  37.1507897  14.9693941
   2.2940913  37.3181715  14.7629190   3.0700500  36.7743848  15.7542827
   2.9938398  37.1197629  15.0542470  14.5067815  38.8246077  15.6963000
  15.0985655  39.4643328  15.7281198  14.9426810  38.1269114  15.9855067
  14.6586246  38.8164428  15.7443833   6.3361205  43.2463450  16.3220894
   5.8286296  43.7999297  16.7661525   6.0387851  43.3071740  15.5039669
   6.2166090  43.3369761  16.2669351   8.5023387  31.6116769  15.1645557
   8.9278459  31.1589296  14.5529083   7.8880380  31.0576840  15.4410344
   8.4752032  31.4630746  15.1150582  11.5316956  36.0391296   7.9966143
  10.8608146  36.5820998   7.8679208  12.2256707  36.5086151   7.7547837
  11.5345824  36.1889567   7.9421670   5.5803690  48.1788008  13.2277901
   5.3569345  47.4206837  13.5961927   5.0913533  48.2086029  12.5058341
   5.4747139  48.0710232  13.1754642  11.6945084  32.4947180  10.9056516
  12.0472694  32.0676902  11.5802315  10.8359885  32.4098023  11.0357592
  11.6194529  32.4191920  11.0251526   9.6928350  35.7582548  14.8541358
   9.6726277  35.5765843  15.7076137   9.7407550  36.6294567  14.8300942
   9.6962991  35.8599086  14.9764653   7.6374680  42.3469740  20.7789835
   7.5970534  41.7019417  20.1934991   8.4497998  42.2906358  21.0915247
   7.7517833  42.2428707  20.7386784   7.5947441  47.5578551  11.4338602
   7.1963724  47.6680822  10.6659422   6.9798661  47.7660618  12.0165162
   7.4446331  47.6052119  11.4069901  13.1269144  27.6165591  11.8340828
  12.6200009  26.9094731  11.7662006  13.9236578  27.2858780  11.9641905
  13.1696383  27.4638743  11.8439823   9.0433160  34.1232204   7.7314492
   8.8146853  34.1464905   6.8892850   9.3031236  33.2989671   7.8509503
   9.0479348  34.0048284   7.6239690   3.3252388  35.9766677  17.3339592
   2.8131291  35.3687860  17.6924624   3.1531884  36.6923269  17.8013568
   3.2242025  35.9929976  17.4555816  15.3289284  42.1330518   4.8181693
  15.7122890  42.8821874   5.0479790  14.5333397  42.3796338   4.5593682
  15.2683066  42.2800212   4.8139266   7.2021459  33.8990921  19.7741848
   7.7592889  33.6704731  19.1420313   6.8782524  34.6596587  19.4977060
   7.2367869  33.9774758  19.6398345   4.9204576  36.9858575  20.7393855
   5.6715903  37.3010251  21.0533409   5.1127152  36.7837746  19.9127777
   5.0595990  37.0025956  20.6637251  11.7689866  33.1132141   7.9817650
  11.7684092  32.9580798   8.8401927  11.5646046  33.9595128   7.9259036
  11.7389644  33.2152762   8.1005590   9.4930718  37.7929643  11.6353857
   9.9884383  37.0752638  11.5957878   8.6830494  37.4900440  11.5208344
   9.4474611  37.6427289  11.6127583  11.5582537  40.5433330  14.3230986
  11.9837608  40.0207752  13.7701411  11.1939457  41.1414168  13.8019609
  11.5669139  40.5543557  14.1639996   1.1936617  48.8397548  13.0828332
   1.5083176  49.6533936  13.0906113   1.6030030  48.4547766  13.7510491
   1.3004715  48.9026250  13.1832423   8.1461136  44.2567595  10.6532143
   8.6172315  44.9707857  10.8222129   8.4821315  43.6566345  11.1892013
   8.2656251  44.2739059  10.7564519  10.2338121  45.8668908  22.8324216
  10.3435086  45.0777468  23.1880963  10.5629018  45.7774844  22.0298554
  10.2990527  45.7374761  22.7666606   5.0630631  29.0295065  17.6090238
   5.1958537  28.2326059  17.9371214   5.4475784  29.5561468  18.1888514
   5.1386960  28.9894982  17.7433741   8.7835083  44.0485529  17.4159836
   8.2356029  43.4243412  17.1479901   9.2448111  44.2379801  16.7003916
   8.7702292  43.9844579  17.2710267   8.1362986  25.9525391  14.2071332
   7.3308950  25.8423121  14.5239170   8.0069722  26.0537847  13.3501197
   7.9983119  25.9509061  14.1279372  11.5928947  32.1170883  14.8011028
  11.0091936  32.6180090  14.3888596  11.9133241  31.6100439  14.1675352
  11.5542122  32.1162718  14.6469536   2.7219078  29.0254240  15.8568132
   3.2663491  28.6845367  16.4472474   2.7756014  29.8839702  15.9989417
   2.8108197  29.1009500  15.9650005   8.3493409  45.0536601  13.9469177
   9.1691783  44.9099567  14.2085472   8.0687487  45.6782800  14.4885615
   8.4290152  45.1246953  14.0657117  24.8207059  52.7101453   6.9112054
  24.7901064  53.5646090   7.0830323  25.4188408  52.4096746   7.4698197
  24.9044217  52.7917950   7.0186856  18.0206744  51.7977104  11.6664984
  17.1644640  51.9585602  11.7174101  18.0674398  50.9269168  11.6870045
  17.9005856  51.6927906  11.6771050  21.3300461  58.0663630  21.2725440
  22.0367228  57.5715660  21.4012375  21.5188396  58.5072711  20.5428098
  21.4628366  58.0581980  21.1834486  17.3977135  63.7079460   8.7998874
  17.7816514  64.2766359   8.2603650  17.3336276  62.9828970   8.3204690
  17.4450562  63.6854924   8.6492737  20.8658565  53.8569148  14.3096636
  21.4114525  54.5354235  14.3690605  20.8075442  53.7156609  13.4498217
  20.9374480  53.9361150  14.1908696  22.6423634  55.2853755   5.1830364
  22.5263160  56.0361441   5.6122502  23.4379521  55.0277708   5.4326451
  22.7428223  55.3588602   5.2834455   9.4787772  49.5364231  12.2201630
   8.8592803  48.9456879  12.0511644   9.3771635  50.1275667  11.5865953
   9.3725447  49.5368314  12.1006619  16.5755667  51.2763773   6.5534093
  17.2735832  51.4551901   7.0455556  16.8908000  50.7534112   5.9304482
  16.7251005  51.2257545   6.5336103   9.2056905  53.0816513  14.4645198
   9.0815602  53.6678958  15.0995017   9.8575189  52.5876709  14.7657473
   9.2830554  53.0955317  14.6031128  16.7643603  57.6634218   6.5413884
  17.2037238  57.0551319   6.9868657  16.6148266  57.2841591   5.7699349
  16.8065069  57.5172689   6.4933051  14.2315246  56.2578230  13.7432710
  14.8764248  55.7650673  13.4243658  14.4717023  56.4003017  14.5698788
  14.3625831  56.2055672  13.8182243  16.7701337  59.1033136  13.3939602
  17.0524580  58.3084542  13.1726358  17.4987498  59.5813723  13.4144663
  16.9190901  59.0567733  13.3642617  14.7482531  46.6456170  10.6355367
  14.4185861  47.0967313   9.9659066  14.0727533  46.5672333  11.1828374
  14.5992967  46.7007305  10.6178591  20.3652939  56.0161399   3.4944653
  20.2804235  56.8722366   3.6394222  20.8537323  55.7405723   4.1626812
  20.4241837  56.1018721   3.6146735  21.9558939  42.6341693   8.8804978
  21.6412380  43.3245171   9.3125400  21.4385880  42.5786475   8.1790479
  21.8323409  42.7276581   8.8401927  21.2971373  52.6346194   4.9942388
  20.7682844  52.8505827   5.6539695  21.8196393  53.3282332   4.9143358
  21.2959826  52.7689330   5.0797988  26.7519426  58.2092498  10.3675433
  25.9217129  58.4203142  10.5308849  26.7028678  57.3829553  10.0917717
  26.6226161  58.1182104  10.3512798  14.8129163  61.0396352  13.2023342
  14.2956105  60.6803767  12.5984651  15.5103554  60.5158527  13.2129409
  14.8394744  60.9094040  13.1153601  18.4692755  61.4891166  19.1639515
  18.5576101  61.3017307  20.0117726  18.8982468  60.8428596  18.7644362
  18.5454857  61.3654174  19.2311267  16.0363215  60.7722326  18.1457178
  15.4734050  60.3594936  18.6696839  16.7984238  60.6975232  18.5650321
  16.0657663  60.6999727  18.2850178  12.9538485  44.7068458   6.1178315
  13.7084453  45.0746775   5.8795365  12.7766020  45.0808013   6.8857495
  13.0392964  44.8166646   6.1963203  26.2473384  50.8562899  14.1625854
  25.4101805  50.9265086  14.3973449  26.2161615  50.8587393  13.2900157
  26.1191666  50.8673126  14.0685402  12.6438113  52.9995934  19.8774223
  12.8158617  52.8901829  20.7259504  13.1807470  53.6450340  19.6405415
  12.7483117  53.0787936  19.9679320  11.5462685  59.3727575  14.5592721
  12.0860910  59.2298706  15.2296094  10.8632631  59.7724325  14.9276748
  11.5254839  59.4107245  14.7127143  16.9895269  44.1165188   5.8505452
  17.7181429  43.9381143   5.4043608  17.0790162  44.9583268   6.0612630
  17.1101931  44.2149066   5.8158969  20.9703570  55.0518575   9.7537746
  21.7261085  55.4850090   9.7926654  21.0765894  54.4023345  10.3272382
  21.0973740  55.0196059   9.8435771  24.0083741  58.8791852  10.5040149
  23.5718973  58.8828595  11.2599120  23.6746656  59.5597351  10.0719726
  23.8946361  58.9804308  10.5520981  18.5812814  60.9200185  21.8283299
  19.3653231  61.0331033  22.1939041  18.3809409  60.0941322  22.0241985
  18.6678840  60.8146905  21.9117685   6.9499830  55.5927865  14.7127143
   6.6838245  54.7766982  14.8718133   6.9638394  55.6381021  13.8422658
   6.9124552  55.4784770  14.6080625  23.9281224  45.9205680  12.7469577
  24.5707132  45.9903785  13.3331492  24.1804244  45.2534903  12.2449119
  24.0603356  45.8332029  12.7596856  11.6998436  49.1306244  17.3594151
  11.0070233  48.6603223  17.6054882  12.3158764  48.9044548  17.9335858
  11.6882966  49.0273375  17.4803303  18.7383208  62.8310287  15.4749755
  17.9398453  62.5909787  15.7323623  19.1869219  62.8824680  16.2216802
  18.6857819  62.8032678  15.6234679  27.1428087  55.5972772   9.3959786
  27.8044521  55.0363441   9.2955694  26.5019499  55.1024803   9.7212477
  27.1456954  55.4409181   9.4292126  23.4292918  56.6138155   9.1371775
  23.6648507  56.7583354   8.3098625  23.5782481  57.3780563   9.5303288
  23.4858721  56.7477209   9.0735379  10.4238995  53.0971648  18.5020996
  11.1478967  53.0824678  18.9885891  10.5255132  53.8067003  18.0042964
  10.5457204  53.1996351  18.4999783  25.2583374  55.4539821   6.9741379
  25.5891592  55.9867461   6.3681473  25.8316463  55.5078708   7.6303330
  25.3917054  55.5409390   6.9819160  17.7983945  56.5770732  23.3669943
  17.0056925  56.8914244  23.5522562  17.9132872  56.7922201  22.5290727
  17.6979355  56.6554569  23.2708278  20.4715264  53.3004723   7.6564959
  20.5662118  54.0394017   8.1104584  19.8474107  52.8722199   8.0899523
  20.3924294  53.3466044   7.7873106  18.7267737  56.4790936  18.3055240
  19.3006599  55.8418180  18.4603803  18.6482541  56.4795018  17.4364897
  18.8000972  56.3856047  18.2001650   7.3264154  53.2580145  12.1437954
   7.9037656  53.1216596  12.7830199   6.6278216  52.8015930  12.3983538
   7.3085175  53.1702412  12.2760243  20.7238285  55.1453463   0.8901911
  20.6418447  55.2155650   1.7556898  21.3618005  55.7083207   0.6985651
  20.8058122  55.2392434   0.9891860  14.0831456  54.9114201  10.3576437
  13.8250700  54.0785936  10.3307736  14.1379939  55.1371814   9.5168937
  14.0531234  54.8211972  10.2296574  13.0566168  52.4651964  10.8441332
  12.4815759  52.6244132  11.4805293  12.6801844  51.8287373  10.3809782
  12.9168981  52.3949777  10.8695890  16.7239457  50.9375313  15.7033710
  16.3353890  50.5129531  15.0485901  16.0594155  51.1857463  16.2110737
  16.5686385  50.9114034  15.6821578  26.3662726  50.6950318   8.4781540
  26.1099291  49.8830259   8.2879423  27.2092040  50.7027885   8.2511727
  26.4528751  50.5762315   8.4166357  20.5465818  44.6349942  13.2157694
  20.9276330  43.9528113  13.6025569  19.7429103  44.3459544  13.0333359
  20.4842280  44.4916990  13.2461750  17.8278395  55.1673917   3.9010517
  18.6419034  55.4588810   3.7893288  17.7637536  54.5133780   3.3268810
  17.9381134  55.1139112   3.7999354  24.0487885  57.8499914  18.3140093
  23.8126523  57.0187978  18.1952153  24.6931114  57.7985521  18.8994937
  24.1082556  57.7197602  18.3825986  13.6986303  58.6395435   9.0282829
  14.3360250  58.4007182   9.5734623  14.1241375  58.8432594   8.2935990
  13.8562470  58.6346445   8.9999987  14.5057659  47.1404140  23.0820303
  14.1911100  47.9103703  22.8189866  14.1847591  46.5774396  22.4972530
  14.4116578  47.1714409  22.9561653  25.0724306  57.6344362  14.3768387
  24.7670123  58.3672419  14.7381703  24.3530522  57.2282292  14.0961173
  24.9211648  57.6826095  14.3881524  16.0807775  59.1167858  10.7076615
  16.1546784  58.9543029  11.5618465  16.8977282  59.3058047  10.4637097
  16.2124134  59.1204600  10.7974641  30.7726098  54.2737363  13.7036731
  30.7050598  54.2933322  12.8339318  30.7581760  55.1167690  13.9292402
  30.7604854  54.4011098  13.6089208  12.0589556  45.5294661   8.6966499
  11.1911981  45.6017261   8.7624108  12.3464760  46.3316740   8.8854474
  11.9729304  45.6588808   8.7341266  21.1822444  45.6772521  17.0277821
  21.9276036  45.4882331  16.6141246  20.7659749  46.2030759  16.4691677
  21.2307419  45.7274666  16.8842394  28.5584715  53.0481749  11.9783326
  29.1092637  52.4149818  12.2180418  28.5428831  53.5797142  12.6698830
  28.6369912  53.0330697  12.1162184  15.2107106  56.8820346  16.5243219
  14.7118800  57.5936114  16.6028108  16.0207330  57.2021013  16.4861382
  15.2563213  57.0347195  16.5299788  11.4735224  56.1443299  10.7705940
  11.1848472  55.5180771  11.3051668  12.3418572  56.0863587  10.8370621
  11.5595476  56.0430844  10.8596895  22.2613122  51.2878083  11.0887922
  21.9177887  50.5668418  11.4395172  22.3606164  51.0791934  10.2466280
  22.2255164  51.1502286  11.0159602  22.7226151  57.7503787   6.6311910
  23.2884183  58.4096997   6.5470453  22.0754054  58.0953485   7.1028312
  22.7104907  57.8985728   6.6884667  14.1374164  49.7401391  21.8205518
  13.3273940  50.0459171  21.7095360  14.6148851  50.4606973  21.9358102
  14.0877643  49.8915992  21.8212589  12.9965724  58.9547112  12.0688421
  12.4746477  59.0947404  12.7540285  13.3839744  58.1957776  12.2590538
  12.9769425  58.8632636  12.1989497  19.1932729  60.6942571   6.0548989
  18.9519405  59.9610432   5.6476054  19.3734062  61.2429428   5.4015323
  19.1840353  60.6664962   5.8979212  14.4232049  55.9851131   7.4669912
  14.2274832  56.5925865   6.8730215  14.6466395  55.2919075   6.9861586
  14.4266690  55.9728656   7.3085993  12.8210579  52.8705869   7.5850780
  13.5433231  53.0347027   7.1254586  12.3418572  53.5915534   7.4790120
  12.8574310  53.0004098   7.5016394  20.7804087  49.2069668  12.9647465
  19.9415188  49.2330947  12.7285728  20.8508454  49.8540403  13.5452812
  20.6672480  49.3065793  13.0156582  10.4718196  55.2763941  16.6904920
  10.9839293  55.5548195  16.0413680  10.1854539  56.0153235  17.0567733
  10.5053059  55.4266295  16.6494798  19.2273365  46.1055045   7.6975081
  19.9299718  45.9062793   7.2195039  18.9617554  45.3330987   8.0043924
  19.2919998  45.9618011   7.6720523  24.6561611  54.4137654  10.2508707
  24.5695585  54.5693080  11.1043486  24.2012091  55.0575730   9.8768112
  24.5764867  54.5313410  10.3215814  13.9901921  47.3690330  16.7505962
  13.7985118  47.3845464  17.6005385  14.8400517  47.5654004  16.7272616
  14.0877643  47.4004681  16.8729256   8.3748834  49.8981311  14.7289778
   8.2334326  49.0465252  14.8534286   8.6589398  49.9409972  13.9051984
   8.3956681  49.7781061  14.6257402  18.5287427  51.7348402   8.8734266
  18.2822141  51.6544152   9.7071055  18.8572550  50.9501869   8.6796794
  18.5408670  51.6074667   8.9681789  22.4235476  58.4431761  12.6621048
  22.2849835  59.1412807  13.1669790  21.6435474  58.2880417  12.3057229
  22.2878703  58.5231928  12.6847322  20.7613561  54.7428136  18.9143429
  20.7561599  53.8707953  18.9185856  21.4674555  54.9416305  18.4412885
  20.8658565  54.6432010  18.8450465  14.4884454  54.4705120  18.2857249
  14.6327830  55.0506328  17.6500359  14.8360103  54.8481417  18.9907104
  14.5611915  54.6125824  18.2956244  16.6604371  53.6695288  16.0682381
  15.9127686  53.8626303  15.6630659  16.8145897  52.8440508  15.8306502
  16.5726799  53.5760400  15.9727787  13.5612209  62.6607892  15.1518276
  13.7101773  62.1010808  14.4991681  14.3412211  62.7399894  15.5350795
  13.6986303  62.5893457  15.1115225  23.9188849  57.8010015   3.4237547
  23.5395657  57.0147153   3.4166836  23.2555094  58.3496872   3.2809191
  23.7647323  57.7654839   3.4018344  16.0865510  62.8322535  16.4302767
  16.0109181  62.1631345  16.9853555  16.0155369  63.5340323  16.9443433
  16.0646117  62.8367442  16.5879615  16.9006149  47.5645839  16.9577785
  17.3578763  48.2969814  17.0850577  16.9762477  47.1412304  17.7165040
  16.9797118  47.6103077  17.0878861  21.3733474  40.7435714  10.8271628
  21.4917043  41.2012178  10.0938930  21.1995650  39.9380976  10.5407845
  21.3652645  40.6929487  10.6772561  14.7788526  49.5547943  13.8019609
  13.9884601  49.3739403  14.1236945  15.1749149  48.7774896  13.7849903
  14.7205403  49.4135404  13.8472157  20.1632213  57.1890373  11.5279055
  19.4877215  56.9575606  12.0292442  20.1724589  56.5811556  10.9021160
  20.0650717  57.0649298  11.5095207  17.2926357  52.0308202  18.2843108
  17.2285498  52.8918159  18.1563244  17.4323544  51.7140195  17.4838659
  17.3041827  52.1108369  18.1471320  22.1648947  60.0455506   3.7589233
  22.2468785  60.8522492   3.4350683  22.6498689  60.0651465   4.4830006
  22.2486105  60.1676168   3.8176131  15.9745451  54.7240342  12.4259311
  15.5507700  54.9244841  11.6898329  15.7990306  53.8769190  12.5383610
  15.8856331  54.6289123  12.3333001  15.4757144  66.2390855  14.8880768
  15.9653074  65.5401644  14.7056432  14.9041376  65.9414725  15.4756825
  15.4641674  66.0917078  14.9481809  17.8007040  54.5950277   6.7280646
  18.3422586  54.0920658   7.1919267  18.1153599  54.5415471   5.9170132
  17.9271437  54.5129698   6.6764458  21.6724148  58.8052924  23.8407558
  22.4859013  58.5338073  24.0012691  21.5119114  58.5060464  23.0367754
  21.7694096  58.7207850  23.7452964  18.9496310  49.4886581  16.7802947
  19.1638279  48.8497495  16.2266301  18.3330209  49.9332405  16.3510808
  18.8901639  49.4596725  16.6353378  20.3600977  62.4105329   8.2257168
  19.9680769  62.1072045   7.5080034  20.5154050  63.2474419   8.0362121
  20.3254567  62.4889166   8.0913665  21.1135398  51.0975646  17.7186254
  20.3012079  50.7901537  17.7999427  21.5725332  50.6174646  18.2828966
  21.0615782  50.9812139  17.8140848  20.5240652  58.9755318   8.1663198
  20.1655307  59.1469961   8.9427231  20.0379363  59.4368524   7.6091197
  20.3999349  59.0694289   8.1988467  18.3411038  42.5986517  11.7690290
  17.4704596  42.5725238  11.7223599  18.5951379  42.4263709  10.9516135
  18.2504598  42.5696660  11.6410426  18.2088905  52.5035718  22.5014956
  18.6788536  53.1277834  22.8882830  18.2550785  51.8352693  23.0608171
  18.2856781  52.4970398  22.6415028  15.3660179  44.6092745  13.2263760
  14.8498667  43.9172937  13.3515339  14.8054108  45.2763522  13.1726359
  15.2066692  44.6056003  13.2369826  17.4352412  45.1485705  15.0556612
  17.0484165  45.1734737  15.8370142  16.9485349  44.5827384  14.6031129
  17.3064921  45.0681456  15.1044516  21.6845392  59.8659214  19.1130399
  22.3225112  59.3719410  18.7792855  21.0419483  59.7936615  18.5282626
  21.6839618  59.7818223  18.9772754  23.4102392  51.7148360  13.6796315
  22.9830000  51.6274709  12.9244414  22.7728445  51.8226136  14.2651159
  23.2531999  51.7181020  13.6541756  17.1009554  42.0352691  17.3466872
  17.7302672  42.5712991  17.0687943  17.2695417  41.9430050  18.1980438
  17.2187348  42.1014053  17.4315401  16.9023469  46.8223885  19.6193284
  17.7296898  46.5509034  19.6751898  16.9231315  47.6184727  19.9757102
  17.0276319  46.9003640  19.6808467  21.7399648  60.5579023  15.7535756
  22.5292026  60.2068087  15.8737837  21.9143246  61.3715411  15.4912390
  21.8819930  60.6264880  15.7323624  11.4792959  53.9687748  12.8063545
  10.6380965  53.8691622  13.0142438  11.6882967  54.7383229  13.1577865
  11.3857651  54.0679792  12.8890860   8.9568526  51.5907285  10.6348295
   8.5625223  51.6650297   9.8598405   8.4008642  51.9765232  11.1856657
   8.8171338  51.6589060  10.6015955  20.5933472  44.5688579  10.3152174
  20.7983066  44.5010887  11.1609171  20.2659896  45.3747400  10.2473352
  20.5748720  44.6774520  10.4311829  15.2909623  51.8969147  12.0561142
  14.9872761  51.3425136  12.6571550  14.5889044  52.0761357  11.5689176
  15.1425833  51.8413930  12.0730848  14.3475721  49.2069667   6.6205844
  14.6235455  48.4888580   6.2083412  14.9474390  49.8054587   6.4126950
  14.4768985  49.1890038   6.5286605  13.3527974  59.1118868  16.7633240
  13.2448329  59.1220930  17.6295298  13.5623756  59.9373649  16.5738194
  13.3678086  59.2359943  16.8637332  23.8467160  45.1220343   9.7954940
  23.2341474  45.6090746  10.1808672  23.9431335  44.4463834  10.3392591
  23.7705058  45.0938652   9.9333798  17.8486241  46.8783185   4.8952439
  18.3029988  47.0493745   5.6200284  18.3226287  46.2651295   4.4950215
  17.9854561  46.8134070   4.9426201  11.3701766  56.3631511  14.2255178
  10.7789700  57.0041009  14.1958193  12.1322790  56.7869128  14.1986477
  11.3950027  56.5207349  14.2170325  11.7662389  47.5233508  14.8923195
  12.2263871  47.5972438  15.6298319  11.8118496  48.3214762  14.5423017
  11.8412945  47.6527655  14.9495952  13.4145739  48.1900203  19.4595222
  13.0231304  47.5433550  19.8951000  13.5831602  48.7811638  20.0789478
  13.3816649  48.1814471  19.6157928  21.1291283  61.8140822  11.6587202
  20.9310971  62.3031637  10.9643413  20.5078994  62.0182064  12.2371335
  21.0078847  61.9157360  11.6410425  15.1899261  53.5825719   5.9997446
  15.9341306  53.9699995   6.2380396  15.3359957  52.7383144   6.1637934
  15.3209846  53.5156192   6.0591416  17.1078837  45.3775978  11.0329308
  16.2614882  45.5498786  10.9070658  17.1049969  44.5725322  11.3695136
  16.9825986  45.2837007  11.0640435  18.1777137  49.1551192  11.8991366
  17.7037091  48.6292954  12.4096677  18.5495273  48.6080665  11.3306227
  18.1627026  48.9967189  11.8906513   8.5550167  51.1522699  17.2674911
   9.4175780  51.0518408  17.1812241   8.2241950  50.5717408  16.7060484
   8.6335363  51.0514326  17.1720317  24.4413868  54.2153568  13.3098146
  24.2012090  53.3759983  13.3140573  24.9205875  54.2953735  14.0338920
  24.4766051  54.1034968  13.4172948  20.1060637  50.0487747   4.9617119
  19.5783655  50.1316491   4.2722828  20.5656345  50.7905618   4.9581764
  20.0962487  50.1708409   4.8591815  26.4419055  50.9955025  11.2627405
  26.2028824  50.9550859  10.4248190  26.6052956  51.8426177  11.3893126
  26.4309358  51.1147110  11.1580887  23.0465085  55.3804974  17.1932450
  23.7699284  54.9277501  17.0143470  22.7815047  55.6609640  16.4104778
  23.1146358  55.3555943  17.0511166  11.9151953  49.9765148  13.9285330
  11.2905023  49.9883540  13.3211282  11.5797548  50.4525323  14.5776570
  11.7737445  50.0483665  13.9341898   8.6277629  58.0365608  15.3689094
   8.0977553  57.3458047  15.4184069   8.9002722  58.0275793  14.5401802
   8.5902351  57.9332740  15.2536510  18.8283874  55.4788853  15.3427465
  18.2140867  54.9346903  15.6376101  19.3451159  54.9653089  14.8633282
  18.8139537  55.3225262  15.3151694  18.0680171  56.5493123  13.0771764
  17.6407779  55.9242841  12.6437199  18.0605116  56.2668045  13.9030771
  18.0039313  56.4145903  13.1351592  11.1842698  51.5858296  16.1460198
  11.3436185  50.8301620  16.5511920  11.0035592  52.1349235  16.8000936
  11.1808057  51.5552110  16.3022904  19.1263001  43.7519531  16.7010988
  18.6303563  43.9483206  16.0102554  19.8832063  44.1512200  16.5299789
  19.1649826  43.8397265  16.5731124  16.3965881  47.4261877  13.2914298
  16.4208368  46.8921990  12.6027078  16.6477355  46.9179186  13.9539889
  16.4375800  47.2722781  13.2878943  12.6767203  46.1532695  12.6720042
  12.7165575  46.6541902  13.3854750  11.8516868  46.2443089  12.4025965
  12.5606729  46.2414512  12.7370581  14.8596816  55.7193435  20.7740337
  14.0092447  55.8565150  20.9097982  15.0224944  54.9857214  21.2188039
  14.7580680  55.6307537  20.8595936  14.0981567  52.6693205  14.9693941
  13.2673496  52.8367023  14.7629190  14.0433084  52.2929156  15.7542827
  13.9670982  52.6382937  15.0542470  11.9065350  46.1602098  20.6050352
  12.5318053  45.6164231  20.8779784  11.4515830  45.6797016  20.0358142
  11.9313610  46.0091580  20.5611946  12.4717610  50.9448797   5.4984059
  12.6120572  51.4421261   6.2012700  12.9700143  50.2435091   5.6398273
  12.5658691  50.9150776   5.6235638  25.4800399  54.3431385  15.6963000
  26.0718239  54.9828636  15.7281198  25.9159393  53.6454422  15.9855067
  25.6318830  54.3349736  15.7443833  14.0796816  47.7429883   2.8022078
  14.4012657  47.2632966   2.1481340  14.3423759  48.5529529   2.6112890
  14.1662841  47.7919781   2.6777570  17.3093788  58.7648758  16.3220894
  16.8018880  59.3184604  16.7661525  17.0120435  58.8257048  15.5039669
  17.1898673  58.8555069  16.2669351  19.4755971  47.1302077  15.1645557
  19.9011042  46.6774604  14.5529083  18.8612964  46.5762148  15.4410344
  19.4484616  46.9816053  15.1150582  17.9150194  43.6017177   8.5736134
  17.2718511  43.4514823   9.1421272  17.5749601  43.3559522   7.8085239
  17.7695271  43.5429300   8.5439149  22.5049540  51.5576604   7.9966143
  21.8340730  52.1006306   7.8679208  23.1989290  52.0271459   7.7547837
  22.5078408  51.7074875   7.9421670  16.5536274  63.6973316  13.2277901
  16.3301928  62.9392145  13.5961927  16.0646117  63.7271337  12.5058341
  16.4479723  63.5895540  13.1754642  22.6677667  48.0132487  10.9056516
  23.0205278  47.5862210  11.5802315  21.8092469  47.9283331  11.0357592
  22.5927112  47.9377228  11.0251526  11.3661352  50.6440007   8.9639362
  10.6473342  51.0604140   9.2312226  11.7373715  51.2094246   8.4131001
  11.3153284  50.7889289   8.9222169  20.6660933  51.2767856  14.8541358
  20.6458861  51.0951151  15.7076137  20.7140134  52.1479875  14.8300942
  20.6695574  51.3784394  14.9764653  18.6107263  57.8655048  20.7789835
  18.5703118  57.2204725  20.1934991  19.4230581  57.8091665  21.0915247
  18.7250417  57.7614015  20.7386784  15.2014731  63.9173774  10.6814986
  14.7875129  63.2547904  10.2918827  15.8862105  64.0651633  10.1610680
  15.2413102  63.8414432  10.5471483  18.5680025  63.0763859  11.4338602
  18.1696308  63.1866130  10.6659422  17.9531244  63.2845926  12.0165162
  18.4178914  63.1237427  11.4069901  17.1407927  49.6838007   4.3012742
  16.5472766  50.0055004   3.7497309  17.1783205  48.8379103   4.0933848
  17.0582316  49.6062335   4.1895513  24.1001728  43.1350899  11.8340828
  23.5932592  42.4280039  11.7662006  24.8969161  42.8044088  11.9641905
  24.1428967  42.9824051  11.8439823  20.0165743  49.6417512   7.7314492
  19.7879436  49.6650213   6.8892850  20.2763820  48.8174979   7.8509503
  20.0211931  49.5233592   7.6239690  14.2984972  51.4951985  17.3339592
  13.7863875  50.8873168  17.6924624  14.1264468  52.2108577  17.8013568
  14.1974609  51.5115284  17.4555816   9.1450687  49.9389560  19.9841954
   8.9753277  50.5990935  19.4390161   8.7016636  50.1496121  20.7054443
   9.0550020  50.0675542  20.0103584  13.0710506  48.1794058   9.0268688
  13.5467872  48.5411138   8.3918869  12.5699106  48.8350525   9.3068830
  13.0675865  48.3288247   8.9745429  26.3021867  57.6515826   4.8181693
  26.6855473  58.4007182   5.0479790  25.5065981  57.8981646   4.5593682
  26.2415650  57.7985520   4.8139266  18.1754042  49.4176229  19.7741848
  18.7325472  49.1890039  19.1420313  17.8515107  50.1781895  19.4977060
  18.2100452  49.4960066  19.6398345   6.0452751  52.8436426  15.2430444
   5.4979470  52.1737071  15.3611312   6.8345129  52.4766273  15.3073911
   6.0804935  52.6901412  15.2699144  15.8937159  52.5043883  20.7393855
  16.6448486  52.8195559  21.0533409  16.0859736  52.3023053  19.9127777
  16.0328574  52.5211264  20.6637251  22.7422450  48.6317449   7.9817650
  22.7416676  48.4766105   8.8401927  22.5378630  49.4780436   7.9259036
  22.7122227  48.7338070   8.1005590   4.8039721  52.0557233  12.3976467
   4.6261482  51.6033842  13.1231383   4.5158743  52.8583395  12.5814944
   4.7352674  52.1079791  12.5319970  20.4663302  53.3114951  11.6353857
  20.9616967  52.5937946  11.5957878  19.6563077  53.0085748  11.5208344
  20.4207195  53.1612597  11.6127583  22.5315121  56.0618638  14.3230986
  22.9570192  55.5393060  13.7701411  22.1672040  56.6599476  13.8019609
  22.5401723  56.0728865  14.1639996  12.1669200  64.3582856  13.0828332
  12.4815759  65.1719244  13.0906113  12.5762614  63.9733074  13.7510491
  12.2737298  64.4211558  13.1832423  21.2070705  61.3854216  22.8324216
  21.3167670  60.5962776  23.1880963  21.5361601  61.2960152  22.0298554
  21.2723110  61.2560069  22.7666606  16.0363215  44.5480373  17.6090238
  16.1691121  43.7511366  17.9371214  16.4208368  45.0746776  18.1888514
  16.1119544  44.5080290  17.7433741  19.7567666  59.5670837  17.4159836
  19.2088612  58.9428720  17.1479901  20.2180695  59.7565109  16.7003916
  19.7434876  59.5029887  17.2710267  19.1095570  41.4710699  14.2071332
  18.3041534  41.3608429  14.5239170  18.9802306  41.5723155  13.3501197
  18.9715703  41.4694369  14.1279372  22.5661531  47.6356191  14.8011028
  21.9824519  48.1365398  14.3888596  22.8865825  47.1285747  14.1675352
  22.5274706  47.6348026  14.6469536  15.1056330  46.5496786   5.0769703
  15.9272024  46.7195099   4.8351398  14.6425981  46.7044047   4.3536001
  15.1587492  46.5978519   4.9341348  13.6951662  44.5439548  15.8568132
  14.2396075  44.2030675  16.4472474  13.7488597  45.4025010  15.9989417
  13.7840781  44.6194807  15.9650005   9.5082220  58.3055964  12.7306940
  10.1127078  58.2651798  12.1020761   9.3009533  59.1527116  12.7610996
   9.5671118  58.4243967  12.6423056  19.3225993  60.5721909  13.9469177
  20.1424366  60.4284875  14.2085472  19.0420070  61.1968108  14.4885615
  19.4022736  60.6432261  14.0657117  28.9939328  67.3162412  11.6664984
  28.1377223  67.4770910  11.7174101  29.0406982  66.4454476  11.6870045
  28.8738439  67.2113214  11.6771050  32.3033044  73.5848938  21.2725440
  33.0099812  73.0900968  21.4012375  32.4920980  74.0258019  20.5428098
  32.4360950  73.5767288  21.1834486  31.8391149  69.3754456  14.3096636
  32.3847109  70.0539543  14.3690605  31.7808025  69.2341917  13.4498217
  31.9107063  69.4546458  14.1908696  20.4520355  65.0549539  12.2201630
  19.8325387  64.4642186  12.0511644  20.3504219  65.6460974  11.5865953
  20.3458031  65.0553622  12.1006619  27.5488251  66.7949081   6.5534093
  28.2468416  66.9737209   7.0455556  27.8640584  66.2719420   5.9304482
  27.6983588  66.7442853   6.5336103  20.1789488  68.6001821  14.4645198
  20.0548185  69.1864266  15.0995017  20.8307773  68.1062017  14.7657473
  20.2563138  68.6140625  14.6031128  25.2047829  71.7763538  13.7432710
  25.8496832  71.2835981  13.4243658  25.4449606  71.9188324  14.5698788
  25.3358415  71.7240980  13.8182243  25.7215115  62.1641478  10.6355367
  25.3918445  62.6152621   9.9659066  25.0460116  62.0857641  11.1828374
  25.5725551  62.2192613  10.6178591  32.9291522  58.1527001   8.8804978
  32.6144963  58.8430479   9.3125400  32.4118464  58.0971783   8.1790479
  32.8055993  58.2461889   8.8401927  23.9271069  60.2253766   6.1178315
  24.6817037  60.5932083   5.8795365  23.7498603  60.5993320   6.8857495
  24.0125547  60.3351954   6.1963203  37.2205967  66.3748207  14.1625854
  36.3834389  66.4450394  14.3973449  37.1894198  66.3772701  13.2900157
  37.0924250  66.3858434  14.0685402  23.6170696  68.5181242  19.8774223
  23.7891200  68.4087137  20.7259504  24.1540054  69.1635648  19.6405415
  23.7215700  68.5973244  19.9679320  27.9627853  59.6350496   5.8505452
  28.6914013  59.4566451   5.4043608  28.0522745  60.4768576   6.0612630
  28.0834515  59.7334374   5.8158969  31.9436153  70.5703883   9.7537746
  32.6993668  71.0035397   9.7926654  32.0498478  69.9208653  10.3272382
  32.0706324  70.5381367   9.8435771  17.9232413  71.1113173  14.7127143
  17.6570829  70.2952290  14.8718133  17.9370978  71.1566329  13.8422658
  17.8857136  70.9970078  14.6080625  34.9013807  61.4390988  12.7469577
  35.5439716  61.5089093  13.3331492  35.1536828  60.7720211  12.2449119
  35.0335939  61.3517337  12.7596856  22.6731020  64.6491552  17.3594151
  21.9802817  64.1788531  17.6054882  23.2891347  64.4229856  17.9335858
  22.6615550  64.5458683  17.4803303  21.3971579  68.6156956  18.5020996
  22.1211551  68.6009986  18.9885891  21.4987715  69.3252311  18.0042964
  21.5189788  68.7181659  18.4999783  28.7716528  72.0956040  23.3669943
  27.9789509  72.4099552  23.5522562  28.8865455  72.3107509  22.5290727
  28.6711939  72.1739877  23.2708278  31.4447847  68.8190031   7.6564959
  31.5394702  69.5579325   8.1104584  30.8206691  68.3907507   8.0899523
  31.3656877  68.8651352   7.7873106  29.7000321  71.9976244  18.3055240
  30.2739183  71.3603488  18.4603803  29.6215125  71.9980326  17.4364897
  29.7733556  71.9041355  18.2001650  18.2996737  68.7765453  12.1437954
  18.8770240  68.6401904  12.7830199  17.6010799  68.3201238  12.3983538
  18.2817759  68.6887720  12.2760243  25.0564040  70.4299509  10.3576437
  24.7983284  69.5971244  10.3307736  25.1112522  70.6557122   9.5168937
  25.0263817  70.3397280  10.2296574  30.1365090  62.5327960  10.4580530
  29.4321416  62.0437145  10.6164449  30.1850064  62.5450434   9.5868974
  30.0395141  62.4617608  10.3519869  24.0298752  67.9837271  10.8441332
  23.4548343  68.1429440  11.4805293  23.6534428  67.3472681  10.3809782
  23.8901564  67.9135084  10.8695890  27.6972040  66.4560621  15.7033710
  27.3086473  66.0314839  15.0485901  27.0326739  66.7042770  16.2110737
  27.5418968  66.4299342  15.6821578  37.3395310  66.2135625   8.4781540
  37.0831874  65.4015567   8.2879423  38.1824623  66.2213193   8.2511727
  37.4261335  66.0947623   8.4166357  31.5198402  60.1535250  13.2157694
  31.9008914  59.4713421  13.6025569  30.7161686  59.8644852  13.0333359
  31.4574864  60.0102298  13.2461750  35.0220469  73.3685222  18.3140093
  34.7859106  72.5373286  18.1952153  35.6663698  73.3170829  18.8994937
  35.0815140  73.2382909  18.3825986  25.4790242  62.6589448  23.0820303
  25.1643683  63.4289011  22.8189866  25.1580175  62.0959704  22.4972530
  25.3849161  62.6899716  22.9561653  36.0456889  73.1529670  14.3768387
  35.7402706  73.8857727  14.7381703  35.3263105  72.7467600  14.0961173
  35.8944232  73.2011403  14.3881524  41.7458682  69.7922671  13.7036731
  41.6783182  69.8118630  12.8339318  41.7314344  70.6352998  13.9292402
  41.7337438  69.9196406  13.6089208  23.0322139  61.0479969   8.6966499
  22.1644565  61.1202569   8.7624108  23.3197344  61.8502048   8.8854474
  22.9461887  61.1774116   8.7341266  32.1555028  61.1957829  17.0277821
  32.9008620  61.0067639  16.6141246  31.7392333  61.7216067  16.4691677
  32.2040002  61.2459974  16.8842394  39.5317299  68.5667057  11.9783326
  40.0825220  67.9335126  12.2180418  39.5161414  69.0982450  12.6698830
  39.6102495  68.5516005  12.1162184  26.1839690  72.4005654  16.5243219
  25.6851383  73.1121422  16.6028108  26.9939914  72.7206321  16.4861382
  26.2295796  72.5532503  16.5299788  22.4467807  71.6628607  10.7705940
  22.1581056  71.0366079  11.3051668  23.3151155  71.6048895  10.8370621
  22.5328059  71.5616152  10.8596895  33.2345705  66.8063391  11.0887922
  32.8910471  66.0853726  11.4395172  33.3338748  66.5977242  10.2466280
  33.1987748  66.6687594  11.0159602  25.1106748  65.2586699  21.8205518
  24.3006523  65.5644479  21.7095360  25.5881434  65.9792281  21.9358102
  25.0610227  65.4101300  21.8212589  25.3964633  71.5036439   7.4669912
  25.2007416  72.1111173   6.8730215  25.6198979  70.8104383   6.9861586
  25.3999274  71.4913964   7.3085993  23.7943163  68.3891177   7.5850780
  24.5165815  68.5532335   7.1254586  23.3151156  69.1100842   7.4790120
  23.8306894  68.5189406   7.5016394  31.7536671  64.7254976  12.9647465
  30.9147771  64.7516254  12.7285728  31.8241038  65.3725711  13.5452812
  31.6405064  64.8251101  13.0156582  21.4450780  70.7949249  16.6904920
  21.9571877  71.0733502  16.0413680  21.1587122  71.5338543  17.0567733
  21.4785643  70.9451603  16.6494798  30.2005949  61.6240353   7.6975081
  30.9032302  61.4248101   7.2195039  29.9350138  60.8516295   8.0043924
  30.2652581  61.4803319   7.6720523  35.6294194  69.9322962  10.2508707
  35.5428169  70.0878388  11.1043486  35.1744674  70.5761038   9.8768112
  35.5497451  70.0498717  10.3215814  24.9634505  62.8875638  16.7505962
  24.7717702  62.9030772  17.6005385  25.8133101  63.0839312  16.7272616
  25.0610227  62.9189989  16.8729256  19.3481418  65.4166619  14.7289778
  19.2066910  64.5650560  14.8534286  19.6321981  65.4595280  13.9051984
  19.3689264  65.2966369  14.6257402  29.5020010  67.2533709   8.8734266
  29.2554725  67.1729460   9.7071055  29.8305133  66.4687177   8.6796794
  29.5141254  67.1259975   8.9681789  33.3968059  73.9617069  12.6621048
  33.2582419  74.6598115  13.1669790  32.6168057  73.8065725  12.3057229
  33.2611286  74.0417235  12.6847322  31.7346144  70.2613444  18.9143429
  31.7294183  69.3893261  18.9185856  32.4407138  70.4601613  18.4412885
  31.8391148  70.1617318  18.8450465  25.4617038  69.9890428  18.2857249
  25.6060413  70.5691636  17.6500359  25.8092686  70.3666725  18.9907104
  25.5344499  70.1311132  18.2956244  27.6336955  69.1880596  16.0682381
  26.8860269  69.3811611  15.6630659  27.7878480  68.3625816  15.8306502
  27.5459383  69.0945708  15.9727787  27.8738732  63.0831147  16.9577785
  28.3311346  63.8155121  17.0850577  27.9495061  62.6597612  17.7165040
  27.9529702  63.1288385  17.0878861  20.1171723  63.3296967  18.0467228
  19.5813913  62.7177325  18.3627996  20.1789488  63.9045103  18.7000895
  20.0467356  63.3243895  18.1902655  32.3466058  56.2621022  10.8271628
  32.4649626  56.7197486  10.0938930  32.1728234  55.4566284  10.5407845
  32.3385229  56.2114794  10.6772561  25.7521110  65.0733251  13.8019609
  24.9617185  64.8924711  14.1236945  26.1481733  64.2960204  13.7849903
  25.6937986  64.9320712  13.8472157  31.1364796  72.7075681  11.5279055
  30.4609798  72.4760913  12.0292442  31.1457172  72.0996864  10.9021160
  31.0383301  72.5834606  11.5095207  28.2658940  67.5493510  18.2843108
  28.2018081  68.4103467  18.1563244  28.4056128  67.2325503  17.4838659
  28.2774410  67.6293677  18.1471320  26.9478034  70.2425650  12.4259311
  26.5240283  70.4430149  11.6898329  26.7722889  69.3954497  12.5383610
  26.8588915  70.1474431  12.3333001  32.6456731  74.3238232  23.8407558
  33.4591596  74.0523381  24.0012691  32.4851698  74.0245772  23.0367754
  32.7426680  74.2393158  23.7452964  29.9228893  65.0071889  16.7802947
  30.1370863  64.3682803  16.2266301  29.3062792  65.4517713  16.3510808
  29.8634222  64.9782033  16.6353378  32.0867981  66.6160954  17.7186254
  31.2744663  66.3086845  17.7999427  32.5457916  66.1359954  18.2828966
  32.0348366  66.4997447  17.8140848  29.3143622  58.1171825  11.7690290
  28.4437180  58.0910546  11.7223599  29.5683963  57.9449017  10.9516135
  29.2237182  58.0881968  11.6410426  29.1821489  68.0221026  22.5014956
  29.6521120  68.6463142  22.8882830  29.2283369  67.3538001  23.0608171
  29.2589365  68.0155706  22.6415028  26.3392762  60.1278053  13.2263760
  25.8231251  59.4358245  13.3515339  25.7786691  60.7948830  13.1726359
  26.1799276  60.1241311  13.2369826  28.4084996  60.6671013  15.0556612
  28.0216749  60.6920045  15.8370142  27.9217933  60.1012692  14.6031129
  28.2797505  60.5866764  15.1044516  32.6577975  75.3844522  19.1130399
  33.2957696  74.8904718  18.7792855  32.0152067  75.3121923  18.5282626
  32.6572202  75.3003531  18.9772754  34.3834975  67.2333668  13.6796315
  33.9562583  67.1460017  12.9244414  33.7461028  67.3411444  14.2651159
  34.2264583  67.2366328  13.6541756  27.8756052  62.3409193  19.6193284
  28.7029482  62.0694342  19.6751898  27.8963898  63.1370035  19.9757102
  28.0008902  62.4188948  19.6808467  22.4525542  69.4873056  12.8063545
  21.6113549  69.3876930  13.0142438  22.6615550  70.2568536  13.1577865
  22.3590235  69.5865100  12.8890860  19.9301109  67.1092593  10.6348295
  19.5357807  67.1835605   9.8598405  19.3741226  67.4950539  11.1856657
  19.7903921  67.1774368  10.6015955  31.5666056  60.0873887  10.3152174
  31.7715649  60.0196195  11.1609171  31.2392480  60.8932708  10.2473352
  31.5481304  60.1959828  10.4311829  26.2642207  67.4154455  12.0561142
  25.9605345  66.8610444  12.6571550  25.5621628  67.5946665  11.5689176
  26.1158417  67.3599238  12.0730848  25.3208304  64.7254975   6.6205844
  25.5968038  64.0073888   6.2083412  25.9206973  65.3239895   6.4126950
  25.4501569  64.7075346   6.5286605  34.8199744  60.6405651   9.7954940
  34.2074057  61.1276054  10.1808672  34.9163919  59.9649142  10.3392591
  34.7437641  60.6123960   9.9333798  28.8218825  62.3968493   4.8952439
  29.2762571  62.5679053   5.6200284  29.2958870  61.7836603   4.4950215
  28.9587145  62.3319378   4.9426201  22.3434350  71.8816818  14.2255178
  21.7522283  72.5226317  14.1958193  23.1055374  72.3054436  14.1986477
  22.3682611  72.0392657  14.2170325  22.7394973  63.0418816  14.8923195
  23.1996454  63.1157746  15.6298319  22.7851080  63.8400070  14.5423017
  22.8145528  63.1712963  14.9495952  24.3878323  63.7085511  19.4595222
  23.9963888  63.0618858  19.8951000  24.5564185  64.2996946  20.0789478
  24.3549233  63.6999779  19.6157928  38.4624772  71.7122588  15.2232456
  38.5207895  72.1609237  15.9692432  37.8291239  72.1221401  14.7862536
  38.3776067  71.8396323  15.2685004  26.1631845  69.1011027   5.9997446
  26.9073890  69.4885303   6.2380396  26.3092541  68.2568452   6.1637934
  26.2942430  69.0341500   6.0591416  28.0811420  60.8961286  11.0329308
  27.2347465  61.0684094  10.9070658  28.0782553  60.0910630  11.3695136
  27.9558570  60.8022315  11.0640435  29.1509721  64.6736500  11.8991366
  28.6769675  64.1478262  12.4096677  29.5227856  64.1265973  11.3306227
  29.1359609  64.5152497  11.8906513  19.5282751  66.6708007  17.2674911
  20.3908364  66.5703716  17.1812241  19.1974534  66.0902716  16.7060484
  19.6067947  66.5699634  17.1720317  35.4146451  69.7338876  13.3098146
  35.1744674  68.8945291  13.3140573  35.8938458  69.8139043  14.0338920
  35.4498635  69.6220276  13.4172948  37.4151638  66.5140333  11.2627405
  37.1761408  66.4736167  10.4248190  37.5785539  67.3611485  11.3893126
  37.4041942  66.6332418  11.1580887  34.0197668  70.8990282  17.1932450
  34.7431867  70.4462809  17.0143470  33.7547631  71.1794948  16.4104778
  34.0878942  70.8741251  17.0511166  22.8884537  65.4950456  13.9285330
  22.2637607  65.5068848  13.3211282  22.5530131  65.9710631  14.5776570
  22.7470028  65.5668973  13.9341898  29.8016458  70.9974161  15.3427465
  29.1873451  70.4532211  15.6376101  30.3183743  70.4838397  14.8633282
  29.7872120  70.8410570  15.3151694  29.0412755  72.0678431  13.0771764
  28.6140363  71.4428149  12.6437199  29.0337699  71.7853353  13.9030771
  28.9771896  71.9331211  13.1351592  22.1575282  67.1043604  16.1460198
  22.3168769  66.3486928  16.5511920  21.9768176  67.6534543  16.8000936
  22.1540641  67.0737417  16.3022904  30.0995585  59.2704839  16.7010988
  29.6036146  59.4668513  16.0102554  30.8564647  59.6697508  16.5299789
  30.1382410  59.3582573  16.5731124  27.3698465  62.9447185  13.2914298
  27.3940952  62.4107297  12.6027078  27.6209938  62.4364494  13.9539889
  27.4108383  62.7908089  13.2878943  23.6499787  61.6718003  12.6720042
  23.6898158  62.1727210  13.3854750  22.8249451  61.7628397  12.4025965
  23.5339313  61.7599820  12.7370581  25.8329400  71.2378743  20.7740337
  24.9825030  71.3750458  20.9097982  25.9957527  70.5042522  21.2188039
  25.7313263  71.1492845  20.8595936  25.0714150  68.1878513  14.9693941
  24.2406080  68.3552331  14.7629190  25.0165667  67.8114464  15.7542827
  24.9403565  68.1568245  15.0542470  22.8797933  61.6787406  20.6050352
  23.5050637  61.1349539  20.8779784  22.4248413  61.1982324  20.0358142
  22.9046194  61.5276887  20.5611946  23.4450194  66.4634105   5.4984059
  23.5853155  66.9606569   6.2012700  23.9432727  65.7620399   5.6398273
  23.5391275  66.4336084   5.6235638  36.4532982  69.8616693  15.6963000
  37.0450822  70.5013944  15.7281198  36.8891977  69.1639730  15.9855067
  36.6051413  69.8535044  15.7443833  25.0529399  63.2615191   2.8022078
  25.3745240  62.7818274   2.1481340  25.3156343  64.0714837   2.6112890
  25.1395425  63.3105089   2.6777570  28.2826372  74.2834066  16.3220894
  27.7751463  74.8369912  16.7661525  27.9853018  74.3442355  15.5039669
  28.1631257  74.3740377  16.2669351  30.4488554  62.6487385  15.1645557
  30.8743626  62.1959912  14.5529083  29.8345547  62.0947456  15.4410344
  30.4217200  62.5001361  15.1150582  28.8882777  59.1202485   8.5736134
  28.2451095  58.9700131   9.1421272  28.5482184  58.8744830   7.8085239
  28.7427854  59.0614607   8.5439149  33.4782124  67.0761912   7.9966143
  32.8073313  67.6191614   7.8679208  34.1721874  67.5456767   7.7547837
  33.4810991  67.2260183   7.9421670  33.6410251  63.5317795  10.9056516
  33.9937861  63.1047518  11.5802315  32.7825053  63.4468639  11.0357592
  33.5659696  63.4562536  11.0251526  22.3393936  66.1625315   8.9639362
  21.6205925  66.5789448   9.2312226  22.7106298  66.7279554   8.4131001
  22.2885868  66.3074597   8.9222169  31.6393517  66.7953164  14.8541358
  31.6191444  66.6136459  15.7076137  31.6872718  67.6665183  14.8300942
  31.6428158  66.8969702  14.9764653  29.5839847  73.3840356  20.7789835
  29.5435702  72.7390033  20.1934991  30.3963165  73.3276973  21.0915247
  29.6983000  73.2799323  20.7386784  28.1140510  65.2023315   4.3012742
  27.5205350  65.5240312   3.7497309  28.1515788  64.3564410   4.0933848
  28.0314900  65.1247643   4.1895513  35.0734311  58.6536207  11.8340828
  34.5665176  57.9465347  11.7662006  35.8701745  58.3229396  11.9641905
  35.1161550  58.5009359  11.8439823  30.9898327  65.1602820   7.7314492
  30.7612020  65.1835521   6.8892850  31.2496403  64.3360287   7.8509503
  30.9944515  65.0418899   7.6239690  25.2717555  67.0137293  17.3339592
  24.7596458  66.4058476  17.6924624  25.0997052  67.7293885  17.8013568
  25.1707192  67.0300592  17.4555816  20.1183270  65.4574868  19.9841954
  19.9485860  66.1176243  19.4390161  19.6749220  65.6681429  20.7054443
  20.0282604  65.5860850  20.0103584  24.0443089  63.6979366   9.0268688
  24.5200456  64.0596446   8.3918869  23.5431689  64.3535833   9.3068830
  24.0408448  63.8473555   8.9745429  29.1486626  64.9361537  19.7741848
  29.7058056  64.7075347  19.1420313  28.8247691  65.6967203  19.4977060
  29.1833036  65.0145374  19.6398345  17.0185335  68.3621733  15.2430444
  16.4712054  67.6922379  15.3611312  17.8077713  67.9951581  15.3073911
  17.0537518  68.2086720  15.2699144  26.8669743  68.0229191  20.7393855
  27.6181070  68.3380867  21.0533409  27.0592320  67.8208361  19.9127777
  27.0061157  68.0396572  20.6637251  33.7155033  64.1502757   7.9817650
  33.7149260  63.9951413   8.8401927  33.5111213  64.9965744   7.9259036
  33.6854811  64.2523378   8.1005590  15.7772304  67.5742541  12.3976467
  15.5994065  67.1219150  13.1231383  15.4891326  68.3768703  12.5814944
  15.7085257  67.6265099  12.5319970  31.4395885  68.8300259  11.6353857
  31.9349551  68.1123254  11.5957878  30.6295661  68.5271056  11.5208344
  31.3939779  68.6797905  11.6127583  33.5047704  71.5803946  14.3230986
  33.9302776  71.0578368  13.7701411  33.1404624  72.1784784  13.8019609
  33.5134307  71.5914173  14.1639996  27.0095798  60.0665681  17.6090238
  27.1423704  59.2696674  17.9371214  27.3940951  60.5932084  18.1888514
  27.0852127  60.0265598  17.7433741  30.7300250  75.0856145  17.4159836
  30.1821196  74.4614028  17.1479901  31.1913279  75.2750417  16.7003916
  30.7167459  75.0215195  17.2710267  30.0828154  56.9896007  14.2071332
  29.2774117  56.8793737  14.5239170  29.9534889  57.0908463  13.3501197
  29.9448287  56.9879677  14.1279372  33.5394114  63.1541499  14.8011028
  32.9557103  63.6550705  14.3888596  33.8598408  62.6471055  14.1675352
  33.5007290  63.1533334  14.6469536  26.0788913  62.0682094   5.0769703
  26.9004608  62.2380407   4.8351398  25.6158564  62.2229355   4.3536001
  26.1320076  62.1163827   4.9341348  24.6684245  60.0624856  15.8568132
  25.2128658  59.7215983  16.4472474  24.7221181  60.9210318  15.9989417
  24.7573365  60.1380115  15.9650005  43.1287612  76.7143137  17.0277821
  43.8741204  76.5252947  16.6141246  42.7124916  77.2401375  16.4691677
  43.1772586  76.7645282  16.8842394  37.3125346  75.6463361  13.2263760
  36.7963834  74.9543553  13.3515339  36.7519275  76.3134138  13.1726359
  37.1531859  75.6426619  13.2369826  39.3817579  76.1856321  15.0556612
  38.9949332  76.2105353  15.8370142  38.8950517  75.6198000  14.6031129
  39.2530088  76.1052072  15.1044516  39.0474721  73.0723307  17.3466872
  39.6767839  73.6083607  17.0687943  39.2160584  72.9800666  18.1980438
  39.1652516  73.1384669  17.4315401  38.8488636  77.8594501  19.6193284
  39.6762065  77.5879650  19.6751898  38.8696482  78.6555343  19.9757102
  38.9741486  77.9374256  19.6808467  41.0728169  74.7890147  16.7010988
  40.5768730  74.9853821  16.0102554  41.8297231  75.1882815  16.5299789
  41.1114993  74.8767881  16.5731124  37.9828382  75.5850989  17.6090238
  38.1156288  74.7881982  17.9371214  38.3673535  76.1117392  18.1888514
  38.0584711  75.5450906  17.7433741  41.0560737  72.5081315  14.2071332
  40.2506701  72.3979045  14.5239170  40.9267473  72.6093771  13.3501197
  40.9180870  72.5064985  14.1279372  35.6416829  75.5810164  15.8568132
  36.1861242  75.2401291  16.4472474  35.6953765  76.4395626  15.9989417
  35.7305948  75.6565423  15.9650005  21.0251285  35.0041761   8.2065487
  21.7318052  34.5093792   8.3352421  21.2139220  35.4450842   7.4768145
  21.1579190  34.9960111   8.1174532  18.1643579  38.4269297   6.0979562
  18.2526925  38.2395438   6.9457773  18.5933292  37.7806727   5.6984409
  18.2405681  38.3032305   6.1651314  15.7314039  37.7100457   5.0797224
  15.1684874  37.2973067   5.6036886  16.4935062  37.6353363   5.4990368
  15.7608487  37.6377858   5.2190225  18.2763638  37.8578316   8.7623346
  19.0604055  37.9709164   9.1279088  18.0760233  37.0319454   8.9582032
  18.3629664  37.7525036   8.8457732  18.4334032  39.7688418   2.4089801
  17.6349277  39.5287919   2.6663670  18.8820043  39.8202811   3.1556849
  18.3808643  39.7410810   2.5574726  17.4934769  33.5148863  10.3009990
  16.7007749  33.8292375  10.4862609  17.6083696  33.7300332   9.4630774
  17.3930179  33.5932700  10.2048324  18.4218561  33.4169067   5.2395286
  18.9957423  32.7796311   5.3943850  18.3433365  33.4173150   4.3704944
  18.4951796  33.3234179   5.1341697  23.7438709  34.7878045   5.2480140
  23.5077347  33.9566110   5.1292200  24.3881938  34.7363652   5.8334984
  23.8033380  34.6575733   5.3166033  24.7675130  34.5722494   1.3108434
  24.4620947  35.3050550   1.6721750  24.0481345  34.1660423   1.0301220
  24.6162472  34.6204227   1.3221571  30.4676922  31.2115494   0.6376778
  30.4001422  31.2311453  -0.2320635  30.4532584  32.0545821   0.8632449
  30.4555678  31.3389229   0.5429255  20.4564385  31.6806267   5.8483476
  20.4512423  30.8086084   5.8525902  21.1625379  31.8794437   5.3752932
  20.5609389  31.5810142   5.7790511  15.7816334  39.7700666   3.3642814
  15.7060005  39.1009477   3.9193602  15.7106193  40.4718454   3.8783480
  15.7596941  39.7745573   3.5219662  15.1707968  43.1768986   1.8220815
  15.6603898  42.4779775   1.6396479  14.5992200  42.8792856   2.4096872
  15.1592498  43.0295209   1.8821855  21.3674972  35.7431055  10.7747605
  22.1809837  35.4716204  10.9352738  21.2069938  35.4438595   9.9707801
  21.4644920  35.6585981  10.6793011  17.9039729  29.4413849   9.4355003
  18.3739360  30.0655965   9.8222877  17.9501609  28.7730824   9.9948218
  17.9807605  29.4348529   9.5755074  21.3796216  36.8037345   6.0470446
  22.0175936  36.3097541   5.7132902  20.7370307  36.7314746   5.4622673
  21.3790442  36.7196354   5.9112801  21.4350472  37.4957154   2.6875803
  22.2242850  37.1446218   2.8077884  21.6094070  38.3093542   2.4252436
  21.5770754  37.5643011   2.6663671  13.0478798  36.0496999   3.6973287
  12.9399153  36.0599061   4.5635345  13.2574580  36.8751780   3.5078241
  13.0628909  36.1738074   3.7977378  27.1843012  33.1315411   2.1572503
  27.2426136  33.5802060   2.9032479  26.5509480  33.5414224   1.7202583
  27.0994307  33.2589146   2.2025051  22.7415909  32.3183106   4.1272497
  23.4650107  31.8655632   3.9483517  22.4765871  32.5987771   3.3444825
  22.8097182  32.2934074   3.9851213  14.5547640  32.6571567   7.7080384
  13.7043271  32.7943281   7.8438029  14.7175768  31.9235345   8.1528085
  14.4531504  32.5685668   7.7935983  25.1751223  31.2809516   2.6303047
  25.7669063  31.9206767   2.6621245  25.6110217  30.5832553   2.9195114
  25.3269654  31.2727867   2.6783880  17.0044612  35.7026889   3.2560941
  16.4969704  36.2562736   3.7001571  16.7071259  35.7635179   2.4379715
  16.8849497  35.7933200   3.2009398  18.3058087  34.8033179   7.7129881
  18.2653942  34.1582856   7.1275037  19.1181405  34.7469797   8.0255293
  18.4201241  34.6992146   7.6726831  15.5887983  29.4422014   7.6733902
  16.3399310  29.7573691   7.9873456  15.7810560  29.2401185   6.8467823
  15.7279398  29.4589396   7.5977297  20.9021528  38.3232347   9.7664262
  21.0118494  37.5340908  10.1221010  21.2312425  38.2338283   8.9638600
  20.9673934  38.1938200   9.7006653  19.4518490  36.5048968   4.3499883
  18.9039436  35.8806851   4.0819948  19.9131519  36.6943240   3.6343962
  19.4385700  36.4408018   4.2050314  19.0176817  37.5100040   0.8809224
  19.8375190  37.3663007   1.1425519  18.7370894  38.1346239   1.4225662
  19.0973560  37.5810393   0.9997164  28.6890152  44.2540543  -1.3994969
  27.8328047  44.4149041  -1.3485852  28.7357805  43.3832607  -1.3789908
  28.5689263  44.1491345  -1.3888903  31.9983868  50.5227069   8.2065487
  32.7050636  50.0279100   8.3352421  32.1871804  50.9636150   7.4768145
  32.1311774  50.5145419   8.1174532  31.5341973  46.3132587   1.2436683
  32.0797933  46.9917674   1.3030652  31.4758849  46.1720048   0.3838264
  31.6057887  46.3924589   1.1248743  20.1471179  41.9927670  -0.8458324
  19.5276211  41.4020318  -1.0148309  20.0455043  42.5839106  -1.4794000
  20.0408855  41.9931753  -0.9653334  19.8740312  45.5379952   1.3985245
  19.7499009  46.1242398   2.0335064  20.5258597  45.0440148   1.6997520
  19.9513962  45.5518757   1.5371175  24.8998653  48.7141669   0.6772756
  25.5447656  48.2214112   0.3583705  25.1400430  48.8566456   1.5038835
  25.0309238  48.6619111   0.7522290  27.4384745  51.5596575   0.3279649
  27.7207988  50.7647981   0.1066405  28.1670905  52.0377162   0.3484710
  27.5874308  51.5131172   0.2982664  25.4165939  39.1019609  -2.4304586
  25.0869269  39.5530752  -3.1000887  24.7410940  39.0235772  -1.8831580
  25.2676375  39.1570744  -2.4481363  25.4812571  53.4959791   0.1363389
  24.9639512  53.1367206  -0.4675303  26.1786962  52.9721966   0.1469455
  25.5078152  53.3657479   0.0493648  29.1376163  53.9454605   6.0979562
  29.2259508  53.7580746   6.9457773  29.5665875  53.2992035   5.6984409
  29.2138265  53.8217613   6.1651314  26.7046622  53.2285765   5.0797224
  26.1417457  52.8158375   5.6036886  27.4667646  53.1538671   5.4990368
  26.7341071  53.1563166   5.2190225  36.9156791  43.3126338   1.0965901
  36.0785212  43.3828525   1.3313496  36.8845022  43.3150833   0.2240203
  36.7875074  43.3236565   1.0025449  23.3121520  45.4559373   6.8114270
  23.4842024  45.3465268   7.6599551  23.8490878  46.1013779   6.5745462
  23.4166524  45.5351375   6.9019366  22.2146092  51.8291014   1.4932768
  22.7544317  51.6862145   2.1636141  21.5316039  52.2287764   1.8616794
  22.1938246  51.8670685   1.6467190  31.6386977  47.5082014  -3.3122207
  32.3944492  47.9413529  -3.2733299  31.7449302  46.8586784  -2.7387571
  31.7657148  47.4759498  -3.2224182  29.2496222  53.3763624   8.7623346
  30.0336639  53.4894472   9.1279088  29.0492816  52.5504761   8.9582032
  29.3362247  53.2710344   8.8457732  17.6183237  48.0491304   1.6467190
  17.3521653  47.2330421   1.8058180  17.6321801  48.0944460   0.7762705
  17.5807960  47.9348209   1.5420672  34.5964631  38.3769119  -0.3190377
  35.2390540  38.4467224   0.2671539  34.8487652  37.7098342  -0.8210835
  34.7286763  38.2895468  -0.3063097  22.3681844  41.5869683   4.2934197
  21.6753640  41.1166662   4.5394929  22.9842171  41.3607987   4.8675905
  22.3566374  41.4836815   4.4143350  29.4066615  55.2873726   2.4089801
  28.6081861  55.0473226   2.6663670  29.8552627  55.3388119   3.1556849
  29.3541226  55.2596118   2.5574726  21.0922403  45.5535087   5.4361043
  21.8162375  45.5388117   5.9225937  21.1938539  46.2630442   4.9383011
  21.2140612  45.6559790   5.4339829  28.4667352  49.0334171  10.3009990
  27.6740333  49.3477683  10.4862609  28.5816279  49.2485640   9.4630774
  28.3662763  49.1118008  10.2048324  31.1398671  45.7568162  -5.4094995
  31.2345525  46.4957457  -4.9555369  30.5157515  45.3285638  -4.9760430
  31.0607701  45.8029483  -5.2786847  29.3951145  48.9354375   5.2395286
  29.9690007  48.2981619   5.3943850  29.3165949  48.9358458   4.3704944
  29.4684380  48.8419486   5.1341697  17.9947561  45.7143585  -0.9221999
  18.5721064  45.5780035  -0.2829754  17.2961623  45.2579369  -0.6676415
  17.9768583  45.6265851  -0.7899710  24.7514864  47.3677640  -2.7083516
  24.4934108  46.5349375  -2.7352217  24.8063346  47.5935253  -3.5491016
  24.7214641  47.2775411  -2.8363379  29.8315914  39.4706091  -2.6079424
  29.1272240  38.9815276  -2.4495504  29.8800888  39.4828565  -3.4790979
  29.7345965  39.3995739  -2.7140084  23.7249576  44.9215403  -2.2218621
  23.1499167  45.0807571  -1.5854661  23.3485252  44.2850812  -2.6850171
  23.5852388  44.8513216  -2.1964063  27.3922864  43.3938752   2.6373757
  27.0037297  42.9692970   1.9825948  26.7277563  43.6420902   3.1450784
  27.2369792  43.3677473   2.6161625  37.0346133  43.1513757  -4.5878413
  36.7782698  42.3393698  -4.7780530  37.8775447  43.1591324  -4.8148226
  37.1212159  43.0325754  -4.6493596  31.2149226  37.0913381   0.1497741
  31.5959738  36.4091552   0.5365615  30.4112510  36.8022983  -0.0326594
  31.1525688  36.9480429   0.1801797  34.7171293  50.3063353   5.2480140
  34.4809930  49.4751417   5.1292200  35.3614522  50.2548960   5.8334984
  34.7765963  50.1761041   5.3166033  24.3669711  51.0958874  -4.0377124
  25.0043658  50.8570622  -3.4925331  24.7924782  51.2996033  -4.7723963
  24.5245877  51.0909884  -4.0659967  25.1741066  39.5967579  10.0160350
  24.8594507  40.3667142   9.7529912  24.8530999  39.0337835   9.4312577
  25.0799985  39.6277848   9.8901700  35.7407713  50.0907801   1.3108434
  35.4353530  50.8235858   1.6721750  35.0213929  49.6845731   1.0301220
  35.5895056  50.1389534   1.3221571  26.7491183  51.5731297  -2.3583338
  26.8230191  51.4106468  -1.5041488  27.5660689  51.7621486  -2.6022856
  26.8807541  51.5768039  -2.2685312  41.4409506  46.7300802   0.6376778
  41.3734006  46.7496761  -0.2320635  41.4265168  47.5731129   0.8632449
  41.4288262  46.8574537   0.5429255  31.8505852  38.1335960   3.9617868
  32.5959444  37.9445770   3.5481293  31.4343157  38.6594198   3.4031724
  31.8990826  38.1838105   3.8182441  39.2268123  45.5045188  -1.0876627
  39.7776044  44.8713257  -0.8479535  39.2112238  46.0360581  -0.3961123
  39.3053319  45.4894136  -0.9497769  25.8790514  49.3383786   3.4583266
  25.3802207  50.0499553   3.5368155  26.6890738  49.6584452   3.4201429
  25.9246620  49.4910634   3.4639835  22.1418631  48.6006739  -2.2954013
  21.8531880  47.9744210  -1.7608286  23.0101979  48.5427026  -2.2289332
  22.2278883  48.4994283  -2.2063058  32.9296529  43.7441522  -1.9772031
  32.5861295  43.0231857  -1.6264781  33.0289572  43.5355373  -2.8193673
  32.8938572  43.6065725  -2.0500351  24.8057572  42.1964830   8.7545564
  23.9957347  42.5022610   8.6435407  25.2832258  42.9170412   8.8698148
  24.7561050  42.3479431   8.7552635  23.6649131  51.4110551  -0.9971532
  23.1429885  51.5510843  -0.3119668  24.0523152  50.6521215  -0.8069415
  23.6452832  51.3196075  -0.8670456  25.0915457  48.4414570  -5.5990041
  24.8958240  49.0489305  -6.1929738  25.3149802  47.7482514  -6.0798368
  25.0950098  48.4292096  -5.7573961  23.4893987  45.3269308  -5.4809173
  24.2116639  45.4910466  -5.9405367  23.0101980  46.0478973  -5.5869833
  23.5257718  45.4567538  -5.5643559  31.4487494  41.6633107  -0.1012488
  30.6098595  41.6894386  -0.3374225  31.5191862  42.3103842   0.4792858
  31.3355888  41.7629233  -0.0503371  21.1401604  47.7327380   3.6244967
  21.6522701  48.0111634   2.9753727  20.8537946  48.4716674   3.9907780
  21.1736467  47.8829734   3.5834845  35.3245018  46.8701094  -2.8151246
  35.2378993  47.0256520  -1.9616468  34.8695498  47.5139169  -3.1891841
  35.2448275  46.9876849  -2.7444140  24.6585329  39.8253769   3.6846008
  24.4668526  39.8408903   4.5345432  25.5083925  40.0217443   3.6612663
  24.7561051  39.8568120   3.8069303  19.0432242  42.3544750   1.6629825
  18.9017734  41.5028691   1.7874333  19.3272805  42.3973411   0.8392031
  19.0640088  42.2344500   1.5597449  29.1970834  44.1911841  -4.1925687
  28.9505549  44.1107592  -3.3588898  29.5255957  43.4065308  -4.3863159
  29.2092078  44.0638106  -4.0978164  33.0918883  50.8995200  -0.4038906
  32.9533242  51.5976246   0.1009837  32.3118881  50.7443856  -0.7602724
  32.9562110  50.9795367  -0.3812632  31.4296968  47.1991575   5.8483476
  31.4245007  46.3271392   5.8525902  32.1357962  47.3979744   5.3752932
  31.5341972  47.0995450   5.7790511  25.1567862  46.9268559   5.2197296
  25.3011237  47.5069767   4.5840406  25.5043510  47.3044856   5.9247151
  25.2295323  47.0689263   5.2296291  27.3287779  46.1258728   3.0022428
  26.5811093  46.3189742   2.5970706  27.4829304  45.3003947   2.7646549
  27.2410207  46.0323839   2.9067834  24.2295617  55.1171331   2.0858323
  24.3785180  54.5574247   1.4331727  25.0095619  55.1963333   2.4690842
  24.3669710  55.0456897   2.0455272  26.7548917  55.2885974   3.3642814
  26.6792588  54.6194784   3.9193602  26.6838776  55.9903762   3.8783480
  26.7329524  55.2930881   3.5219662  27.5689556  40.0209278   3.8917832
  28.0262170  40.7533253   4.0190624  27.6445885  39.5975744   4.6505087
  27.6480526  40.0666516   4.0218908  19.8122547  40.2675098   4.9807275
  19.2764737  39.6555456   5.2968042  19.8740312  40.8423234   5.6340942
  19.7418180  40.2622026   5.1242702  25.4471934  42.0111382   0.7359656
  24.6568009  41.8302842   1.0576991  25.8432557  41.2338335   0.7189950
  25.3888810  41.8698843   0.7812204  30.8315620  49.6453812  -1.5380899
  30.1560622  49.4139045  -1.0367512  30.8407996  49.0374995  -2.1638794
  30.7334125  49.5212738  -1.5564746  27.9609764  44.4871641   5.2183154
  27.8968905  45.3481598   5.0903291  28.1006952  44.1703635   4.4178706
  27.9725234  44.5671808   5.0811367  26.6428858  47.1803781  -0.6400643
  26.2191107  47.3808280  -1.3761624  26.4673713  46.3332629  -0.5276343
  26.5539739  47.0852562  -0.7326953  26.1440552  58.6954294   1.8220815
  26.6336482  57.9965083   1.6396479  25.5724784  58.3978164   2.4096872
  26.1325082  58.5480517   1.8821855  32.3407555  51.2616363  10.7747605
  33.1542420  50.9901512  10.9352738  32.1802521  50.9623903   9.9707801
  32.4377504  51.1771289  10.6793011  29.6179717  41.9450020   3.7142994
  29.8321687  41.3060934   3.1606348  29.0013616  42.3895844   3.2850855
  29.5585046  41.9160164   3.5693425  31.7818805  43.5539085   4.6526301
  30.9695487  43.2464976   4.7339473  32.2408740  43.0738086   5.2169013
  31.7299190  43.4375578   4.7480895  29.0094446  35.0549956  -1.2969664
  28.1388004  35.0288677  -1.3436354  29.2634787  34.8827148  -2.1143818
  28.9188006  35.0260100  -1.4249527  28.8772313  44.9599157   9.4355003
  29.3471944  45.5841273   9.8222877  28.9234193  44.2916132   9.9948218
  28.9540188  44.9533837   9.5755074  26.0343586  37.0656184   0.1603807
  25.5182075  36.3736376   0.2855386  25.4737515  37.7326961   0.1066405
  25.8750099  37.0619442   0.1709873  28.1035820  37.6049144   1.9896659
  27.7167573  37.6298176   2.7710189  27.6168757  37.0390823   1.5371176
  27.9748329  37.5244895   2.0384563  32.3528799  52.3222653   6.0470446
  32.9908520  51.8282849   5.7132902  31.7102891  52.2500054   5.4622673
  32.3523026  52.2381662   5.9112801  34.0785799  44.1711799   0.6136361
  33.6513407  44.0838148  -0.1415539  33.4411852  44.2789575   1.1991206
  33.9215406  44.1744459   0.5881803  27.7692961  34.4916130   4.2806919
  28.3986079  35.0276430   4.0027990  27.9378824  34.3993489   5.1320485
  27.8870756  34.5577492   4.3655447  27.5706876  39.2787325   6.5533331
  28.3980306  39.0072473   6.6091945  27.5914722  40.0748166   6.9097149
  27.6959726  39.3567079   6.6148514  32.4083056  53.0142462   2.6875803
  33.1975434  52.6631526   2.8077884  32.5826654  53.8278850   2.4252436
  32.5503337  53.0828319   2.6663671  22.1476366  46.4251187  -0.2596409
  21.3064373  46.3255062  -0.0517515  22.3566374  47.1946668   0.0917912
  22.0541059  46.5243231  -0.1769094  19.6251933  44.0470724  -2.4311658
  19.2308631  44.1213736  -3.2061548  19.0692050  44.4328671  -1.8803296
  19.4854745  44.1152499  -2.4643998  31.2616880  37.0252018  -2.7507779
  31.4666473  36.9574326  -1.9050782  30.9343304  37.8310840  -2.8186602
  31.2432128  37.1337959  -2.6348124  24.0211382  51.5682307   3.6973287
  23.9131737  51.5784369   4.5635345  24.2307163  52.3937088   3.5078241
  24.0361493  51.6923382   3.7977378  34.5150568  37.5783783  -3.2705014
  33.9024881  38.0654185  -2.8851282  34.6114742  36.9027273  -2.7267362
  34.4388465  37.5502091  -3.1326155  22.0385174  48.8194950   1.1595224
  21.4473107  49.4604448   1.1298239  22.8006198  49.2432567   1.1326524
  22.0633435  48.9770788   1.1510372  22.4345797  39.9796947   1.8263242
  22.8947278  40.0535877   2.5638366  22.4801904  40.7778201   1.4763063
  22.5096352  40.1091094   1.8835998  24.0829147  40.6463642   6.3935269
  23.6914712  39.9996989   6.8291047  24.2515009  41.2375078   7.0129524
  24.0500057  40.6377910   6.5497975  38.1575596  48.6500719   2.1572503
  38.2158719  49.0987368   2.9032479  37.5242063  49.0599532   1.7202583
  38.0726891  48.7774454   2.2025051  25.8582669  46.0389158  -7.0662507
  26.6024714  46.4263434  -6.8279557  26.0043365  45.1946583  -6.9022019
  25.9893254  45.9719631  -7.0068537  27.7762244  37.8339417  -2.0330646
  26.9298289  38.0062225  -2.1589296  27.7733377  37.0288761  -1.6964817
  27.6509394  37.7400446  -2.0019519  28.8460544  41.6114631  -1.1668588
  28.3720499  41.0856393  -0.6563277  29.2178680  41.0644104  -1.7353726
  28.8310433  41.4530628  -1.1753440  19.2233575  43.6086138   4.2014958
  20.0859188  43.5081847   4.1152288  18.8925358  43.0280847   3.6400530
  19.3018771  43.5077765   4.1060364  35.1097275  46.6717007   0.2438193
  34.8695498  45.8323422   0.2480619  35.5889282  46.7517174   0.9678966
  35.1449459  46.5598407   0.3512995  37.1102462  43.4518464  -1.8032548
  36.8712232  43.4114298  -2.6411763  37.2736363  44.2989616  -1.6766827
  37.0992766  43.5710549  -1.9079066  33.7148492  47.8368414   4.1272497
  34.4382691  47.3840940   3.9483517  33.4498454  48.1173079   3.3444825
  33.7829765  47.8119382   3.9851213  22.5835361  42.4328587   0.8625376
  21.9588431  42.4446979   0.2551329  22.2480955  42.9088762   1.5116617
  22.4420852  42.5047104   0.8681945  19.2961036  50.4929047   2.3029141
  18.7660961  49.8021486   2.3524115  19.5686129  50.4839232   1.4741849
  19.2585758  50.3896179   2.1876557  29.4967282  47.9352292   2.2767512
  28.8824275  47.3910342   2.5716148  30.0134567  47.4216528   1.7973328
  29.4822944  47.7788701   2.2491741  28.7363579  49.0056562   0.0111811
  28.3091187  48.3806280  -0.4222754  28.7288523  48.7231484   0.8370818
  28.6722720  48.8709342   0.0691638  21.8526106  44.0421735   3.0800245
  22.0119593  43.2865059   3.4851967  21.6719000  44.5912674   3.7340983
  21.8491465  44.0115549   3.2362951  29.7946409  36.2082970   3.6351034
  29.2986970  36.4046645   2.9442601  30.5515471  36.6075639   3.4639836
  29.8333234  36.2960704   3.5071171  27.0649289  39.8825316   0.2254345
  27.0891776  39.3485429  -0.4632875  27.3160762  39.3742625   0.8879935
  27.1059207  39.7286220   0.2218990  23.3450611  38.6096135  -0.3939911
  23.3848982  39.1105341   0.3194797  22.5200275  38.7006528  -0.6633988
  23.2290137  38.6977951  -0.3289373  25.5280224  48.1756875   7.7080384
  24.6775854  48.3128589   7.8438029  25.6908351  47.4420653   8.1528085
  25.4264087  48.0870976   7.7935983  24.7664974  45.1256644   1.9033988
  23.9356904  45.2930462   1.6969236  24.7116491  44.7492595   2.6882874
  24.6354389  45.0946376   1.9882516  22.5748757  38.6165537   7.5390399
  23.2001461  38.0727670   7.8119831  22.1199237  38.1360455   6.9698189
  22.5997018  38.4655019   7.4951993  36.1483806  46.7994824   2.6303047
  36.7401646  47.4392075   2.6621245  36.5842801  46.1017861   2.9195114
  36.3002237  46.7913175   2.6783880  27.9777196  51.2212197   3.2560941
  27.4702287  51.7748044   3.7001571  27.6803842  51.2820487   2.4379715
  27.8582081  51.3118508   3.2009398  30.1439378  39.5865516   2.0985604
  30.5694450  39.1338043   1.4869130  29.5296371  39.0325587   2.3750391
  30.1168024  39.4379493   2.0490629  33.1732948  44.0140043  -5.0693811
  32.5024137  44.5569745  -5.1980745  33.8672698  44.4834898  -5.3112116
  33.1761815  44.1638314  -5.1238283  27.2219681  56.1536755   0.1617948
  26.9985336  55.3955584   0.5301974  26.7329525  56.1834776  -0.5601613
  27.1163130  56.0458979   0.1094689  33.3361075  40.4695927  -2.1603437
  33.6888685  40.0425650  -1.4857639  32.4775876  40.3846770  -2.0302361
  33.2610520  40.3940667  -2.0408427  31.3344341  43.7331295   1.7881405
  31.3142268  43.5514590   2.6416184  31.3823542  44.6043314   1.7640989
  31.3378982  43.8347833   1.9104700  29.2790671  50.3218487   7.7129881
  29.2386526  49.6768164   7.1275037  30.0913989  50.2655105   8.0255293
  29.3933824  50.2177454   7.6726831  34.7685135  35.5914338  -1.2319125
  34.2616000  34.8843478  -1.2997947  35.5652569  35.2607527  -1.1018048
  34.8112374  35.4387490  -1.2220130  30.6849151  42.0980951  -5.3345461
  30.4562844  42.1213652  -6.1767103  30.9447227  41.2738418  -5.2150451
  30.6895339  41.9797031  -5.4420263  24.9668379  43.9515424   4.2679639
  24.4547282  43.3436607   4.6264670  24.7947876  44.6672016   4.7353615
  24.8658016  43.9678723   4.3895863  19.8134094  42.3952999   6.9182001
  19.6436684  43.0554374   6.3730208  19.3700044  42.6059560   7.6394490
  19.7233428  42.5238981   6.9443630  28.8437450  41.8739668   6.7081895
  29.4008880  41.6453478   6.0760360  28.5198515  42.6345334   6.4317107
  28.8783860  41.9523505   6.5738392  16.7136159  45.2999865   2.1770491
  16.1662878  44.6300510   2.2951359  17.5028537  44.9329712   2.2413958
  16.7488342  45.1464851   2.2039191  26.5620567  44.9607322   7.6733902
  27.3131894  45.2758999   7.9873456  26.7543143  44.7586493   6.8467823
  26.7011981  44.9774703   7.5977297  33.4105857  41.0880888  -5.0842303
  33.4100084  40.9329545  -4.2258026  33.2062037  41.9343875  -5.1400917
  33.3805635  41.1901509  -4.9654363  15.4723128  44.5120672  -0.6683486
  15.2944889  44.0597281   0.0571429  15.1842150  45.3146834  -0.4845009
  15.4036081  44.5643230  -0.5339983  31.1346709  45.7678390  -1.4306096
  31.6300374  45.0501385  -1.4702076  30.3246485  45.4649187  -1.5451609
  31.0890602  45.6176036  -1.4532370  33.1998528  48.5182077   1.2571033
  33.6253600  47.9956499   0.7041458  32.8355448  49.1162915   0.7359656
  33.2085131  48.5292304   1.0980043  22.8352608  56.8146295   0.0168378
  23.1499167  57.6282683   0.0246160  23.2446021  56.4296513   0.6850537
  22.9420706  56.8774997   0.1172470  29.7877127  52.2316342  -2.4127810
  30.2588306  52.9456604  -2.2437825  30.1237306  51.6315092  -1.8767940
  29.9072243  52.2487806  -2.3095434  31.8754112  53.8417655   9.7664262
  31.9851078  53.0526216  10.1221010  32.2045009  53.7523591   8.9638600
  31.9406518  53.7123508   9.7006653  26.7046622  37.0043812   4.5430285
  26.8374528  36.2074806   4.8711261  27.0891775  37.5310215   5.1228561
  26.7802951  36.9643729   4.6773788  30.4251074  52.0234276   4.3499883
  29.8772020  51.3992159   4.0819948  30.8864103  52.2128548   3.6343962
  30.4118283  51.9593326   4.2050314  29.7778978  33.9274138   1.1411378
  28.9724941  33.8171868   1.4579217  29.6485713  34.0286594   0.2841244
  29.6399110  33.9257808   1.0619419  33.2344938  40.0919630   1.7351075
  32.6507927  40.5928837   1.3228643  33.5549232  39.5849186   1.1015399
  33.1958113  40.0911465   1.5809582  24.3635069  37.0002987   2.7908179
  24.9079482  36.6594114   3.3812521  24.4172005  37.8588449   2.9329463
  24.4524189  37.0758247   2.8990052  20.1765628  50.7619403  -0.3353013
  20.7810485  50.7215237  -0.9639193  19.9692940  51.6090555  -0.3048957
  20.2354525  50.8807406  -0.4236897  29.9909400  53.0285348   0.8809224
  30.8107774  52.8848314   1.1425519  29.7103478  53.6531547   1.4225662
  30.0706143  53.0995700   0.9997164  34.2854104  60.9744681   6.8114270
  34.4574608  60.8650576   7.6599551  34.8223462  61.6199087   6.5745462
  34.3899108  61.0536683   6.9019366  33.3414427  57.1054991   4.2934197
  32.6486224  56.6351970   4.5394929  33.9574755  56.8793295   4.8675905
  33.3298957  57.0022123   4.4143350  32.0654986  61.0720395   5.4361043
  32.7894959  61.0573425   5.9225937  32.1671123  61.7815750   4.9383011
  32.1873195  61.1745098   5.4339829  39.4399936  64.5519479  10.3009990
  38.6472916  64.8662991  10.4862609  39.5548863  64.7670948   9.4630774
  39.3395346  64.6303316  10.2048324  36.1473650  55.1152887  10.0160350
  35.8327091  55.8852450   9.7529912  35.8263582  54.5523143   9.4312577
  36.0532569  55.1463156   9.8901700  42.8238436  53.6521268   3.9617868
  43.5692028  53.4631078   3.5481293  42.4075740  54.1779506   3.4031724
  42.8723410  53.7023413   3.8182441  35.7790155  57.7150138   8.7545564
  34.9689931  58.0207918   8.6435407  36.2564842  58.4355720   8.8698148
  35.7293634  57.8664739   8.7552635  35.6317913  55.3439077   3.6846008
  35.4401110  55.3594211   4.5345432  36.4816509  55.5402751   3.6612663
  35.7293634  55.3753428   3.8069303  30.0164826  57.8730058   1.6629825
  29.8750317  57.0213999   1.7874333  30.3005389  57.9158719   0.8392031
  30.0372672  57.7529808   1.5597449  38.5422140  55.5394586   3.8917832
  38.9994754  56.2718561   4.0190624  38.6178468  55.1161051   4.6505087
  38.6213109  55.5851824   4.0218908  30.7855131  55.7860406   4.9807275
  30.2497320  55.1740764   5.2968042  30.8472896  56.3608542   5.6340942
  30.7150763  55.7807334   5.1242702  39.8504896  60.4784465   9.4355003
  40.3204527  61.1026581   9.8222877  39.8966776  59.8101440   9.9948218
  39.9272772  60.4719145   9.5755074  37.0076170  52.5841492   0.1603807
  36.4914658  51.8921684   0.2855386  36.4470099  53.2512269   0.1066405
  36.8482683  52.5804750   0.1709873  39.0768403  53.1234452   1.9896659
  38.6900156  53.1483484   2.7710189  38.5901341  52.5576131   1.5371176
  38.9480912  53.0430203   2.0384563  38.7425545  50.0101438   4.2806919
  39.3718663  50.5461738   4.0027990  38.9111408  49.9178797   5.1320485
  38.8603340  50.0762800   4.3655447  38.5439460  54.7972632   6.5533331
  39.3712889  54.5257781   6.6091945  38.5647306  55.5933474   6.9097149
  38.6692310  54.8752387   6.6148514  33.4078380  55.4982255   1.8263242
  33.8679862  55.5721185   2.5638366  33.4534487  56.2963509   1.4763063
  33.4828936  55.6276402   1.8835998  35.0561730  56.1648950   6.3935269
  34.6647295  55.5182297   6.8291047  35.2247593  56.7560385   7.0129524
  35.0232640  56.1563218   6.5497975  30.1966158  59.1271446   4.2014958
  31.0591771  59.0267155   4.1152288  29.8657941  58.5466155   3.6400530
  30.2751355  59.0263073   4.1060364  32.8258690  59.5607043   3.0800245
  32.9852176  58.8050367   3.4851967  32.6451583  60.1097982   3.7340983
  32.8224048  59.5300857   3.2362951  40.7678993  51.7268278   3.6351034
  40.2719554  51.9231953   2.9442601  41.5248055  52.1260947   3.4639836
  40.8065817  51.8146012   3.5071171  34.3183194  54.1281443  -0.3939911
  34.3581566  54.6290649   0.3194797  33.4932859  54.2191836  -0.6633988
  34.2022720  54.2163259  -0.3289373  36.5012807  63.6942182   7.7080384
  35.6508438  63.8313897   7.8438029  36.6640935  62.9605961   8.1528085
  36.3996671  63.6056284   7.7935983  33.5481341  54.1350845   7.5390399
  34.1734044  53.5912978   7.8119831  33.0931821  53.6545763   6.9698189
  33.5729602  53.9840327   7.4951993  35.9400963  59.4700732   4.2679639
  35.4279866  58.8621915   4.6264670  35.7680459  60.1857324   4.7353615
  35.8390600  59.4864031   4.3895863  30.7866678  57.9138307   6.9182001
  30.6169268  58.5739682   6.3730208  30.3432628  58.1244868   7.6394490
  30.6966011  58.0424289   6.9443630  39.8170033  57.3924976   6.7081895
  40.3741463  57.1638786   6.0760360  39.4931098  58.1530642   6.4317107
  39.8516443  57.4708813   6.5738392  27.6868742  60.8185173   2.1770491
  27.1395462  60.1485818   2.2951359  28.4761120  60.4515020   2.2413958
  27.7220926  60.6650159   2.2039191  37.5353151  60.4792630   7.6733902
  38.2864478  60.7944306   7.9873456  37.7275727  60.2771801   6.8467823
  37.6744565  60.4960011   7.5977297  37.6779206  52.5229120   4.5430285
  37.8107112  51.7260113   4.8711261  38.0624359  53.0495523   5.1228561
  37.7535535  52.4829037   4.6773788  40.7511561  49.4459446   1.1411378
  39.9457525  49.3357176   1.4579217  40.6218297  49.5471902   0.2841244
  40.6131694  49.4443116   1.0619419  35.3367653  52.5188295   2.7908179
  35.8812066  52.1779422   3.3812521  35.3904588  53.3773757   2.9329463
  35.4256772  52.5943554   2.8990052  39.1350760  41.4897610  -2.7649964
  38.3423740  41.8041122  -2.5797344  39.2499687  41.7049079  -3.6029179
  39.0346170  41.5681447  -2.8611629  35.4740979  34.6528269  -4.3114389
  34.6640755  34.9586049  -4.4224546  35.9515666  35.3733851  -4.1961805
  35.4244458  34.8042870  -4.3107318  43.0090963  43.7179802  -2.2912348
  43.8225828  43.4464951  -2.1307215  42.8485929  43.4187342  -3.0952152
  43.1060911  43.6334728  -2.3866942  36.1963631  40.6320314  -5.3579569
  35.3459262  40.7692028  -5.2221925  36.3591759  39.8984092  -4.9131868
  36.0947495  40.5434415  -5.2723970  37.2303974  37.4170761  -5.3926051
  37.9815301  37.7322438  -5.0786497  37.4226551  37.2149932  -6.2192130
  37.3695389  37.4338143  -5.4682656
  76.6165876  76.6165876  76.6165876 109.4712190 109.4712190 109.4712190
