default_name
 43881
  38.5152241  30.0212297  24.0386768  39.0132669  30.4648084  24.7971571
  38.2283091  30.7309068  23.3797849  39.0488789  29.2243174  23.7220653
  37.2261163  29.4453309  24.5942544  36.3813657  29.9086961  24.0845600
  37.1430010  27.9294236  24.3998375  37.0487068  27.7502249  23.3288119
  38.0839589  27.5103795  24.7563490  35.9664381  27.2554806  25.1398520
  36.2413128  27.2366447  26.1944562  35.1053844  27.9092382  25.0009650
  35.5202089  25.5282381  24.5911700  34.5898204  25.8776563  23.0910633
  35.2264583  26.4087886  22.3834691  34.2537747  24.9416032  22.6449932
  33.7248516  26.4945362  23.3347629  37.1082385  29.7413407  26.1130207
  36.0093646  29.9598324  26.6267926  38.2295119  29.6313825  26.8117181
  39.0726665  29.2727745  26.3867592  38.2186296  29.8448051  28.2638112
  37.3685200  29.2728091  28.6356086  39.5671855  29.2572565  28.9303976
  40.4264463  29.8258164  28.5747145  39.5021248  29.3387786  30.0153960
  39.6844643  28.2100558  28.6516223  37.9160733  31.3129673  28.6248771
  37.5442506  31.6018291  29.7610812  37.9371626  32.2144032  27.6287700
  38.1484606  31.9018685  26.6918737  37.6257082  33.6365855  27.8356553
  37.7891236  33.9092186  28.8782797  38.5509600  34.5139971  26.9407949
  38.5754163  34.1051918  25.9306566  38.1678725  35.5340016  26.9102203
  39.8253404  34.5177674  27.4654978  40.3965198  35.0582285  26.9148112
  36.2070222  33.9933878  27.4473832  35.7925067  35.1534626  27.5431242
  35.4744120  33.0134575  26.9036369  35.8095245  32.0609928  26.9283346
  34.1690498  33.2742500  26.2949360  34.0087508  34.3489969  26.2093641
  34.0984898  32.6488359  24.8790534  34.8424046  33.1861030  24.2908068
  34.4153311  31.6137335  25.0066259  32.7298036  32.6845248  24.1408595
  32.8185664  32.0510246  23.2583067  31.9858732  32.2628814  24.8167912
  32.3009897  34.0737980  23.7228899  33.0906944  35.0204723  23.8981727
  31.1658973  34.1855167  23.2196840  33.0921345  32.6078771  27.1814362
  32.9977897  31.3461352  27.2506284  32.3311624  33.4124842  27.9037676
  32.5335732  34.3990444  27.9801101  31.1659569  32.8664810  28.6665950
  31.5164460  32.1547487  29.4140531  30.4048107  34.0028144  29.3855073
  30.1000307  34.6980550  28.6032996  29.5194176  33.5829960  29.8629291
  31.2498994  34.7509501  30.4373135  32.1093956  35.2103473  29.9491317
  30.3838858  35.8612175  31.1218547  29.5243893  35.4025055  31.6106776
  30.9856410  36.3863189  31.8636498  30.0378541  36.5688905  30.3684880
  31.7896151  33.7907729  31.4885236  32.4162250  33.0396004  31.0076916
  32.3815065  34.3444470  32.2173657  30.9580383  33.2999154  31.9941302
  30.1810014  32.1043902  27.7747843  29.8826226  32.5405183  26.6598711
  29.6869628  30.9719256  28.2979658  30.1226272  30.5687531  29.1151242
  28.5427414  30.2560262  27.6865294  28.6570031  30.2243898  26.6029970
  28.4044486  28.7986919  28.2147698  27.6094037  28.2988195  27.6614784
  29.7379006  28.0121993  28.0322019  30.5333705  28.5112482  28.5856253
  29.6158314  26.9966498  28.4088416  29.9982250  27.9779756  26.9742980
  28.0370641  28.8003894  29.5996643  27.9558089  27.8956668  29.9102684
  27.2458056  31.0079683  27.9464073  27.1961208  31.8802742  28.8371198
  26.1979712  30.7362247  27.1417505  26.1090304  29.9741328  25.8757957
  25.9425656  28.9181533  26.0886266  27.0321168  30.0885898  25.3075439
  24.9131988  30.6292999  25.1835378  24.4474740  29.9428509  24.4764401
  25.2144255  31.5379633  24.6622944  23.9769324  30.9526017  26.3460159
  23.4080319  30.0815568  26.6711804  23.2904711  31.7610178  26.0943538
  24.9313074  31.4036594  27.4684348  25.0912476  32.4778430  27.3754465
  24.4209630  31.0807163  28.8913819  23.9266997  31.9950058  29.5526138
  24.6337486  29.8602668  29.4008466  25.0362386  29.1304312  28.8303722
  24.2478929  29.5325007  30.7850084  23.2080849  29.8217385  30.9374554
  24.3906252  28.0462934  31.0945247  25.3465504  27.7127415  30.6907310
  24.3945924  27.9311414  32.1784179  23.2576451  27.1993096  30.4938822
  22.3291839  27.4385796  31.0123514  23.1804694  27.5068108  29.4510083
  23.5058895  25.6931818  30.5634144  24.3536474  25.2442154  31.3699482
  22.8078684  24.9428522  29.8177248  25.0734181  30.3148811  31.8108613
  24.5521595  30.7779859  32.8400029  26.3716460  30.4430445  31.5474255
  26.8129973  30.0128077  30.7472976  27.2034113  31.1997792  32.4696186
  27.0372108  30.8443883  33.4865620  28.6935772  31.0350521  32.1290081
  28.7960830  31.2039948  31.0570706  29.2323527  31.8116709  32.6718563
  29.2763324  29.6632615  32.4877964  29.4048061  29.6024353  33.5684885
  28.5663265  28.9024818  32.1634432  30.6286543  29.4286094  31.7976784
  31.0017691  30.2016495  30.8771789  31.3319971  28.4918206  32.1691965
  26.7859158  32.6790997  32.3950443  26.6888937  33.3297342  33.4264334
  26.5146073  33.2233020  31.2030067  26.5098125  32.6849785  30.3484400
  26.1871585  34.6487271  31.1274975  27.0103195  35.1998467  31.5822197
  25.9609843  35.1894754  29.6983693  25.1556370  34.6026991  29.2565451
  25.6430195  36.2276490  29.7942539  27.1504666  35.1187673  28.8338964
  27.9425295  35.7339458  29.2608539  27.4884576  34.0844043  28.7709885
  26.8056872  35.6325479  27.4234108  25.9117091  35.1466556  27.0325007
  26.6624406  36.7130872  27.4195765  27.9339548  35.3067299  26.5536753
  27.9054211  34.4177313  26.0751706  28.9849003  36.1012582  26.3565580
  29.0575919  37.3247943  26.9497988  28.3065727  37.6379303  27.5481432
  29.8621997  37.9136805  26.7888050  29.9690361  35.6649934  25.5584711
  29.8985800  34.7548526  25.1262909  30.7767387  36.2483134  25.3927813
  24.9163161  34.9431306  31.8600049  24.8085903  35.9827364  32.5035272
  23.9397065  34.0313054  31.7677528  24.0313059  33.2278294  31.1626617
  22.6810671  34.2235907  32.4741077  22.2710716  35.2065407  32.2421330
  21.6678638  33.1583944  32.0490551  21.4261258  33.2700874  30.9920846
  22.0736142  32.1621702  32.2251348  20.4962084  33.3330361  32.8212240
  19.8459301  32.6731150  32.5697442  22.8483826  34.2248815  33.9947253
  22.2962534  35.0824344  34.6989628  23.5873524  33.2477921  34.4829507
  23.8969520  32.5214791  33.8530961  23.9335736  33.1374656  35.8715103
  23.0325683  33.0788387  36.4821260  24.7401760  31.8954103  36.0886399
  24.0841369  31.0519873  35.8733506  25.5533854  31.9169410  35.3631560
  25.3059983  31.7482240  37.4685524  26.1661707  31.0823287  37.3993595
  25.6377311  32.7380523  37.7820685  24.3243104  31.2003989  38.4831156
  23.1456094  30.8843238  38.1300058  24.7673795  31.0867906  39.6510064
  24.7151819  34.3450901  36.4125109  24.5284810  34.6728534  37.5786739
  25.5856194  34.9461988  35.5889116  25.6907037  34.5829438  34.6523741
  26.4672178  36.0433346  36.0139802  26.5430320  36.0462447  37.1013362
  27.8922234  35.8853911  35.4176432  27.6630869  35.8186097  34.3540944
  28.5452562  36.7398764  35.5951342  28.6047476  34.5875118  35.8746206
  27.8946455  33.7631025  35.8097724  29.8229886  34.2796323  35.0048890
  30.5337980  35.1034418  35.0695935  30.2974171  33.3627555  35.3546824
  29.5079175  34.1527876  33.9691569  28.9192710  34.5890417  37.3735177
  27.9923335  34.6802488  37.9397047  29.4180091  33.6576454  37.6415894
  29.5716349  35.4303219  37.6075435  25.9734162  37.4625818  35.7175308
  26.6535542  38.4299514  36.1104828  24.8010933  37.5809476  35.0884055
  24.2526940  36.7521656  34.9081890  24.2621291  38.8735910  34.6685429
  24.8482265  39.2916124  33.8501010  22.8262792  38.6606500  34.1829460
  22.7738077  37.6833751  33.7030713  22.1703505  38.6731062  35.0534070
  22.3889178  39.7183567  33.2122444  22.2247715  40.6660918  33.7250358
  23.1354368  39.8538183  32.4296451  21.0812348  39.2449101  32.5898116
  21.2787093  38.8791500  31.5821796  20.6711017  38.4366530  33.1952955
  20.0715264  40.3989169  32.5260456  19.1685069  40.0338206  32.0368002
  19.8347936  40.7002128  33.5464757  20.6062580  41.5725560  31.7719837
  20.8252796  41.2936850  30.8262775  19.9121971  42.3060915  31.7545119
  21.4427806  41.9112808  32.2254091  24.2346297  39.8602778  35.8374834
  24.7116942  40.9947257  35.7374861  23.6818231  39.3907550  36.9752686
  23.1729009  38.5184830  36.9907328  23.5970003  40.2675416  38.1509885
  23.2980216  41.2625969  37.8214802  22.5777793  39.7679280  39.2028601
  22.8042069  38.7339815  39.4632145  22.6670122  40.3935791  40.0909469
  21.1447570  39.8396631  38.7000139  20.8329719  40.5668725  37.7528742
  20.2411455  39.0566832  39.3362329  19.2747361  39.0653353  39.0428424
  20.5377837  38.4676725  40.1011988  24.9288752  40.6401125  38.7543202
  25.1069022  41.7983385  39.1368643  25.8636496  39.6882933  38.8517170
  25.6350432  38.7255969  38.6490994  27.2087988  39.9951513  39.3169922
  27.1531559  40.4710884  40.2960157  28.0613390  38.7249553  39.4370095
  28.1682161  38.2579868  38.4579196  29.0469508  38.9772544  39.8281801
  27.4172872  37.8220407  40.3239861  27.9437293  37.0234176  40.4055938
  27.9353100  40.9955000  38.4353098  28.6986374  41.8025912  38.9119061
  27.7059411  40.9105528  37.1275442  27.1435153  40.1638110  36.7452442
  28.3527051  41.8268524  36.2050924  29.4147871  41.9346971  36.4252074
  28.1757184  41.3180435  34.7519193  27.1574518  40.9467271  34.6363434
  28.4393719  42.4745116  33.6980961  29.4576639  42.8460418  33.8127581
  28.3069967  42.0843292  32.6889702  27.7348390  43.2887655  33.8675750
  29.1325713  40.1276759  34.5206884  30.1457513  40.5292444  34.5030905
  29.0226902  39.4574663  35.3732402  28.8669063  39.3504546  33.2204891
  28.9770653  40.0199441  32.3674072  29.5810893  38.5316113  33.1336713
  27.8540026  38.9481678  33.2375561  27.8197184  43.2609103  36.4084571
  28.6067147  44.2326288  36.4375776  26.5089240  43.3701077  36.6095960
  25.9181980  42.5566269  36.5126875  25.8677311  44.6731877  36.8691231
  26.1848054  45.3883614  36.1101175  24.3208868  44.5211748  36.7937993
  23.9872424  43.8148975  37.5540321  23.8512647  45.4894416  36.9670468
  24.0391088  44.1525540  35.8074833  26.3496362  45.2336115  38.2111446
  26.6340323  46.4381931  38.3517718  26.5325024  44.3461952  39.1932653
  26.4593005  43.3512074  39.0359756  26.8308415  44.8096804  40.5331893
  26.1886604  45.6498888  40.7972961  26.5773598  43.6553853  41.5408301
  25.5279110  43.3718964  41.4608896  27.2039897  42.8143982  41.2438861
  26.8949778  44.0428302  42.9986532  27.9400925  44.3485604  43.0472854
  26.2569508  44.8907114  43.2478886  26.6463468  42.8983783  44.0055303
  26.4668661  41.7148968  43.5815490  26.6459953  43.1923754  45.2326504
  28.3008004  45.2730636  40.6398361  28.5639264  46.3339896  41.2201651
  29.2408180  44.4435291  40.1324148  28.9466635  43.6551372  39.5738356
  30.6927874  44.6148567  40.4001046  30.8488028  45.3830950  41.1574475
  31.2773564  43.3004962  40.9109044  30.9402818  42.4594044  40.3050623
  32.3661353  43.3482999  40.8915273  30.8889177  42.9958269  42.3170857
  31.3944711  43.7675486  43.3783012  32.0789461  44.5891446  43.1671761
  31.0264947  43.4883162  44.6910360  31.4204083  44.0957342  45.5058833
  30.1603201  42.4395433  44.9637009  29.8767166  42.2246573  45.9939887
  29.6528402  41.6613131  43.9242093  28.9826240  40.8270984  44.1315648
  30.0138799  41.9616276  42.5955865  29.6024558  41.3761089  41.7733956
  31.5119824  45.0660566  39.2162380  32.6020628  45.6214610  39.3845727
  30.9793997  44.8804721  38.0245136  30.0253096  44.5676627  37.9151439
  31.8161429  45.0356760  36.8021317  32.7885145  45.4612748  37.0500394
  32.0326052  43.6428373  36.1789298  31.0988935  43.1816450  35.8570860
  32.7011160  43.7435593  35.3239162  32.6893316  42.6710391  37.1282605
  34.0066376  42.7873840  37.5054020  34.3104931  41.8096966  38.3622481
  35.2943588  41.7725551  38.8299316  33.2592836  41.0094854  38.4818242
  33.2133437  40.1544934  39.0175276  32.2157328  41.5407824  37.7429425
  31.2438427  41.0473066  37.7394318  31.2529618  45.9971402  35.7965474
  31.6753035  45.9805919  34.5968046  30.3945076  46.9034734  36.2562783
  30.0996213  46.9020638  37.2222697  29.8378707  47.9619271  35.3416017
  30.2891941  47.8108989  34.3609913  28.2937599  47.8185152  35.2059409
  27.8368299  48.0529465  36.1673758  27.7255211  48.7893691  34.1046265
  28.1816752  48.5552249  33.1427536  26.6448767  48.6659867  34.0333268
  27.9560156  49.8200541  34.3741841  28.0200768  46.4884634  34.7732392
  27.0718188  46.3708300  34.6806679  30.1801795  49.2978230  35.9502959
  30.1730480  49.4257591  37.1532546  30.4388915  50.3103956  35.1225339
  30.2270423  50.2541692  34.1366039  31.0278547  51.5542559  35.6389404
  30.9627289  51.5759040  36.7267773  32.5151194  51.6407929  35.2317570
  32.6575931  51.6272937  34.1511932  32.8511932  52.5981245  35.6300918
  33.3175683  50.5250645  35.8591357  33.7857946  50.6494925  37.1567334
  33.5975206  51.5833454  37.6864229  34.4760138  49.6275681  37.7814109
  34.8780365  49.7516395  38.7869386  34.7017217  48.4294759  37.0754123
  35.3732374  47.4210819  37.7242583  35.6237417  47.6538633  38.6212867
  34.2201902  48.2581669  35.7987704  34.3829935  47.3227827  35.2633715
  33.5105308  49.3066858  35.1838811  33.1074585  49.1765018  34.1795481
  30.3455491  52.7694914  35.0891307  29.9879609  52.7993167  33.9028440
  30.2043620  53.7661042  35.9519836  30.3015846  53.6245703  36.9472802
  29.9049728  55.1149878  35.4688532  29.2099805  55.0608730  34.6309055
  29.2726596  55.9478385  36.5710283  28.4560799  55.3613672  36.9921556
  30.0349002  56.1083342  37.3334786  28.7367292  57.2984721  36.0942365
  28.3255824  57.2018192  35.0893896  27.9489845  57.6100750  36.7801402
  29.8099355  58.3617201  36.0765467  30.6551541  58.4293017  36.9801668
  29.8030667  59.1889948  35.0338299  30.4971130  59.9198251  34.9683446
  29.1038415  59.0821028  34.3128864  31.2426694  55.6815627  35.0585037
  32.1870802  55.7237046  35.8819132  31.3590280  56.0660291  33.7907051
  30.5892883  55.9641056  33.1447858  32.6301049  56.5885865  33.2802892
  33.3750670  56.5507744  34.0750853  33.1451115  55.7796966  32.0888559
  32.3360346  55.8958258  31.3677401  34.0448657  56.2607043  31.7052232
  33.4205531  54.2816722  32.3137993  32.5800589  53.8564376  32.8622935
  33.5941247  53.5438313  31.0086508  34.4347851  53.9682292  30.4597653
  33.7867691  52.4899232  31.2093165  32.6863501  53.6397191  30.4129569
  34.6287666  54.0791155  33.2171011  34.4438176  54.5491785  34.1829863
  34.8015625  53.0124115  33.3598781  35.5073757  54.5304960  32.7562317
  32.4942757  58.0490515  32.8884098  31.6007305  58.4395067  32.1433736
  33.4055574  58.8330526  33.4283808  33.8590208  58.5468957  34.2842923
  33.6814802  60.1449397  32.9183916  32.7602488  60.6461323  32.6213432
  34.3529331  60.9690224  34.0295243  35.2574110  60.4492436  34.3455128
  34.6198067  61.9385122  33.6088484  33.4262887  61.1741458  35.2462452
  32.1758250  61.1520191  35.0872963  33.9477737  61.3513541  36.3760610
  34.4950685  60.1348414  31.5933354  35.1241209  59.1119841  31.2151581
  34.4554572  61.2733353  30.8472741  33.5216705  62.4116856  31.0181051
  33.8491202  63.0203000  31.8609962  32.5207675  62.0276315  31.2150688
  33.6063393  63.1427466  29.7134707  33.4576950  64.2104979  29.8744399
  32.8456280  62.7698640  29.0276294  34.9961969  62.8509625  29.1892744
  35.7673120  63.4803051  29.6335809  35.0341001  62.9424746  28.1037844
  35.2167910  61.3837713  29.6007414  34.7443876  60.7026829  28.8928911
  36.7213642  61.0567682  29.7021592  37.2984879  60.6072857  28.7385806
  37.3824235  61.2576709  30.8257653  37.0039655  61.6327031  31.6837978
  38.8159042  60.8874617  30.7934517  39.1736152  61.1725557  29.8040763
  39.2997315  61.5087454  31.5471208  39.1787896  59.4100224  31.0521569
  40.3519266  59.1013146  31.2169415  38.2014719  58.5067392  31.0838343
  37.2333937  58.7571152  30.9415819  38.5101635  57.1384614  31.5476171
  39.5576043  56.9137691  31.3464197  38.2606487  56.9970274  33.0436561
  38.4773825  55.9717064  33.3433935  38.9215055  57.6788808  33.5788610
  36.9271740  57.3015149  33.3511923  36.7872731  57.2075571  34.2962847
  37.8546503  56.0366368  30.7277770  37.0473404  56.2970749  29.8367682
  38.2611090  54.7863949  30.9808511  38.9059989  54.5899985  31.7329447
  37.7950152  53.6790106  30.1676730  36.7809235  53.8898274  29.8281535
  38.6926587  53.4492685  28.9300028  38.2798934  52.6424096  28.3244429
  38.7366185  54.3624077  28.3364168  40.4392405  52.9830510  29.2796788
  40.8161516  52.8918257  28.0074704  37.8006915  52.4271675  31.0573498
  38.4354908  52.4281613  32.1205750  37.0800948  51.4132152  30.6188659
  36.5449969  51.4961718  29.7662888  36.9616649  50.1650888  31.4019367
  37.8747087  50.0155975  31.9782202  35.7645285  50.2138461  32.3774571
  35.7830068  49.3110436  32.9879532  35.8802811  51.0877646  33.0185248
  34.5105560  50.2945029  31.6799405  33.7919334  50.3229068  32.3158451
  36.8601816  48.9683507  30.4932805  36.5047110  49.0845579  29.2867535
  37.1611285  47.7945392  31.0573573  37.4351461  47.7563913  32.0287266
  37.0089302  46.5179915  30.3194741  36.2548909  46.6338469  29.5409490
  38.3309961  46.1031740  29.6631943  39.1214245  46.3191614  30.3819930
  38.2764381  45.0274157  29.4962585  38.6177870  46.7633884  28.4267461
  39.4575633  46.4493496  28.0835911  36.6900437  45.4549301  31.3543108
  37.0946537  45.5937567  32.5198492  35.9824694  44.4238862  30.8974069
  35.6220667  44.4833383  29.9557729  35.6638694  43.2528002  31.6796400
  36.0999808  43.3363666  32.6750909  34.1311491  43.1189253  31.8217386
  33.9416167  43.8689228  32.5896451  33.6420960  43.4174467  30.8944780
  33.5744259  41.7672783  32.2800919  33.9155492  40.9877019  31.5989191
  34.0781656  41.4465245  33.7404101  33.7370163  42.2254762  34.4222826
  33.6785460  40.4840843  34.0599627  35.1674518  41.4080976  33.7493179
  32.0360955  41.6876352  32.1440710  31.7551734  41.8310096  31.1006986
  31.6910828  40.7103571  32.4817025  31.5761651  42.4653214  32.7537981
  36.2698544  41.9994107  31.0067700  36.1130249  41.8141233  29.7843793
  36.9249032  41.1422563  31.8033165  37.1015601  41.3729717  32.7706128
  37.4362006  39.8506124  31.2838540  37.1044041  39.7031073  30.2561126
  38.9706697  39.8464600  31.3091752  39.2701604  40.0607993  32.3350716
  39.4367274  38.9170953  30.9818047  39.5448566  40.9360037  30.4590288
  39.5861086  40.8411648  29.0888416  40.0416218  41.9840071  28.5909008
  40.1224603  42.1257584  27.5131853  40.3308830  42.7912264  29.5948226
  40.7228497  43.7191477  29.5211739  40.0101628  42.1615583  30.7750860
  40.1559962  42.6764991  31.7246489  36.9312695  38.6485193  32.0817485
  36.7721021  38.7726219  33.2700302  36.6352988  37.5357291  31.3759431
  36.7227845  37.5427514  30.3697641  36.1922399  36.2915872  32.0301027
  36.0230481  36.4224588  33.0989085  34.8940603  35.7879281  31.3863416
  35.0502996  35.6433667  30.3173275  34.6055040  34.8408050  31.8421852
  34.1026723  36.5212395  31.5414502  37.2653267  35.2595836  31.8559813
  37.9964894  35.2318080  30.8428009  37.3568081  34.3526152  32.8240481
  36.8233606  34.3993671  33.6804052  38.2707090  33.2633878  32.6519931
  38.4291034  33.0606219  31.5927970  39.6405083  33.6427957  33.2975622
  40.0700195  34.4463839  32.6993436  39.4351483  34.0091992  34.3033831
  40.6594061  32.4428632  33.3737933  41.4578059  32.7138456  34.0646095
  40.1381768  31.5622314  33.7491729  41.2685954  32.1089070  32.0444737
  41.7920178  32.9949739  31.3251447  41.2150611  30.8110339  31.6688772
  41.6096059  30.5281132  30.7832183  40.7807734  30.1303887  32.2756866
  37.6872087  32.0199671  33.3177592  37.4808556  32.0269692  34.5223796
  37.4845489  30.9478610  32.5334943  37.6589063  31.0275828  31.5418576
  36.9977408  29.6486285  33.0600136  36.2486589  29.8177360  33.8335627
  36.3524322  28.8150036  31.9173148  35.7291221  29.4853523  31.3255242
  37.1564882  28.4229022  31.2945384  35.4671601  27.6098200  32.4607509
  36.1384097  26.8593297  32.8782303  34.8191680  27.9951162  33.2479961
  34.6044261  26.9685958  31.3523180  35.2520864  26.5627713  30.5751812
  34.0016442  26.1662821  31.7778133  33.7137425  27.9532469  30.7508506
  32.8566373  28.1597841  31.2436106  33.9324617  28.5475347  29.5823358
  35.0271107  28.2504903  28.8751637  35.6865992  27.5736312  29.2315858
  35.1897684  28.7042528  27.9876156  33.0839798  29.4700990  29.1662498
  32.2855906  29.7112847  29.7359025  33.2374067  29.9301853  28.2803156
  38.1885975  28.9114587  33.6523675  39.2960049  28.9034362  33.0627478
  37.9861249  28.3055866  34.8297620  37.0825212  28.3676725  35.2766905
  39.0355294  27.5557980  35.4989146  39.8467167  27.3628032  34.7968980
  39.5920656  28.3299849  36.7376426  38.7913349  28.4588639  37.4658740
  40.7411667  27.5535536  37.3771346  41.5425288  27.4246725  36.6495982
  41.1182218  28.1052098  38.2382999  40.3840791  26.5758180  37.7005860
  40.0736438  29.7276867  36.2528661  40.7521320  29.5840648  35.4119575
  39.2031966  30.2953066  35.9238847  40.8206501  30.5252365  37.4050071
  41.6915362  29.9584151  37.7342042  41.1413068  31.4958760  37.0266719
  40.1426009  30.6696549  38.2461328  38.4398193  26.2271070  35.9531390
  37.3917401  26.1891235  36.6238611  39.1347730  25.1424045  35.5892517
  39.9788401  25.2547767  35.0460919  38.6500393  23.7719489  35.8552024
  37.5662915  23.7752704  35.9717305  39.0166997  22.8436042  34.6776587
  40.0724735  23.0531503  34.5058122  38.8744830  21.7693409  34.7952715
  38.2899431  23.2387672  33.4224448  36.9366295  23.0488258  33.2861268
  36.5220123  23.5774072  32.1426648  35.4763068  23.5178109  31.8409243
  37.5668440  24.1218940  31.5450581  37.5604566  24.5939392  30.6521794
  38.6782685  23.9446943  32.3358836  39.6397470  24.3525765  32.0239664
  39.2220754  23.3463690  37.2048270  40.0936018  22.4933147  37.2869858
  38.7381615  24.0205813  38.2393521  38.0599951  24.7447550  38.0502433
  39.1698163  23.8175641  39.6253478  39.2998129  22.7547078  39.8291530
  40.4762728  24.5270214  39.9062086  40.3593510  25.5938020  39.7153983
  40.7570268  24.3734514  40.9481749  41.2550068  24.1256626  39.2576844
  38.0601153  24.3104711  40.5405759  37.2017439  25.0727585  40.1027524
  38.0349420  23.8374084  41.8178586  38.9921353  22.8946657  42.4496102
  39.8301814  23.4393958  42.8844068  39.3650481  22.1825820  41.7134228
  38.1275070  22.2437471  43.4878119  38.7299534  21.8156003  44.2889660
  37.5036286  21.4658627  43.0476154  37.2571648  23.4305048  44.0020109
  37.8938073  23.9957156  44.6826886  36.3180907  23.1889652  44.4999044
  36.9818344  24.2577386  42.7358788  36.0090276  24.1018593  42.2695670
  37.1551437  25.7363190  43.0665886  38.3037760  26.2006958  43.1786415
  36.0322817  26.4436769  43.2629957  34.6337335  26.0444322  42.9975386
  34.4407371  25.0740445  43.4549227  34.4741815  25.9764819  41.9214229
  33.8484746  27.1262963  43.6141686  33.6727625  26.9054651  44.6670019
  32.8925627  27.2314869  43.1010715  34.7008137  28.3826358  43.4423285
  34.5111174  29.0492022  44.2836391  34.5061206  28.9115180  42.5093344
  36.1518565  27.9024745  43.4766789  36.7350310  28.3232522  42.6575624
  36.8344172  28.2249954  44.8050817  37.4945136  29.2608410  44.9057780
  36.7134873  27.3387196  45.8168091  36.0661103  26.5637735  45.7953400
  37.4321381  27.6031647  47.0540927  37.2346612  28.6266532  47.3727984
  36.9892921  26.6291653  48.1967766  37.5610487  26.8843357  49.0890107
  35.9291194  26.7994622  48.3842143  37.2194073  25.1303280  47.8444472
  38.1109259  25.1012580  47.2179888  37.4148881  24.6033720  48.7783657
  36.0439281  24.4457511  47.1016645  35.2341468  25.1277143  46.4269043
  35.9294365  23.1853187  47.2182107  38.9335701  27.6032215  46.8112184
  39.6698466  28.4024148  47.4266703  39.4261716  26.7214494  45.9444267
  38.8553233  25.9944250  45.5374046  40.8523738  26.7441939  45.6235156
  41.4396192  26.7806441  46.5410740  41.2383524  25.4853483  44.8460444
  40.9575629  24.6841824  45.5297035  40.5691569  25.4793187  43.9856718
  42.6644002  25.2731492  44.3780399  42.8223420  25.8985230  43.4993688
  43.7100581  25.6282752  45.4566120  43.5530335  25.0029441  46.3354767
  44.7117710  25.4559049  45.0629617  43.6047815  26.6770963  45.7340854
  42.8057684  23.8050290  43.9862588  42.1040356  23.5730445  43.1851011
  43.8230981  23.6162580  43.6434658  42.5912879  23.1756759  44.8499785
  41.2695095  28.0115223  44.8325007  42.2858192  28.6635822  45.1429818
  40.5011391  28.3515099  43.8078036  39.7391376  27.7704367  43.4887316
  40.7949802  29.6028433  43.0593397  41.7831969  29.5780203  42.6000894
  39.7418835  29.8458946  41.9530995  38.7459832  29.7760025  42.3905889
  39.9304366  31.2449356  41.3227328  40.9260127  31.3154294  40.8846006
  39.1807445  31.3983064  40.5464985  39.8176786  32.0088404  42.0920420
  39.8138872  28.7467410  40.8546684  39.6268291  27.7711451  41.3033597
  39.0615274  28.9453070  40.0913690  40.8038326  28.7524991  40.3985152
  40.8405467  30.8004623  44.0261812  41.7691148  31.6397070  43.9738024
  39.8293711  30.8915274  44.8818616  39.0414173  30.2690067  44.7737128
  39.7279663  31.9894388  45.8770550  39.7902174  32.9499507  45.3655466
  38.3776227  31.9244933  46.6517739  37.5145640  32.0449770  45.9970125
  38.3134091  30.9643460  47.1637249  38.2647123  32.9891764  47.7152131
  38.2161147  32.7900092  49.0663103  38.2289371  31.7515124  49.3971574
  38.1597269  33.9834656  49.7365427  38.1279489  34.0972865  50.7396052
  38.1602916  35.0055564  48.8164693  38.1085817  36.3775053  49.0292210
  38.0619499  36.7441329  50.0546518  38.1199224  37.2078440  47.8994121
  38.0848680  38.2901631  48.0237355  38.1769897  36.6617336  46.5747666
  38.1776475  37.3047099  45.6946072  38.2343146  35.2640719  46.3752935
  38.2527173  34.8794792  45.3555629  38.2330743  34.4213667  47.5211662
  40.9677849  32.0768296  46.8200378  41.4947215  33.1471317  47.1083035
  41.4124259  30.9109687  47.3163812  40.9040886  30.0590684  47.1267539
  42.5999377  30.8362241  48.1773330  42.4328524  31.3704232  49.1126473
  42.8817953  29.3508737  48.5003182  43.4046560  29.2820086  49.4542436
  41.9375679  28.8100903  48.5642547  43.6928880  28.7749195  47.4686848
  43.8648461  27.8530428  47.6740467  43.8327456  31.4836369  47.5298746
  44.7166752  31.9742680  48.2199519  43.8988027  31.5168515  46.1908159
  43.1731641  31.0913291  45.6318179  45.0124101  32.1421337  45.5092627
  45.9347903  32.1236637  46.0897562  45.2590340  31.4687110  44.1156402
  44.3257148  31.4846423  43.5528243  46.3541919  32.2115849  43.3175245
  47.2879959  32.1956711  43.8795365  46.5009099  31.7193284  42.3561411
  46.0472129  33.2444687  43.1531649  45.5773687  29.9758641  44.3131176
  46.6356716  29.9108472  44.5658401  44.9806528  29.6365007  45.1597947
  45.2832946  29.0766046  43.0783291  45.8800375  29.4150927  42.2313205
  45.5384753  28.0429673  43.3119442  44.2250184  29.1407481  42.8252737
  44.7645672  33.6436048  45.2879834  45.6408862  34.4958229  45.5724588
  43.5996044  33.9365440  44.7113073  42.9887901  33.1776268  44.4447555
  43.1712063  35.3363078  44.3971441  43.8489479  35.8788897  43.7380763
  41.7781090  35.3187011  43.7597653  41.2066852  34.5237221  44.2389130
  41.0106671  36.6787237  43.9120557  41.5812944  37.4741597  43.4327155
  40.0317137  36.5990040  43.4394084  40.8850923  36.9091637  44.9699923
  41.9226570  34.8981054  42.3117738  42.3676645  33.9042175  42.2642638
  40.9408643  34.8790314  41.8386787  42.5636093  35.6079797  41.7889359
  43.1621773  36.2245355  45.6609459  43.4418856  37.4348928  45.5882854
  42.8458188  35.6397806  46.8114136  42.5704996  34.6683774  46.8373818
  42.7189641  36.4428418  48.0583998  42.2752839  37.4121593  47.8310883
  41.8226096  35.7188186  49.0711032  41.5122955  36.4248618  49.8413677
  40.9424665  35.3332239  48.5565501  42.5905085  34.5483186  49.7250404
  42.8690950  33.8306769  48.9533664  43.4907025  34.9360320  50.2019379
  41.7021347  33.8451305  50.7898514  40.7922228  33.4657018  50.3248857
  42.2486004  33.0191239  51.2450302  41.3312959  34.7965236  51.8385491
  40.4478605  35.2704380  51.7158848  42.0584280  35.0808448  52.9105632
  43.2415195  34.4772552  53.1011683  43.5768939  33.8054808  52.4256366
  43.7913095  34.6974342  53.9193076  41.5970529  35.9609670  53.7920584
  40.7019460  36.4029527  53.6386561  42.1434798  36.1841269  54.6116412
  44.0361820  36.8943266  48.6992653  44.0470693  37.7809721  49.5637403
  45.1333764  36.2634095  48.2866939  45.0253171  35.5255321  47.6055483
  46.4639558  36.5173981  48.8251986  46.4194237  36.6407462  49.9072805
  47.3707541  35.3295347  48.5060400  47.3193272  35.1376298  47.4342998
  48.3921272  35.5954499  48.7784112  46.9550633  34.0854601  49.2615701
  45.8879942  33.9110191  49.1236038  47.5140644  33.2263050  48.8907976
  47.2481260  34.2804838  50.7349203  46.7969947  35.2068547  51.0904713
  46.8579356  33.4420973  51.3119464  48.6965933  34.3559473  50.9376732
  49.2826662  34.1270972  50.1475810  49.2790738  34.7075841  52.0776982
  48.5281929  35.0359404  53.1288719  47.5212942  35.0154779  53.0524770
  48.9695545  35.3037109  53.9969724  50.6100188  34.7244764  52.1683801
  51.1709280  34.4692863  51.3681558  51.0505961  34.9923752  53.0368388
  47.0385867  37.8472534  48.2887592  47.9267097  37.8743402  47.4305903
  46.5546810  38.9318137  48.8717440  45.8133677  38.8385675  49.5513461
  46.9912498  40.2821989  48.4994855  46.8262971  40.4576433  47.4364196
  46.1815705  41.3040525  49.2940015  45.1180536  41.1984820  49.0797914
  46.3537275  41.1533377  50.3597158  46.5410396  42.7380360  48.9975386
  46.0686459  43.3514869  47.8319845  45.4414385  42.7898877  47.1396572
  46.4036325  44.6990485  47.5506825  46.0294435  45.1673020  46.6402859
  47.2039110  45.4236261  48.4267073  47.4680525  46.4574145  48.2039724
  47.6685270  44.8221480  49.5937317  48.2916172  45.3793076  50.2933260
  47.3232472  43.4671799  49.8700146  47.6781314  42.9896853  50.7833361
  48.5021285  40.4840205  48.6924171  49.1365217  41.1751342  47.9106644
  49.1021732  39.8092757  49.6836460  48.5551625  39.2688573  50.3384944
  50.5456243  39.9037644  49.8980985  50.8709767  40.9321885  49.7412901
  50.9221382  39.4797134  51.3402151  52.0115404  39.4813762  51.3762639
  50.5341197  40.1976838  52.0627524  50.4083286  38.0958668  51.6783826
  49.2659783  37.7199562  51.2655037  51.1229599  37.3912009  52.4094373
  51.4140504  39.1196122  48.9355771  52.6302586  39.3126940  48.9433873
  50.8255962  38.2488241  48.1228215  49.8197615  38.1573056  48.1273262
  51.5942708  37.4179485  47.1933388  52.6182891  37.7828680  47.1138424
  51.6269628  35.9741570  47.7159421  50.5954161  35.6576664  47.8703579
  52.0843995  35.3559028  46.9435345  52.3947904  35.8219129  48.9990596
  52.2656933  36.7130993  49.6132431  52.0321859  34.9502070  49.5438063
  53.8829306  35.6376861  48.6718530  54.1672849  36.3462408  47.8939121
  54.4715479  35.8285368  49.5691852  54.1493606  34.1939367  48.1773070
  54.4515053  33.6089801  49.0460042  53.2055987  33.8089308  47.7910647
  55.2078008  34.0909006  47.1100686  56.0824980  34.4472074  47.4679094
  55.3225941  33.1239069  46.8420280  54.9278213  34.6325192  46.3048607
  51.0071535  37.3630607  45.7880977  50.7274504  36.2856988  45.2913215
  50.8001554  38.5275844  45.1484608  51.3088603  39.8485732  45.5494819
  52.3275563  39.7502384  45.9245672  50.6729113  40.2639655  46.3312216
  51.2370942  40.6440713  44.2637680  52.2181075  40.6291693  43.7889104
  50.9657716  41.6721143  44.5037954  50.2338783  40.0281327  43.4230560
  50.4975113  40.1630099  42.3740542  49.2357806  40.4285622  43.6006987
  50.2716139  38.5242375  43.7857214  49.2852187  38.0618503  43.8220627
  51.1523996  37.7703071  42.7805516  50.6410817  37.2379766  41.8036666
  52.4501375  37.7036444  43.0263717  52.8405728  38.2127909  43.8063906
  53.3715626  37.0724288  42.0775447  53.1616006  37.4263724  41.0682187
  54.8389937  37.4234552  42.4300890  55.4605621  37.1160734  41.5890965
  54.8977664  38.5054306  42.5483056  55.3372498  36.7428095  43.7083062
  54.8123064  35.7917352  43.7977083  56.4068716  36.5587774  43.6075911
  55.1003239  37.5491824  44.9745111  54.0849815  38.2280662  45.1424615
  56.0668539  37.4829847  45.8789595  55.9786823  37.9933135  46.7460764
  56.8871178  36.9225137  45.6969137  53.0985321  35.5536359  41.9058840
  53.5563714  34.9373323  40.9270428  52.2943728  34.9584632  42.7896161
  51.9122781  35.4394510  43.5913353  51.9491688  33.5335339  42.5967748
  52.8701763  32.9512092  42.5695308  51.0459248  32.9554937  43.6520519
  50.7825175  31.9382550  43.3623238  51.7169411  32.9353774  45.0018913
  51.9802438  33.9523857  45.2925207  51.0362461  32.5117324  45.7403210
  52.6201859  32.3274499  44.9501848  49.8473572  33.7464168  43.7074643
  49.2593893  33.3898712  44.3773666  51.2352899  33.3469136  41.2549851
  51.3252840  32.2684059  40.6691709  50.5756197  34.3869542  40.7409581
  50.3375831  35.1852255  41.3120981  50.0249967  34.3169233  39.3670994
  50.5564366  33.5538932  38.7983674  48.5486661  33.9622874  39.3933714
  48.2627159  33.5847070  38.4116562  48.4630476  33.1623499  40.1288097
  47.6471669  35.0860418  39.7749475  46.9938638  35.8194194  38.7978511
  47.1690650  35.5781315  37.7494313  46.1440774  36.8279697  39.1308084
  45.6144610  37.3825738  38.3561971  45.9422458  37.1449541  40.4835721
  45.1191745  38.1836831  40.8134400  44.7387255  38.6188233  40.0469472
  46.5681474  36.4347288  41.4828975  46.4136803  36.6829393  42.5329603
  47.3965086  35.4010224  41.1387542  47.8756233  34.8048287  41.9153508
  50.2396954  35.5147154  38.4027007  49.9944698  35.4142346  37.1776713
  50.6872338  36.6313884  38.9244352  50.7672610  36.7636518  39.9225340
  51.0098197  37.7434228  38.0571961  50.4844542  37.6556532  37.1062035
  50.5690912  39.0451029  38.7430776  51.2597668  39.2202186  39.5679418
  50.6721211  39.8432530  38.0079305  49.1400643  39.0243282  39.2730847
  48.4334409  38.8637680  38.4588338  49.0206707  38.2372068  40.0175893
  48.8687556  40.3932299  39.9255422  49.3954275  40.3886754  40.8798456
  49.3142742  41.1404492  39.2688261  47.4436580  40.7217407  40.1506276
  46.8486717  40.4142594  39.2906584  47.0794826  40.2142606  41.0439021
  47.3188804  42.2816773  40.3450017  47.6558819  42.7520974  39.5172127
  46.3510529  42.5252414  40.5001996  47.8697942  42.5667437  41.1420778
  52.4967127  37.7660309  37.7088512  53.3656983  38.2122308  38.5497314
  52.8021925  37.4436987  36.4452919  52.0837967  37.3712331  35.7390656
  54.1993815  37.1105405  36.0655374  54.7075990  36.6640859  36.9202259
  54.2454740  36.1058577  34.8796428  53.4265785  36.2082197  34.1675814
  55.1892889  36.3275366  34.3814743  54.2961439  34.6554311  35.2711668
  55.1061299  34.1728319  36.2803040  54.9769721  32.8593119  36.3632108
  55.5219035  32.2939065  37.1191642  54.1343484  32.4639249  35.4241669
  53.8355772  31.5144330  35.2529925  53.7207169  33.5655574  34.7041851
  53.0503012  33.4405830  33.8538761  55.0908602  38.3202349  35.6929877
  56.3165538  38.1293814  35.3889940  54.4847810  39.5187690  35.7197850
  53.4917751  39.5647477  35.8984592  55.2127752  40.7704708  35.5298665
  56.0233125  40.6317957  34.8143963  54.2596825  41.8379566  34.9881447
  53.3293298  41.9400632  35.5468194  54.8026271  42.7828133  35.0117472
  53.8706083  41.5943449  33.5331521  54.8703683  41.6163708  32.5266270
  55.9025793  41.8322930  32.8023405  54.5390049  41.3623422  31.1808403
  55.2991343  41.4199380  30.4017468  53.2300913  41.0361539  30.8510839
  52.9800278  40.8265424  29.8110689  52.2186065  40.9737083  31.8540340
  51.1927934  40.7159685  31.5906374  52.5537543  41.2482805  33.1940206
  51.7897322  41.1921146  33.9694015  55.7668299  41.2693222  36.8626008
  56.3630187  42.3193955  36.9018203  55.4915537  40.5546178  37.9595955
  54.9029331  39.7348767  37.9189767  55.9905487  40.9929830  39.2773348
  56.3164706  42.0330876  39.2848472  54.9080904  40.7823854  40.3699105
  54.5562061  39.7522786  40.3137150  55.4917617  41.0694448  41.8400785
  55.8434415  42.0995710  41.8971903  54.7070697  40.9124003  42.5801435
  56.3210772  40.3912727  42.0411198  53.6987218  41.6524888  40.0220131
  54.0399192  42.6875246  40.0416617  53.4021374  41.3874413  39.0071796
  52.4883231  41.4908804  40.9713537  52.7840343  41.7562139  41.9863674
  51.6804957  42.1462472  40.6457642  52.1462539  40.4561294  40.9518869
  57.2719232  40.2719010  39.6672888  57.3160544  39.0222968  39.7655168
  58.2972594  41.0473194  39.9738698  58.2269446  42.0503048  39.8780812
  59.5492853  40.4893150  40.4238435  59.7448951  39.5395349  39.9260948
  60.6703441  41.4527098  40.0869791  60.6262731  41.6657405  39.0189084
  60.5076619  42.3732444  40.6475595  62.0716475  40.8686925  40.4427372
  62.1279181  40.8315800  41.5306513  62.0984811  39.8548895  40.0432557
  63.2638961  41.6652182  39.8961068  64.1654717  41.1402752  40.2118525
  63.1899562  41.6376822  38.8089665  63.3289990  43.0932473  40.3571583
  62.5231639  43.6360424  39.8630897  63.1634449  43.0995109  41.4344938
  64.6543013  43.7624936  40.0456569  64.8076974  43.7571785  39.0473879
  64.6364191  44.7159149  40.3784753  65.4010959  43.2599319  40.5037275
  59.5184654  40.2248044  41.9412994  59.9364040  39.1612722  42.4071497
  59.0252933  41.1875620  42.6999153  58.7590012  42.0759781  42.3000344
  58.8988615  41.0103335  44.1706892  58.6597190  39.9730797  44.4052409
  60.2396704  41.3781574  44.8599316  60.1990115  41.0750409  45.9061469
  61.0541305  40.8526537  44.3613330  60.4644994  42.7936438  44.7806136
  61.2956272  43.0101530  45.2095076  57.7573869  41.8714611  44.6895967
  57.2800346  42.8066891  44.0258751  57.2807321  41.5582008  45.8908949
  57.6492955  40.7953611  46.4407456  56.1963215  42.3385317  46.4418897
  56.2052100  43.3464058  46.0269077  54.8625116  41.6751409  46.0873833
  54.6934826  41.6886116  45.0106536  54.8299804  40.6466551  46.4469089
  53.4385617  42.5117619  46.8296541  52.5185255  41.6949103  46.3244956
  56.3889215  42.3719379  47.9517236  56.6890160  41.3398092  48.5491511
  56.3056188  43.5361237  48.5438226  56.2992505  44.4231370  48.0608463
  56.3986783  43.5420027  50.0015514  56.2758004  42.5297559  50.3867221
  57.7488636  44.0623682  50.4341128  57.9414667  43.7564605  51.4624239
  58.5201258  43.6512551  49.7827751  57.7657274  45.4631011  50.3521865
  58.6254250  45.7894293  50.6279212  55.2327149  44.2702196  50.6618133
  54.6471583  45.2247959  50.1101562  54.8852325  43.7786815  51.8523175
  55.3601927  42.9552079  52.1934968  53.8580305  44.3636617  52.6738789
  53.5146823  45.2954728  52.2245024  52.6668583  43.3977170  52.7721734
  53.0148918  42.4211665  53.1088054  51.7065652  43.9190627  53.7183778
  51.3577040  44.8954618  53.3821610  50.8598441  43.2364968  53.7909560
  52.1769599  44.0189384  54.6965676  51.9652907  43.2446776  51.4097741
  52.6723639  42.8533476  50.6783300  51.1262652  42.5558347  51.5079135
  51.5999900  44.2163821  51.0774390  54.4550679  44.6256172  54.0729895
  55.5461011  44.1713340  54.3828838  53.7160658  45.3367866  54.9024923
  52.9393442  45.8527193  54.5143991  54.0097152  45.4894048  56.3515436
  54.9018929  46.0950003  56.5108305  52.8184980  46.1967304  56.9946068
  51.9113776  45.7249979  56.6168498  52.8857310  46.0432882  58.0716561
  52.7755668  47.6994117  56.6945954  53.4093757  47.9155142  55.8345449
  51.7423896  47.9523841  56.4565847  53.2364372  48.5224644  57.8808811
  52.5435827  49.5192658  58.2303113  54.2831506  48.1474795  58.4756570
  54.3356923  44.1940743  57.1254956  53.6320376  43.1806548  56.9756390
  51.1976776  42.0917971  59.8287374  51.4980565  41.3274962  60.4167136
  49.7744943  42.4552954  59.8321041  49.3887251  42.3658275  60.8476221
  49.5399601  43.9027836  59.3400302  50.0086728  44.0257221  58.3636626
  48.4729010  44.1099139  59.2589008  50.1241357  44.9776923  60.2410890
  50.4010855  44.7239718  61.5949985  50.1929405  43.7374929  62.0092868
  50.9463654  45.7377759  62.4199368  51.1645422  45.5265789  63.4667870
  51.2072192  47.0188289  61.8895224  51.6262837  47.7987735  62.5252672
  50.9262388  47.2882495  60.5408339  51.1240270  48.2729927  60.1174417
  50.3797448  46.2638641  59.7276243  50.1483046  46.4637294  58.6813981
  48.9723469  41.4885084  58.9610952  49.4728542  41.0271919  57.9266443
  47.7390646  41.1783358  59.3770588  47.4335329  41.4127715  60.3107556
  46.8238376  40.4218851  58.5150328  47.3634691  39.6301818  57.9953185
  45.6756498  39.7871170  59.3221456  46.0862209  39.0885987  60.0512566
  45.1203073  40.5684443  59.8410122  44.7494962  39.0494656  58.3850169
  44.3381468  39.7474681  57.6558496  45.3040589  38.2676216  57.8660956
  43.6112627  38.4202037  59.1851303  42.5737035  39.1147398  59.3545170
  43.7901977  37.2509853  59.6193087  46.3083428  41.3880777  57.4293819
  46.0330053  42.5594127  57.7044375  46.2001589  40.9158790  56.1937033
  46.5080749  39.9882600  55.9391252  45.8205154  41.8341808  55.1284453
  46.3059986  42.7962964  55.2919655  46.2429094  41.2965197  53.7386540
  45.8997036  40.2636356  53.6798377  45.7194653  41.8957497  52.9936508
  47.8115159  41.3517778  53.4580650  48.2649393  40.7342684  54.2334296
  47.9477728  40.8740319  52.4878615  48.6305004  42.9999802  53.4412250
  49.4739449  43.1139341  55.0582716  50.1970264  42.3034117  55.1494057
  49.9903846  44.0709407  55.1326297  48.7382439  43.0355189  55.8587068
  44.3349039  42.2105741  55.2746806  43.4473184  41.3443821  55.3395600
  44.0927714  43.5139144  55.4101724  44.8727813  44.1526405  55.3492379
  42.7623876  44.0668743  55.6361924  41.9587987  43.3461475  55.4848751
  42.6748351  44.6060396  57.0744488  42.7884445  43.7824237  57.7793241
  43.4677047  45.3358321  57.2383411  41.3194866  45.2723319  57.2858949
  41.2053345  46.0963983  56.5816331  40.5260736  44.5429906  57.1226189
  41.2327017  45.8067722  58.7115410  41.3463128  44.9831575  59.4164171
  42.0255704  46.5365657  58.8754315  39.9278455  46.4617562  58.9539194
  39.2566523  46.4926313  58.1998333  39.5987096  47.0115576  60.1193758
  40.4287469  47.0105194  61.1585762  41.3395513  46.5824731  61.0730675
  40.1444569  47.4377802  62.0284768  38.3983991  47.5740952  60.2275740
  37.7704755  47.5731645  59.4364917  38.1203246  47.9996327  61.1003232
  42.5544147  45.2152976  54.6178633  43.5274853  45.7832059  54.1334589
  41.3012245  45.5406314  54.3016320  40.5541320  44.8874312  54.4894663
  40.9911504  46.7519634  53.5150178  41.3799737  46.6773019  52.4994681
  39.4467661  47.0432800  53.4419116  39.0574627  47.0332712  54.4599696
  39.1263360  48.3885840  52.7868583  39.5149508  48.3991757  51.7685424
  38.0463592  48.5343731  52.7645861  39.5891299  49.1918422  53.3601817
  38.7237454  45.9213075  52.6970036  38.8809422  44.9775676  53.2192546
  37.6567146  46.1401635  52.6564216  39.1172672  45.8449791  51.6833886
  41.8103221  47.9465172  53.9938884  41.8490953  48.2823152  55.2147681
  42.4842904  48.5763658  53.0287198  42.4683666  48.1703681  52.1040514
  43.2398908  49.8124396  53.2304194  43.1057558  50.4705695  52.3719486
  42.8894958  50.3156328  54.1315960  44.7177700  49.4953337  53.3841294
  45.5304353  50.4116876  53.3183822  45.0997976  48.2245933  53.6027952
  44.4305338  47.4796260  53.7339781  46.5447442  47.8813233  53.6042427
  47.0539223  48.4969136  54.3457853  46.7854069  46.4306141  53.9352884
  46.1511008  45.7810353  53.3321282  47.8304973  46.1620855  53.7810855
  46.4090803  46.0267107  55.6858125  46.7241076  44.7372931  55.6017986
  47.1228396  48.1042644  52.2052624  46.3853312  48.0315723  51.2036506
  48.4238052  48.3352180  52.1435534  48.9836251  48.4392536  52.9777462
  49.0718414  48.5653986  50.8277468  48.3836479  48.3541430  50.0092971
  49.5950740  50.0370713  50.6757694  50.1492775  50.1071180  49.7397929
  48.4310876  51.0712066  50.6679602  47.8766713  51.0020696  51.6038780
  48.8383204  52.0765932  50.5609165  47.7622640  50.8599295  49.8336116
  50.5130675  50.3170206  51.7435594  50.8384393  51.2161702  51.6583330
  50.1991995  47.5580018  50.5560236  50.7876057  46.9507274  51.5062246
  50.5225433  47.3424129  49.2706523  49.9850894  47.7434470  48.5153945
  51.6669316  46.4878153  48.9329791  52.2089274  46.2224924  49.8406925
  51.1974668  45.2060454  48.2535481  52.0824326  44.5860936  48.1100405
  50.5186034  44.7137031  48.9498552  50.4908630  45.4073312  46.9071885
  49.6709041  46.1149113  47.0300658  51.2017116  45.7985702  46.1793642
  49.9262797  44.0376193  46.4005802  50.7460737  43.3815627  46.1079602
  49.3430521  43.5603716  47.1880951  49.0574953  44.2529102  45.2364494
  49.1573912  45.1267175  44.7398802  48.1385137  43.3779504  44.8108297
  47.9635168  42.2091556  45.4491916  48.5292043  41.9884128  46.2562668
  47.2670418  41.5563635  45.1192149  47.3882512  43.6620282  43.7121583
  47.5275407  44.5334040  43.2208308  46.6953124  43.0002862  43.3927335
  52.6135596  47.2427992  48.0061886  52.1375430  48.1041221  47.2338104
  53.9166497  46.9809141  48.1071310  54.2760663  46.3922982  48.8449998
  54.8613791  47.6001976  47.2013831  54.3436511  48.3630296  46.6198814
  56.0361383  48.2599555  47.9418217  56.4613121  47.4538411  48.5397399
  56.7824978  48.6183557  47.2328810  55.6148121  49.4044552  48.8581113
  54.7234654  50.2135932  48.5397142  56.2647202  49.5346486  49.9108877
  55.3662594  46.5811629  46.2121120  56.1242393  45.6980710  46.5503372
  54.9992437  46.7716226  44.9451923  54.4832051  47.5988437  44.6815472
  55.3480271  45.8028037  43.8945196  55.6333961  44.8207597  44.2716843
  54.1368232  45.6323255  42.9266032  53.7583432  46.6250016  42.6827871
  54.5220164  44.8926827  41.6224653  54.9001778  43.8996831  41.8654603
  53.6436925  44.8001291  40.9836527  55.2938003  45.4566781  41.0986709
  52.9307252  44.9114759  43.6168940  52.6001254  45.4963638  44.4752133
  52.1099291  44.8141535  42.9063155  53.2411668  43.9212953  43.9504642
  56.5445608  46.3705643  43.1331635  56.5915174  47.6054607  42.8700365
  57.5085166  45.5109525  42.8156878  57.4965413  44.5819359  43.2117736
  58.6086932  45.8692245  41.9215241  58.5270310  46.9065356  41.5968457
  60.0069092  45.6305968  42.5362157  60.0523588  44.6146983  42.9286249
  61.1302234  45.8237480  41.4481583  61.0856989  46.8396259  41.0555894
  62.1073652  45.6516920  41.8994802  60.9757429  45.1137263  40.6356903
  60.2364395  46.5432489  43.7680500  60.3985425  47.5508038  43.3850922
  59.3153448  46.5202910  44.3504220  61.4431479  46.1311634  44.6821864
  62.3647252  46.1543389  44.1005869  61.5227221  46.8286276  45.5160394
  61.2815283  45.1238246  45.0659149  58.4169220  44.9946342  40.6658667
  58.2442159  43.7877084  40.7644649  58.3815772  45.6194168  39.4918294
  58.4169645  46.6216263  39.3717325  58.1000140  44.7883967  38.3177686
  57.6363393  43.8464484  38.6107506  57.2022107  45.4739884  37.2668808
  57.0865371  44.8272244  36.3971595  55.7858693  45.7429363  37.9151501
  55.9006862  46.3900531  38.7847235  55.1377270  46.2277866  37.1851280
  55.3411397  44.7966892  38.2232633  57.8343336  46.7151020  36.7675975
  58.7934127  46.4756359  36.3083314  57.1843557  47.1822874  36.0277555
  57.9915733  47.4029925  37.5983701  59.3783863  44.2326080  37.6777983
  60.4783456  44.6938416  37.9626460  59.1981577  43.2633057  36.8028184
  58.2740974  42.8917301  36.6350584  60.3118849  42.6929696  36.0700993
  61.1437548  42.4710163  36.7385514  59.9099039  41.3925053  35.2850394
  60.7728284  41.0195274  34.7333609  59.4300120  40.3099511  36.2873294
  58.5667630  40.6820519  36.8390927  59.1511832  39.4078788  35.7427003
  60.2344383  40.0782417  36.9854040  58.8284385  41.6707504  34.2073581
  57.9382987  42.0576367  34.7034135  59.2140474  42.4209462  33.5169875
  58.4442608  40.3146711  33.3789968  58.0581164  39.5641228  34.0686849
  57.6842952  40.5470345  32.6329681  59.3338663  39.9274310  32.8822605
  60.8483152  43.7007143  35.0742086  60.1545315  44.6776832  34.7457274
  62.0552118  43.4531624  34.5917829  62.5936617  42.6607057  34.9114444
  62.6646211  44.3581029  33.5907589  62.6520877  45.3840066  33.9588126
  64.1170310  43.9499735  33.3287286  64.5533540  44.6543041  32.6204632
  64.6655538  43.9948050  34.2695862  64.1958778  42.6280094  32.7946996
  65.1154655  42.3994270  32.6407242  61.9353137  44.3870603  32.2543723
  61.2282930  43.4312639  31.8909057  62.1626154  45.4662944  31.4970563
  62.6568197  46.2710504  31.8551475  61.6918460  45.5012521  30.1137222
  62.4438799  46.0263150  29.5247797  61.6146198  44.4705312  29.7676733
  60.3551297  46.1846219  29.9271817  59.8950173  46.3586799  28.7767651
  59.7210210  46.5850794  31.0361366  60.1441127  46.4539792  31.9438290
  58.3965443  47.2023505  30.9710465  57.9138903  46.9702742  30.0216862
  57.5208150  46.6462762  32.1201821  58.1125784  46.7639170  33.0279684
  56.6723793  47.3299614  32.1490173  57.0112069  45.2038769  32.0262907
  57.8404088  44.5344995  31.7972513  56.3786193  44.7988113  33.3951500
  55.5489932  45.4674988  33.6246635  56.0130708  43.7735344  33.3378590
  57.1315667  44.8722296  34.1798667  55.9672742  45.0648543  30.9994517
  56.3716676  45.3506699  30.0284343  55.6300038  44.0290453  30.9613782
  55.1254477  45.7116792  31.2465237  58.4902543  48.7295767  31.0905726
  59.5272425  49.2452191  31.5575613  57.4101869  49.4462343  30.7214719
  56.2421944  48.9530033  29.9652850  55.7608792  48.1463105  30.5181707
  56.5644709  48.5836884  28.9917126  55.3296955  50.2390125  29.8502582
  54.6296392  50.2892092  30.6842249  54.7758642  50.2339427  28.9114576
  56.3116721  51.3777420  29.8881535  55.7776079  52.2505592  30.2637390
  56.7891932  51.6248422  28.9399896  57.3597301  50.9393970  30.8978278
  58.3453446  51.3592548  30.6968757  56.9403121  51.2833430  32.3382512
  56.0695030  52.1407569  32.5787214  57.6360160  50.6392802  33.2836771
  58.3874579  50.0191246  33.0175166  57.3155825  50.7711732  34.7069089
  57.2559655  51.8207648  34.9948368  55.9989315  50.1066972  35.0300893
  56.0462142  49.0528434  34.7557600  55.7992579  50.1950107  36.0979991
  55.1994242  50.5918408  34.4701580  58.4376576  50.1550690  35.5009512
  59.1475698  49.2792815  35.0112831  58.6011048  50.6517850  36.7279774
  58.1072263  51.4915807  36.9942975  59.5195341  50.0584287  37.6871255
  59.9979432  49.1908926  37.2325871  60.6270488  51.0624948  38.1315032
  60.1811473  51.9176175  38.6394759  61.2710268  50.5231821  38.8261500
  61.4829763  51.5756827  36.9677166  61.7944142  52.7745106  36.8956125
  61.8975936  50.6888646  36.1049262  62.4645395  50.9782701  35.3207600
  61.6496233  49.7172090  36.2253288  58.8279711  49.5301486  38.9278050
  59.2092343  48.4860540  39.4256411  57.8483197  50.2743362  39.4308606
  57.4718213  51.0450722  38.8976493  57.2448880  49.9703363  40.7424079
  57.4320741  48.9251470  40.9886599  57.8370796  50.8543669  41.8608818
  57.3224605  50.6142557  42.7912656  59.3512348  50.6303029  42.0391940
  59.8666117  50.8706706  41.1092963  59.7228231  51.2736958  42.8367320
  59.5368085  49.5878270  42.2978577  57.6231955  52.2357629  41.5319747
  57.9898143  52.7901057  42.2247192  55.7726690  50.2811640  40.6786008
  55.3266563  51.1043373  39.8525722  55.0125529  49.7161025  41.5977238
  55.3963364  48.9927217  42.1889344  53.6302702  50.0675824  41.7622758
  53.4777589  51.0998960  41.4473660  52.7138846  49.1488666  40.9109594
  52.9460462  49.2980568  39.8564726  52.9058061  48.1105217  41.1813408
  51.3075498  49.4612556  41.1482534  50.7570054  48.8840126  40.6141268
  53.2518962  49.9668399  43.2471566  53.6795912  49.0242400  43.9299520
  52.4908329  50.9483342  43.7399299  52.2193875  51.7274553  43.1573605
  51.9642545  50.8878328  45.1177121  52.4529217  50.0703308  45.6478009
  52.2194687  52.2059203  45.8956351  51.6476270  53.0124226  45.4366674
  51.7762765  52.0356561  47.3861155  52.3480522  51.2295806  47.8459137
  51.9575674  52.9639204  47.9279256  50.7139487  51.7946546  47.4245668
  53.6157412  52.4945099  45.8347424  53.7953628  53.3083186  46.3112419
  50.4908471  50.7313448  45.0177309  49.8205383  51.5319451  44.3472906
  49.9660635  49.7090714  45.6882138  50.5419646  49.1836112  46.3303421
  48.5844261  49.3068221  45.5176301  48.0326221  50.0553946  44.9490787
  48.5505975  47.9905272  44.7508542  49.0745668  47.2159656  45.3108629
  47.5193378  47.6809089  44.5813254  49.2593827  48.2093036  43.3792937
  48.6386222  48.9231562  42.8378403  50.2217059  48.6666068  43.6093087
  49.4796122  46.9653616  42.5137025  49.2473620  45.8015864  42.9552476
  49.9055766  47.2184508  41.3567205  47.8700544  49.1262164  46.8664358
  48.4646669  48.6232160  47.8369200  46.6216366  49.5495683  46.8892852
  46.2358983  49.9367391  46.0399301  45.7561919  49.5025351  48.1005615
  46.3537275  49.2841827  48.9856448  45.0762751  50.8635007  48.2919218
  45.8754697  51.5695377  48.5175300  44.6310682  51.1149302  47.3292827
  43.9918356  50.9397280  49.3984453  43.2846033  50.1257068  49.2394084
  44.4806563  50.8121515  50.3643028  43.2276973  52.3061861  49.3770674
  43.9372197  53.1323307  49.3305680  42.5621169  52.3505995  48.5150178
  42.4187610  52.4447687  50.6081815  42.8593205  52.9538548  51.3610680
  41.1839028  51.9794374  50.7925155  40.5484985  51.2880267  49.8499968
  41.0049587  51.1053346  48.9677453  39.6125995  50.9490226  50.0210781
  40.5640097  52.1979789  51.9726075  41.0393666  52.7098677  52.7020634
  39.6279594  51.8485057  52.1201783  44.6923872  48.4142973  47.9593232
  43.9837458  48.3229162  46.9551784  44.6029786  47.5456354  48.9583165
  45.3104201  47.5152694  49.6785274  43.5262761  46.5675919  49.0070700
  43.4129403  46.0602368  48.0490277  43.8917309  45.5107914  50.0892328
  44.8095503  45.0251404  49.7577968  44.0793221  46.0433094  51.0216137
  42.8026434  44.4479379  50.3162301  41.8857214  44.9571386  50.6129955
  42.5408484  43.6195772  49.0584547  43.4572622  43.1096772  48.7613241
  41.7652707  42.8816907  49.2636459  42.2130730  44.2758569  48.2522534
  43.3292621  43.5393798  51.4729340  43.4852234  44.1426905  52.3672447
  42.5980011  42.7592606  51.6845298  44.2725018  43.0813941  51.1751976
  42.1493296  47.2244720  49.2933771  41.9966253  47.8628925  50.3282755
  41.2030002  47.1622100  48.3529697  41.3700482  46.5741697  47.5489778
  39.9202097  47.8926892  48.4326109  40.0463657  48.7831944  49.0483904
  39.4390561  48.3261407  47.0310303  39.5257574  47.4294571  46.4174013
  38.3991850  48.6522151  47.0520917  40.3039653  49.4291585  46.4412315
  40.8824384  50.2383538  47.2334517  40.3613142  49.5603303  45.1806939
  38.8106981  47.0356047  49.0306243  37.9183947  47.5294995  49.7615502
  38.8753714  45.7435888  48.7572123  39.5842539  45.3692972  48.1428095
  37.8390156  44.7935229  49.3206904  37.5884850  45.0410711  50.3522201
  36.5310236  44.7823648  48.4532387  36.0592902  45.7611366  48.5402661
  36.8110704  44.4854555  46.9957211  37.2824170  43.5065731  46.9078453
  35.8749716  44.4888391  46.4373231  37.4777849  45.2468309  46.5908774
  35.5057489  43.7981317  48.9924103  35.9223640  42.8006594  48.8524759
  35.4030140  44.0021732  50.0582021  34.1971540  43.8712254  48.3559116
  34.2990247  43.6668233  47.2901058  33.5324035  43.1332766  48.8049523
  33.7796756  44.8683385  48.4958301  38.4320713  43.4208575  49.4010363
  39.1891440  43.0508782  48.4930240  38.1383219  42.6734894  50.5044212
  37.6435965  43.0782544  51.2864132  38.5688888  41.2890945  50.6035772
  38.7245072  40.8928512  49.6001464  39.8979236  41.1447187  51.4083438
  40.5737592  41.8818822  50.9748285  39.6675649  41.4240562  52.4364515
  40.5683913  39.7642686  51.3916290  39.8498964  39.0317190  51.7593748
  41.0343720  39.3612624  49.9649833  41.7532851  40.0931441  49.5967279
  41.5031693  38.3778333  49.9995818  40.1739753  39.3297310  49.2965347
  41.8013722  39.7557327  52.3327928  41.4842500  39.9855652  53.3499998
  42.2681421  38.7709503  52.3120377  42.5193710  40.5046762  51.9986369
  37.4247301  40.5262234  51.2726851  37.4256547  40.3180105  52.5166435
  36.4278626  40.1572749  50.4790540  36.5172771  40.2601315  49.4782918
  35.1902457  39.6117741  51.0071063  35.0659183  39.9315241  52.0417086
  33.9824847  40.0906041  50.1988617  34.0943304  41.1739792  50.1554088
  34.0159451  39.6816145  49.1890558  32.6405005  39.7423783  50.8454893
  32.5310467  38.6415399  51.4404227  31.6635452  40.5456539  50.6973619
  35.3021340  38.0982303  50.9346772  34.9986424  37.5072198  49.9060725
  35.6947455  37.4771137  52.0446431  36.0439024  37.9891034  52.8421738
  35.7884054  36.0112727  52.0627300  36.3057716  35.6744754  51.1643988
  36.5661959  35.5003453  53.3036213  36.1739705  36.0295975  54.1720397
  36.3799253  34.4321796  53.4150898  38.0461019  35.7420749  53.1961497
  38.6345726  35.5165541  52.1141083  38.6593252  36.1503208  54.2017452
  34.4636338  35.2655450  51.9129990  34.4669187  34.0525020  51.5539088
  33.3345220  35.9260305  52.1451681  33.3207381  36.8966580  52.4240795
  32.0742070  35.2252035  52.0394629  32.2134641  34.1829245  52.3264492
  31.0182000  35.8459908  52.9523321  31.3999013  35.7514889  53.9689308
  30.9629562  36.9005135  52.6820912  29.6233043  35.2261952  52.8725492
  28.9669679  35.7726164  53.5498581  29.2842077  35.3672387  51.8462845
  29.5882545  33.7142606  53.2257991  30.4917110  33.2186818  53.9699555
  28.6418682  33.0677935  52.7676514  31.5710832  35.2291200  50.6214498
  31.1012056  34.1972320  50.1038948  31.6882947  36.3600761  49.9637729
  32.0720979  37.1848615  50.4025478  31.1792479  36.4746342  48.5880960
  30.4117896  35.7231000  48.4028847  30.5724110  37.8403528  48.3948439
  31.3735171  38.5725770  48.4957194  30.1697682  37.8802180  47.3827225
  29.4411524  38.1644157  49.4167535  28.7811345  37.2998560  49.4875614
  29.8969533  38.3534701  50.3886619  28.6411038  39.3755954  48.9912666
  28.0232968  39.6951535  49.8304901  29.3347587  40.1737101  48.7267762
  27.7659104  39.1080480  47.8353329  27.3137659  38.2061330  47.7882793
  27.5283737  39.9936171  46.8592725  28.1391981  41.1706937  46.8803004
  28.7782442  41.3912413  47.6306862  27.9624910  41.8410898  46.1458323
  26.6926066  39.7168798  45.8418563  26.2273917  38.8212062  45.8038566
  26.5342249  40.4060677  45.1207225  32.2679152  36.1965226  47.5108107
  31.9243951  36.0255067  46.3354297  33.5218927  36.1088181  47.9433720
  33.6719711  36.2879081  48.9259720  34.7003143  35.8314103  47.0930023
  35.5927210  35.8248722  47.7188351  34.5954173  34.4698547  46.3678170
  33.6540178  34.4451712  45.8189482  35.4262825  34.3896313  45.6668695
  34.6425323  33.3115704  47.3398806  35.5965373  33.3217462  47.8670160
  33.8295426  33.4110579  48.0590829  34.4952590  32.0079817  46.5911563
  33.5443245  32.0019520  46.0584405  35.3120866  31.9066965  45.8765701
  34.5278290  30.8636832  47.5070609  35.2087212  30.8648052  48.2530393
  33.7286640  29.8046799  47.3768747  32.7932508  29.7604187  46.4170043
  32.6891549  30.5383481  45.7813237  32.1970897  28.9493564  46.3341213
  33.8342189  28.8028424  48.2329289  34.5168207  28.8473681  48.9760119
  33.2317751  27.9975421  48.1399150  34.8277771  36.9678242  46.1111787
  34.7587626  36.7726177  44.8695747  35.0008382  38.1567123  46.6897742
  35.0475715  38.2188529  47.6967767  35.1940524  39.3953862  45.8997778
  35.3412469  39.2128497  44.8352998  34.0222486  40.3617153  46.0722134
  33.9093714  40.6078855  47.1280345  34.2914068  41.6698015  45.2581456
  34.4039426  41.4244735  44.2020912  33.4535821  42.3555878  45.3840319
  35.2045446  42.1422597  45.6201736  32.6986350  39.6915062  45.6958999
  32.5342325  38.8253439  46.3368655  31.8813845  40.4006363  45.8275649
  32.7363525  39.3705743  44.6549000  36.4332680  40.0721648  46.4623916
  36.5820723  40.2590690  47.6978583  37.3538448  40.4651235  45.5620028
  37.3219935  40.1187081  44.6138039  38.4874970  41.2529223  45.9619025
  38.2121616  41.7947280  46.8667430  39.7976775  40.4126330  46.2541128
  39.5344174  39.5696616  46.8930131  40.4320755  39.8882937  44.9448377
  40.6960435  40.7307698  44.3055768  41.3293821  39.3155737  45.1792134
  39.7185765  39.2484440  44.4255958  40.7728406  41.2135748  46.9205955
  41.5581639  40.6876522  47.0887415  38.7246149  42.3731773  44.9340501
  38.0572522  42.4274121  43.9031270  39.5983568  43.3019178  45.2652982
  40.1431655  43.2507523  46.1142180  39.7989785  44.4687863  44.3694238
  40.1131251  44.1394807  43.3789851  38.8788826  45.0470010  44.2846259
  40.8727678  45.3413932  44.9584083  41.1176561  45.3161853  46.1863054
  41.5751323  46.0860594  44.1096553  41.4096719  46.0134406  43.1159508
  42.6122202  46.9930422  44.5707636  42.3803292  47.3302564  45.5810173
  44.0010466  46.2867123  44.5880872  44.7434106  46.8920358  45.1082588
  43.8964080  45.3269418  45.0940431  44.5655003  45.9936839  43.2179922
  45.4987639  46.8691946  42.6428288  45.7990634  47.7543899  43.2034976
  46.0474144  46.6229657  41.3643911  46.7748257  47.3006202  40.9174484
  45.6320109  45.4643392  40.6605461  46.0261439  45.2689466  39.6632594
  44.7038788  44.5571780  41.2505727  44.3896330  43.6552466  40.7253400
  44.1897104  44.8417883  42.5369388  43.4882710  44.1532421  43.0080936
  42.6893864  48.2175330  43.6884323  42.1503503  48.2221781  42.5505973
  43.3654854  49.2381310  44.2284877  43.7523930  49.1634217  45.1584449
  43.5798194  50.4789561  43.4864425  43.1450348  50.4137823  42.4890389
  42.8941536  51.6250239  44.2471875  43.0859440  51.5026979  45.3131856
  43.3152021  52.5718699  43.9091035  41.4841847  51.6205409  44.0135537
  41.0773796  52.3430863  44.4973281  45.0716663  50.7369373  43.4050150
  45.7918712  50.5640059  44.3979272  45.5440658  51.2366504  42.2516982
  44.9487394  51.3542812  41.4443266  46.9245718  51.5825359  42.1312185
  47.4576280  50.9038519  42.7970551  47.4105065  51.3595802  40.6627437
  46.7921883  51.9488288  39.9855664  48.8423283  51.7842904  40.5289098
  49.4613708  51.1951218  41.2054949  49.1743826  51.6261049  39.5028406
  48.9335403  52.8408156  40.7809696  47.3792751  49.8504326  40.3599184
  48.0954240  49.3474939  41.0097523  46.3772573  49.4726483  40.5632382
  47.7697802  49.5559310  38.7747286  48.7719181  49.9330482  38.5707627
  47.7406163  48.4827653  38.5861440  47.0537522  50.0582049  38.1242483
  47.0492817  53.0357123  42.5538563  46.4746639  53.9224619  41.8744421
  47.7175266  53.2724886  43.6695600  48.1559901  52.5142407  44.1724607
  47.7464513  54.6280205  44.2745291  46.9983064  55.2631942  43.8002584
  47.4828112  54.5680787  45.7844784  47.4507932  55.5769185  46.1959603
  46.1115372  53.8658030  46.0238225  46.1429428  52.8566780  45.6129928
  45.9102321  53.8157854  47.0939044  45.3214005  54.4332772  45.5321355
  48.5719944  53.8293627  46.5425975  48.5376349  52.7814636  46.2445579
  49.5320259  54.2573470  46.2540348  48.3922787  53.9400950  48.1547624
  47.4326073  53.5118619  48.4441530  49.1965802  53.3950183  48.6488168
  48.4269961  54.9877462  48.4536296  49.0204882  55.4126255  44.0073135
  49.0940400  56.5899238  44.3518288  50.0322556  54.7314046  43.4735862
  49.9379540  53.7368218  43.3252232  51.2660974  55.3620899  43.0963428
  51.0447481  56.1621135  42.3898968  51.7271037  55.7839472  43.9894324
  52.2367129  54.3888157  42.4521784  51.8777081  53.2590297  42.0736601
  53.4624683  54.8633397  42.2944646  53.6739429  55.8127357  42.5665400
  54.5450393  54.0421237  41.7272826  55.3520578  53.9640561  42.4557919
  54.1587958  53.0472301  41.5056925  55.0879236  54.6539256  40.4550794
  54.5210551  55.6176144  39.9287544  56.1776798  54.0673597  39.9514715
  56.6129719  53.2936467  40.4331231  56.8067318  54.5629907  38.7126368
  56.5874605  55.6227187  38.5822681  58.3130589  54.3841224  38.7821322
  58.5141256  53.3257994  38.9483364  58.7276311  54.6854848  37.8201495
  58.9710060  55.2193590  39.9132694  58.8370382  56.2742795  39.6739028
  58.4132030  54.9790122  40.8183597  60.4560884  54.9328368  40.1389708
  61.1481465  54.3454136  39.2811110  60.9572106  55.3390122  41.2111551
  56.2283260  53.8304191  37.5165220  56.7120204  52.7691659  37.1697420
  55.1692106  54.3882401  36.9316020  54.8384999  55.2687324  37.2996551
  54.4732442  53.8122677  35.7815544  55.2082514  53.5639428  35.0159185
  53.6855539  52.5331056  36.1431857  53.1407202  52.1000020  35.3043313
  54.4090370  51.8093153  36.5184188  52.6987948  52.7447653  37.2246975
  51.4500498  53.3022061  37.0108994  50.8290366  53.4102485  38.1830118
  49.8097723  53.7930032  38.2349556  51.6494783  52.9931781  39.1341778
  51.4615676  53.0031499  40.1264933  52.8074980  52.5401455  38.5579133
  53.5949273  52.1136970  39.1793616  53.4895822  54.8727411  35.2957374
  53.3172665  55.9278649  35.9398383  52.8131121  54.6005664  34.1887689
  52.9840801  53.7471361  33.6763960  51.9445303  55.6121678  33.5826977
  52.1859333  56.5972531  33.9819855  52.1472789  55.6382044  32.0280980
  51.7571045  54.7082362  31.6145495  51.5859173  56.4796130  31.6218903
  53.5732395  55.7775082  31.6667783  53.9956775  56.6251782  32.2063175
  54.1023070  54.8674015  31.9494363  53.7234294  56.0095138  30.1415615
  54.7869664  56.1230585  29.9315722  53.3470009  55.1195943  29.6371366
  53.0149891  57.1791662  29.6199683  53.2343471  58.0599302  30.0629540
  52.1219572  57.1689038  28.6407611  51.7346022  56.0312314  28.0656415
  52.1250685  55.1532246  28.3766724  51.0522724  56.0520215  27.3212669
  51.5950401  58.3331721  28.2023324  51.8841687  59.2048150  28.6227409
  50.9143934  58.3266205  27.4561583  50.4483113  55.6056784  33.9198081
  49.6990167  56.4936207  33.4635701  49.9795300  54.6477777  34.7255273
  50.6222176  53.9728672  35.1148188  48.5501055  54.4882924  35.0063814
  47.9860966  54.8147974  34.1326609  48.1603444  53.0339269  35.3282995
  48.7237372  52.8566201  36.2444055  47.0932992  52.9622783  35.5389674
  48.5492378  51.9735842  34.2706567  49.6080522  52.0802930  34.0348048
  48.2786269  50.5289623  34.8150007  47.2198618  50.4213378  35.0506537
  48.5580430  49.7965049  34.0576808  48.8695096  50.3629423  35.7157756
  47.8635664  52.2252970  32.9372567  48.1521081  53.2060547  32.5591595
  48.1638609  51.4584444  32.2232108  46.7824454  52.1921125  33.0720714
  48.0618222  55.3702594  36.1270221  48.6430715  55.4087718  37.2040584
  46.9806459  56.0692623  35.8794906  46.5854826  56.1293201  34.9519464
  46.4018781  56.8933352  36.9310313  46.9164794  56.6596078  37.8630485
  46.5268094  58.4839690  36.6558693  46.0865742  59.0148198  37.4999610
  47.9706068  58.9103878  36.4891771  48.4114100  58.3802638  35.6449255
  48.0140862  59.9840296  36.3061422  48.5268137  58.6741710  37.3963354
  45.8302416  58.7915839  35.4774991  45.8967775  59.7332459  35.3030115
  44.9686551  56.4893393  37.1893880  44.1793774  56.1991025  36.2605240
  44.6400973  56.4373548  38.4720635  45.3645476  56.5766820  39.1618889
  43.3108551  56.0354610  38.9334685  43.3241676  55.8445848  40.0065427
  42.2945457  57.1789758  38.6440982  42.3567845  57.3942877  37.5773900
  41.2706851  56.9064302  38.9000833  42.6710990  58.4352253  39.4166482
  43.0679791  59.4806676  38.8242543  42.6285236  58.3395406  40.7282094
  42.8672735  59.1387026  41.2978044  42.3572879  57.4673724  41.1593180
  42.8378617  54.6959321  38.4050820  41.6316749  54.4926620  38.1646245
  43.7934596  53.7732274  38.2885028  44.7630145  54.0214472  38.4243316
  43.4679446  52.3693660  37.9881326  42.7865661  52.3094664  37.1394663
  44.7720224  51.6093293  37.6313142  45.2749393  52.1540059  36.8322515
  45.4080327  51.5944728  38.5163962  44.5013779  50.1901770  37.1812094
  44.3731239  49.8753663  35.8078347  44.4837434  50.6702170  35.0702202
  44.1027952  48.5394702  35.3826558  44.0260263  48.2982262  34.3224626
  43.9855738  47.5247294  36.3426439  43.7154059  46.1979992  35.9436559
  43.6307091  46.1023030  34.9922000  44.0874042  47.8304755  37.7194296
  43.9442432  47.0425486  38.4588730  44.3710551  49.1398028  38.1355742
  44.4935454  49.3601520  39.1960186  42.8352203  51.6792069  39.2157275
  43.3630899  51.7448453  40.3295306  41.7101636  51.0075823  38.9824041
  41.2914225  51.0220410  38.0634122  41.0335121  50.2438332  40.0470637
  41.7527478  49.9666237  40.8177478  39.9123263  51.0993874  40.6989498
  40.3771547  52.0199189  41.0520157  39.1925295  51.3340153  39.9147672
  39.2060690  50.4251351  41.8412870  38.8386629  49.4604264  41.4913574
  39.9284257  50.2693187  42.6425511  38.0014153  51.2800944  42.3809156
  38.3233617  52.3137630  42.5073231  37.1829362  51.2403284  41.6621597
  37.5080887  50.7051767  43.7767861  38.4117188  50.5476747  44.3656378
  36.9144883  51.4998709  44.2286700  36.6927196  49.4184265  43.7443485
  37.2427381  48.6818086  43.3260502  36.4398297  49.1562916  44.6863846
  35.8551399  49.5642815  43.1991094  40.4604187  49.0057471  39.4138805
  39.8085668  49.0964115  38.3683184  40.6669717  47.8398351  40.0393444
  41.2820776  47.7574757  40.8361888  40.0804198  46.6194540  39.4873302
  39.3369205  46.9009548  38.7416324  41.1322592  45.6813067  38.8140320
  40.6122263  44.8525765  38.3335414  41.6836527  46.2476582  38.0634913
  42.0313309  45.1770690  39.7762063  42.6703770  44.6032575  39.3473004
  39.2857487  45.8697319  40.5527693  39.5359981  46.0272960  41.7755067
  38.3521747  45.0470669  40.0838909  38.1491245  45.0033331  39.0954794
  37.5928463  44.1920818  40.9821398  38.0422420  44.1206174  41.9726122
  36.1493121  44.7444184  41.1309160  35.7925014  44.9883022  40.1302632
  35.1574917  43.7496198  41.8079396  35.5134176  43.5056100  42.8088776
  34.1711518  44.2086121  41.8754680  35.0936455  42.8382886  41.2133803
  36.1735742  46.0365013  41.9163803  36.7873132  46.7692986  41.3925152
  35.1582282  46.4197465  42.0178463  36.5926969  45.8530681  42.9057180
  37.5940602  42.7938747  40.3406811  37.3644128  42.6494240  39.1493855
  37.8238010  41.7746253  41.1731629  37.8951197  41.9631457  42.1628462
  37.9042418  40.3968167  40.7282341  37.7367761  40.3205503  39.6538794
  39.2919186  39.8420197  41.0467029  39.4904117  39.9707708  42.1107160
  39.3708833  38.2880833  40.6740364  39.1729429  38.1585767  39.6100123
  40.3656374  37.9081635  40.9068977  38.6279403  37.7373502  41.2509499
  40.2406495  40.5823485  40.2966149  41.1227454  40.2511484  40.4804997
  36.8602399  39.5667117  41.5571362  36.8738360  39.6160940  42.8115893
  35.9905515  38.8396964  40.8792536  35.9932049  38.8906456  39.8705433
  34.9591996  38.0429576  41.5271815  35.1374872  38.0542344  42.6024422
  33.5565087  38.5667968  41.2616767  32.8399604  37.9240227  41.7730476
  33.4033831  40.0054502  41.7672754  34.1193411  40.6489461  41.2559861
  32.3913733  40.3563387  41.5652544  33.5903764  40.0357190  42.8406896
  33.2678597  38.5600630  39.8508842  32.3796582  38.8935925  39.7044039
  35.0784225  36.5959955  41.1220993  35.3911740  36.3060139  39.9668339
  34.8482322  35.6893565  42.0835124  34.6115068  35.9853004  43.0197162
  35.0139196  34.2238797  41.8226496  35.3392673  34.0360009  40.7994441
  36.0611170  33.6290326  42.7908828  35.7157416  33.7981489  43.8107920
  36.2662340  32.1432219  42.5668282  36.6120784  31.9733445  41.5472036
  37.0105185  31.7686255  43.2695504  35.3237381  31.6182639  42.7224632
  37.4001335  34.3593518  42.6177506  37.2675479  35.4189834  42.8361630
  38.1360056  33.9371521  43.3021038  37.7490156  34.2412496  41.5918686
  33.6612515  33.5084723  41.9402096  32.9417868  33.7052425  42.9483931
  33.2906437  32.7326428  40.9237021  33.9382615  32.5789018  40.1640613
  31.9686627  32.1218017  40.8397647  31.3940052  32.3142325  41.7457660
  31.2243008  32.7408284  39.6449504  31.7813007  32.4686756  38.7484108
  30.1857484  32.4284813  39.5356415  31.2174314  34.2287360  39.7069974
  30.2606568  34.9248059  40.4317857  29.4864225  34.5064034  40.9273665
  30.5339089  36.2229000  40.3634339  29.8956742  36.9479837  40.8684181
  31.6306206  36.3883543  39.6254282  32.0887661  35.1593029  39.2176397
  32.9956446  35.0874760  38.6172119  31.9972070  30.6233126  40.6847273
  32.7313692  30.0832578  39.8379801  31.1883772  29.9434858  41.5148789
  30.7237662  30.4532322  42.2527099  30.9434669  28.4718365  41.4066511
  31.8669186  27.9472193  41.1614716  30.4271329  27.9516748  42.7545588
  31.1265839  28.2833026  43.5219508  29.4531940  28.4088207  42.9293749
  30.2953259  26.4571179  42.8101963  29.5176008  26.1263749  42.1218261
  31.2421441  25.9898328  42.5394900  29.9244577  26.0614781  44.2121778
  30.5997413  26.5474488  44.9163963  28.9003427  26.3730464  44.4176360
  30.0189911  24.6193170  44.3943608  30.8893227  24.2622447  44.7619499
  29.0492511  23.7598724  44.1186773  27.8888275  24.1850009  43.6247261
  27.7451485  25.1707705  43.4582490  27.1572095  23.5199024  43.4186223
  29.2468919  22.4617000  44.3341781  30.1308931  22.1432625  44.7046366
  28.5119942  21.8007854  44.1262937  29.9257887  28.0793876  40.3494832
  28.8441080  28.7153969  40.2021194  30.2750942  27.0398791  39.5799719
  31.2275229  26.7048690  39.6073049  29.3388573  26.3924427  38.6631238
  28.3297914  26.7550837  38.8590238  29.6912867  26.6936590  37.2115618
  30.7558472  26.5840950  37.0046660  29.1260105  26.0131470  36.5747994
  29.3130122  28.0881054  36.7936857  28.0789544  28.3279003  36.2271366
  27.3944128  27.4951379  36.0658620  27.7023425  29.6234092  35.8605986
  26.7379018  29.8178977  35.3914193  28.5962351  30.6906393  36.1079384
  28.2958743  31.7092982  35.8625463  29.8517667  30.4487247  36.6604740
  30.5655547  31.2602790  36.8018481  30.1873303  29.1625390  37.0304922
  31.1439444  28.9668269  37.5149364  29.3441854  24.8803129  38.9023755
  30.3808148  24.3126383  39.2030714  28.1798087  24.2643413  38.7791370
  27.3427321  24.7971483  38.5906725  28.0598251  22.8091886  38.9267121
  29.0050370  22.3405520  38.6527533  27.7180559  22.4162088  40.3671016
  28.5594999  22.7325804  40.9835270  26.8313892  22.9870415  40.6429134
  27.4464443  20.8799548  40.5974447  26.4777388  20.6334228  40.1627811
  28.2287726  20.3273379  40.0771793  27.4522351  20.4949824  42.0924596
  27.2466416  21.3925283  42.9506698  27.6525888  19.2876482  42.4144078
  26.9775415  22.3341942  37.9993224  25.9057081  22.9505653  37.9258935
  27.2676577  21.2578518  37.2826211  28.1705666  20.8248190  37.4142926
  26.3590565  20.6808682  36.2892115  25.3362253  20.6926760  36.6657430
  26.4139915  21.5022505  34.9895752  26.1888078  22.5284290  35.2800046
  27.4465134  21.4407572  34.6457478  25.4805506  21.0770862  33.8677021
  25.7250757  20.0618729  33.5552115  24.4493806  21.1099961  34.2194225
  25.6448837  22.0284486  32.6820756  25.3171592  23.0177871  33.0013013
  26.7039851  22.0619932  32.4265793  24.8431780  21.5979166  31.4635276
  25.2541603  20.6666894  31.0736429  23.8040335  21.4425388  31.7535891
  24.9130083  22.6558226  30.4053364  25.8757812  22.7996471  30.1361102
  24.3784871  22.3623979  29.6001724  24.5318388  23.5186876  30.7662696
  26.8434627  19.2441294  36.0975833  27.9995598  19.0234006  35.7285680
  25.9593429  18.2738220  36.3811177  24.9926002  18.5503273  36.4762624
  26.3020686  16.8477313  36.5673390  25.3772046  16.2713802  36.5439917
  27.2535055  16.2923978  35.4973873  28.1627199  16.8913973  35.5486507
  27.4789716  15.2653726  35.7845885  26.7099731  16.3139152  34.0705228
  25.6903674  15.9293722  34.0956569  26.6992476  17.3483091  33.7269919
  27.5545567  15.4632688  33.1077844  28.8137911  15.4162065  33.2739408
  26.9473690  14.8478499  32.1847352  26.9621900  16.7220469  37.9145967
  26.5348041  17.3439817  38.8910128  28.0097808  15.9179347  37.9820586
  28.2327169  15.2504101  37.2576210  28.8181649  15.9256445  39.1776779
  28.2815174  16.4487674  39.9691646  29.1190599  14.4901066  39.6521040
  28.1829353  13.9718181  39.8598227  29.6642701  13.9563937  38.8736462
  29.9625396  14.4972092  40.9189812  30.3131256  15.5590109  41.4289887
  30.2882892  13.3063616  41.4269114  30.8468873  13.2546907  42.2667912
  29.9746460  12.4625423  40.9689836  30.1009636  16.7311353  38.9118808
  31.1254575  16.5062691  39.5745659  30.0366496  17.6869128  37.9702831
  29.2336983  17.7505196  37.3609206  31.2440643  18.4643008  37.6216218
  32.0731995  18.1342622  38.2474880  31.6381931  18.2825466  36.1495243
  32.7222617  18.3955401  36.1382565  31.3787329  17.2490349  35.9201036
  31.0219061  19.2031080  35.1069980  30.0307493  18.8453938  34.8281617
  30.9445849  20.2171504  35.4992242  31.9479437  19.2008303  33.8506003
  31.9901881  18.2062014  33.4067222  31.5898147  19.9143917  33.1085267
  33.3052437  19.5909698  34.2630972  33.7872729  18.9577142  34.8849772
  33.9302682  20.7092865  33.8814768  33.3270615  21.5349353  33.0199243
  32.4086252  21.3078642  32.6663518  33.7926123  22.3818998  32.7266441
  35.1576607  20.9916112  34.3602610  35.6024653  20.3562250  35.0072025
  35.6273452  21.8373485  34.0700479  31.2103632  19.9321653  38.1191276
  30.2547425  20.6482378  37.9057050  32.2531473  20.3249737  38.8375765
  33.0520498  19.7151189  38.9372321  32.2961083  21.6346237  39.4850525
  31.3650811  22.1960489  39.4070187  32.6623505  21.4560251  40.9627867
  33.5618844  20.8443848  41.0323222  32.9162658  22.8136540  41.6240572
  32.0169639  23.4257261  41.5553225  33.1747387  22.6650428  42.6724881
  33.7380900  23.3179423  41.1157291  31.5600543  20.6296752  41.6819542
  30.6743290  21.2597924  41.7628493  31.3345336  19.7652344  41.0574689
  31.9917672  20.1407673  43.1219171  32.2170157  21.0047310  43.7471608
  31.1791684  19.5698017  43.5711172  32.8772223  19.5101744  43.0417804
  33.3747245  22.4618948  38.7766279  34.4800016  21.9858833  38.6219653
  33.0686663  23.6817762  38.3299795  32.1242667  24.0352028  38.2725477
  34.1638743  24.5167138  37.7903948  35.1168736  24.1653607  38.1859229
  34.2127233  24.4451832  36.2542770  35.1266298  24.8963948  35.8679063
  34.1899671  23.3880793  35.9894874  33.0622301  25.1004573  35.5200855
  33.0593794  26.3559005  34.9356890  33.9670387  26.9475559  35.0548453
  31.8575607  26.5945020  34.3031914  31.6075377  27.4413119  33.8127824
  31.0509747  25.5056501  34.4665729  29.7373152  25.2885818  34.0229819
  29.2408596  26.0735887  33.4525481  29.1526626  24.0787212  34.3427330
  28.1339663  23.8695813  34.0162085  29.8445359  23.1044441  35.0839781
  29.3678497  22.1561949  35.3323593  31.1529077  23.3152560  35.5233384
  31.6522190  22.5110108  36.0636889  31.7728058  24.5402088  35.2317650
  33.9943891  25.9520697  38.3158805  33.0411952  26.2551691  39.0724875
  34.9464732  26.8047710  37.9525485  35.6843134  26.4964596  37.3355920
  34.9483659  28.1944646  38.3913995  34.0672516  28.4059793  38.9972033
  36.2035772  28.4651174  39.2381945  37.0801692  28.2309734  38.6341553
  36.2753193  29.8803079  39.6872421  35.3992297  30.1150740  40.2917680
  37.1767202  30.0280638  40.2820057  36.3026882  30.5370039  38.8177009
  36.2167206  27.6231771  40.4171961  37.0060112  27.8060031  40.9321673
  34.9881022  29.1356575  37.1593163  35.6198836  28.8301379  36.1409725
  34.3111835  30.2765639  37.2962898  33.6203791  30.3660645  38.0276435
  34.5048334  31.4108979  36.3754575  35.2675101  31.1440619  35.6438689
  33.2165198  31.7883460  35.6265932  32.4184561  31.9368909  36.3540050
  33.4181638  33.1086157  34.7921438  34.2158145  32.9606831  34.0641533
  32.4927872  33.3548400  34.2714211  33.6856564  33.9254376  35.4624806
  32.8226845  30.6414518  34.6583807  32.6561873  29.7264443  35.2268365
  31.9091278  30.9104861  34.1281598  33.6257037  30.4806562  33.9390714
  35.0113497  32.5590818  37.2314189  34.4582189  32.8769933  38.3132491
  36.1129474  33.1446521  36.7892978  36.6387252  32.7625497  36.0162164
  36.5800416  34.3613984  37.3960081  36.1056107  34.5111919  38.3658413
  38.0931635  34.3212350  37.5941572  38.5636792  34.0970317  36.6368448
  38.6364889  35.7044654  38.1373627  38.1667391  35.9291407  39.0949415
  39.7169400  35.6448231  38.2683923  38.4006049  36.4936714  37.4234900
  38.4728701  33.1997147  38.5965564  38.1384444  32.2372056  38.2094674
  39.5545934  33.1813343  38.7293585  37.9927300  33.3915021  39.5561313
  36.2291128  35.5354067  36.4476075  36.4463205  35.4318807  35.2083561
  35.7347221  36.6277370  37.0274793  35.5291014  36.6212420  38.0163056
  35.5133962  37.8905182  36.2682466  35.7225749  37.7191542  35.2123214
  34.0836404  38.3735822  36.4065126  33.9807751  38.5129481  37.4826609
  33.9704032  39.3340883  35.9038146  33.0093472  37.4140650  35.9145352
  33.1542919  36.4449926  36.3920187  31.5923669  37.9564279  36.2618596
  31.4465011  38.9253316  35.7843163  30.8370880  37.2574654  35.9025465
  31.4997906  38.0668441  37.3422939  33.1876943  37.1568210  34.3890851
  34.1699391  36.7212104  34.2059511  32.4157268  36.4693458  34.0433319
  33.1024308  38.0995907  33.8487015  36.4203022  38.9355485  36.8699236
  36.4810590  39.0521563  38.0896405  37.1430630  39.6856708  36.0207014
  37.1635166  39.4679072  35.0346689  37.9605116  40.7905306  36.5005801
  37.6533827  41.0450837  37.5149635  39.4642841  40.4367905  36.5141885
  39.6157521  39.5982097  37.1938493  39.7596263  40.1449098  35.5063797
  40.3032265  41.6064967  36.9646739  40.3269495  42.3579474  36.1754593
  39.8128829  42.0208615  37.8455622  41.7354835  41.1972981  37.3229385
  41.8906530  40.1396607  37.9137273  42.6924330  41.9048433  36.9920876
  37.6816783  41.9805433  35.6114257  37.7161849  41.8513299  34.3773227
  37.3315354  43.1205050  36.2168868  37.1103502  43.1676535  37.2012412
  37.1952289  44.3476481  35.4100030  37.5350299  44.1687192  34.3898957
  35.7185391  44.7740466  35.3683184  35.6279939  45.6441811  34.7181133
  35.1325417  43.9517742  34.9577393  35.2388538  45.0964214  36.6533599
  34.3170403  45.3579477  36.5945072  38.0830090  45.4466361  35.9846288
  38.4951707  45.3688667  37.1379144  38.3585833  46.4858366  35.1999435
  38.0591355  46.5034552  34.2355162  39.0796253  47.6404704  35.7208017
  38.9795929  47.6462049  36.8061863  40.6058265  47.6375111  35.3580634
  41.0205221  48.5548387  35.7759592  41.0840599  46.7770330  35.8260061
  40.8608512  47.6040325  33.8450470  40.8735134  48.7933017  33.0824222
  40.7359872  49.7461947  33.5934807  41.0542736  48.7640164  31.7252814
  41.0222528  49.6922134  31.1547318  41.2293893  47.5665777  31.0782404
  41.4314854  47.5887657  29.7147526  41.4278139  48.4765200  29.3494056
  41.2491647  46.3665306  31.7914422  41.4178306  45.4170807  31.2833112
  41.0504863  46.3929229  33.1650926  41.0402086  45.4621627  33.7322608
  38.4774347  48.9018080  35.1125954  37.7792006  48.8320983  34.0754499
  38.7909079  50.0162939  35.7720350  39.1218020  49.9470438  36.7237770
  38.6082732  51.3504923  35.1956590  38.4316274  51.3065124  34.1209678
  37.4165507  52.1161476  35.8684438  36.4936326  51.5617397  35.6982871
  37.6613303  52.2530303  37.3843541  38.5839011  52.8077696  37.5553169
  36.8274466  52.7862479  37.8408819  37.7459605  51.2619908  37.8302017
  37.2151358  53.5189743  35.1970337  36.9973075  53.3871874  34.1371823
  36.3840298  54.0359670  35.6767014  38.1238781  54.1102051  35.3098803
  39.9239894  52.0671036  35.3591099  40.6517640  51.8402092  36.3370322
  40.2859132  52.9194186  34.3902032  39.7084809  53.0817656  33.5776057
  41.5588291  53.6406079  34.4940120  41.7799712  54.0301907  35.4877024
  42.7543553  52.7186926  34.0364419  42.7886143  51.8452473  34.6876092
  42.5801784  52.2607934  32.5685275  42.5462961  53.1337349  31.9166640
  43.4198372  51.6271232  32.2829831  41.6515417  51.6985381  32.4705256
  44.0913175  53.3690878  34.2618043  44.2169824  53.5843346  35.3229260
  44.8832523  52.6968011  33.9316990  44.1441979  54.2982436  33.6943767
  41.4606283  54.8726499  33.5890009  40.6848366  54.8709927  32.6443578
  42.2356632  55.8933739  33.9066476  42.7781587  55.8653589  34.7581246
  42.3713091  57.0601309  33.0366020  41.3871148  57.4305185  32.7497679
  43.1161586  58.1727391  33.7732751  44.1091125  57.7908766  34.0105995
  43.2059627  59.0172390  33.0900071  42.4281706  58.6269381  35.0532851
  41.2123069  58.3942405  35.2114131  43.1572262  59.2345214  35.8951690
  43.1973181  56.7429396  31.7750332  44.1191456  55.9269841  31.7919350
  42.9230463  57.4191679  30.6552474  42.1252042  58.0332099  30.5746257
  43.8158735  57.2903260  29.5076824  44.1207070  56.2494317  29.3994481
  43.1108240  57.7420246  28.1932610  42.6284336  58.6956570  28.4076998
  43.8955161  57.8910485  27.4515399  42.0711393  56.7548780  27.6461758
  41.9901938  56.9714674  26.5809820  42.5041325  55.7639774  27.7830518
  40.4199974  56.7904968  28.3878919  39.7603071  58.3390907  27.6508345
  39.7528399  58.2505896  26.5644595  38.7444786  58.5081258  28.0080743
  40.3917321  59.1784623  27.9421402  44.9984840  58.2005167  29.7847640
  44.7753084  59.4071283  30.0627697  46.2447558  57.6690316  29.7176810
  46.6692711  56.2621397  29.5735527  46.2280404  55.8388905  28.6711804
  46.3389400  55.6910290  30.4412007  48.1723609  56.3645029  29.4905053
  48.4588323  56.2229955  28.4483879  48.5953573  55.5623062  30.0952002
  48.5995413  57.6814022  29.9914316  49.3660054  58.0447246  29.3068670
  48.9978449  57.6641077  31.0059042  47.3750936  58.5896702  29.9283518
  47.1933530  59.1616442  30.8382498  47.5368557  59.5549872  28.7399574
  46.9698117  59.3215242  27.6694356  48.3147013  60.6050608  28.9627057
  48.8120418  60.6546713  29.8403677  48.4716853  61.7299806  27.9966740
  47.5050829  62.1810497  27.7723626  49.3817881  62.8030101  28.6259885
  48.9592380  63.0125520  29.6086597  50.3583053  62.3332478  28.7436216
  49.5398723  64.1439662  27.8286284  49.4308418  63.9402915  26.7633914
  48.7403454  64.8092964  28.1544990  50.9096449  64.8182655  28.0873084
  51.3137425  64.9981800  29.2671830  51.5982327  65.1512511  27.0996767
  49.0644563  61.1795618  26.7271738  50.0346850  60.4288314  26.7804763
  48.4626639  61.5066676  25.5731289  47.6452861  62.0997684  25.5581531
  48.9770309  61.0113395  24.3088082  48.7604392  61.7655168  23.5522344
  50.0564731  60.9051008  24.4165916  48.3941496  59.6881805  23.8656666
  48.6531381  59.2545451  22.7565001  47.5894664  59.0388946  24.7111823
  47.3850470  59.4189559  25.6243446  47.0365520  57.7382231  24.3658634
  47.3722775  57.4402904  23.3725740  47.5048815  56.6886859  25.3753623
  47.2987777  57.0771095  26.3727326  46.9676827  55.7509992  25.2330213
  48.9518569  56.4249048  25.2619256  49.7087655  56.8390997  26.1228658
  49.3733857  55.7587326  24.1665526  50.3560334  55.5570743  24.0489205
  48.7042973  55.4648484  23.4693772  45.5225306  57.7309718  24.2933209
  44.8224473  58.3935016  25.0874894  45.0163786  56.9489578  23.3549130
  45.6447793  56.4547550  22.7376808  43.6076641  56.7904487  23.1579176
  43.0885945  57.7364467  23.3120399  43.3637957  56.3297190  21.7307104
  42.2897659  56.3093579  21.5459278  43.8362020  57.0353487  21.0473225
  43.9121191  55.0154672  21.5177393  43.7479025  54.7431681  20.6119325
  42.9817924  55.7789939  24.1271347  43.7269975  55.0409495  24.8421542
  41.6405769  55.7323141  24.1451046  41.0877962  56.4508058  23.6997930
  40.9312386  54.6299275  24.8446817  41.1986475  54.6837234  25.9000005
  39.4069199  54.6673104  24.7242043  39.1465698  54.7122585  23.6667088
  39.0051318  53.7517019  25.1581714  38.8242173  55.8538080  25.4330937
  39.2084512  55.8430881  26.4530693  39.2007156  56.7345119  24.9127969
  37.3090068  55.8951438  25.4646275  36.6525241  54.8143878  25.4889391
  36.7862743  57.0441793  25.4784160  41.3835555  53.2863133  24.3112772
  41.6745545  52.3819890  25.0957937  41.4601697  53.1577577  22.9864630
  41.1416056  53.8828179  22.3596425  41.9227033  51.8975912  22.4097792
  41.2940933  51.0758908  22.7529367  41.8486184  51.9653032  20.8700911
  42.2222750  52.9507901  20.5920705  42.4954040  51.1984965  20.4437392
  40.4012876  51.7859892  20.3233516  39.4845816  51.2661777  21.0379922
  40.1919179  52.1465202  19.1189261  43.3335663  51.5046971  22.8737294
  43.5838368  50.3035919  23.2172071  44.2556893  52.4680132  22.8841897
  44.0134476  53.4261317  22.6757975  45.6402611  52.1718192  23.3105652
  46.0816302  51.4570958  22.6159697  46.5006907  53.4131796  23.3374967
  45.9141834  54.1631238  23.8682434  47.4110599  53.2010421  23.8981442
  46.8728169  53.9485089  21.9330111  46.7690111  53.2040040  20.9158529
  47.3105533  55.1336346  21.9339201  45.6076630  51.6877386  24.7613889
  46.3307450  50.7271449  25.1387113  44.7843986  52.3724550  25.5632493
  44.1778934  53.0881573  25.1890554  44.7894882  52.1485964  27.0470907
  45.8259982  52.1646974  27.3839690  44.0294944  53.2993362  27.7364037
  42.9763928  53.2610454  27.4578162  44.1629541  53.1502828  29.2765506
  45.2158228  53.1889468  29.5559643  43.6269904  53.9619905  29.7684577
  43.7398492  52.1951503  29.5876853  44.6797027  54.5440942  27.3452760
  44.2293027  55.2840987  27.7589588  44.1942302  50.8199490  27.3829732
  44.8096907  50.0175887  28.1720793  43.0334661  50.5464699  26.7853765
  42.4735570  51.2601495  26.3412340  42.4643819  49.2015347  26.9230630
  42.4180787  48.9454246  27.9815349  41.0509377  49.1010059  26.3316289
  41.0939452  49.4407930  25.2968370  40.7487741  48.0540436  26.3574584
  40.0199739  49.9556078  27.1134922  39.9471862  49.5365465  28.1170810
  40.4173518  50.9689393  27.1713899  38.6179695  49.9890330  26.4670903
  38.0088971  50.7521181  26.9516839  38.7091354  50.2178458  25.4052839
  37.9580174  48.7086335  26.6106221  38.3950483  48.0402901  27.2290237
  36.8348486  48.3592010  25.9904271  36.2377581  49.1977079  25.1435805
  36.6407730  50.1074273  24.9701168  35.3850547  48.9194958  24.6792588
  36.3038737  47.1635441  26.2213751  36.7556259  46.5295058  26.8648155
  35.4508836  46.8940646  25.7524535  43.3826037  48.1074384  26.3857251
  43.4785251  47.0388583  26.9868546  44.0672778  48.3292452  25.2693340
  43.9873952  49.1833049  24.7361360  44.9534740  47.2752480  24.7651988
  44.3763200  46.3610919  24.6262351  45.5997356  47.6600009  23.4177968
  45.9761001  48.6785768  23.5124128  46.4338125  46.9794415  23.2467564
  44.6319629  47.5832027  22.2415698  44.0514028  46.6609279  22.2630155
  43.9552939  48.4375922  22.2260891  45.6578138  47.6075933  20.7451072
  47.3328817  47.9131327  21.4020145  47.6078116  47.1097704  22.0854775
  48.0458636  47.9486283  20.5783049  47.3468277  48.8637451  21.9351589
  46.0733110  46.9381912  25.7358156  46.4249276  45.7706014  25.9044801
  46.6998176  47.9813083  26.2851709  46.4491936  48.9121294  25.9837427
  47.7693205  47.8362188  27.2851316  48.5937339  47.2639439  26.8597573
  48.3092663  49.2372582  27.7286957  48.7378655  49.7127925  26.8465001
  47.5405110  49.8837526  28.1519691  49.4216366  49.1518145  28.7601328
  50.7359112  49.0116587  28.3588553  50.9568242  49.0033842  27.2915087
  51.7865840  48.8803071  29.3010519  52.8179771  48.7817399  28.9625057
  51.5011360  48.8774921  30.6467029  52.3090038  48.7977375  31.3740877
  50.1707918  48.9772150  31.0834198  49.9442060  48.9345617  32.1487553
  49.1287618  49.1322785  30.1468843  48.0992779  49.2369777  30.4893764
  47.2407559  47.0553810  28.5227833  47.7696918  45.9785101  28.8526090
  46.1865952  47.5671222  29.1771733  45.7718963  48.4446478  28.8977577
  45.6674873  46.9004640  30.3974875  46.5085142  46.7802366  31.0803625
  44.5800952  47.7778312  31.0947187  43.7274924  47.8996199  30.4266350
  44.2541557  47.2909945  32.0138780  44.9985134  48.7561881  31.3310304
  45.1252729  45.4856881  30.0898211  45.3588004  44.5213151  30.8981111
  44.4330594  45.3335681  28.9571230  44.2306162  46.1265151  28.3652184
  43.9026182  43.9937758  28.5541107  43.2420581  43.6128754  29.3330037
  43.1033032  44.0905631  27.2309173  43.7164360  44.6314575  26.5100840
  42.9510756  43.0687501  26.8833182  41.7527791  44.7857545  27.3722344
  41.2949786  45.1529276  28.4885093  41.1574534  44.9670248  26.2782744
  45.0076176  42.9423580  28.3756678  44.8704913  41.7613205  28.8257243
  46.1405269  43.3439324  27.7774407  46.2300206  44.2763041  27.3995874
  47.2549420  42.4272953  27.6190848  46.9627071  41.5698993  27.0128092
  48.4354472  43.1444483  26.9241741  48.6924972  44.0275134  27.5091712
  49.6716425  42.2286957  26.8056528  49.4154760  41.3455761  26.2203510
  50.4790688  42.7694836  26.3119825  49.9948958  41.9232001  27.8007811
  47.9824549  43.5309523  25.6253694  48.6910987  43.9816922  25.1603342
  47.6875044  41.8836951  28.9736425  47.8832173  40.6414710  29.1463991
  47.8196337  42.7839979  29.9540479  47.6844448  43.7712049  29.7889851
  48.2699847  42.3490753  31.3060096  49.1267463  41.6817674  31.2124209
  48.6776304  43.5673040  32.2207274  47.8573168  44.2850394  32.2271097
  48.9811804  43.1027079  33.6981759  49.8017506  42.3852576  33.6926499
  49.2589233  43.9669405  34.3015509  48.0928087  42.6345967  34.1221680
  49.9061818  44.2362201  31.6361379  49.6830293  44.5915492  30.6301328
  50.1942852  45.0798641  32.2633229  50.7257608  43.5188494  31.5940637
  47.1964677  41.4941699  31.9957435  47.5033167  40.3917173  32.5336653
  45.9687790  42.0155676  32.0521537  45.7719497  42.9226031  31.6538521
  44.8867208  41.3235673  32.7943563  45.2442440  41.1340907  33.8064704
  43.5762116  42.1840427  32.8780800  43.2608178  42.4603508  31.8719588
  42.4527845  41.3640671  33.5648307  42.7672842  41.0877709  34.5712359
  41.5454580  41.9655284  33.6205386  42.2550524  40.4618794  32.9859862
  43.8295665  43.4507889  33.7262142  44.6195415  44.0445648  33.2663537
  42.9153901  44.0420369  33.7791939  44.1327256  43.1605141  34.7321645
  44.6023191  39.9503169  32.1819994  44.4539540  38.9363034  32.8985567
  44.6008763  39.8646324  30.8589646  44.7525451  40.6477050  30.2393734
  44.2724060  38.5629556  30.2672276  43.3733186  38.1710192  30.7427555
  44.0183820  38.6708990  28.7369394  44.8675712  39.2052406  28.3109628
  43.9967216  37.6536211  28.3460731  42.7138018  39.3944817  28.3562181
  41.8904134  38.8293285  28.7929494  42.7508771  40.3870806  28.8050776
  42.4901622  39.5302061  26.7903630  42.1893611  38.5561644  26.4045386
  41.6889599  40.2500013  26.6228245  43.7435581  39.9930386  26.0722134
  43.8677128  41.0588736  26.2637386  44.5911026  39.4484811  26.4884159
  43.6744925  39.7536019  24.5783998  42.8894586  40.2584611  24.1924739
  44.5280829  40.0766860  24.1458493  43.5598774  38.7659860  24.4006996
  45.3572002  37.5117152  30.5401878  45.0339648  36.3389714  30.7543955
  46.6331082  37.9145597  30.4907919  46.8801404  38.8614855  30.2409799
  47.6949956  36.9869594  30.7858747  47.6162247  36.1039959  30.1516273
  49.0476001  37.6649223  30.5178890  48.9272797  38.0482336  29.5046296
  49.2043416  38.4969833  31.2043340  50.2716938  36.7160654  30.5688689
  50.3109342  36.2609931  31.5585508  50.1862394  35.6206411  29.5083194
  50.1474283  36.0749613  28.5182761  51.0633885  34.9773452  29.5781800
  49.2868181  35.0266201  29.6704332  51.5648133  37.5250575  30.4556536
  51.6249143  38.2326319  31.2825912  52.4203246  36.8506265  30.4923223
  51.5720402  38.0692548  29.5112511  47.5969197  36.5592464  32.2644896
  47.8200279  35.3750245  32.6124581  47.3150363  37.5173325  33.1382153
  47.1440129  38.4702844  32.8505818  47.2588211  37.1952977  34.6027652
  48.2051859  36.7610847  34.9251809  47.0050183  38.4619246  35.4086971
  46.2024549  39.0056229  34.9103163  46.6944775  38.2043437  36.4212763
  48.2531449  39.3844936  35.4915123  49.3396117  38.9798928  35.1897557
  48.0491406  40.6130920  35.9442121  48.8247541  41.2556780  36.0190905
  47.1189791  40.9012547  36.2122840  46.1303339  36.1855623  34.8451291
  46.2992357  35.2425743  35.6482030  44.9718166  36.4016468  34.2026822
  44.7904530  37.2358969  33.6630218  43.8606948  35.4349333  34.4001399
  43.7549912  35.2634324  35.4713605  42.5024434  35.8999480  33.8394186
  42.6861627  36.1280921  32.7895154  41.7710631  35.0951273  33.9132195
  41.9558095  37.1607971  34.5532982  42.7136137  37.9435730  34.5863957
  40.7589622  37.6472117  33.7471430  40.0004872  36.8650894  33.7139880
  40.3415011  38.5377724  34.2169607  41.0769939  37.8874364  32.7326243
  41.5897287  36.8482192  36.0231237  42.4771077  36.5028102  36.5535486
  41.2082951  37.7496742  36.5026948  40.8254207  36.0715694  36.0504632
  44.2302811  34.0630367  33.8396475  43.8646472  33.0001275  34.4341823
  44.9528505  34.0454963  32.7126321  45.1771621  34.8944818  32.2136258
  45.3835186  32.7547853  32.1304157  44.5187150  32.0991887  32.0284009
  46.0181142  32.9455840  30.7506606  46.5697472  33.8856905  30.7503652
  46.7070708  32.1206005  30.5694398  44.9832410  32.9754769  29.6735474
  44.8047429  31.9319379  29.4141913  44.0506758  33.4312803  30.0062145
  45.4709785  33.7150857  28.4216720  46.6707637  34.0329920  28.2933090
  44.5319337  34.0660313  27.5475244  44.7902969  34.5558889  26.7029005
  43.5648160  33.8410526  27.7323739  46.3517045  32.0634419  33.0815127
  46.2640084  30.8234564  33.2834810  47.2434637  32.8324567  33.7089382
  47.3490702  33.8117635  33.4855445  48.2009171  32.2213106  34.6657107
  48.5781746  31.2900739  34.2431303  49.4050426  33.1536404  34.9654190
  49.9684374  33.3014006  34.0440871  49.0236777  34.1129349  35.3152975
  50.3386008  32.5383367  36.0520443  49.7042443  32.2336067  36.8844097
  50.8066668  31.6580864  35.6113907  51.4360594  33.5036877  36.5660066
  52.1275866  33.6762472  35.7413174  50.9454191  34.4404924  36.8301437
  52.2308175  32.9581616  37.8118003  51.5320052  32.9049958  38.6466268
  52.5769271  31.9547401  37.5639038  53.4381227  33.8356672  38.2068092
  53.1175764  34.7653854  38.4369694  53.9005641  33.4309244  39.0083273
  54.0859853  33.8847122  37.4335254  47.4809923  31.7810329  35.9504492
  47.7705342  30.7070739  36.5021397  46.4887289  32.5396570  36.3970998
  46.3012649  33.4513286  36.0049118  45.6541677  32.0775165  37.5296032
  46.2776809  31.9578151  38.4156066  44.5436173  33.0853917  37.8448497
  45.1040934  33.9658157  38.1592052  43.9724668  33.3204803  36.9467292
  43.5783819  32.6612828  38.9714513  43.0510353  31.7599582  38.6590089
  44.3621863  32.3741495  40.3118718  44.8894471  33.2752118  40.6252111
  43.6577173  32.0772889  41.0888519  45.0812031  31.5714657  40.1481222
  42.4831562  33.7083865  39.1537494  41.9215791  33.8129367  38.2254176
  41.8098660  33.3955286  39.9518104  42.9346913  34.6656088  39.4144036
  45.0462539  30.7015006  37.1994594  45.0411099  29.8039046  38.0595739
  44.4944967  30.5615831  36.0057688  44.4240307  31.3313774  35.3557298
  43.8880556  29.2807624  35.6339391  43.1076504  29.0668785  36.3642272
  43.2549630  29.3579057  34.2556620  44.0254340  29.5625464  33.5122936
  42.7703486  28.4093799  34.0242576  42.5140740  30.1572373  34.2398018
  44.9106023  28.1181659  35.6934161  44.5987504  27.0297936  36.2411307
  46.1094178  28.3580208  35.1460733  46.2645294  29.2310408  34.6624663
  47.1905916  27.3391621  35.1246472  46.8473543  26.4249651  34.6403629
  48.4043981  27.8953289  34.3314283  48.6654076  28.8666931  34.7514593
  49.6500803  26.9439937  34.4011645  49.3899576  25.9725112  33.9808579
  50.4715667  27.3777886  33.8310056  49.9553581  26.8198191  35.4401480
  47.9766434  28.0351309  32.9659664  48.7008050  28.3782511  32.4373276
  47.5627154  26.8956633  36.5291537  47.5953884  25.6758917  36.8278105
  47.8055469  27.8817138  37.3982695  47.7411239  28.8397535  37.0850459
  48.2285437  27.6327677  38.7540400  49.0687480  26.9458214  38.8553351
  48.5803841  28.9578458  39.4828763  47.7843458  29.6749633  39.2824647
  48.7319775  28.7642175  41.0350752  49.5282004  28.0475315  41.2362992
  48.9780620  29.7195620  41.4986048  47.7949602  28.3910689  41.4484279
  49.8021403  29.6040502  38.8439268  49.5937060  29.8192226  37.7959010
  50.0372895  30.5320811  39.3650441  50.6512624  28.9240869  38.9127909
  47.1479342  26.8647640  39.5066053  47.4552731  25.8070511  40.1384852
  45.8947125  27.3373704  39.4437113  45.6988745  28.2047395  38.9647357
  44.7976669  26.6776771  40.1679797  45.1390814  26.5930913  41.1996679
  43.5125455  27.5126316  40.1442551  43.1533722  27.5985910  39.1187282
  42.7518652  27.0271189  40.7556006  43.7171830  28.5068084  40.5415399
  44.5298933  25.2374496  39.6530321  44.2901404  24.3094611  40.4513816
  44.5903683  25.0673111  38.3366080  44.7006840  25.8698269  37.7333683
  44.3617680  23.7506651  37.7135676  43.4501780  23.3103833  38.1176155
  44.2124046  23.8776340  36.1949924  44.9832708  24.5443748  35.8085713
  44.3193474  22.8948091  35.7359516  42.8293977  24.4489254  35.8621317
  42.0884851  23.6863886  36.1023126  42.7002958  25.3025659  36.5275111
  42.6521537  24.8814946  34.4729674  43.6161819  24.7227381  33.6919328
  41.5467927  25.3605454  34.1202447  45.4750544  22.7579505  38.1387937
  45.1975440  21.6049066  38.5045077  46.7127416  23.2157380  38.1580305
  46.9485001  24.1204062  37.7758097  47.7927579  22.3713170  38.6504216
  47.7470726  21.4266257  38.1086003  49.1193494  23.0112870  38.3848575
  49.1837407  23.9541117  38.9280291  49.9169450  22.3464017  38.7163226
  49.2248909  23.2001004  37.3165365  47.6203520  22.0415864  40.1472435
  47.8273588  20.8891076  40.5650699  47.2573919  23.0360174  40.9626630
  47.2384452  23.9916642  40.6363512  46.9699857  22.7793868  42.3726788
  47.8296872  22.2843271  42.8242630  46.6850591  24.0588040  43.1444680
  45.9610803  24.6449950  42.5784874  46.2571004  23.7873638  44.1094921
  47.9224386  24.8684566  43.3587685  48.6059415  24.3093886  43.9978049
  48.3965240  25.0536978  42.3949061  47.5353640  26.4456445  44.1417101
  47.0717624  25.9787871  45.8228233  47.9083362  25.4715331  46.3033821
  46.8147711  26.8728138  46.3909539  46.2118636  25.3097298  45.7906093
  45.8244636  21.8018663  42.5645846  45.8958475  20.9657212  43.4719459
  44.8096962  21.8789308  41.6993926  44.8094342  22.6244126  41.0179557
  43.6482065  20.9957979  41.7598563  43.2649015  21.0688740  42.7776168
  42.5515189  21.4470880  40.7901643  42.9173037  21.3708755  39.7662048
  41.6748828  20.8106089  40.9105959  42.2809246  22.4813468  41.0027361
  44.0178551  19.5149829  41.5125775  43.4415966  18.6285348  42.1493583
  44.9467517  19.2633225  40.5942125  45.2982034  20.0223933  40.0281801
  45.4419731  17.8824005  40.3133794  44.5728245  17.2288939  40.2384858
  46.1970638  17.8501862  38.9759571  45.5428304  18.2060888  38.1800857
  47.0752392  18.4928482  39.0383555  46.6340700  16.4208415  38.6732633
  47.2887482  16.0643888  39.4685235  45.7563404  15.7776290  38.6102509
  47.3836593  16.3888613  37.3455893  46.7294275  16.7447655  36.5497175
  48.2618352  17.0315221  37.4079895  47.8242157  15.0144024  37.0182154
  47.6017686  14.2703532  37.6639766  48.4996658  14.7142744  35.9125070
  48.8292593  15.6389065  35.0151086  48.5645045  16.6018227  35.1660967
  49.3427904  15.3739056  34.1867608  48.8462778  13.4450992  35.7176859
  48.5944222  12.7454069  36.4011327  49.3597584  13.1868137  34.8871890
  46.3421455  17.3335826  41.4464700  46.4327447  16.1108296  41.6582265
  47.0115216  18.2409153  42.1652621  46.8736421  19.2135527  41.9306023
  48.0532271  17.9008307  43.1505529  48.5756384  16.9924422  42.8505260
  49.0805311  19.0574860  43.2359992  49.9704013  18.7725362  42.6747204
  48.6318715  19.9405194  42.7809645  49.4973429  19.4042510  44.6751482
  49.9188094  18.5376378  45.4400912  49.3814446  20.6942347  45.0382813
  49.6411025  20.9780772  45.9721501  49.0352907  21.3731299  44.3754241
  47.5189460  17.4720181  44.5247899  46.4258360  17.8773016  44.9463522
  48.1315220  16.6508800  45.2037026  49.4544287  47.2194392  38.9269214
  50.1990094  46.1077177  38.1960994  49.6900131  44.7285481  38.5400077
  48.4007111  44.4552259  37.9896123  48.0574573  45.0127649  36.7770076
  46.8366947  44.6567334  36.2152754  46.4205504  45.2674598  35.0314295
  47.2031031  46.2130506  34.4166683  48.4192717  46.5739533  34.9674841
  48.8602827  45.9598121  36.1290817  50.0955631  46.2887831  36.7471963
  51.2071555  46.6732572  36.0720785  51.9429227  47.5286677  36.5263213
  51.5683302  45.9278137  34.7881016  52.1508343  44.2991680  35.1947063
  52.7849420  46.7199042  33.8637335  48.3979112  46.9377550  39.0441332
  49.9049858  47.3724066  39.9183912  49.5233260  48.1510304  38.3455359
  51.2457808  46.1786345  38.5268475  50.4016358  43.9848069  38.1512299
  49.5973532  44.6760731  39.6346993  46.2036784  43.8997434  36.7001149
  45.4542939  44.9878990  34.5852388  46.8615297  46.6849488  33.4831958
  49.0352559  47.3473010  34.4844699  50.6536991  45.8922383  34.1782407
  32.7777354  58.5346123  26.8482917  44.4328240  15.1926665  46.3012861
  39.1926741  61.5025775  35.3675142  63.5049430  59.4138315  39.7366170
  27.8230618  28.6595334  55.1961688  15.5172228  56.0926188  11.6463132
  45.0772996  22.7614819  18.6605160  56.3235543  29.9056793  42.8003241
  44.9251709  33.6115855  -3.6451336  15.9962709  54.8830870  31.0598959
   8.1298110  58.2507713  45.0613936  56.4605390  16.8510158  22.4406326
  21.6928957  41.1329402  59.0803062  40.8134356  79.1052157  24.1379514
  37.6424683   1.3826549  57.0033473  50.9894295  52.4151422  60.9264519
   4.8023881  18.4277099  22.0951199  51.1839964  60.2420784  67.7670028
   3.4095477  61.7244482  34.2320871  23.5350671   9.9594353  25.6509735
  62.8284073  25.5424295  58.5475583  41.6569578  70.0760919  10.0510041
  54.1305202  58.6435705  13.0900389  15.3539514   9.6524767  38.3252317
  61.5541951  34.0723693  67.8742967   4.0600689  56.7463764  49.7869882
  32.6868756  21.6942571  16.4162692  65.7362350  35.0567447  34.3793895
  24.5263016  15.6311694  63.0696925  76.6278576  27.3552045  47.7188488
  13.4377258  19.0993422  41.0504212   6.7706517  48.3370372  44.1244008
  45.9601312  60.5115223  68.9323148  29.8801473  38.5414879  78.4719687
  32.8326399  26.1178432  57.8675080  31.9194869  16.7243062  20.9982109
  52.7196714  35.9420828  62.0860308  69.3003083  47.9683497  28.2114073
  35.7707192  59.9430689  20.1265347  64.7969627  71.3600567  51.9044001
  58.3773420  36.9543863  12.9335818  12.9133731  55.1499735  14.0950239
  41.4274438  25.7048442   3.9711136  37.8243541  68.2729670  21.0980993
  33.9461396  61.9374698  59.5356829  18.6685193  18.4490026  36.7674755
  19.2097259  39.7176468  17.4869050  22.1001705  52.4579843  16.1428053
  64.4161544  64.1032716  16.7266891  42.5522415  23.0944202  73.7674008
   9.9930730  54.8303592  22.0521729  56.3723999   5.0967059  48.2753418
  39.7961239  16.2275760  57.3752854  14.3524020  51.8103101  59.5979846
  61.2001607  61.3632171  45.5766119  38.8779558  67.3981352  41.8567095
  18.4217194  58.6867363  34.2355125  60.6376058  36.4437119  25.2691360
   7.4896821  59.6623860  30.0580358  48.9187034  80.3439490  48.5005745
  54.3782802  74.5654947  19.5898407  44.9610235  38.0969693  85.7727361
  44.4321707  38.3129326  86.4324667  45.4835255  38.7905831  85.6928330
  44.9598688  38.2312830  85.8582960  36.8509843  41.9932910  84.5734829
  36.2667058  42.4982941  84.9800692  36.4479938  41.7675297  83.8331421
  36.7049147  42.0341158  84.5239854  41.3087057  38.2398562  83.0503749
  41.5483061  38.4476545  82.2379092  41.6302898  37.4356070  83.1592694
  41.3924215  38.1512663  82.9464302  34.5196439  35.8536449  82.1063873
  33.8054616  35.5674629  82.5186306  35.0040408  36.1933075  82.7470261
  34.4855803  35.8618099  82.2619508  41.6943757  44.3566403  82.4825681
  42.1094906  44.0251427  81.7910177  40.8635687  44.1235305  82.3545818
  41.6331766  44.2737659  82.3616529  44.3877147  40.6076962  81.6686883
  44.3057310  40.6779150  82.5341870  45.0256868  41.1706706  81.4770623
  44.4696985  40.7015934  81.7676832  41.4917258  40.6297417  84.6795489
  42.3057896  40.9212310  84.5678261  41.4276399  39.9757279  84.1053782
  41.6019997  40.5762611  84.5784327  38.0027981  39.3221224  84.1442691
  38.3873134  39.1028931  84.8959236  37.7539601  40.1484169  84.2743767
  38.0230053  39.4119370  84.2743767  42.9293280  43.8459217  80.0211294
  43.6966265  43.9059342  79.6117146  42.4824589  43.2739658  79.5367613
  42.9766707  43.7695792  79.8889005  38.9767880  40.1177983  81.4848405
  39.2660405  40.8942865  81.7591979  39.0639679  39.6066714  82.1862904
  39.0322136  40.1569901  81.6290903  43.7699499  35.5111246  85.7402092
  43.2422518  35.5939990  85.0507800  44.2295207  36.2529118  85.7366736
  43.7601349  35.6331909  85.6376787  35.7632564  33.7813766  80.7642987
  35.4145369  34.4333491  81.2274536  35.2829010  33.7670879  80.0366858
  35.6402808  33.8756819  80.7254078  36.1656695  37.2739407  83.6061608
  36.8001775  37.8699832  83.5411070  36.2482306  36.9742865  84.4207478
  36.2713246  37.3180315  83.7164695  40.8046789  35.1461506  85.0797714
  40.2111629  35.4678503  84.5282281  40.8422067  34.3002602  84.8718820
  40.7221178  35.0685835  84.9680485  38.7776021  35.7858757  83.1727044
  39.1574986  35.8038386  82.3878159  38.0368618  36.2312746  83.0517891
  38.7244859  35.8540532  83.0390612  39.5760776  42.6236263  84.5635834
  38.7672098  42.3002937  84.5169143  40.0835684  41.9169485  84.4964082
  39.5310442  42.4717580  84.5466128  48.1796746  15.1103084  74.6237073
  48.1490750  15.9647720  74.7955342  48.7778095  14.8098376  75.1823216
  48.2633904  15.1919580  74.7311875  35.7637570  23.7341452  75.1427235
  35.0120470  23.3556991  74.9143280  36.2123582  23.7659886  74.3946045
  35.7187237  23.6827060  74.9984737  41.2162530  24.1566822  70.5712782
  40.8813899  24.8343744  70.1357004  41.7289401  23.7672133  69.9829653
  41.2428111  24.1991400  70.4199573  40.7566821  26.1081091  76.5123893
  41.1406201  26.6767989  75.9728669  40.6925963  25.3830601  76.0329709
  40.8040249  26.0856554  76.3617756  46.0013320  17.6855386  72.8955382
  45.8852846  18.4363072  73.3247521  46.7969207  17.4279339  73.1451469
  46.1017910  17.7590232  72.9959474  37.1823066  28.6637434  78.8104863
  37.8260522  29.1050598  79.2001022  37.5079322  27.8590860  78.7235122
  37.3254895  28.6102628  78.8550340  37.8843646  21.6749409  74.1824725
  38.2059487  22.2154616  73.5786033  38.5315742  21.1046180  74.3147015
  38.0269701  21.6708584  74.1131760  40.1233289  20.0635849  74.2538903
  40.5626925  19.4552949  74.6993676  39.9737952  19.6843222  73.4824368
  40.1654755  19.9174320  74.2058070  43.7242626  18.4163030  71.2069672
  43.6393921  19.2723996  71.3519241  44.2127009  18.1407354  71.8751831
  43.7831523  18.5020351  71.3271754  44.6561059  15.0347824  72.7067407
  44.1272530  15.2507458  73.3664714  45.1786079  15.7283962  72.6268377
  44.6549512  15.1690961  72.7923007  50.1109112  20.6094128  78.0800452
  49.2806815  20.8204772  78.2433868  50.0618364  19.7831183  77.8042735
  49.9815847  20.5183735  78.0637817  36.5460667  18.9311041  71.5074875
  35.9617882  19.4361072  71.9140739  36.1430762  18.7053428  70.7671467
  36.3999971  18.9719289  71.4579901  41.0037881  15.1776693  69.9843796
  41.2433885  15.3854677  69.1719139  41.3253722  14.3734202  70.0932740
  41.0875039  15.0890794  69.8804349  47.3673427  21.2793483  78.2165168
  46.9308659  21.2830225  78.9724139  47.0336343  21.9598982  77.7844745
  47.2536047  21.3805939  78.2646000  50.5017773  17.9974403  77.1084805
  51.1634207  17.4365071  77.0080713  49.8609185  17.5026434  77.4337496
  50.5046641  17.8410812  77.1417145  41.3894581  21.2944534  69.4165728
  41.8045730  20.9629558  68.7250224  40.5586511  21.0613436  69.2885865
  41.3282590  21.2115790  69.2956576  46.7882604  19.0139785  76.8496794
  47.0238193  19.1584984  76.0223644  46.9372168  19.7782193  77.2428307
  46.8448407  19.1478840  76.7860398  48.6173061  17.8541451  74.6866397
  48.9481278  18.3869091  74.0806492  49.1906149  17.9080339  75.3428348
  48.7506740  17.9411020  74.6944179  44.0827971  17.5455094  68.6026930
  44.0008134  17.6157281  69.4681917  44.7207692  18.1084838  68.4110670
  44.1647809  17.6394065  68.7016879  41.1868081  17.5675548  71.6135536
  42.0008720  17.8590441  71.5018307  41.1227223  16.9135410  71.0393829
  41.2970820  17.5140743  71.5124373  37.6978805  16.2599355  71.0782737
  38.0823957  16.0407062  71.8299283  37.4490425  17.0862301  71.2083814
  37.7180877  16.3497501  71.2083814  37.9802047  24.4804231  73.1515108
  38.2700346  24.0893212  72.4274334  38.7105528  24.6620936  73.5920383
  38.1308932  24.4498045  73.1097915  35.9207963  26.4571613  76.2175257
  35.7008258  26.1668968  77.0101925  35.7002485  25.7986569  75.6893170
  35.8555557  26.3171322  76.2564166  38.0875919  27.8301003  75.0005950
  38.7399977  27.2977446  75.2296976  37.3901527  27.4769656  75.3873824
  38.0806637  27.6990526  75.0918118  46.0815837  20.1505417  74.3436929
  46.6473870  20.8098627  74.2595472  45.4343740  20.4955116  74.8153331
  46.0694593  20.2987359  74.4009686  47.2778535  20.2011645  71.1362566
  46.8985344  19.4148783  71.1291855  46.6144780  20.7498502  70.9934210
  47.1237010  20.1656469  71.1143363  40.1025443  23.7525164  74.9751392
  40.8675334  23.4834808  74.6534056  40.0003533  23.2675174  75.6921455
  40.2006939  23.6414729  75.0331219  42.6244104  20.7837348  66.9551341
  43.3917089  20.8437473  66.5457193  42.1775413  20.2117789  66.4707660
  42.6717531  20.7073924  66.8229052  45.5238634  22.4457136  71.4714252
  45.6058471  23.2524122  71.1475702  46.0088376  22.4653095  72.1955025
  45.6075792  22.5677799  71.5301150  41.1596727  16.9951907  74.4405665
  41.7012272  16.4922288  74.9044286  41.4743286  16.9417102  73.6295150
  41.2861124  16.9131328  74.3889477  39.3283176  22.3869259  71.7245693
  39.3975997  21.5283797  71.8638694  40.1071631  22.6041139  71.3964718
  39.4536026  22.2922123  71.6962851  43.7190664  24.8106960  75.9382187
  43.3270456  24.5073675  75.2205053  43.8743736  25.6476050  75.7487140
  43.6844254  24.8890797  75.8038684  43.8830339  21.3756949  75.8788217
  43.5244993  21.5471592  76.6552250  43.3969049  21.8370154  75.3216216
  43.7589036  21.4695920  75.9113486  38.6718704  17.0556114  68.4188451
  38.9611229  17.8320997  68.6932026  38.7590503  16.5444846  69.1202951
  38.7272960  17.0948032  68.5630949  44.4880969  24.2142453  79.3712221
  44.2900658  24.7033267  78.6768432  43.8668680  24.4183694  79.9496354
  44.3668534  24.3158991  79.3535444  43.4650323  12.4489377  72.6742138
  42.9373342  12.5318121  71.9847847  43.9246031  13.1907249  72.6706783
  43.4552173  12.5710040  72.5716833  35.4583388  10.7191897  67.6983034
  35.1096192  11.3711622  68.1614583  34.9779834  10.7049010  66.9706905
  35.3353632  10.8134950  67.6594125  43.0187405  21.0192941  71.8051795
  43.7421604  21.4851054  71.6616369  42.5787996  21.0866551  71.0549392
  43.0603098  21.0976778  71.6736577  43.2791255  25.0813646  71.9649856
  42.5620565  24.9074508  71.4997094  43.9297993  24.8466218  71.4325342
  43.2693106  25.0209438  71.8179074  38.5604417  26.3175404  78.3940004
  38.1464816  25.6549535  78.0043846  39.2451791  26.4653263  77.8735699
  38.6002789  26.2416063  78.2596502  41.9269711  25.4765490  79.1463621
  41.5285994  25.5867760  78.3784441  41.3120931  25.6847556  79.7290181
  41.7768600  25.5239058  79.1194920  49.6611554  20.0517456  72.5306712
  50.0445160  20.8008813  72.7604809  48.8655667  20.2983276  72.2718701
  49.6005336  20.1987150  72.5264285  38.4726845  12.7236888  70.1067091
  38.8525810  12.7416517  69.3218205  37.7319441  13.1690877  69.9857938
  38.4195683  12.7918663  69.9730659  39.2711600  19.5614394  71.4975881
  38.4622922  19.2381068  71.4509190  39.7786508  18.8547616  71.4304129
  39.2261266  19.4095711  71.4806175  59.1529329  30.6288391  74.6237073
  59.1223334  31.4833028  74.7955342  59.7510678  30.3283684  75.1823216
  59.2366487  30.7104888  74.7311875  52.3529014  29.7164042  79.3790003
  51.4966910  29.8772541  79.4299120  52.3996668  28.8456106  79.3995064
  52.2328126  29.6114844  79.3896069  46.7370154  39.2526760  75.1427235
  45.9853053  38.8742299  74.9143280  47.1856166  39.2845194  74.3946045
  46.6919821  39.2012367  74.9984737  52.1895114  39.6752130  70.5712782
  51.8546482  40.3529051  70.1357004  52.7021984  39.2857441  69.9829653
  52.2160695  39.7176708  70.4199573  51.7299405  41.6266399  76.5123893
  52.1138784  42.1953297  75.9728669  51.6658546  40.9015909  76.0329709
  51.7772832  41.6041862  76.3617756  55.1980835  31.7756086  82.0221655
  55.7436795  32.4541173  82.0815624  55.1397712  31.6343547  81.1623236
  55.2696750  31.8548088  81.9033715  48.3154910  39.2645153  77.4090007
  48.4165273  38.4545506  77.7187135  47.7196655  39.1702099  76.7789686
  48.2427449  39.1310181  77.3616246  56.9745904  33.2040693  72.8955382
  56.8585430  33.9548380  73.3247521  57.7701791  32.9464647  73.1451469
  57.0750493  33.2775540  72.9959474  48.1555650  44.1822742  78.8104863
  48.7993105  44.6235906  79.2001022  48.4811905  43.3776168  78.7235122
  48.2987478  44.1287936  78.8550340  41.5119954  35.2865439  77.0342341
  41.2770139  34.4533091  76.9274610  41.6505595  35.5670105  76.2203542
  41.4975617  35.2048942  76.8984696  43.8110042  27.4551170  79.9326648
  43.1915073  26.8643817  79.7636663  43.7093905  28.0462605  79.2990972
  43.7047717  27.4555252  79.8131638  48.8576229  37.1934717  74.1824725
  49.1792070  37.7339924  73.5786033  49.5048326  36.6231488  74.3147015
  49.0002285  37.1893892  74.1131760  50.9077937  29.1950711  74.2659112
  51.6058102  29.3738839  74.7580575  51.2230270  28.6721051  73.6429501
  51.0573275  29.1444484  74.2461122  43.5379175  31.0003451  82.1770217
  43.4137872  31.5865897  82.8120036  44.1897459  30.5063647  82.4782492
  43.6152824  31.0142256  82.3156147  51.0965873  35.5821156  74.2538903
  51.5359508  34.9738257  74.6993676  50.9470536  35.2028530  73.4824368
  51.1387339  35.4359628  74.2058070  48.5637516  34.1765168  81.4557729
  49.2086518  33.6837611  81.1368677  48.8039293  34.3189955  82.2823807
  48.6948101  34.1242611  81.5307262  51.1023607  37.0220074  81.1064621
  51.3846850  36.2271480  80.8851377  51.8309768  37.5000662  81.1269682
  51.2513171  36.9754671  81.0767636  49.0804801  24.5643108  78.3480386
  48.7508131  25.0154252  77.6784085  48.4049803  24.4859271  78.8953393
  48.9315237  24.6194243  78.3303609  54.6975209  33.9348338  71.2069672
  54.6126504  34.7909304  71.3519241  55.1859593  33.6592662  71.8751831
  54.7564107  34.0205659  71.3271754  56.2881209  20.5528631  76.5929997
  55.9734650  21.2432110  77.0250419  55.7708150  20.4973413  75.8915498
  56.1645679  20.6463520  76.5526946  55.6293643  30.5533132  72.7067407
  55.1005114  30.7692765  73.3664714  56.1518663  31.2469270  72.6268377
  55.6282096  30.6876269  72.7923007  61.0841696  36.1279436  78.0800452
  60.2539399  36.3390080  78.2433868  61.0350948  35.3016491  77.8042735
  60.9548431  36.0369043  78.0637817  47.5193250  34.4496349  71.5074875
  46.9350466  34.9546380  71.9140739  47.1163346  34.2238736  70.7671467
  47.3732554  34.4904597  71.4579901  43.0737279  40.1651110  78.3098547
  42.5904857  40.8901599  78.2858131  43.8860597  40.4627240  78.4208705
  43.1228027  40.3153464  78.3225826  49.1451433  38.9583291  80.9148361
  48.6278375  38.5990706  80.3109669  49.8425824  38.4345465  80.9254427
  49.1717014  38.8280979  80.8278620  51.9770465  30.6962001  69.9843796
  52.2166469  30.9039985  69.1719139  52.2986306  29.8919509  70.0932740
  52.0607623  30.6076102  69.8804349  47.2860755  22.6255397  73.8303334
  48.0406723  22.9933714  73.5920384  47.1088290  22.9994951  74.5982513
  47.3715233  22.7353584  73.9088222  45.9281476  40.6807286  78.4618827
  46.6302056  40.1659275  78.5191583  45.8478959  41.0081437  79.2665702
  46.0205237  40.6521512  78.5891619  45.6417820  25.0325716  70.5281447
  45.4593393  25.2497596  69.7022440  46.5043433  25.1464728  70.5840061
  45.7422409  25.0815613  70.4135934  45.2532252  36.8713638  77.9704435
  46.0921151  37.1036571  78.0178196  45.2844021  36.0017949  77.9011470
  45.3813969  36.7770584  77.9669079  45.8784955  37.2914513  82.2717740
  46.4183180  37.1485644  82.9421113  45.1954901  37.6911264  82.6401767
  45.8577109  37.3294184  82.4252162  51.3217539  22.0352126  73.5630471
  52.0503699  21.8568081  73.1168627  51.4112432  22.8770206  73.7737649
  51.4424201  22.1336005  73.5283988  55.3025840  32.9705514  77.4662765
  56.0583355  33.4037028  77.5051673  55.4088164  32.3210283  78.0397401
  55.4296010  32.9382997  77.5560790  58.3406011  36.7978791  78.2165168
  57.9041243  36.8015533  78.9724139  58.0068926  37.4784290  77.7844745
  58.2268631  36.8991247  78.2646000  41.2822100  33.5114804  82.4252162
  41.0160515  32.6953920  82.5843152  41.2960664  33.5567959  81.5547677
  41.2446822  33.3971709  82.3205644  45.1879847  28.3099888  69.0403920
  44.4738024  28.0238068  69.4526352  45.6723815  28.6496514  69.6810307
  45.1539210  28.3181538  69.1959555  61.4750357  33.5159711  77.1084805
  62.1366791  32.9550379  77.0080713  60.8341769  33.0211741  77.4337496
  61.4779224  33.3596120  77.1417145  52.3627165  36.8129842  69.4165728
  52.7778313  36.4814866  68.7250224  51.5319094  36.5798744  69.2885865
  52.3015173  36.7301098  69.2956576  41.6915513  34.2973583  79.7063906
  41.5091087  34.2720469  78.8536198  42.4265182  34.7672521  79.7452815
  41.7729577  34.3634945  79.5861825  57.7615188  34.5325093  76.8496794
  57.9970777  34.6770292  76.0223644  57.9104751  35.2967501  77.2428307
  57.8180991  34.6664148  76.7860398  59.5905644  33.3726759  74.6866397
  59.9213861  33.9054399  74.0806492  60.1638732  33.4265647  75.3428348
  59.7239324  33.4596328  74.6944179  54.8037533  31.2191662  75.3689978
  54.8984388  31.9580956  75.8229603  54.1796377  30.7909137  75.8024542
  54.7246564  31.2652982  75.4998125  41.6586424  31.1767084  79.8562973
  42.2359926  31.0403535  80.4955218  40.9600486  30.7202868  80.1108557
  41.6407445  31.0889350  79.9885262  55.0560555  33.0640402  68.6026930
  54.9740717  33.1342589  69.4681917  55.6940275  33.6270145  68.4110670
  55.1380392  33.1579373  68.7016879  48.4153726  32.8301139  78.0701456
  48.1572970  31.9972874  78.0432755  48.4702209  33.0558752  77.2293956
  48.3853504  32.7398911  77.9421593  53.4954776  24.9329590  78.1705549
  52.7911103  24.4438776  78.3289468  53.5439750  24.9452065  77.2993993
  53.3984828  24.8619238  78.0644888  47.3888438  30.3838902  78.5566351
  46.8138029  30.5431070  79.1930312  47.0124114  29.7474311  78.0934801
  47.2491250  30.3136715  78.5820909  51.0561727  28.8562251  83.4158729
  50.6676160  28.4316469  82.7610920  50.3916425  29.1044401  83.9235756
  50.9008655  28.8300972  83.3946597  60.6984996  28.6137256  76.1906559
  60.4421561  27.8017197  76.0004442  61.5414310  28.6214823  75.9636746
  60.7851021  28.4949253  76.1291376  37.1345257  30.0278977  76.5710791
  37.2205509  29.6510845  77.3524321  37.7621054  29.6539422  76.0930750
  37.2401808  29.9164459  76.6156269  52.1600665  33.0860856  71.6135536
  52.9741304  33.3775749  71.5018307  52.0959806  32.4320718  71.0393829
  52.2703404  33.0326051  71.5124373  48.0308573  36.5582373  76.7407848
  48.6682520  36.3194121  77.2859641  48.4563645  36.7619532  76.0061009
  48.1884740  36.5533383  76.7125005  42.7221216  38.7970710  80.6242152
  42.7625361  39.0685561  79.7961931  43.2815740  39.3212618  81.0399940
  42.8104562  38.9146465  80.5634040  48.6711388  31.7784663  71.0782737
  49.0556541  31.5592370  71.8299283  48.4223009  32.6047608  71.2083814
  48.6913461  31.8682809  71.2083814  50.4130045  37.0354796  78.4201634
  50.4869054  36.8729968  79.2743484  51.2299552  37.2244985  78.1762116
  50.5446404  37.0391538  78.5099660  44.1735802  37.3812659  75.4496078
  43.3473920  37.6274396  75.3230357  44.2347793  37.3024740  76.3158136
  44.0609969  37.4057608  75.5585022  46.3911826  23.4481600  76.4091518
  45.5234251  23.5204199  76.4749127  46.6787030  24.2503679  76.5979493
  46.3051574  23.5775747  76.4466285  48.9534631  39.9989539  73.1515108
  49.2432929  39.6078520  72.4274334  49.6838112  40.1806244  73.5920383
  49.1041515  39.9683353  73.1097915  49.5429376  34.8007285  84.2368238
  49.0441070  35.5123053  84.3153127  50.3529600  35.1207951  84.1986401
  49.5885483  34.9534133  84.2424807  46.8940547  41.9756921  76.2175257
  46.6740842  41.6854276  77.0101925  46.6735069  41.3171876  75.6893170
  46.8288141  41.8356630  76.2564166  45.8057494  34.0630238  78.4830959
  45.5170742  33.4367709  79.0176686  46.6740842  34.0050525  78.5495640
  45.8917746  33.9617782  78.5721914  56.5935392  29.2065021  78.8012941
  56.2500157  28.4855356  79.1520191  56.6928434  28.9978872  77.9591299
  56.5577434  29.0689225  78.7284621  49.0608502  43.3486311  75.0005950
  49.7132560  42.8162754  75.2296976  48.3634111  42.9954964  75.3873824
  49.0539220  43.2175834  75.0918118  46.0089767  35.7025489  74.4073324
  46.7635735  36.0838528  74.6208787  45.4160380  36.1536633  74.8620021
  46.0326481  35.8254316  74.5056203  57.0548421  35.6690725  74.3436929
  57.6206453  36.3283935  74.2595472  56.4076324  36.0140423  74.8153331
  57.0427177  35.8172667  74.4009686  47.3287994  36.8734050  79.7813440
  46.8068747  37.0134342  80.4665304  47.7162014  36.1144715  79.9715557
  47.3091695  36.7819574  79.9114516  44.3179178  26.9239859  73.8508394
  44.0303973  26.5541129  73.1140342  45.0049646  27.3934714  73.5892099
  44.3768075  26.9386828  73.7023470  53.5254999  38.6129510  73.7674008
  53.2841675  37.8797370  73.3601073  53.7056332  39.1616367  73.1140342
  53.5162623  38.5851901  73.6104231  48.7554319  33.9038069  75.1794931
  48.5597102  34.5112804  74.5855234  48.9788665  33.2106013  74.6986605
  48.7588960  33.8915595  75.0211011  47.1532849  30.7892807  75.2975799
  47.8755501  30.9533965  74.8379605  46.6740842  31.5102472  75.1915139
  47.1896580  30.9191037  75.2141413  55.1126357  27.1256606  80.6772484
  54.2737458  27.1517885  80.4410747  55.1830724  27.7727341  81.2577831
  54.9994750  27.2252732  80.7281601  44.8040466  33.1950880  84.4029939
  45.3161563  33.4735133  83.7538699  44.5176809  33.9340174  84.7692752
  44.8375329  33.3453233  84.3619817  53.5595635  24.0241983  75.4100100
  54.2621988  23.8249731  74.9320058  53.2939824  23.2517925  75.7168943
  53.6242267  23.8804949  75.3845541  58.9883881  32.3324593  77.9633726
  58.9017855  32.4880019  78.8168505  58.5334361  32.9762668  77.5893131
  58.9087137  32.4500348  78.0340832  41.8907372  27.7021071  74.6993675
  41.9923509  28.5047233  75.0274651  42.6863259  27.5008407  74.4016756
  42.0235278  27.7906970  74.7029031  52.8609697  29.6535340  76.5859285
  52.6144411  29.5731091  77.4196074  53.1894820  28.8688808  76.3921813
  52.8730940  29.5261605  76.6806808  56.7557746  36.3618699  80.3746066
  56.6172105  37.0599745  80.8794809  55.9757744  36.2067356  80.0182248
  56.6200972  36.4418866  80.3972341  48.8206724  32.3892058  85.9982268
  48.9650100  32.9693267  85.3625378  49.1682373  32.7668355  86.7032123
  48.8934185  32.5312763  86.0081263  50.9926641  31.5882227  83.7807400
  50.2449955  31.7813241  83.3755678  51.1468167  30.7627446  83.5431521
  50.9049069  31.4947338  83.6852806  47.8934479  40.5794830  82.8643295
  48.0424043  40.0197746  82.2116700  48.6734481  40.6586832  83.2475814
  48.0308573  40.5080396  82.8240244  58.2511118  35.7196953  71.1362566
  57.8717927  34.9334091  71.1291855  57.5877364  36.2683810  70.9934210
  58.0969593  35.6841777  71.1143363  51.0758027  39.2710472  74.9751392
  51.8407918  39.0020116  74.6534056  50.9736117  38.7860482  75.6921455
  51.1739522  39.1600037  75.0331219  49.1110796  27.4734882  81.5144628
  48.3206871  27.2926342  81.8361963  49.5071419  26.6961834  81.4974922
  49.0527673  27.3322342  81.5597176  53.5976687  36.3022656  66.9551341
  54.3649672  36.3622781  66.5457193  53.1507996  35.7303097  66.4707660
  53.6450114  36.2259232  66.8229052  54.4954483  35.1077312  79.2404074
  53.8199484  34.8762544  79.7417461  54.5046859  34.4998495  78.6146179
  54.3972987  34.9836237  79.2220226  51.6248627  29.9495141  85.9968127
  51.5607768  30.8105097  85.8688263  51.7645814  29.6327134  85.1963678
  51.6364097  30.0295307  85.8596339  56.4971217  37.9642444  71.4714252
  56.5791055  38.7709430  71.1475702  56.9820959  37.9838403  72.1955025
  56.5808375  38.0863106  71.5301150  50.3067721  32.6427280  80.1384329
  49.8829970  32.8431779  79.4023348  50.1312576  31.7956128  80.2508629
  50.2178601  32.5476061  80.0458020  45.5950166  33.1379331  75.5712302
  45.7514785  33.0726134  76.4268294  45.9350759  33.9127884  75.3590982
  45.6683400  33.2428530  75.6666896  52.1329310  32.5137215  74.4405665
  52.6744856  32.0107596  74.9044286  52.4475869  32.4602410  73.6295150
  52.2593707  32.4316636  74.3889477  50.3015760  37.9054567  71.7245693
  50.3708580  37.0469105  71.8638694  51.0804215  38.1226447  71.3964718
  50.4268610  37.8107430  71.6962851  53.2818580  27.4073519  84.4927966
  53.4960549  26.7684434  83.9391320  52.6652479  27.8519343  84.0635827
  53.2223909  27.3783663  84.3478397  54.6923247  40.3292268  75.9382187
  54.3003039  40.0258983  75.2205053  54.8476320  41.1661358  75.7487140
  54.6576837  40.4076105  75.8038684  42.1684427  30.3214282  75.8873069
  42.5483392  30.7398827  75.2233336  41.5939792  30.9027738  76.1941912
  42.1395752  30.4692141  75.8349810  54.8562922  36.8942257  75.8788217
  54.4977577  37.0656900  76.6552250  54.3701633  37.3555462  75.3216216
  54.7321619  36.9881228  75.9113486  52.6733308  20.5173455  79.4815308
  51.8026866  20.4912176  79.4348618  52.9273649  20.3450647  78.6641154
  52.5826868  20.4883599  79.3535445  49.6451288  32.5741422  68.4188451
  49.9343812  33.3506305  68.6932026  49.7323086  32.0630154  69.1202951
  49.7005544  32.6133340  68.5630949  49.6982449  22.5279684  80.9388779
  49.1820937  21.8359875  81.0640358  49.1376378  23.1950461  80.8851378
  49.5388962  22.5242941  80.9494845  57.7424662  29.6335299  81.3921334
  57.3152270  29.5461647  80.6369433  57.1050715  29.7413074  81.9776178
  57.5854269  29.6367958  81.3666775  45.8115229  31.8874687  80.5188564
  44.9703235  31.7878561  80.7267457  46.0205237  32.6570167  80.8702884
  45.7179921  31.9866730  80.6015878  43.2890796  29.5094224  78.3473314
  42.8947493  29.5837235  77.5723424  42.7330912  29.8952170  78.8981676
  43.1493608  29.5775998  78.3140974  54.9255742  22.4875518  78.0277193
  55.1305336  22.4197825  78.8734190  54.5982166  23.2934339  77.9598371
  54.9070990  22.5961458  78.1436848  49.6231893  29.8156086  79.7686161
  49.3195031  29.2612074  80.3696569  48.9211314  29.9948296  79.2814195
  49.4748103  29.7600868  79.7855867  48.6797991  27.1256606  74.3330863
  48.9557725  26.4075518  73.9208430  49.2796660  27.7241526  74.1251969
  48.8091255  27.1076976  74.2411624  47.6850244  37.0305807  84.4758259
  47.5770599  37.0407869  85.3420317  47.8946026  37.8560587  84.2863213
  47.7000356  37.1546881  84.5762350  58.1789430  23.0407282  77.5079959
  57.5663744  23.5277684  77.8933690  58.2753605  22.3650773  78.0517610
  58.1027328  23.0125591  77.6458817  52.1808511  24.7970123  72.6077458
  52.6352258  24.9680683  73.3325302  52.6548557  24.1838234  72.2075234
  52.3176831  24.7321008  72.6551220  45.7024036  34.2818449  81.9380196
  45.1111970  34.9227947  81.9083212  46.4645060  34.7056066  81.9111496
  45.7272297  34.4394287  81.9295344  55.4613553  39.7327761  79.3712221
  55.2633241  40.2218575  78.6768432  54.8401264  39.9369002  79.9496354
  55.3401117  39.8344299  79.3535444  49.5221531  31.5012657  73.7122465
  50.2663576  31.8886934  73.9505415  49.6682227  30.6570083  73.8762953
  49.6532116  31.4343130  73.7716435  51.4401106  23.2962916  78.7454327
  50.5937152  23.4685724  78.6195676  51.4372239  22.4912260  79.0820155
  51.3148256  23.2023945  78.7765454  52.5099407  27.0738131  79.6116385
  52.0359361  26.5479893  80.1221695  52.8817543  26.5267604  79.0431246
  52.4949296  26.9154127  79.6031532  58.7736137  32.1340506  81.0223165
  58.5334360  31.2946921  81.0265591  59.2528145  32.2140673  81.7463939
  58.8088321  32.0221906  81.1297967  54.4382907  27.9674685  72.6742138
  53.9105925  28.0503429  71.9847847  54.8978615  28.7092557  72.6706783
  54.4284757  28.0895348  72.5716833  60.7741324  28.9141964  78.9752424
  60.5351094  28.8737798  78.1373209  60.9375226  29.7613116  79.1018145
  60.7631628  29.0334049  78.8705906  46.2474223  27.8952086  81.6410348
  45.6227293  27.9070478  81.0336301  45.9119818  28.3712261  82.2901589
  46.1059715  27.9670603  81.6466917  46.4315972  26.2377205  67.6983034
  46.0828776  26.8896930  68.1614583  45.9512418  26.2234318  66.9706905
  46.3086216  26.3320258  67.6594125  42.9599899  35.9552546  83.0814113
  42.4299823  35.2644985  83.1309088  43.2324992  35.9462732  82.2526821
  42.9224621  35.8519678  82.9661529  53.9919989  36.5378249  71.8051795
  54.7154188  37.0036362  71.6616369  53.5520580  36.6051858  71.0549392
  54.0335681  36.6162086  71.6736577  53.1606144  33.3975791  83.0552484
  52.5463137  32.8533841  83.3501120  53.6773429  32.8840028  82.5758301
  53.1461807  33.2412200  83.0276713  52.4002441  34.4680061  80.7896783
  51.9730049  33.8429780  80.3562218  52.3927386  34.1854983  81.6155790
  52.3361582  34.3332842  80.8476611  50.7288151  25.3448816  81.0039317
  50.7530638  24.8108928  80.3152097  50.9799625  24.8366124  81.6664908
  50.7698070  25.1909720  81.0003962  38.2395741  32.6280311  80.4382461
  38.1339190  32.5827155  79.5734545  37.4895961  32.9734091  80.7196746
  38.1131344  32.6721219  80.3519791  47.0089473  24.0719634  80.3845061
  47.0487845  24.5728840  81.0979769  46.1839138  24.1630028  80.1150984
  46.8928999  24.1601450  80.4495600  48.4303837  30.5880144  82.6818960
  47.5995766  30.7553962  82.4754208  48.3755354  30.2116094  83.4667846
  48.2993251  30.5569875  82.7667488  46.8039880  28.8635735  73.2109078
  46.9442841  29.3608199  73.9137719  47.3022413  28.1622030  73.3523292
  46.8980961  28.8337714  73.3360657  46.8340103  29.7302846  70.5401655
  47.4685182  30.3263271  70.4751117  46.9165714  29.4306304  71.3547525
  46.9396654  29.7743754  70.6504741  48.4119086  25.6616822  70.5147097
  48.7334927  25.1819904  69.8606359  48.6746029  26.4716468  70.3237908
  48.4985111  25.7106720  70.3902589  53.8078241  25.0489016  82.8770576
  54.2333312  24.5961542  82.2654102  53.1935234  24.4949086  83.1535363
  53.7806886  24.9002992  82.8275601  43.3393091  31.9270687  73.8091201
  43.8485320  32.5235195  74.1902506  43.8127363  31.6596661  73.1267620
  43.4836466  31.9756502  73.7645724  54.2523839  40.5998954  71.9649856
  53.5353148  40.4259816  71.4997094  54.9030576  40.3651526  71.4325342
  54.2425689  40.5394746  71.8179074  52.2472463  21.5204115  76.2861153
  51.6040781  21.3701762  76.8546291  51.9071870  21.2746461  75.5210258
  52.1017541  21.4616238  76.2564168  56.8371810  29.4763542  75.7091162
  56.1663000  30.0193245  75.5804227  57.5311560  29.9458398  75.4672856
  56.8400677  29.6261813  75.6546689  50.8858544  41.6160254  80.9402920
  50.6624198  40.8579084  81.3086946  50.3968387  41.6458275  80.2183360
  50.7801993  41.5082479  80.8879661  56.9999937  25.9319426  78.6181535
  57.3527548  25.5049149  79.2927333  56.1414739  25.8470269  78.7482611
  56.9249382  25.8564167  78.7376545  45.6983622  28.5626946  76.6764381
  44.9795612  28.9791078  76.9437245  46.0695985  29.1281184  76.1256019
  45.6475554  28.7076227  76.6347188  54.9983203  29.1954794  82.5666377
  54.9781131  29.0138090  83.4201156  55.0462404  30.0666813  82.5425961
  55.0017844  29.2971333  82.6889672  49.5337001  41.8360712  78.3940004
  49.1197399  41.1734843  78.0043846  50.2184375  41.9838571  77.8735699
  49.5735372  41.7601371  78.2596502  52.9002295  40.9950798  79.1463621
  52.5018578  41.1053068  78.3784441  52.2853514  41.2032864  79.7290181
  52.7501184  41.0424366  79.1194920  51.4730197  27.6024945  72.0137761
  50.8795036  27.9241942  71.4622328  51.5105474  26.7566041  71.8058867
  51.3904586  27.5249274  71.9020532  54.3488013  27.5604450  75.4439511
  54.1201706  27.5837151  74.6017869  54.6086090  26.7361917  75.5634522
  54.3534201  27.4420530  75.3364709  47.4032776  26.0980996  76.7393707
  47.8790142  26.4598076  76.1043888  46.9021376  26.7537464  77.0193849
  47.3998135  26.2475185  76.6870448  60.6344137  35.5702764  72.5306712
  61.0177743  36.3194121  72.7604809  59.8388251  35.8168584  72.2718701
  60.5737920  35.7172458  72.5264285  49.4459429  28.2422196  70.1067091
  49.8258394  28.2601825  69.3218205  48.7052025  28.6876185  69.9857938
  49.3928267  28.3103971  69.9730659  57.0744720  26.5504387  75.6942669
  57.0738946  26.3953044  76.5526946  56.8700900  27.3967374  75.6384055
  57.0444497  26.6525008  75.8130609  39.1361990  29.9744172  80.1101486
  38.9583752  29.5220781  80.8356401  38.8481013  30.7770333  80.2939963
  39.0674944  30.0266730  80.2444989  54.7985572  31.2301889  79.3478876
  55.2939237  30.5124884  79.3082896  53.9885347  30.9272687  79.2333363
  54.7529465  31.0799535  79.3252602  50.2444183  35.0799702  71.4975881
  49.4355506  34.7566376  71.4509190  50.7519092  34.3732924  71.4304129
  50.1993850  34.9281019  71.4806175  40.8734460  32.5071895  77.2223245
  40.0079980  32.4957586  77.1106016  40.9733276  32.3202118  78.0694384
  40.7608627  32.4777957  77.3312189  56.8637390  33.9805577  82.0356005
  57.2892462  33.4579998  81.4826430  56.4994310  34.5786414  81.5144628
  56.8723993  33.9915804  81.8765015  46.4991470  42.2769794  80.7953350
  46.8138029  43.0906183  80.8031132  46.9084884  41.8920013  81.4635510
  46.6059568  42.3398496  80.8957442  53.4515990  37.6939841  78.3657162
  53.9227168  38.4080103  78.5347148  53.7876168  37.0938591  78.9017032
  53.5711105  37.7111305  78.4689538  49.4378600  24.4683724  72.7894722
  50.2594294  24.6382037  72.5476417  48.9748251  24.6230985  72.0661020
  49.4909762  24.5165457  72.6466366  43.8404490  36.2242903  80.4431959
  44.4449348  36.1838737  79.8145780  43.6331803  37.0714055  80.4736015
  43.8993388  36.3430905  80.3548075  53.6548263  38.4908848  81.6594196
  54.4746636  38.3471814  81.9210491  53.3742340  39.1155047  82.2010634
  53.7345006  38.5619200  81.7782136  39.0755773  35.2077520  80.3130882
  38.9780051  34.3973792  80.6220939  39.8584642  35.1869313  79.9277150
  39.1771909  35.0844610  80.3017745  61.8810521  44.7136019  74.2659112
  62.5790686  44.8924147  74.7580575  62.1962854  44.1906359  73.6429501
  62.0305858  44.6629791  74.2461122  60.0537385  40.0828416  78.3480386
  59.7240715  40.5339560  77.6784085  59.3782386  40.0044579  78.8953393
  59.9047821  40.1379551  78.3303609  67.2613792  36.0713939  76.5929997
  66.9467233  36.7617418  77.0250419  66.7440734  36.0158721  75.8915498
  67.1378263  36.1648828  76.5526946  58.4925834  49.9681657  71.5074875
  57.9083049  50.4731688  71.9140739  58.0895929  49.7424044  70.7671467
  58.3465138  50.0089905  71.4579901  62.9503048  46.2147309  69.9843796
  63.1899052  46.4225292  69.1719139  63.2718889  45.4104817  70.0932740
  63.0340206  46.1261410  69.8804349  58.2593339  38.1440704  73.8303334
  59.0139307  38.5119022  73.5920384  58.0820873  38.5180259  74.5982513
  58.3447817  38.2538892  73.9088222  56.6150403  40.5511023  70.5281447
  56.4325977  40.7682904  69.7022440  57.4776016  40.6650036  70.5840061
  56.7154993  40.6000921  70.4135934  62.2950123  37.5537434  73.5630471
  63.0236283  37.3753389  73.1168627  62.3845015  38.3955514  73.7737649
  62.4156785  37.6521313  73.5283988  56.1612430  43.8285196  69.0403920
  55.4470607  43.5423376  69.4526352  56.6456399  44.1681822  69.6810307
  56.1271794  43.8366846  69.1959555  63.3359748  52.3315150  69.4165728
  63.7510897  52.0000174  68.7250224  62.5051678  52.0984052  69.2885865
  63.2747757  52.2486406  69.2956576  66.0293138  48.5825709  68.6026930
  65.9473301  48.6527897  69.4681917  66.6672859  49.1455453  68.4110670
  66.1112976  48.6764681  68.7016879  48.1077841  45.5464285  76.5710791
  48.1938092  45.1696153  77.3524321  48.7353638  45.1724730  76.0930750
  48.2134392  45.4349767  76.6156269  63.1333249  48.6046164  71.6135536
  63.9473887  48.8961057  71.5018307  63.0692390  47.9506026  71.0393829
  63.2435988  48.5511358  71.5124373  59.6443972  47.2969971  71.0782737
  60.0289125  47.0777678  71.8299283  59.3955592  48.1232916  71.2083814
  59.6646044  47.3868117  71.2083814  57.3644409  38.9666908  76.4091518
  56.4966835  39.0389507  76.4749127  57.6519614  39.7688987  76.5979493
  57.2784157  39.0961055  76.4466285  55.2911761  42.4425167  73.8508394
  55.0036557  42.0726437  73.1140342  55.9782230  42.9120022  73.5892099
  55.3500659  42.4572136  73.7023470  58.1265433  46.3078115  75.2975799
  58.8488085  46.4719273  74.8379605  57.6473426  47.0287780  75.1915139
  58.1629164  46.4376345  75.2141413  64.5328219  39.5427291  75.4100100
  65.2354572  39.3435039  74.9320058  64.2672408  38.7703233  75.7168943
  64.5974851  39.3990257  75.3845541  52.8639956  43.2206379  74.6993675
  52.9656092  44.0232541  75.0274651  53.6595843  43.0193715  74.4016756
  52.9967862  43.3092278  74.7029031  64.5709271  51.8207964  66.9551341
  65.3382256  51.8808089  66.5457193  64.1240580  51.2488405  66.4707660
  64.6182698  51.7444539  66.8229052  53.1417011  45.8399590  75.8873069
  53.5215975  46.2584135  75.2233336  52.5672375  46.4213045  76.1941912
  53.1128335  45.9877449  75.8349810  63.6465892  36.0358763  79.4815308
  62.7759450  36.0097484  79.4348618  63.9006233  35.8635955  78.6641154
  63.5559452  36.0068907  79.3535445  60.6183871  48.0926730  68.4188451
  60.9076396  48.8691612  68.6932026  60.7055670  47.5815461  69.1202951
  60.6738127  48.1318648  68.5630949  59.6530574  42.6441914  74.3330863
  59.9290308  41.9260826  73.9208430  60.2529243  43.2426833  74.1251969
  59.7823839  42.6262284  74.2411624  63.1541095  40.3155431  72.6077458
  63.6084841  40.4865991  73.3325302  63.6281140  39.7023542  72.2075234
  63.2909415  40.2506316  72.6551220  60.4954115  47.0197965  73.7122465
  61.2396160  47.4072242  73.9505415  60.6414811  46.1755391  73.8762953
  60.6264700  46.9528438  73.7716435  62.4133690  38.8148224  78.7454327
  61.5669735  38.9871032  78.6195676  62.4104823  38.0097568  79.0820155
  62.2880840  38.7209253  78.7765454  65.4115490  43.4859993  72.6742138
  64.8838509  43.5688737  71.9847847  65.8711198  44.2277865  72.6706783
  65.4017341  43.6080656  72.5716833  57.4048555  41.7562513  67.6983034
  57.0561360  42.4082238  68.1614583  56.9245001  41.7419626  66.9706905
  57.2818799  41.8505566  67.6594125  57.7772464  44.3821043  73.2109078
  57.9175425  44.8793507  73.9137719  58.2754997  43.6807338  73.3523292
  57.8713545  44.3523022  73.3360657  57.8072686  45.2488154  70.5401655
  58.4417766  45.8448579  70.4751117  57.8898297  44.9491612  71.3547525
  57.9129237  45.2929062  70.6504741  59.3851669  41.1802130  70.5147097
  59.7067510  40.7005212  69.8606359  59.6478613  41.9901776  70.3237908
  59.4717695  41.2292028  70.3902589  54.3125674  47.4455995  73.8091201
  54.8217904  48.0420502  74.1902506  54.7859947  47.1781969  73.1267620
  54.4569050  47.4941810  73.7645724  63.2205047  37.0389423  76.2861153
  62.5773365  36.8887070  76.8546291  62.8804454  36.7931769  75.5210258
  63.0750124  36.9801546  76.2564168  56.6716206  44.0812254  76.6764381
  55.9528195  44.4976386  76.9437245  57.0428568  44.6466492  76.1256019
  56.6208138  44.2261535  76.6347188  62.4462780  43.1210253  72.0137761
  61.8527620  43.4427250  71.4622328  62.4838058  42.2751349  71.8058867
  62.3637169  43.0434582  71.9020532  58.3765359  41.6166304  76.7393707
  58.8522726  41.9783384  76.1043888  57.8753959  42.2722772  77.0193849
  58.3730718  41.7660493  76.6870448  60.4192013  43.7607504  70.1067091
  60.7990977  43.7787133  69.3218205  59.6784609  44.2061493  69.9857938
  60.3660850  43.8289279  69.9730659  61.2176767  50.5985010  71.4975881
  60.4088089  50.2751684  71.4509190  61.7251676  49.8918232  71.4304129
  61.1726433  50.4466327  71.4806175  60.4111183  39.9869032  72.7894722
  61.2326878  40.1567345  72.5476417  59.9480834  40.1416293  72.0661020
  60.4642346  40.0350765  72.6466366  35.4588394   0.6719584  62.0767281
  34.7071294   0.2935122  61.8483326  35.9074406   0.7038017  61.3286092
  35.4138061   0.6205191  61.9324784  40.9113354   1.0944953  57.5052828
  40.5764723   1.7721875  57.0697051  41.4240225   0.7050264  56.9169700
  40.9378935   1.1369531  57.3539620  40.4517645   3.0459222  63.4463940
  40.8357025   3.6146120  62.9068715  40.3876787   2.3208732  62.9669756
  40.4991073   3.0234685  63.2957803  36.8773890   5.6015565  65.7444910
  37.5211346   6.0428729  66.1341068  37.2030146   4.7968991  65.6575169
  37.0205719   5.5480760  65.7890387  37.5794470  -1.3872460  61.1164772
  37.9010311  -0.8467253  60.5126080  38.2266566  -1.9575689  61.2487061
  37.7220525  -1.3913285  61.0471807  37.6752871   1.4182362  60.0855155
  37.9651170   1.0271344  59.3614381  38.4056352   1.5999067  60.5260430
  37.8259756   1.3876176  60.0437962  35.6158787   3.3949745  63.1515304
  35.3959082   3.1047099  63.9441971  35.3953309   2.7364700  62.6233217
  35.5506381   3.2549453  63.1904213  37.7826743   4.7679135  61.9345997
  38.4350801   4.2355577  62.1637023  37.0852351   4.4147787  62.3213871
  37.7757461   4.6368658  62.0258164  42.2473239   0.0322333  60.7014055
  42.0059915  -0.7009807  60.2941120  42.4274572   0.5809190  60.0480389
  42.2380863   0.0044724  60.5444278  39.7976267   0.6903295  61.9091439
  40.5626158   0.4212939  61.5874103  39.6954357   0.2053306  62.6261502
  39.8957762   0.5792860  61.9671266  39.0234000  -0.6752610  58.6585740
  39.0926821  -1.5338072  58.7978740  39.8022455  -0.4580729  58.3304765
  39.1486850  -0.7699746  58.6302897  43.4141488   1.7485091  62.8722233
  43.0221280   1.4451806  62.1545100  43.5694560   2.5854181  62.6827187
  43.3795078   1.8268928  62.7378730  44.1831793   1.1520584  66.3052268
  43.9851482   1.6411398  65.6108479  43.5619504   1.3561825  66.8836401
  44.0619357   1.2537122  66.2875491  42.9742079   2.0191777  58.8989903
  42.2571389   1.8452639  58.4337141  43.6248817   1.7844349  58.3665389
  42.9643930   1.9587569  58.7519121  38.2555241   3.2553536  65.3280051
  37.8415640   2.5927666  64.9383893  38.9402615   3.4031394  64.8075745
  38.2953613   3.1794194  65.1936548  41.6220535   2.4143621  66.0803668
  41.2236818   2.5245891  65.3124488  41.0071755   2.6225687  66.6630228
  41.4719424   2.4617189  66.0534967  58.8480153   7.5666523  61.5577119
  58.8174158   8.4211159  61.7295389  59.4461502   7.2661815  62.1163263
  58.9317311   7.6483019  61.6651922  52.0479838   6.6542174  66.3130050
  51.1917734   6.8150672  66.3639167  52.0947492   5.7834238  66.3335111
  51.9278950   6.5492976  66.3236116  46.4320978  16.1904892  62.0767281
  45.6803877  15.8120430  61.8483326  46.8806990  16.2223325  61.3286092
  46.3870645  16.1390499  61.9324784  51.8845938  16.6130261  57.5052828
  51.5497306  17.2907183  57.0697051  52.3972808  16.2235572  56.9169700
  51.9111519  16.6554839  57.3539620  51.4250229  18.5644530  63.4463940
  51.8089608  19.1331428  62.9068715  51.3609370  17.8394040  62.9669756
  51.4723656  18.5419993  63.2957803  54.8931659   8.7134218  68.9561701
  55.4387619   9.3919304  69.0155671  54.8348535   8.5721678  68.0963283
  54.9647573   8.7926219  68.8373762  48.0105734  16.2023284  64.3430054
  48.1116097  15.3923638  64.6527182  47.4147479  16.1080230  63.7129732
  47.9378273  16.0688312  64.2956292  56.6696728  10.1418825  59.8295429
  56.5536254  10.8926511  60.2587567  57.4652614   9.8842778  60.0791516
  56.7701317  10.2153672  59.9299521  47.8506474  21.1200873  65.7444910
  48.4943929  21.5614037  66.1341068  48.1762729  20.3154299  65.6575169
  47.9938302  21.0666068  65.7890387  41.2070778  12.2243570  63.9682388
  40.9720963  11.3911223  63.8614656  41.3456419  12.5048236  63.1543589
  41.1926441  12.1427074  63.8324743  43.5060866   4.3929301  66.8666695
  42.8865897   3.8021948  66.6976710  43.4044729   4.9840736  66.2331018
  43.3998541   4.3933383  66.7471685  48.5527053  14.1312848  61.1164772
  48.8742894  14.6718055  60.5126080  49.1999150  13.5609619  61.2487061
  48.6953108  14.1272023  61.0471807  50.6028761   6.1328843  61.1999158
  51.3008926   6.3116970  61.6920622  50.9181094   5.6099182  60.5769548
  50.7524099   6.0822615  61.1801168  43.2329999   7.9381583  69.1110264
  43.1088696   8.5244028  69.7460083  43.8848283   7.4441778  69.4122539
  43.3103648   7.9520387  69.2496194  50.7916697  12.5199288  61.1878950
  51.2310332  11.9116388  61.6333723  50.6421360  12.1406661  60.4164415
  50.8338162  12.3737759  61.1398117  48.2588340  11.1143300  68.3897775
  48.9037342  10.6215743  68.0708724  48.4990117  11.2568086  69.2163854
  48.3898925  11.0620742  68.4647309  50.7974431  13.9598205  68.0404668
  51.0797674  13.1649611  67.8191424  51.5260592  14.4378793  68.0609729
  50.9463995  13.9132802  68.0107683  48.7755625   1.5021239  65.2820433
  48.4458955   1.9532383  64.6124132  48.1000627   1.4237403  65.8293439
  48.6266061   1.5572375  65.2643656  54.3926033  10.8726469  58.1409719
  54.3077328  11.7287436  58.2859288  54.8810417  10.5970793  58.8091878
  54.4514931  10.9583790  58.2611801  55.3244467   7.4911263  59.6407454
  54.7955938   7.7070897  60.3004760  55.8469486   8.1847402  59.5608424
  55.3232920   7.6254400  59.7263053  60.7792519  13.0657568  65.0140499
  59.9490223  13.2768211  65.1773915  60.7301772  12.2394622  64.7382782
  60.6499255  12.9747174  64.9977864  47.2144074  11.3874480  58.4414922
  46.6301290  11.8924511  58.8480786  46.8114170  11.1616867  57.7011514
  47.0683378  11.4282728  58.3919947  42.7688103  17.1029241  65.2438594
  42.2855681  17.8279731  65.2198177  43.5811421  17.4005371  65.3548751
  42.8178851  17.2531595  65.2565873  48.8402257  15.8961422  67.8488408
  48.3229199  15.5368837  67.2449716  49.5376648  15.3723596  67.8594474
  48.8667838  15.7659110  67.7618667  52.4965849  16.3456236  73.8104581
  52.5849195  16.1582376  74.6582792  52.9255562  15.6993665  73.4109428
  52.5727951  16.2219243  73.8776333  50.0636309  15.6287396  72.7922243
  49.5007144  15.2160006  73.3161905  50.8257332  15.5540301  73.2115387
  50.0930757  15.5564796  72.9315244  51.6721289   7.6340132  56.9183843
  51.9117292   7.8418116  56.1059186  51.9937130   6.8297641  57.0272787
  51.7558447   7.5454233  56.8144396  45.6232300  17.6185417  65.3958874
  46.3252880  17.1037406  65.4531630  45.5429783  17.9459568  66.2005749
  45.7156061  17.5899643  65.5231666  45.3368644   1.9703847  57.4621494
  45.1544217   2.1875728  56.6362486  46.1994257   2.0842859  57.5180108
  45.4373233   2.0193745  57.3475981  44.9483076  13.8091769  64.9044482
  45.7871975  14.0414702  64.9518243  44.9794845  12.9396080  64.8351517
  45.0764793  13.7148715  64.9009126  45.5735779  14.2292644  69.2057787
  46.1134004  14.0863775  69.8761159  44.8905725  14.6289395  69.5741813
  45.5527933  14.2672315  69.3592209  54.9976664   9.9083645  64.4002811
  55.7534179  10.3415159  64.4391720  55.1038988   9.2588414  64.9737448
  55.1246834   9.8761129  64.4900837  58.0356835  13.7356922  65.1505214
  57.5992067  13.7393664  65.9064186  57.7019750  14.4162421  64.7184792
  57.9219455  13.8369378  65.1986047  52.6085908  15.7765255  76.4748365
  53.3926325  15.8896103  76.8404107  52.4082503  14.9506392  76.6707051
  52.6951934  15.6711974  76.5582751  40.9772924  10.4492935  69.3592209
  40.7111339   9.6332052  69.5183199  40.9911488  10.4946090  68.4887724
  40.9397646  10.3349840  69.2545691  44.8830671   5.2478019  55.9743967
  44.1688848   4.9616199  56.3866399  45.3674639   5.5874645  56.6150354
  44.8490034   5.2559669  56.1299602  52.7656302  17.6875357  70.1214820
  51.9671547  17.4474857  70.3788689  53.2142313  17.7389750  70.8681868
  52.7130913  17.6597748  70.2699745  61.1701181  10.4537842  64.0424852
  61.8317615   9.8928510  63.9420760  60.5292593   9.9589873  64.3677543
  61.1730048  10.2974251  64.0757192  52.0577989  13.7507973  56.3505775
  52.4729137  13.4192997  55.6590271  51.2269918  13.5176876  56.2225912
  51.9965997  13.6679229  56.2296622  41.3866337  11.2351714  66.6403953
  41.2041911  11.2098600  65.7876245  42.1216006  11.7050652  66.6792862
  41.4680401  11.3013077  66.5201871  57.4566012  11.4703224  63.7836840
  57.6921601  11.6148423  62.9563691  57.6055575  12.2345632  64.1768354
  57.5131815  11.6042279  63.7200444  59.2856468  10.3104890  61.6206444
  59.6164685  10.8432530  61.0146539  59.8589556  10.3643778  62.2768395
  59.4190147  10.3974459  61.6284226  54.4988357   8.1569793  62.3030024
  54.5935212   8.8959087  62.7569650  53.8747201   7.7287268  62.7364589
  54.4197388   8.2031114  62.4338172  52.7540831  11.3356006  72.9520305
  53.3279693  10.6983250  73.1068869  52.6755635  11.3360088  72.0829963
  52.8274066  11.2421117  72.8466716  41.3537248   8.1145215  66.7903019
  41.9310750   7.9781666  67.4295265  40.6551309   7.6580999  67.0448604
  41.3358269   8.0267481  66.9225309  54.7511379  10.0018533  55.5366976
  54.6691541  10.0720720  56.4021963  55.3891099  10.5648277  55.3450717
  54.8331216  10.0957504  55.6356926  48.1104550   9.7679271  65.0041503
  47.8523794   8.9351006  64.9772802  48.1653033   9.9936884  64.1634003
  48.0804328   9.6777042  64.8761639  47.0839262   7.3217033  65.4906397
  46.5088853   7.4809202  66.1270358  46.7074938   6.6852442  65.0274848
  46.9442074   7.2514846  65.5160956  50.7512551   5.7940382  70.3498776
  50.3626983   5.3694600  69.6950967  50.0867249   6.0422532  70.8575803
  50.5959478   5.7679104  70.3286644  36.8296081   6.9657108  63.5050838
  36.9156333   6.5888976  64.2864368  37.4571878   6.5917554  63.0270796
  36.9352632   6.8542590  63.5496315  51.8551489  10.0238987  58.5475583
  52.6692128  10.3153880  58.4358354  51.7910630   9.3698849  57.9733876
  51.9654228   9.9704182  58.4464420  47.7259397  13.4960504  63.6747895
  48.3633344  13.2572252  64.2199688  48.1514469  13.6997663  62.9401056
  47.8835563  13.4911515  63.6465052  42.4172040  15.7348841  67.5582199
  42.4576185  16.0063692  66.7301978  42.9766564  16.2590749  67.9739987
  42.5055386  15.8524596  67.4974087  48.3662212   8.7162794  58.0122784
  48.7507365   8.4970501  58.7639329  48.1173833   9.5425740  58.1423861
  48.3864285   8.8060940  58.1423861  59.0997400  12.4909432  69.0233453
  58.7943217  13.2237489  69.3846769  58.3803615  12.0847361  68.7426239
  58.9484742  12.5391165  69.0346590  50.1080869  13.9732927  65.3541681
  50.1819877  13.8108099  66.2083531  50.9250376  14.1623117  65.1102163
  50.2397228  13.9769669  65.4439707  43.8686626  14.3190790  62.3836125
  43.0424744  14.5652527  62.2570403  43.9298617  14.2402871  63.2498183
  43.7560793  14.3435739  62.4925069  46.0862650   0.3859731  63.3431565
  45.2185075   0.4582330  63.4089174  46.3737854   1.1881810  63.5319540
  46.0002398   0.5153878  63.3806331  48.6485455  16.9367670  60.0855155
  48.9383753  16.5456651  59.3614381  49.3788936  17.1184375  60.5260430
  48.7992339  16.9061484  60.0437962  49.2380200  11.7385416  71.1708285
  48.7391894  12.4501184  71.2493174  50.0480424  12.0586083  71.1326447
  49.2836307  11.8912265  71.1764854  46.5891370  18.9135053  63.1515304
  46.3691666  18.6232407  63.9441971  46.3685893  18.2550008  62.6233217
  46.5238965  18.7734761  63.1904213  45.5008318  11.0008369  65.4171006
  45.2121566  10.3745840  65.9516733  46.3691666  10.9428656  65.4835686
  45.5868570  10.8995913  65.5061961  56.2886215   6.1443152  65.7352988
  55.9450981   5.4233488  66.0860238  56.3879258   5.9357004  64.8931346
  56.2528258   6.0067356  65.6624668  48.7559326  20.2864442  61.9345997
  49.4083384  19.7540885  62.1637023  48.0584935  19.9333095  62.3213871
  48.7490044  20.1553965  62.0258164  45.7040591  12.6403620  61.3413371
  46.4586559  13.0216659  61.5548834  45.1111204  13.0914764  61.7960068
  45.7277305  12.7632447  61.4396249  56.7499245  12.6068857  61.2776976
  57.3157277  13.2662066  61.1935519  56.1027148  12.9518555  61.7493378
  56.7378001  12.7550798  61.3349732  47.0238818  13.8112181  66.7153486
  46.5019571  13.9512473  67.4005351  47.4112838  13.0522846  66.9055604
  47.0042519  13.7197705  66.8454563  44.0130002   3.8617990  60.7848441
  43.7254797   3.4919261  60.0480388  44.7000470   4.3312846  60.5232146
  44.0718899   3.8764960  60.6363517  53.2205823  15.5507641  60.7014055
  52.9792499  14.8175501  60.2941120  53.4007156  16.0994498  60.0480389
  53.2113447  15.5230032  60.5444278  48.4505143  10.8416201  62.1134977
  48.2547926  11.4490935  61.5195280  48.6739489  10.1484145  61.6326651
  48.4539784  10.8293726  61.9551058  46.8483673   7.7270938  62.2315846
  47.5706325   7.8912097  61.7719652  46.3691666   8.4480603  62.1255186
  46.8847404   7.8569168  62.1481460  54.8077181   4.0634737  67.6112531
  53.9688281   4.0896016  67.3750794  54.8781548   4.7105473  68.1917877
  54.6945574   4.1630863  67.6621648  44.4991290  10.1329011  71.3369986
  45.0112387  10.4113264  70.6878745  44.2127633  10.8718305  71.7032799
  44.5326153  10.2831365  71.2959864  58.6834705   9.2702724  64.8973773
  58.5968679   9.4258150  65.7508551  58.2285185   9.9140800  64.5233178
  58.6037961   9.3878479  64.9680879  41.5858196   4.6399203  61.6333722
  41.6874333   5.4425364  61.9614698  42.3814083   4.4386539  61.3356803
  41.7186102   4.7285101  61.6369078  52.5560521   6.5913471  63.5199332
  52.3095235   6.5109222  64.3536121  52.8845644   5.8066939  63.3261860
  52.5681764   6.4639736  63.6146855  56.4508570  13.2996830  67.3086113
  56.3122929  13.9977876  67.8134856  55.6708567  13.1445487  66.9522295
  56.3151796  13.3796997  67.3312387  48.5157548   9.3270190  72.9322315
  48.6600924   9.9071398  72.2965425  48.8633197   9.7046486  73.6372170
  48.5885009   9.4690894  72.9421310  50.6877465   8.5260358  70.7147447
  49.9400779   8.7191372  70.3095725  50.8418991   7.7005578  70.4771568
  50.5999893   8.4325469  70.6192853  47.5885303  17.5172961  69.7983342
  47.7374867  16.9575877  69.1456746  48.3685305  17.5964963  70.1815861
  47.7259397  17.4458527  69.7580291  57.9461942  12.6575084  58.0702612
  57.5668751  11.8712222  58.0631902  57.2828188  13.2061941  57.9274257
  57.7920417  12.6219908  58.0483409  50.1138604  17.6887604  71.0767833
  50.0382275  17.0196415  71.6318621  50.0428463  18.3905393  71.5908499
  50.0919211  17.6932512  71.2344681  50.7708851  16.2088603  61.9091439
  51.5358742  15.9398247  61.5874103  50.6686941  15.7238614  62.6261502
  50.8690346  16.0978168  61.9671266  48.8061620   4.4113013  68.4484674
  48.0157695   4.2304473  68.7702010  49.2022243   3.6339965  68.4314969
  48.7478497   4.2700474  68.4937223  53.2927511  13.2400787  53.8891388
  54.0600496  13.3000912  53.4797240  52.8458820  12.6681228  53.4047707
  53.3400938  13.1637363  53.7569098  54.1905307  12.0455443  66.1744120
  53.5150308  11.8140675  66.6757507  54.1997683  11.4376626  65.5486225
  54.0923811  11.9214368  66.1560273  51.3199451   6.8873272  72.9308173
  51.2558592   7.7483228  72.8028310  51.4596638   6.5705265  72.1303725
  51.3314921   6.9673438  72.7936386  56.1922041  14.9020575  58.4054298
  56.2741879  15.7087561  58.0815749  56.6771783  14.9216534  59.1295072
  56.2759199  15.0241238  58.4641197  50.0018545   9.5805411  67.0724376
  49.5780794   9.7809910  66.3363395  49.8263400   8.7334259  67.1848676
  49.9129425   9.4854193  66.9798066  49.5030238  21.0955924  69.5345834
  49.9926168  20.3966713  69.3521498  48.9314470  20.7979794  70.1221891
  49.4914768  20.9482148  69.5946874  45.2900989  10.0757463  62.5052349
  45.4465609  10.0104265  63.3608341  45.6301583  10.8506015  62.2931028
  45.3634224  10.1806661  62.6006943  51.8280134   9.4515346  61.3745712
  52.3695680   8.9485727  61.8384333  52.1426693   9.3980541  60.5635197
  51.9544531   9.3694767  61.3229524  49.9966584  14.8432698  58.6585740
  50.0659404  13.9847236  58.7978740  50.7755039  15.0604579  58.3304765
  50.1219434  14.7485562  58.6302897  52.9769403   4.3451651  71.4268012
  53.1911373   3.7062565  70.8731366  52.3603303   4.7897475  70.9975874
  52.9174733   4.3161794  71.2818444  54.3874071  17.2670399  62.8722233
  53.9953863  16.9637114  62.1545100  54.5427144  18.1039489  62.6827187
  54.3527661  17.3454236  62.7378730  41.8635251   7.2592413  62.8213116
  42.2434216   7.6776958  62.1573383  41.2890616   7.8405869  63.1281959
  41.8346576   7.4070272  62.7689857  54.5513746  13.8320388  62.8128264
  54.1928401  14.0035031  63.5892296  54.0652457  14.2933593  62.2556262
  54.4272443  13.9259359  62.8453533  49.3402112   9.5119553  55.3528498
  49.6294636  10.2884436  55.6272073  49.4273910   9.0008285  56.0542998
  49.3956368   9.5511472  55.4970996  55.7118486  14.7224284  73.7595465
  56.3498206  14.2284479  73.4257921  55.0692577  14.6501684  73.1747692
  55.7112712  14.6383292  73.6237820  57.4375486   6.5713430  68.3261380
  57.0103094   6.4839778  67.5709480  56.8001539   6.6791205  68.9116224
  57.2805093   6.5746090  68.3006822  55.7672742  15.4144092  70.4000822
  56.5565120  15.0633157  70.5202903  55.9416340  16.2280480  70.1377455
  55.9093024  15.4829949  70.3788690  45.5066053   8.8252818  67.4528610
  44.6654059   8.7256692  67.6607504  45.7156060   9.5948298  67.8042931
  45.4130745   8.9244861  67.5355925  42.9841619   6.4472355  65.2813361
  42.5898317   6.5215367  64.5063471  42.4281736   6.8330301  65.8321723
  42.8444432   6.5154129  65.2481021  49.3182717   6.7534217  66.7026208
  49.0145855   6.1990205  67.3036616  48.6162138   6.9326427  66.2154242
  49.1698927   6.6978999  66.7195914  48.3748814   4.0634737  61.2670910
  48.6508549   3.3453649  60.8548477  48.9747484   4.6619657  61.0592016
  48.5042079   4.0455108  61.1751671  47.3801068  13.9683938  71.4098306
  47.2721423  13.9786000  72.2760364  47.5896850  14.7938718  71.2203259
  47.3951179  14.0925013  71.5102397  45.3974860  11.2196580  68.8720243
  44.8062794  11.8606078  68.8423258  46.1595884  11.6434197  68.8451543
  45.4223121  11.3772419  68.8635390  55.1564377  16.6705892  66.3052268
  54.9584065  17.1596706  65.6108479  54.5352088  16.8747133  66.8836401
  55.0351941  16.7722430  66.2875491  49.2172355   8.4390789  60.6462512
  49.9614400   8.8265065  60.8845462  49.3633051   7.5948214  60.8103000
  49.3482940   8.3721261  60.7056482  52.2050231   4.0116262  66.5456431
  51.7310185   3.4858024  67.0561742  52.5768367   3.4645735  65.9771293
  52.1900120   3.8532258  66.5371579  58.4686961   9.0718638  67.9563212
  58.2285184   8.2325053  67.9605638  58.9478969   9.1518804  68.6803985
  58.5039145   8.9600037  68.0638014  54.1333730   4.9052816  59.6082185
  53.6056749   4.9881560  58.9187894  54.5929439   5.6470688  59.6046830
  54.1235581   5.0273479  59.5056880  60.4692148   5.8520095  65.9092471
  60.2301918   5.8115929  65.0713256  60.6326050   6.6991247  66.0358192
  60.4582452   5.9712180  65.8045953  45.9425047   4.8330218  68.5750395
  45.3178117   4.8448610  67.9676348  45.6070642   5.3090393  69.2241635
  45.8010539   4.9048735  68.5806964  46.1266796   3.1755336  54.6323080
  45.7779600   3.8275061  55.0954630  45.6463241   3.1612449  53.9046951
  46.0037040   3.2698390  54.5934172  42.6550722  12.8930678  70.0154160
  42.1250647  12.2023117  70.0649134  42.9275816  12.8840863  69.1866868
  42.6175445  12.7897809  69.9001576  53.6870813  13.4756380  58.7391842
  54.4105012  13.9414493  58.5956415  53.2471404  13.5429990  57.9889439
  53.7286505  13.5540217  58.6076624  52.8556968  10.3353922  69.9892531
  52.2413961   9.7911973  70.2841166  53.3724253   9.8218159  69.5098347
  52.8412630  10.1790331  69.9616760  52.0953265  11.4058192  67.7236830
  51.6680873  10.7807911  67.2902265  52.0878210  11.1233114  68.5495837
  52.0312406  11.2710973  67.7816657  37.9346565   9.5658442  67.3722508
  37.8290014   9.5205286  66.5074592  37.1846785   9.9112222  67.6536793
  37.8082168   9.6099350  67.2859838  46.7040297   1.0097765  67.3185108
  46.7438669   1.5106972  68.0319816  45.8789962   1.1008159  67.0491031
  46.5879823   1.0979581  67.3835646  48.1254661   7.5258275  69.6159007
  47.2946590   7.6932093  69.4094255  48.0706178   7.1494226  70.4007892
  47.9944075   7.4948006  69.7007535  46.4990704   5.8013866  60.1449125
  46.6393665   6.2986331  60.8477766  46.9973237   5.1000161  60.2863338
  46.5931785   5.7715845  60.2700704  46.5290927   6.6680977  57.4741702
  47.1636006   7.2641402  57.4091163  46.6116538   6.3684435  58.2887572
  46.6347478   6.7121886  57.5844788  48.1069910   2.5994953  57.4487144
  48.4285751   2.1198035  56.7946406  48.3696853   3.4094599  57.2577955
  48.1935935   2.6484851  57.3242636  51.3366882  13.6213827  70.9685960
  50.8291973  14.1749674  71.4126590  51.0393529  13.6822117  70.1504734
  51.2171767  13.7120138  70.9134416  43.0343915   8.8648818  60.7431248
  43.5436144   9.4613326  61.1242553  43.5078187   8.5974792  60.0607667
  43.1787290   8.9134634  60.6985770  53.9474663  17.5377085  58.8989903
  53.2303972  17.3637947  58.4337141  54.5981400  17.3029657  58.3665389
  53.9376513  17.4772877  58.7519121  56.5322634   6.4141673  62.6431208
  55.8613824   6.9571376  62.5144274  57.2262384   6.8836529  62.4012903
  56.5351501   6.5639945  62.5886736  50.5809368  18.5538385  67.8742967
  50.3575022  17.7957215  68.2426993  50.0919211  18.5836407  67.1523406
  50.4752817  18.4460610  67.8219708  45.3934446   5.5005077  63.6104428
  44.6746435   5.9169209  63.8777292  45.7646809   6.0659316  63.0596066
  45.3426378   5.6454358  63.5687235  54.6934027   6.1332926  69.5006424
  54.6731954   5.9516221  70.3541203  54.7413228   7.0044944  69.4766007
  54.6968668   6.2349464  69.6229719  52.6380357  12.7220118  75.4254900
  52.5976212  12.0769795  74.8400056  53.4503675  12.6656735  75.7380312
  52.7523511  12.6179085  75.3851850  49.2287825  18.7738844  65.3280051
  48.8148223  18.1112974  64.9383893  49.9135199  18.9216702  64.8075745
  49.2686196  18.6979502  65.1936548  52.5953119  17.9328929  66.0803668
  52.1969402  18.0431199  65.3124488  51.9804338  18.1410995  66.6630228
  52.4452008  17.9802497  66.0534967  51.1681021   4.5403077  58.9477808
  50.5745860   4.8620073  58.3962375  51.2056298   3.6944172  58.7398914
  51.0855410   4.4627405  58.8360579  54.0438837   4.4982581  62.3779558
  53.8152530   4.5215283  61.5357916  54.3036914   3.6740048  62.4974568
  54.0485025   4.3798661  62.2704755  47.0983600   3.0359127  63.6733753
  47.5740966   3.3976207  63.0383935  46.5972199   3.6915595  63.9533896
  47.0948959   3.1853316  63.6210494  60.3294961  12.5080896  59.4646758
  60.7128567  13.2572252  59.6944855  59.5339075  12.7546715  59.2058748
  60.2688744  12.6550589  59.4604332  49.1410253   5.1800327  57.0407137
  49.5209218   5.1979956  56.2558252  48.4002849   5.6254316  56.9197985
  49.0879091   5.2482102  56.9070706  38.8312814   6.9122303  67.0441533
  38.6534576   6.4598912  67.7696448  38.5431837   7.7148464  67.2280010
  38.7625768   6.9644861  67.1785036  54.4936396   8.1680020  66.2818923
  54.9890061   7.4503015  66.2422943  53.6836171   7.8650818  66.1673410
  54.4480289   8.0177667  66.2592649  49.9395007  12.0177834  58.4315927
  49.1306330  11.6944507  58.3849237  50.4469916  11.3111056  58.3644176
  49.8944674  11.8659150  58.4146222  40.5685284   9.4450027  64.1563292
  39.7030804   9.4335717  64.0446063  40.6684100   9.2580250  65.0034431
  40.4559451   9.4156088  64.2652236  56.5588214  10.9183708  68.9696052
  56.9843286  10.3958130  68.4166477  56.1945134  11.5164545  68.4484675
  56.5674817  10.9293935  68.8105061  46.1942294  19.2147925  67.7293397
  46.5088853  20.0284314  67.7371179  46.6035708  18.8298144  68.3975556
  46.3010392  19.2776628  67.8297489  53.1466814  14.6317972  65.2997209
  53.6177992  15.3458235  65.4687194  53.4826992  14.0316722  65.8357079
  53.2661929  14.6489436  65.4029585  53.7840760  14.4235906  72.0624902
  53.2361706  13.7993790  71.7944967  54.2453789  14.6130178  71.3468981
  53.7707970  14.3594956  71.9175333  43.5355314  13.1621034  67.3772006
  44.1400172  13.1216868  66.7485826  43.3282627  14.0092186  67.4076061
  43.5944212  13.2809036  67.2888122  53.3499086  15.4286979  68.5934243
  54.1697460  15.2849945  68.8550538  53.0693164  16.0533178  69.1350681
  53.4295830  15.4997331  68.7122182  38.7706597  12.1455651  67.2470929
  38.6730875  11.3351923  67.5560985  39.5535466  12.1247445  66.8617197
  38.8722733  12.0222741  67.2357792  69.8212737  23.0851831  61.5577119
  69.7906741  23.9396467  61.7295389  70.4194086  22.7847123  62.1163263
  69.9049895  23.1668327  61.6651922  63.0212422  22.1727482  66.3130050
  62.1650317  22.3335980  66.3639167  63.0680075  21.3019546  66.3335111
  62.9011533  22.0678283  66.3236116  57.4053561  31.7090199  62.0767281
  56.6536461  31.3305738  61.8483326  57.8539573  31.7408633  61.3286092
  57.3603228  31.6575807  61.9324784  62.8578521  32.1315569  57.5052828
  62.5229890  32.8092491  57.0697051  63.3705392  31.7420880  56.9169700
  62.8844102  32.1740147  57.3539620  62.3982813  34.0829838  63.4463940
  62.7822192  34.6516736  62.9068715  62.3341954  33.3579348  62.9669756
  62.4456240  34.0605301  63.2957803  65.8664243  24.2319526  68.9561701
  66.4120203  24.9104612  69.0155671  65.8081119  24.0906986  68.0963283
  65.9380157  24.3111527  68.8373762  58.9838318  31.7208592  64.3430054
  59.0848681  30.9108946  64.6527182  58.3880063  31.6265538  63.7129732
  58.9110856  31.5873620  64.2956292  67.6429311  25.6604133  59.8295429
  67.5268837  26.4111819  60.2587567  68.4385198  25.4028086  60.0791516
  67.7433901  25.7338980  59.9299521  58.8239057  36.6386181  65.7444910
  59.4676513  37.0799345  66.1341068  59.1495313  35.8339607  65.6575169
  58.9670886  36.5851376  65.7890387  52.1803362  27.7428878  63.9682388
  51.9453546  26.9096531  63.8614656  52.3189003  28.0233544  63.1543589
  52.1659024  27.6612382  63.8324743  54.4793449  19.9114609  66.8666695
  53.8598481  19.3207256  66.6976710  54.3777313  20.5026044  66.2331018
  54.3731125  19.9118691  66.7471685  59.5259637  29.6498156  61.1164772
  59.8475478  30.1903363  60.5126080  60.1731733  29.0794927  61.2487061
  59.6685692  29.6457331  61.0471807  61.5761345  21.6514151  61.1999158
  62.2741510  21.8302278  61.6920622  61.8913677  21.1284490  60.5769548
  61.7256682  21.6007923  61.1801168  54.2062582  23.4566890  69.1110264
  54.0821279  24.0429336  69.7460083  54.8580867  22.9627086  69.4122539
  54.2836232  23.4705695  69.2496194  61.7649280  28.0384596  61.1878950
  62.2042916  27.4301696  61.6333723  61.6153943  27.6591969  60.4164415
  61.8070746  27.8923067  61.1398117  59.2320923  26.6328607  68.3897775
  59.8769926  26.1401051  68.0708724  59.4722700  26.7753394  69.2163854
  59.3631508  26.5806050  68.4647309  61.7707015  29.4783513  68.0404668
  62.0530258  28.6834919  67.8191424  62.4993175  29.9564101  68.0609729
  61.9196578  29.4318110  68.0107683  59.7488209  17.0206547  65.2820433
  59.4191539  17.4717691  64.6124132  59.0733210  16.9422711  65.8293439
  59.5998645  17.0757682  65.2643656  65.3658617  26.3911777  58.1409719
  65.2809912  27.2472744  58.2859288  65.8543000  26.1156101  58.8091878
  65.4247514  26.4769098  58.2611801  66.9564616  13.0092070  63.5270044
  66.6418057  13.6995549  63.9590466  66.4391558  12.9536852  62.8255544
  66.8329087  13.1026959  63.4866993  66.2977050  23.0096571  59.6407454
  65.7688522  23.2256205  60.3004760  66.8202070  23.7032710  59.5608424
  66.2965503  23.1439708  59.7263053  71.7525103  28.5842875  65.0140499
  70.9222806  28.7953519  65.1773915  71.7034355  27.7579930  64.7382782
  71.6231838  28.4932482  64.9977864  58.1876658  26.9059788  58.4414922
  57.6033873  27.4109819  58.8480786  57.7846753  26.6802175  57.7011514
  58.0415962  26.9468036  58.3919947  53.7420687  32.6214549  65.2438594
  53.2588265  33.3465039  65.2198177  54.5544005  32.9190679  65.3548751
  53.7911434  32.7716903  65.2565873  59.8134841  31.4146730  67.8488408
  59.2961782  31.0554145  67.2449716  60.5109232  30.8908904  67.8594474
  59.8400422  31.2844418  67.7618667  63.4698433  31.8641544  73.8104581
  63.5581778  31.6767684  74.6582792  63.8988145  31.2178973  73.4109428
  63.5460535  31.7404551  73.8776333  61.0368892  31.1472704  72.7922243
  60.4739727  30.7345314  73.3161905  61.7989916  31.0725609  73.2115387
  61.0663341  31.0750104  72.9315244  62.6453872  23.1525440  56.9183843
  62.8849876  23.3603424  56.1059186  62.9669713  22.3482949  57.0272787
  62.7291030  23.0639541  56.8144396  57.9544163  15.0818836  60.7643381
  58.7090131  15.4497153  60.5260431  57.7771697  15.4558390  61.5322560
  58.0398641  15.1917024  60.8428269  56.5964884  33.1370725  65.3958874
  57.2985463  32.6222714  65.4531630  56.5162367  33.4644876  66.2005749
  56.6888644  33.1084951  65.5231666  57.6443790  23.3746312  74.5239289
  57.8164294  23.2652206  75.3724570  58.1813148  24.0200717  74.2870481
  57.7488794  23.4538313  74.6144385  56.3101227  17.4889155  57.4621494
  56.1276800  17.7061035  56.6362486  57.1726840  17.6028167  57.5180108
  56.4105817  17.5379053  57.3475981  55.9215659  29.3277077  64.9044482
  56.7604559  29.5600010  64.9518243  55.9527428  28.4581388  64.8351517
  56.0497377  29.2334023  64.9009126  56.5468362  29.7477952  69.2057787
  57.0866587  29.6049083  69.8761159  55.8638309  30.1474703  69.5741813
  56.5260516  29.7857623  69.3592209  61.9900946  14.4915565  60.4970517
  62.7187107  14.3131520  60.0508674  62.0795839  15.3333645  60.7077696
  62.1107609  14.5899444  60.4624035  65.9709247  25.4268953  64.4002811
  66.7266762  25.8600467  64.4391720  66.0771572  24.7773722  64.9737448
  66.0979418  25.3946437  64.4900837  69.0089418  29.2542230  65.1505214
  68.5724650  29.2578972  65.9064186  68.6752334  29.9347729  64.7184792
  68.8952038  29.3554686  65.1986047  63.5818492  31.2950563  76.4748365
  64.3658908  31.4081411  76.8404107  63.3815086  30.4691700  76.6707051
  63.6684517  31.1897282  76.5582751  51.9505507  25.9678243  69.3592209
  51.6843923  25.1517360  69.5183199  51.9644071  26.0131398  68.4887724
  51.9130230  25.8535148  69.2545691  55.8563254  20.7663327  55.9743967
  55.1421431  20.4801507  56.3866399  56.3407223  21.1059953  56.6150354
  55.8222618  20.7744977  56.1299602  56.7004114  19.5056621  72.0059216
  56.0075910  19.0353601  72.2519948  57.3164441  19.2794926  72.5800923
  56.6888644  19.4023753  72.1268369  63.7388885  33.2060665  70.1214820
  62.9404131  32.9660165  70.3788689  64.1874897  33.2575058  70.8681868
  63.6863496  33.1783056  70.2699745  72.1433764  25.9723150  64.0424852
  72.8050199  25.4113818  63.9420760  71.5025176  25.4775181  64.3677543
  72.1462632  25.8159559  64.0757192  63.0310572  29.2693281  56.3505775
  63.4461721  28.9378305  55.6590271  62.2002502  29.0362183  56.2225912
  62.9698581  29.1864537  56.2296622  52.3598921  26.7537022  66.6403953
  52.1774494  26.7283908  65.7876245  53.0948590  27.2235960  66.6792862
  52.4412985  26.8198384  66.5201871  68.4298595  26.9888532  63.7836840
  68.6654184  27.1333731  62.9563691  68.5788159  27.7530940  64.1768354
  68.4864398  27.1227587  63.7200444  55.4244673  23.4722025  73.1486062
  56.1484645  23.4575056  73.6350956  55.5260809  24.1817380  72.6508030
  55.5462882  23.5746728  73.1464848  70.2589052  25.8290198  61.6206444
  70.5897269  26.3617838  61.0146539  70.8322140  25.8829086  62.2768395
  70.3922731  25.9159767  61.6284226  65.4720941  23.6755101  62.3030024
  65.5667795  24.4144395  62.7569650  64.8479785  23.2472576  62.7364589
  65.3929971  23.7216421  62.4338172  63.7273415  26.8541313  72.9520305
  64.3012277  26.2168558  73.1068869  63.6488219  26.8545396  72.0829963
  63.8006650  26.7606425  72.8466716  52.3269831  23.6330523  66.7903019
  52.9043334  23.4966974  67.4295265  51.6283893  23.1766307  67.0448604
  52.3090853  23.5452789  66.9225309  65.7243962  25.5203841  55.5366976
  65.6424125  25.5906028  56.4021963  66.3623683  26.0833585  55.3450717
  65.8063800  25.6142812  55.6356926  59.0837133  25.2864579  65.0041503
  58.8256378  24.4536313  64.9772802  59.1385616  25.5122192  64.1634003
  59.0536911  25.1962350  64.8761639  64.1638184  17.3893029  65.1045595
  63.4594510  16.9002215  65.2629515  64.2123158  17.4015504  64.2334040
  64.0668235  17.3182677  64.9984935  58.0571846  22.8402341  65.4906397
  57.4821437  22.9994509  66.1270358  57.6807522  22.2037750  65.0274848
  57.9174658  22.7700154  65.5160956  61.7245134  21.3125690  70.3498776
  61.3359567  20.8879908  69.6950967  61.0599833  21.5607840  70.8575803
  61.5692062  21.2864411  70.3286644  71.3668403  21.0700695  63.1246606
  71.1104968  20.2580637  62.9344489  72.2097717  21.0778262  62.8976793
  71.4534429  20.9512692  63.0631423  47.8028665  22.4842416  63.5050838
  47.8888916  22.1074284  64.2864368  48.4304462  22.1102861  63.0270796
  47.9085216  22.3727898  63.5496315  58.6991981  29.0145812  63.6747895
  59.3365928  28.7757560  64.2199688  59.1247052  29.2182971  62.9401056
  58.8568147  29.0096823  63.6465052  53.3904623  31.2534149  67.5582199
  53.4308768  31.5249000  66.7301978  53.9499147  31.7776057  67.9739987
  53.4787969  31.3709904  67.4974087  59.3394796  24.2348102  58.0122784
  59.7239949  24.0155809  58.7639329  59.0906416  25.0611048  58.1423861
  59.3596868  24.3246248  58.1423861  70.0729983  28.0094740  69.0233453
  69.7675800  28.7422797  69.3846769  69.3536199  27.6032669  68.7426239
  69.9217326  28.0576473  69.0346590  61.0813453  29.4918235  65.3541681
  61.1552461  29.3293407  66.2083531  61.8982959  29.6808425  65.1102163
  61.2129811  29.4954977  65.4439707  54.8419209  29.8376098  62.3836125
  54.0157327  30.0837835  62.2570403  54.9031201  29.7588179  63.2498183
  54.7293376  29.8621047  62.4925069  57.0595233  15.9045039  63.3431565
  56.1917659  15.9767638  63.4089174  57.3470438  16.7067118  63.5319540
  56.9734981  16.0339186  63.3806331  59.6218038  32.4552978  60.0855155
  59.9116337  32.0641959  59.3614381  60.3521519  32.6369683  60.5260430
  59.7724923  32.4246792  60.0437962  60.2112784  27.2570724  71.1708285
  59.7124477  27.9686492  71.2493174  61.0213008  27.5771391  71.1326447
  60.2568890  27.4097573  71.1764854  57.5623954  34.4320360  63.1515304
  57.3424249  34.1417715  63.9441971  57.3418476  33.7735316  62.6233217
  57.4971548  34.2920069  63.1904213  56.4740901  26.5193677  65.4171006
  56.1854150  25.8931148  65.9516733  57.3424249  26.4613964  65.4835686
  56.5601153  26.4181221  65.5061961  67.2618799  21.6628460  65.7352988
  66.9183565  20.9418796  66.0860238  67.3611842  21.4542312  64.8931346
  67.2260842  21.5252664  65.6624668  59.7291910  35.8049750  61.9345997
  60.3815968  35.2726193  62.1637023  59.0317518  35.4518403  62.3213871
  59.7222628  35.6739273  62.0258164  56.6773175  28.1588928  61.3413371
  57.4319143  28.5401967  61.5548834  56.0843787  28.6100072  61.7960068
  56.7009888  28.2817755  61.4396249  67.7231828  28.1254164  61.2776976
  68.2889861  28.7847374  61.1935519  67.0759732  28.4703863  61.7493378
  67.7110585  28.2736106  61.3349732  57.9971401  29.3297489  66.7153486
  57.4752155  29.4697781  67.4005351  58.3845422  28.5708154  66.9055604
  57.9775102  29.2383013  66.8454563  54.9862585  19.3803298  60.7848441
  54.6987381  19.0104569  60.0480388  55.6733053  19.8498153  60.5232146
  55.0451483  19.3950268  60.6363517  64.1938406  31.0692949  60.7014055
  63.9525082  30.3360809  60.2941120  64.3739739  31.6179806  60.0480389
  64.1846030  31.0415340  60.5444278  59.4237727  26.3601508  62.1134977
  59.2280509  26.9676243  61.5195280  59.6472072  25.6669452  61.6326651
  59.4272368  26.3479034  61.9551058  57.8216257  23.2456246  62.2315846
  58.5438909  23.4097404  61.7719652  57.3424250  23.9665911  62.1255186
  57.8579988  23.3754476  62.1481460  65.7809764  19.5820045  67.6112531
  64.9420865  19.6081324  67.3750794  65.8514132  20.2290781  68.1917877
  65.6678158  19.6816171  67.6621648  55.4723874  25.6514319  71.3369986
  55.9844970  25.9298572  70.6878745  55.1860216  26.3903613  71.7032799
  55.5058737  25.8016672  71.2959864  64.2279043  16.4805422  62.3440147
  64.9305396  16.2813170  61.8660105  63.9623231  15.7081365  62.6508990
  64.2925675  16.3368388  62.3185588  69.6567288  24.7888032  64.8973773
  69.5701263  24.9443458  65.7508551  69.2017768  25.4326107  64.5233178
  69.5770545  24.9063787  64.9680879  52.5590780  20.1584511  61.6333722
  52.6606916  20.9610672  61.9614698  53.3546667  19.9571847  61.3356803
  52.6918685  20.2470409  61.6369078  58.9907599  17.7440707  71.3971027
  58.7990796  17.7595842  72.2470451  59.8406195  17.9404382  71.3737682
  59.0883321  17.7755059  71.5194322  53.3754512  20.2731689  69.3754844
  53.2340004  19.4215629  69.4999352  53.6595075  20.3160349  68.5517050
  53.3962358  20.1531439  69.2722468  63.5293104  22.1098779  63.5199332
  63.2827819  22.0294530  64.3536121  63.8578227  21.3252247  63.3261860
  63.5414348  21.9825044  63.6146855  67.4241153  28.8182138  67.3086113
  67.2855512  29.5163184  67.8134856  66.6441151  28.6630795  66.9522295
  67.2884380  28.8982305  67.3312387  59.4890132  24.8455498  72.9322315
  59.6333507  25.4256706  72.2965425  59.8365780  25.2231794  73.6372170
  59.5617593  24.9876202  72.9421310  61.6610049  24.0445666  70.7147447
  60.9133363  24.2376680  70.3095725  61.8151574  23.2190886  70.4771568
  61.5732477  23.9510777  70.6192853  58.5617887  33.0358269  69.7983342
  58.7107450  32.4761185  69.1456746  59.3417889  33.1150271  70.1815861
  58.6991980  32.9643835  69.7580291  68.9194526  28.1760392  58.0702612
  68.5401335  27.3897530  58.0631902  68.2560771  28.7247249  57.9274257
  68.7653001  28.1405216  58.0483409  61.0871187  33.2072912  71.0767833
  61.0114858  32.5381723  71.6318621  61.0161046  33.9090700  71.5908499
  61.0651794  33.2117820  71.2344681  61.9011826  17.9396217  71.6042850
  62.3584440  18.6720191  71.7315643  61.9768155  17.5162682  72.3630106
  61.9802796  17.9853455  71.7343927  54.1444817  18.1862036  72.6932294
  53.6087007  17.5742395  73.0093061  54.2062582  18.7610172  73.3465961
  54.0740450  18.1808964  72.8367721  61.7441434  31.7273911  61.9091439
  62.5091325  31.4583555  61.5874103  61.6419524  31.2423922  62.6261502
  61.8422930  31.6163476  61.9671266  59.7794204  19.9298321  68.4484674
  58.9890279  19.7489781  68.7702010  60.1754827  19.1525273  68.4314969
  59.7211080  19.7885782  68.4937223  64.2660095  28.7586095  53.8891388
  65.0333080  28.8186220  53.4797240  63.8191404  28.1866536  53.4047707
  64.3133522  28.6822671  53.7569098  65.1637890  27.5640751  66.1744120
  64.4882892  27.3325983  66.6757507  65.1730266  26.9561934  65.5486225
  65.0656395  27.4399676  66.1560273  62.2932034  22.4058580  72.9308173
  62.2291175  23.2668536  72.8028310  62.4329222  22.0890573  72.1303725
  62.3047504  22.4858746  72.7936386  67.1654625  30.4205883  58.4054298
  67.2474462  31.2272869  58.0815749  67.6504367  30.4401842  59.1295072
  67.2491783  30.5426546  58.4641197  60.9751128  25.0990719  67.0724376
  60.5513377  25.2995218  66.3363395  60.7995983  24.2519567  67.1848676
  60.8862009  25.0039501  66.9798066  60.4762822  36.6141232  69.5345834
  60.9658752  35.9152021  69.3521498  59.9047054  36.3165102  70.1221891
  60.4647351  36.4667456  69.5946874  56.2633573  25.5942771  62.5052349
  56.4198192  25.5289573  63.3608341  56.6034166  26.3691323  62.2931028
  56.3366808  25.6991969  62.6006943  62.8012718  24.9700654  61.3745712
  63.3428263  24.4671035  61.8384333  63.1159277  24.9165849  60.5635197
  62.9277115  24.8880075  61.3229524  60.9699167  30.3618006  58.6585740
  61.0391988  29.5032544  58.7978740  61.7487623  30.5789887  58.3304765
  61.0952017  30.2670870  58.6302897  63.9501987  19.8636959  71.4268012
  64.1643957  19.2247873  70.8731366  63.3335886  20.3082782  70.9975874
  63.8907316  19.8347102  71.2818444  65.3606655  32.7855707  62.8722233
  64.9686447  32.4822422  62.1545100  65.5159727  33.6224797  62.6827187
  65.3260245  32.8639544  62.7378730  52.8367835  22.7777721  62.8213116
  53.2166799  23.1962266  62.1573383  52.2623199  23.3591177  63.1281959
  52.8079159  22.9255580  62.7689857  65.5246330  29.3505696  62.8128264
  65.1660984  29.5220339  63.5892296  65.0385040  29.8118901  62.2556262
  65.4005027  29.4444667  62.8453533  63.3416716  12.9736894  66.4155355
  62.4710274  12.9475615  66.3688665  63.5957057  12.8014086  65.5981201
  63.2510276  12.9447038  66.2875492  60.3134695  25.0304861  55.3528498
  60.6027220  25.8069744  55.6272073  60.4006494  24.5193593  56.0542998
  60.3688951  25.0696780  55.4970996  60.3665856  14.9843123  67.8728826
  59.8504345  14.2923314  67.9980405  59.8059785  15.6513900  67.8191424
  60.2072369  14.9806380  67.8834892  62.4358090  15.5236083  69.7021678
  62.0489843  15.5485114  70.4835208  61.9491027  14.9577761  69.2496195
  62.3070599  15.4431834  69.7509582  66.6851069  30.2409592  73.7595465
  67.3230790  29.7469787  73.4257921  66.0425161  30.1686992  73.1747692
  66.6845296  30.1568600  73.6237820  68.4108069  22.0898738  68.3261380
  67.9835677  22.0025086  67.5709480  67.7734122  22.1976513  68.9116224
  68.2537676  22.0931398  68.3006822  66.7405326  30.9329400  70.4000822
  67.5297704  30.5818465  70.5202903  66.9148924  31.7465788  70.1377455
  66.8825607  31.0015257  70.3788690  56.4798636  24.3438126  67.4528610
  55.6386643  24.2442000  67.6607504  56.6888644  25.1133606  67.8042931
  56.3863329  24.4430169  67.5355925  53.9574203  21.9657663  65.2813361
  53.5630901  22.0400674  64.5063471  53.4014320  22.3515609  65.8321723
  53.8177015  22.0339437  65.2481021  65.5939150  14.9438957  64.9617240
  65.7988743  14.8761265  65.8074237  65.2665574  15.7497778  64.8938417
  65.5754398  15.0524897  65.0776895  60.2915301  22.2719525  66.7026208
  59.9878438  21.7175513  67.3036616  59.5894722  22.4511735  66.2154242
  60.1431511  22.2164307  66.7195914  59.3481398  19.5820045  61.2670910
  59.6241132  18.8638957  60.8548477  59.9480067  20.1804965  61.0592016
  59.4774663  19.5640415  61.1751671  58.3533652  29.4869246  71.4098306
  58.2454007  29.4971308  72.2760364  58.5629433  30.3124026  71.2203259
  58.3683763  29.6110320  71.5102397  68.8472838  15.4970721  64.4420005
  68.2347151  15.9841123  64.8273737  68.9437012  14.8214212  64.9857657
  68.7710735  15.4689030  64.5798864  62.8491919  17.2533562  59.5417505
  63.3035665  17.4244122  60.2665349  63.3231964  16.6401673  59.1415280
  62.9860239  17.1884447  59.5891266  56.3707444  26.7381888  68.8720243
  55.7795377  27.3791386  68.8423258  57.1328468  27.1619505  68.8451543
  56.3955705  26.8957726  68.8635390  56.7668067  17.8983886  69.5388261
  57.2269548  17.9722815  70.2763385  56.8124173  18.6965140  69.1888082
  56.8418622  18.0278033  69.5961017  58.4151416  18.5650581  74.1060288
  58.0236982  17.9183928  74.5416066  58.5837279  19.1562016  74.7254543
  58.3822327  18.5564849  74.2622994  66.1296960  32.1891200  66.3052268
  65.9316649  32.6782014  65.6108479  65.5084671  32.3932441  66.8836401
  66.0084525  32.2907738  66.2875491  60.1904939  23.9576096  60.6462512
  60.9346983  24.3450373  60.8845462  60.3365635  23.1133522  60.8103000
  60.3215524  23.8906569  60.7056482  62.1084514  15.7526355  65.6794373
  61.2620559  15.9249163  65.5535723  62.1055646  14.9475699  66.0160202
  61.9831664  15.6587384  65.7105500  63.1782814  19.5301570  66.5456431
  62.7042769  19.0043332  67.0561742  63.5500950  18.9831043  65.9771293
  63.1632703  19.3717566  66.5371579  53.5555845  21.5273076  71.9139977
  54.4181458  21.4268786  71.8277307  53.2247628  20.9467786  71.3525549
  53.6341041  21.4264703  71.8185383  69.4419545  24.5903945  67.9563212
  69.2017768  23.7510361  67.9605638  69.9211552  24.6704112  68.6803985
  69.4771729  24.4785345  68.0638014  65.1066314  20.4238124  59.6082185
  64.5789333  20.5066868  58.9187894  65.5662022  21.1655996  59.6046830
  65.0968165  20.5458787  59.5056880  71.4424732  21.3705403  65.9092471
  71.2034502  21.3301237  65.0713256  71.6058633  22.2176555  66.0358192
  71.4315035  21.4897488  65.8045953  56.9157631  20.3515525  68.5750395
  56.2910701  20.3633917  67.9676348  56.5803225  20.8275701  69.2241635
  56.7743122  20.4234042  68.5806964  57.0999379  18.6940644  54.6323080
  56.7512184  19.3460369  55.0954630  56.6195825  18.6797757  53.9046951
  56.9769623  18.7883697  54.5934172  53.6283306  28.4115986  70.0154160
  53.0983231  27.7208424  70.0649134  53.9008399  28.4026171  69.1866868
  53.5908028  28.3083117  69.9001576  64.6603397  28.9941688  58.7391842
  65.3837595  29.4599801  58.5956415  64.2203988  29.0615298  57.9889439
  64.7019089  29.0725525  58.6076624  63.8289552  25.8539230  69.9892531
  63.2146545  25.3097280  70.2841166  64.3456837  25.3403467  69.5098347
  63.8145214  25.6975639  69.9616760  63.0685849  26.9243500  67.7236830
  62.6413457  26.2993219  67.2902265  63.0610793  26.6418422  68.5495837
  63.0044990  26.7896281  67.7816657  56.1848376  21.9608673  70.7925264
  56.3441863  21.2051997  71.1976986  56.0041270  22.5099613  71.4466001
  56.1813735  21.9302487  70.9487970  61.3971558  17.8012255  67.9379364
  61.4214046  17.2672367  67.2492144  61.6483032  17.2929564  68.6004954
  61.4381477  17.6473159  67.9344008  48.9079148  25.0843750  67.3722508
  48.8022597  25.0390594  66.5074592  48.1579368  25.4297530  67.6536793
  48.7814751  25.1284658  67.2859838  57.6772881  16.5283073  67.3185108
  57.7171252  17.0292280  68.0319816  56.8522545  16.6193467  67.0491031
  57.5612407  16.6164889  67.3835646  59.8602494  26.0943813  75.4205403
  59.0098124  26.2315527  75.5563048  60.0230621  25.3607591  75.8653104
  59.7586357  26.0057914  75.5061002  59.0987244  23.0443583  69.6159007
  58.2679174  23.2117401  69.4094255  59.0438761  22.6679534  70.4007892
  58.9676659  23.0133314  69.7007535  57.4723288  21.3199174  60.1449125
  57.6126249  21.8171639  60.8477766  57.9705821  20.6185469  60.2863338
  57.5664369  21.2901153  60.2700704  57.5023510  22.1866285  57.4741702
  58.1368590  22.7826710  57.4091163  57.5849121  21.8869743  58.2887572
  57.6080061  22.2307194  57.5844788  59.0802493  18.1180261  57.4487144
  59.4018334  17.6383343  56.7946406  59.3429437  18.9279907  57.2577955
  59.1668519  18.1670159  57.3242636  62.3099466  29.1399135  70.9685960
  61.8024557  29.6934982  71.4126590  62.0126112  29.2007425  70.1504734
  62.1904351  29.2305446  70.9134416  64.4761648  17.5052455  69.8110623
  64.9016720  17.0524981  69.1994149  63.8618641  16.9512525  70.0875410
  64.4490294  17.3566431  69.7615648  54.0076498  24.3834126  60.7431248
  54.5168728  24.9798634  61.1242553  54.4810770  24.1160100  60.0607667
  54.1519874  24.4319942  60.6985770  64.9207246  33.0562393  58.8989903
  64.2036556  32.8823255  58.4337141  65.5713984  32.8214965  58.3665389
  64.9109097  32.9958185  58.7519121  62.9155871  13.9767555  63.2201200
  62.2724189  13.8265201  63.7886338  62.5755278  13.7309900  62.4550304
  62.7700948  13.9179677  63.1904215  67.5055217  21.9326981  62.6431208
  66.8346407  22.4756684  62.5144274  68.1994968  22.4021837  62.4012903
  67.5084085  22.0825253  62.5886736  67.6683345  18.3882865  65.5521582
  68.0210955  17.9612588  66.2267380  66.8098146  18.3033709  65.6822658
  67.5932790  18.3127606  65.6716592  56.3667030  21.0190385  63.6104428
  55.6479019  21.4354517  63.8777292  56.7379392  21.5844623  63.0596066
  56.3158962  21.1639666  63.5687235  65.6666611  21.6518234  69.5006424
  65.6464538  21.4701529  70.3541203  65.7145811  22.5230252  69.4766007
  65.6701252  21.7534772  69.6229719  63.6112941  28.2405426  75.4254900
  63.5708795  27.5955103  74.8400056  64.4236259  28.1842043  75.7380312
  63.7256094  28.1364392  75.3851850  60.2020408  34.2924151  65.3280051
  59.7880807  33.6298282  64.9383893  60.8867782  34.4402010  64.8075745
  60.2418780  34.2164810  65.1936548  63.5685702  33.4514237  66.0803668
  63.1701985  33.5616507  65.3124488  62.9536922  33.6596303  66.6630228
  63.4184592  33.4987805  66.0534967  62.1413604  20.0588385  58.9477808
  61.5478444  20.3805381  58.3962375  62.1788882  19.2129480  58.7398914
  62.0587993  19.9812713  58.8360579  65.0171421  20.0167889  62.3779558
  64.7885114  20.0400591  61.5357916  65.2769497  19.1925356  62.4974568
  65.0217609  19.8983969  62.2704755  59.2990649  21.8702362  71.9804658
  58.7869552  21.2623545  72.3389689  59.1270145  22.5858955  72.4478634
  59.1980286  21.8865661  72.1020882  54.1456364  20.3139937  74.6307020
  53.9758954  20.9741312  74.0855226  53.7022314  20.5246499  75.3519509
  54.0555698  20.4425920  74.6568649  58.0716183  18.5544435  63.6733753
  58.5473550  18.9161515  63.0383935  57.5704783  19.2100903  63.9533896
  58.0681542  18.7038624  63.6210494  71.3027545  28.0266203  59.4646758
  71.6861151  28.7757560  59.6944855  70.5071658  28.2732023  59.2058748
  71.2421327  28.1735897  59.4604332  51.0458429  23.2186803  69.8895510
  50.4985148  22.5487449  70.0076378  51.8350807  22.8516651  69.9538977
  51.0810612  23.0651789  69.9164210  60.8942837  22.8794260  75.3858921
  61.6454164  23.1945937  75.6998475  61.0865413  22.6773431  74.5592842
  61.0334251  22.8961642  75.3102316  60.1142837  20.6985635  57.0407137
  60.4941801  20.7165264  56.2558252  59.3735433  21.1439624  56.9197985
  60.0611674  20.7667410  56.9070706  67.7428127  19.0067826  62.6282716
  67.7422353  18.8516483  63.4866992  67.5384307  19.8530813  62.5724102
  67.7127905  19.1088447  62.7470655  49.8045398  22.4307611  67.0441533
  49.6267159  21.9784220  67.7696448  49.5164420  23.2333772  67.2280010
  49.7358351  22.4830169  67.1785036  65.4668979  23.6865328  66.2818923
  65.9622644  22.9688323  66.2422943  64.6568755  23.3836126  66.1673410
  65.4212872  23.5362974  66.2592649  60.9127591  27.5363141  58.4315927
  60.1038913  27.2129815  58.3849237  61.4202499  26.8296364  58.3644176
  60.8677257  27.3844458  58.4146222  51.5417868  24.9635335  64.1563292
  50.6763387  24.9521025  64.0446063  51.6416684  24.7765557  65.0034431
  51.4292035  24.9341396  64.2652236  67.5320798  26.4369016  68.9696052
  67.9575870  25.9143438  68.4166477  67.1677718  27.0349853  68.4484675
  67.5407401  26.4479243  68.8105061  57.1674878  34.7333233  67.7293397
  57.4821437  35.5469622  67.7371179  57.5768291  34.3483452  68.3975556
  57.2742976  34.7961936  67.8297489  64.1199397  30.1503280  65.2997209
  64.5910576  30.8643543  65.4687194  64.4559576  29.5502030  65.8357079
  64.2394512  30.1674744  65.4029585  64.7573344  29.9421214  72.0624902
  64.2094290  29.3179098  71.7944967  65.2186372  30.1315486  71.3468981
  64.7440553  29.8780264  71.9175333  60.1062007  16.9247163  59.7234769
  60.9277702  17.0945476  59.4816464  59.6431658  17.0794424  59.0001067
  60.1593170  16.9728896  59.5806413  58.6957339  14.9189926  70.5033198
  59.2401752  14.5781052  71.0937539  58.7494275  15.7775387  70.6454482
  58.7846459  14.9945185  70.6115071  54.5087898  28.6806342  67.3772006
  55.1132755  28.6402176  66.7485826  54.3015210  29.5277494  67.4076061
  54.5676795  28.7994344  67.2888122  64.3231670  30.9472287  68.5934243
  65.1430044  30.8035253  68.8550538  64.0425748  31.5718486  69.1350681
  64.4028413  31.0182639  68.7122182  49.7439180  27.6640959  67.2470929
  49.6463458  26.8537231  67.5560985  50.5268050  27.6432753  66.8617197
  49.8455317  27.5408049  67.2357792  73.9945005  37.6912789  66.3130050
  73.1382901  37.8521288  66.3639167  74.0412659  36.8204853  66.3335111
  73.8744117  37.5863591  66.3236116  68.3786145  47.2275507  62.0767281
  67.6269045  46.8491046  61.8483326  68.8272157  47.2593941  61.3286092
  68.3335812  47.1761115  61.9324784  73.8311105  47.6500877  57.5052828
  73.4962473  48.3277798  57.0697051  74.3437975  47.2606188  56.9169700
  73.8576686  47.6925455  57.3539620  73.3715396  49.6015146  63.4463940
  73.7554775  50.1702044  62.9068715  73.3074537  48.8764656  62.9669756
  73.4188823  49.5790609  63.2957803  76.8396826  39.7504833  68.9561701
  77.3852786  40.4289920  69.0155671  76.7813703  39.6092294  68.0963283
  76.9112741  39.8296835  68.8373762  69.9570901  47.2393900  64.3430054
  70.0581264  46.4294253  64.6527182  69.3612646  47.1450846  63.7129732
  69.8843440  47.1058928  64.2956292  69.7971641  52.1571489  65.7444910
  70.4409096  52.5984653  66.1341068  70.1227896  51.3524915  65.6575169
  69.9403469  52.1036683  65.7890387  63.1535945  43.2614186  63.9682388
  62.9186130  42.4281838  63.8614656  63.2921586  43.5418852  63.1543589
  63.1391608  43.1797689  63.8324743  65.4526033  35.4299917  66.8666695
  64.8331065  34.8392564  66.6976710  65.3509896  36.0211352  66.2331018
  65.3463708  35.4303999  66.7471685  70.4992220  45.1683464  61.1164772
  70.8208062  45.7088671  60.5126080  71.1464317  44.5980235  61.2487061
  70.6418276  45.1642639  61.0471807  72.5493929  37.1699458  61.1999158
  73.2474093  37.3487586  61.6920622  72.8646261  36.6469798  60.5769548
  72.6989266  37.1193231  61.1801168  65.1795166  38.9752198  69.1110264
  65.0553863  39.5614644  69.7460083  65.8313450  38.4812394  69.4122539
  65.2568815  38.9891003  69.2496194  72.7381864  43.5569904  61.1878950
  73.1775499  42.9487004  61.6333723  72.5886527  43.1777277  60.4164415
  72.7803330  43.4108375  61.1398117  70.2053507  42.1513915  68.3897775
  70.8502509  41.6586358  68.0708724  70.4455284  42.2938702  69.2163854
  70.3364092  42.0991358  68.4647309  72.7439598  44.9968821  68.0404668
  73.0262841  44.2020227  67.8191424  73.4725759  45.4749409  68.0609729
  72.8929162  44.9503418  68.0107683  70.7220792  32.5391855  65.2820433
  70.3924122  32.9902999  64.6124132  70.0465794  32.4608018  65.8293439
  70.5731228  32.5942990  65.2643656  76.3391200  41.9097085  58.1409719
  76.2542496  42.7658051  58.2859288  76.8275584  41.6341409  58.8091878
  76.3980098  41.9954406  58.2611801  77.9297200  28.5277378  63.5270044
  77.6150641  29.2180857  63.9590466  77.4124142  28.4722160  62.8255544
  77.8061670  28.6212267  63.4866993  77.2709634  38.5281879  59.6407454
  76.7421105  38.7441513  60.3004760  77.7934654  39.2218017  59.5608424
  77.2698087  38.6625016  59.7263053  69.1609241  42.4245096  58.4414922
  68.5766457  42.9295127  58.8480786  68.7579337  42.1987483  57.7011514
  69.0148545  42.4653344  58.3919947  64.7153270  48.1399857  65.2438594
  64.2320848  48.8650347  65.2198177  65.5276588  48.4375987  65.3548751
  64.7644018  48.2902211  65.2565873  70.7867424  46.9332038  67.8488408
  70.2694366  46.5739453  67.2449716  71.4841815  46.4094212  67.8594474
  70.8133005  46.8029726  67.7618667  73.6186456  38.6710748  56.9183843
  73.8582460  38.8788732  56.1059186  73.9402297  37.8668257  57.0272787
  73.7023614  38.5824849  56.8144396  68.9276746  30.6004144  60.7643381
  69.6822714  30.9682461  60.5260431  68.7504281  30.9743698  61.5322560
  69.0131225  30.7102331  60.8428269  67.5697467  48.6556033  65.3958874
  68.2718047  48.1408022  65.4531630  67.4894950  48.9830184  66.2005749
  67.6621228  48.6270259  65.5231666  68.6176374  38.8931620  74.5239289
  68.7896878  38.7837514  75.3724570  69.1545731  39.5386025  74.2870481
  68.7221378  38.9723621  74.6144385  67.2833811  33.0074463  57.4621494
  67.1009384  33.2246343  56.6362486  68.1459424  33.1213475  57.5180108
  67.3838400  33.0564360  57.3475981  66.8948243  44.8462385  64.9044482
  67.7337142  45.0785318  64.9518243  66.9260012  43.9766696  64.8351517
  67.0229960  44.7519331  64.9009126  67.5200946  45.2663260  69.2057787
  68.0599171  45.1234391  69.8761159  66.8370892  45.6660011  69.5741813
  67.4993100  45.3042931  69.3592209  72.9633530  30.0100873  60.4970517
  73.6919690  29.8316828  60.0508674  73.0528423  30.8518953  60.7077696
  73.0840192  30.1084752  60.4624035  76.9441831  40.9454261  64.4002811
  77.6999346  41.3785775  64.4391720  77.0504155  40.2959030  64.9737448
  77.0712001  40.9131744  64.4900837  62.9238091  41.4863551  69.3592209
  62.6576506  40.6702667  69.5183199  62.9376655  41.5316706  68.4887724
  62.8862813  41.3720456  69.2545691  66.8295838  36.2848635  55.9743967
  66.1154015  35.9986815  56.3866399  67.3139807  36.6245261  56.6150354
  66.7955201  36.2930285  56.1299602  67.6736697  35.0241929  72.0059216
  66.9808494  34.5538909  72.2519948  68.2897025  34.7980234  72.5800923
  67.6621227  34.9209061  72.1268369  74.0043156  44.7878589  56.3505775
  74.4194304  44.4563613  55.6590271  73.1735085  44.5547491  56.2225912
  73.9431165  44.7049845  56.2296622  63.3331505  42.2722330  66.6403953
  63.1507078  42.2469216  65.7876245  64.0681173  42.7421268  66.6792862
  63.4145568  42.3383692  66.5201871  66.3977256  38.9907333  73.1486062
  67.1217229  38.9760364  73.6350956  66.4993393  39.7002688  72.6508030
  66.5195465  39.0932036  73.1464848  76.4453525  39.1940409  62.3030024
  76.5400379  39.9329703  62.7569650  75.8212368  38.7657884  62.7364589
  76.3662555  39.2401729  62.4338172  63.3002415  39.1515831  66.7903019
  63.8775918  39.0152282  67.4295265  62.6016477  38.6951615  67.0448604
  63.2823436  39.0638097  66.9225309  76.6976546  41.0389149  55.5366976
  76.6156708  41.1091336  56.4021963  77.3356266  41.6018893  55.3450717
  76.7796383  41.1328120  55.6356926  70.0569717  40.8049887  65.0041503
  69.7988961  39.9721621  64.9772802  70.1118200  41.0307500  64.1634003
  70.0269495  40.7147658  64.8761639  75.1370767  32.9078337  65.1045595
  74.4327094  32.4187523  65.2629515  75.1855742  32.9200812  64.2334040
  75.0400819  32.8367985  64.9984935  69.0304429  38.3587649  65.4906397
  68.4554020  38.5179817  66.1270358  68.6540106  37.7223058  65.0274848
  68.8907242  38.2885462  65.5160956  72.6977718  36.8310998  70.3498776
  72.3092151  36.4065216  69.6950967  72.0332416  37.0793148  70.8575803
  72.5424646  36.8049719  70.3286644  58.7761248  38.0027724  63.5050838
  58.8621500  37.6259592  64.2864368  59.4037046  37.6288169  63.0270796
  58.8817799  37.8913206  63.5496315  73.8016656  41.0609603  58.5475583
  74.6157295  41.3524496  58.4358354  73.7375797  40.4069465  57.9733876
  73.9119395  41.0074798  58.4464420  69.6724564  44.5331120  63.6747895
  70.3098511  44.2942868  64.2199688  70.0979636  44.7368279  62.9401056
  69.8300731  44.5282131  63.6465052  64.3637207  46.7719457  67.5582199
  64.4041352  47.0434308  66.7301978  64.9231731  47.2961365  67.9739987
  64.4520553  46.8895212  67.4974087  70.3127379  39.7533410  58.0122784
  70.6972532  39.5341117  58.7639329  70.0639000  40.5796355  58.1423861
  70.3329452  39.8431556  58.1423861  72.0546036  45.0103543  65.3541681
  72.1285045  44.8478715  66.2083531  72.8715543  45.1993733  65.1102163
  72.1862395  45.0140285  65.4439707  65.8151793  45.3561406  62.3836125
  64.9889911  45.6023143  62.2570403  65.8763784  45.2773487  63.2498183
  65.7025960  45.3806355  62.4925069  68.0327817  31.4230347  63.3431565
  67.1650242  31.4952946  63.4089174  68.3203021  32.2252426  63.5319540
  67.9467565  31.5524494  63.3806331  70.5950622  47.9738286  60.0855155
  70.8848920  47.5827267  59.3614381  71.3254103  48.1554991  60.5260430
  70.7457506  47.9432100  60.0437962  71.1845367  42.7756032  71.1708285
  70.6857061  43.4871800  71.2493174  71.9945592  43.0956699  71.1326447
  71.2301474  42.9282881  71.1764854  68.5356538  49.9505668  63.1515304
  68.3156833  49.6603023  63.9441971  68.3151060  49.2920623  62.6233217
  68.4704132  49.8105377  63.1904213  67.4473485  42.0378985  65.4171006
  67.1586733  41.4116456  65.9516733  68.3156833  41.9799272  65.4835686
  67.5333737  41.9366529  65.5061961  78.2351383  37.1813768  65.7352988
  77.8916148  36.4604104  66.0860238  78.3344425  36.9727619  64.8931346
  78.1993425  37.0437972  65.6624668  70.7024493  51.3235058  61.9345997
  71.3548551  50.7911501  62.1637023  70.0050102  50.9703711  62.3213871
  70.6955211  51.1924581  62.0258164  67.6505758  43.6774236  61.3413371
  68.4051726  44.0587275  61.5548834  67.0576371  44.1285380  61.7960068
  67.6742472  43.8003063  61.4396249  68.9703985  44.8482797  66.7153486
  68.4484738  44.9883089  67.4005351  69.3578005  44.0893462  66.9055604
  68.9507686  44.7568321  66.8454563  65.9595169  34.8988606  60.7848441
  65.6719965  34.5289876  60.0480388  66.6465637  35.3683461  60.5232146
  66.0184066  34.9135575  60.6363517  75.1670990  46.5878257  60.7014055
  74.9257666  45.8546117  60.2941120  75.3472323  47.1365114  60.0480389
  75.1578614  46.5600648  60.5444278  70.3970310  41.8786816  62.1134977
  70.2013093  42.4861551  61.5195280  70.6204656  41.1854760  61.6326651
  70.4004951  41.8664342  61.9551058  68.7948840  38.7641554  62.2315846
  69.5171492  38.9282712  61.7719652  68.3156833  39.4851219  62.1255186
  68.8312571  38.8939784  62.1481460  76.7542348  35.1005353  67.6112531
  75.9153449  35.1266632  67.3750794  76.8246715  35.7476089  68.1917877
  76.6410741  35.2001479  67.6621648  66.4456457  41.1699627  71.3369986
  66.9577554  41.4483880  70.6878745  66.1592800  41.9088921  71.7032799
  66.4791320  41.3201980  71.2959864  75.2011626  31.9990730  62.3440147
  75.9037979  31.7998478  61.8660105  74.9355815  31.2266672  62.6508990
  75.2658259  31.8553696  62.3185588  63.5323363  35.6769819  61.6333722
  63.6339500  36.4795980  61.9614698  64.3279250  35.4757154  61.3356803
  63.6651269  35.7655717  61.6369078  69.9640183  33.2626015  71.3971027
  69.7723380  33.2781150  72.2470451  70.8138778  33.4589690  71.3737682
  70.0615904  33.2940366  71.5194322  64.3487096  35.7916997  69.3754844
  64.2072587  34.9400937  69.4999352  64.6327659  35.8345657  68.5517050
  64.3694942  35.6716747  69.2722468  74.5025688  37.6284087  63.5199332
  74.2560402  37.5479838  64.3536121  74.8310811  36.8437555  63.3261860
  74.5146931  37.5010352  63.6146855  78.3973737  44.3367446  67.3086113
  78.2588096  45.0348492  67.8134856  77.6173735  44.1816103  66.9522295
  78.2616964  44.4167613  67.3312387  70.4622715  40.3640806  72.9322315
  70.6066091  40.9442014  72.2965425  70.8098364  40.7417102  73.6372170
  70.5350177  40.5061510  72.9421310  72.6342633  39.5630974  70.7147447
  71.8865947  39.7561988  70.3095725  72.7884158  38.7376193  70.4771568
  72.5465060  39.4696085  70.6192853  72.8744410  33.4581525  71.6042850
  73.3317024  34.1905499  71.7315643  72.9500738  33.0347990  72.3630106
  72.9535379  33.5038763  71.7343927  65.1177401  33.7047344  72.6932294
  64.5819590  33.0927703  73.0093061  65.1795166  34.2795480  73.3465961
  65.0473033  33.6994272  72.8367721  72.7174018  47.2459219  61.9091439
  73.4823909  46.9768863  61.5874103  72.6152108  46.7609229  62.6261502
  72.8155513  47.1348784  61.9671266  70.7526787  35.4483629  68.4484674
  69.9622862  35.2675089  68.7702010  71.1487410  34.6710581  68.4314969
  70.6943664  35.3071089  68.4937223  75.2392678  44.2771403  53.8891388
  76.0065663  44.3371528  53.4797240  74.7923987  43.7051844  53.4047707
  75.2866105  44.2007979  53.7569098  76.1370474  43.0826059  66.1744120
  75.4615476  42.8511291  66.6757507  76.1462850  42.4747242  65.5486225
  76.0388978  42.9584984  66.1560273  73.2664618  37.9243888  72.9308173
  73.2023759  38.7853844  72.8028310  73.4061805  37.6075881  72.1303725
  73.2780088  38.0044054  72.7936386  78.1387208  45.9391191  58.4054298
  78.2207046  46.7458177  58.0815749  78.6236951  45.9587150  59.1295072
  78.2224366  46.0611853  58.4641197  71.9483712  40.6176027  67.0724376
  71.5245961  40.8180526  66.3363395  71.7728567  39.7704875  67.1848676
  71.8594592  40.5224808  66.9798066  67.2366157  41.1128078  62.5052349
  67.3930776  41.0474881  63.3608341  67.5766750  41.8876631  62.2931028
  67.3099391  41.2177277  62.6006943  73.7745301  40.4885962  61.3745712
  74.3160847  39.9856343  61.8384333  74.0891860  40.4351157  60.5635197
  73.9009698  40.4065383  61.3229524  71.9431751  45.8803314  58.6585740
  72.0124571  45.0217852  58.7978740  72.7220206  46.0975194  58.3304765
  72.0684601  45.7856178  58.6302897  74.9234571  35.3822267  71.4268012
  75.1376540  34.7433181  70.8731366  74.3068470  35.8268090  70.9975874
  74.8639900  35.3532410  71.2818444  76.3339239  48.3041015  62.8722233
  75.9419030  48.0007730  62.1545100  76.4892311  49.1410105  62.6827187
  76.2992828  48.3824852  62.7378730  63.8100418  38.2963029  62.8213116
  64.1899383  38.7147574  62.1573383  63.2355783  38.8776485  63.1281959
  63.7811743  38.4440888  62.7689857  76.4978913  44.8691004  62.8128264
  76.1393568  45.0405647  63.5892296  76.0117624  45.3304209  62.2556262
  76.3737610  44.9629975  62.8453533  74.3149299  28.4922202  66.4155355
  73.4442857  28.4660923  66.3688665  74.5689641  28.3199394  65.5981201
  74.2242859  28.4632346  66.2875492  71.2867279  40.5490169  55.3528498
  71.5759804  41.3255052  55.6272073  71.3739078  40.0378901  56.0542998
  71.3421535  40.5882087  55.4970996  71.3398440  30.5028431  67.8728826
  70.8236928  29.8108622  67.9980405  70.7792369  31.1699208  67.8191424
  71.1804953  30.4991688  67.8834892  73.4090673  31.0421391  69.7021678
  73.0222426  31.0670422  70.4835208  72.9223611  30.4763069  69.2496195
  73.2803182  30.9617142  69.7509582  67.4531220  39.8623434  67.4528610
  66.6119226  39.7627308  67.6607504  67.6621228  40.6318914  67.8042931
  67.3595912  39.9615477  67.5355925  64.9306787  37.4842971  65.2813361
  64.5363484  37.5585982  64.5063471  64.3746903  37.8700917  65.8321723
  64.7909599  37.5524745  65.2481021  76.5671733  30.4624265  64.9617240
  76.7721327  30.3946573  65.8074237  76.2398157  31.2683086  64.8938417
  76.5486981  30.5710205  65.0776895  71.2647885  37.7904833  66.7026208
  70.9611022  37.2360821  67.3036616  70.5627305  37.9697043  66.2154242
  71.1164094  37.7349615  66.7195914  70.3213982  35.1005353  61.2670910
  70.5973716  34.3824265  60.8548477  70.9212651  35.6990273  61.0592016
  70.4507246  35.0825723  61.1751671  69.3266236  45.0054554  71.4098306
  69.2186590  45.0156616  72.2760364  69.5362017  45.8309334  71.2203259
  69.3416347  45.1295628  71.5102397  73.8224502  32.7718870  59.5417505
  74.2768249  32.9429430  60.2665349  74.2964548  32.1586981  59.1415280
  73.9592822  32.7069755  59.5891266  67.3440028  42.2567196  68.8720243
  66.7527961  42.8976694  68.8423258  68.1061051  42.6804813  68.8451543
  67.3688288  42.4143034  68.8635390  67.7400650  33.4169194  69.5388261
  68.2002132  33.4908123  70.2763385  67.7856757  34.2150448  69.1888082
  67.8151206  33.5463341  69.5961017  69.3884000  34.0835889  74.1060288
  68.9969565  33.4369236  74.5416066  69.5569863  34.6747324  74.7254543
  69.3554910  34.0750156  74.2622994  77.1029544  47.7076508  66.3052268
  76.9049232  48.1967322  65.6108479  76.4817255  47.9117749  66.8836401
  76.9817108  47.8093046  66.2875491  71.1637522  39.4761404  60.6462512
  71.9079567  39.8635681  60.8845462  71.3098218  38.6318830  60.8103000
  71.2948107  39.4091877  60.7056482  73.0817098  31.2711663  65.6794373
  72.2353143  31.4434471  65.5535723  73.0788230  30.4661007  66.0160202
  72.9564248  31.1772692  65.7105500  74.1515398  35.0486878  66.5456431
  73.6775352  34.5228640  67.0561742  74.5233534  34.5016351  65.9771293
  74.1365287  34.8902874  66.5371579  64.5288428  37.0458384  71.9139977
  65.3914041  36.9454094  71.8277307  64.1980211  36.4653094  71.3525549
  64.6073624  36.9450011  71.8185383  76.0798898  35.9423432  59.6082185
  75.5521916  36.0252176  58.9187894  76.5394606  36.6841304  59.6046830
  76.0700748  36.0644095  59.5056880  67.8890214  35.8700833  68.5750395
  67.2643284  35.8819225  67.9676348  67.5535809  36.3461009  69.2241635
  67.7475706  35.9419350  68.5806964  68.0731963  34.2125952  54.6323080
  67.7244767  34.8645677  55.0954630  67.5928409  34.1983065  53.9046951
  67.9502207  34.3069005  54.5934172  64.6015890  43.9301293  70.0154160
  64.0715814  43.2393732  70.0649134  64.8740983  43.9211479  69.1866868
  64.5640612  43.8268425  69.9001576  75.6335980  44.5126996  58.7391842
  76.3570179  44.9785109  58.5956415  75.1936571  44.5800605  57.9889439
  75.6751672  44.5910833  58.6076624  74.8022135  41.3724538  69.9892531
  74.1879128  40.8282588  70.2841166  75.3189420  40.8588775  69.5098347
  74.7877798  41.2160947  69.9616760  74.0418432  42.4428808  67.7236830
  73.6146040  41.8178527  67.2902265  74.0343377  42.1603730  68.5495837
  73.9777574  42.3081589  67.7816657  67.1580959  37.4793981  70.7925264
  67.3174446  36.7237305  71.1976986  66.9773853  38.0284921  71.4466001
  67.1546318  37.4487795  70.9487970  72.3704142  33.3197563  67.9379364
  72.3946629  32.7857675  67.2492144  72.6215616  32.8114871  68.6004954
  72.4114061  33.1658467  67.9344008  59.8811732  40.6029058  67.3722508
  59.7755181  40.5575902  66.5074592  59.1311952  40.9482838  67.6536793
  59.7547335  40.6469966  67.2859838  68.6505464  32.0468381  67.3185108
  68.6903836  32.5477587  68.0319816  67.8255129  32.1378775  67.0491031
  68.5344990  32.1350197  67.3835646  70.0719828  38.5628891  69.6159007
  69.2411757  38.7302709  69.4094255  70.0171345  38.1864842  70.4007892
  69.9409243  38.5318622  69.7007535  68.4455871  36.8384482  60.1449125
  68.5858833  37.3356947  60.8477766  68.9438404  36.1370777  60.2863338
  68.5396952  36.8086461  60.2700704  68.4756094  37.7051593  57.4741702
  69.1101173  38.3012018  57.4091163  68.5581705  37.4055051  58.2887572
  68.5812645  37.7492501  57.5844788  70.0535077  33.6365569  57.4487144
  70.3750918  33.1568651  56.7946406  70.3162020  34.4465215  57.2577955
  70.1401102  33.6855467  57.3242636  75.4494232  33.0237763  69.8110623
  75.8749303  32.5710289  69.1994149  74.8351225  32.4697833  70.0875410
  75.4222877  32.8751739  69.7615648  64.9809082  39.9019434  60.7431248
  65.4901311  40.4983942  61.1242553  65.4543354  39.6345408  60.0607667
  65.1252457  39.9505250  60.6985770  75.8939830  48.5747701  58.8989903
  75.1769140  48.4008563  58.4337141  76.5446567  48.3400273  58.3665389
  75.8841680  48.5143493  58.7519121  73.8888455  29.4952862  63.2201200
  73.2456773  29.3450509  63.7886338  73.5487862  29.2495208  62.4550304
  73.7433532  29.4364985  63.1904215  72.5274535  49.5909001  67.8742967
  72.3040189  48.8327831  68.2426993  72.0384378  49.6207023  67.1523406
  72.4217984  49.4831226  67.8219708  67.3399614  36.5375693  63.6104428
  66.6211603  36.9539825  63.8777292  67.7111976  37.1029931  63.0596066
  67.2891545  36.6824974  63.5687235  76.6399194  37.1703542  69.5006424
  76.6197122  36.9886837  70.3541203  76.6878395  38.0415560  69.4766007
  76.6433835  37.2720080  69.6229719  71.1752992  49.8109459  65.3280051
  70.7613390  49.1483590  64.9383893  71.8600366  49.9587318  64.8075745
  71.2151363  49.7350118  65.1936548  74.5418286  48.9699545  66.0803668
  74.1434569  49.0801815  65.3124488  73.9269505  49.1781611  66.6630228
  74.3917175  49.0173113  66.0534967  73.1146188  35.5773693  58.9477808
  72.5211027  35.8990689  58.3962375  73.1521466  34.7314788  58.7398914
  73.0320577  35.4998021  58.8360579  75.9904004  35.5353197  62.3779558
  75.7617697  35.5585898  61.5357916  76.2502081  34.7110664  62.4974568
  75.9950192  35.4169277  62.2704755  70.2723233  37.3887670  71.9804658
  69.7602136  36.7808853  72.3389689  70.1002729  38.1044263  72.4478634
  70.1712870  37.4050969  72.1020882  65.1188948  35.8325245  74.6307020
  64.9491538  36.4926620  74.0855226  64.6754897  36.0431807  75.3519509
  65.0288281  35.9611228  74.6568649  69.0448767  34.0729743  63.6733753
  69.5206133  34.4346823  63.0383935  68.5437367  34.7286211  63.9533896
  69.0414126  34.2223932  63.6210494  62.0191012  38.7372111  69.8895510
  61.4717732  38.0672756  70.0076378  62.8083390  38.3701959  69.9538977
  62.0543196  38.5837097  69.9164210  71.0875420  36.2170943  57.0407137
  71.4674385  36.2350572  56.2558252  70.3468016  36.6624932  56.9197985
  71.0344258  36.2852718  56.9070706  78.7160711  34.5253134  62.6282716
  78.7154937  34.3701791  63.4866992  78.5116891  35.3716121  62.5724102
  78.6860488  34.6273755  62.7470655  60.7777982  37.9492919  67.0441533
  60.5999743  37.4969528  67.7696448  60.4897004  38.7519080  67.2280010
  60.7090935  38.0015477  67.1785036  76.4401563  39.2050636  66.2818923
  76.9355228  38.4873631  66.2422943  75.6301338  38.9021434  66.1673410
  76.3945456  39.0548282  66.2592649  71.8860174  43.0548449  58.4315927
  71.0771497  42.7315123  58.3849237  72.3935083  42.3481671  58.3644176
  71.8409841  42.9029766  58.4146222  62.5150451  40.4820642  64.1563292
  61.6495971  40.4706333  64.0446063  62.6149267  40.2950865  65.0034431
  62.4024618  40.4526704  64.2652236  78.5053382  41.9554324  68.9696052
  78.9308453  41.4328745  68.4166477  78.1410301  42.5535161  68.4484675
  78.5139984  41.9664551  68.8105061  68.1407461  50.2518541  67.7293397
  68.4554020  51.0654930  67.7371179  68.5500875  49.8668760  68.3975556
  68.2475559  50.3147243  67.8297489  75.0931981  45.6688588  65.2997209
  75.5643159  46.3828850  65.4687194  75.4292160  45.0687338  65.8357079
  75.2127096  45.6860052  65.4029585  71.0794591  32.4432471  59.7234769
  71.9010285  32.6130784  59.4816464  70.6164242  32.5979732  59.0001067
  71.1325753  32.4914204  59.5806413  69.6689923  30.4375234  70.5033198
  70.2134336  30.0966360  71.0937539  69.7226858  31.2960695  70.6454482
  69.7579042  30.5130493  70.6115071  65.4820481  44.1991650  67.3772006
  66.0865339  44.1587484  66.7485826  65.2747794  45.0462802  67.4076061
  65.5409379  44.3179652  67.2888122  60.7171764  43.1826267  67.2470929
  60.6196042  42.3722539  67.5560985  61.5000633  43.1618060  66.8617197
  60.8187900  43.0593357  67.2357792  77.8028421  51.8033943  55.9743967
  77.0886599  51.5172123  56.3866399  78.2872390  52.1430569  56.6150354
  77.7687785  51.8115593  56.1299602  69.7493832  53.5213032  63.5050838
  69.8354083  53.1444900  64.2864368  70.3769629  53.1473477  63.0270796
  69.8550383  53.4098514  63.5496315  76.9327752  50.4173914  60.7848441
  76.6452548  50.0475184  60.0480388  77.6198221  50.8868769  60.5232146
  76.9916650  50.4320883  60.6363517  74.5055947  51.1955126  61.6333722
  74.6072083  51.9981288  61.9614698  75.3011834  50.9942462  61.3356803
  74.6383853  51.2841025  61.6369078  74.7833002  53.8148337  62.8213116
  75.1631967  54.2332882  62.1573383  74.2088366  54.3961793  63.1281959
  74.7544327  53.9626196  62.7689857  75.9541665  55.4204742  60.7431248
  76.4633895  56.0169250  61.1242553  76.4275938  55.1530716  60.0607667
  76.0985041  55.4690557  60.6985770  78.3132197  52.0561001  63.6104428
  77.5944186  52.4725133  63.8777292  78.6844559  52.6215239  63.0596066
  78.2624129  52.2010282  63.5687235  57.1004385   8.6468331  49.0107328
  56.3487285   8.2683869  48.7823373  57.5490397   8.6786764  48.2626139
  57.0554052   8.5953938  48.8664830  62.5529345   9.0693700  44.4392875
  62.2180714   9.7470622  44.0037097  63.0656216   8.6799011  43.8509747
  62.5794926   9.1118278  44.2879667  62.0933637  11.0207969  50.3803987
  62.4773016  11.5894867  49.8408762  62.0292778  10.2957479  49.9009803
  62.1407064  10.9983432  50.2297849  58.6789142   8.6586723  51.2770101
  58.7799504   7.8487077  51.5867228  58.0830887   8.5643669  50.6469779
  58.6061680   8.5251751  51.2296339  58.5189881  13.5764312  52.6784957
  59.1627337  14.0177476  53.0681115  58.8446137  12.7717738  52.5915215
  58.6621710  13.5229507  52.7230434  51.8754186   4.6807009  50.9022434
  51.6404370   3.8474662  50.7954703  52.0139827   4.9611675  50.0883635
  51.8609848   4.5990513  50.7664789  59.2210461   6.5876287  48.0504818
  59.5426302   7.1281494  47.4466127  59.8682557   6.0173058  48.1827108
  59.3636516   6.5835462  47.9811854  53.4371510   9.5592680  52.1778641
  52.9539089  10.2843170  52.1538224  54.2494829   9.8568810  52.2888798
  53.4862258   9.7095034  52.1905920  59.5085665   8.3524861  54.7828455
  58.9912606   7.9932276  54.1789763  60.2060056   7.8287035  54.7934521
  59.5351246   8.2222549  54.6958714  63.1649257   8.8019675  60.7444628
  63.2532602   8.6145815  61.5922838  63.5938969   8.1557104  60.3449475
  63.2411359   8.6782683  60.8116379  60.7319716   8.0850835  59.7262290
  60.1690551   7.6723445  60.2501951  61.4940740   8.0103741  60.1455433
  60.7614165   8.0128235  59.8655291  56.2915708  10.0748856  52.3298920
  56.9936287   9.5600845  52.3871677  56.2113191  10.4023007  53.1345795
  56.3839468  10.0463082  52.4571713  55.6166483   6.2655208  51.8384528
  56.4555383   6.4978141  51.8858290  55.6478252   5.3959519  51.7691564
  55.7448201   6.1712154  51.8349173  56.2419186   6.6856083  56.1397834
  56.7817411   6.5427214  56.8101206  55.5589132   7.0852834  56.5081860
  56.2211340   6.7235754  56.2932256  63.2769316   8.2328694  63.4088412
  64.0609732   8.3459542  63.7744154  63.0765910   7.4069831  63.6047097
  63.3635341   8.1275413  63.4922798  63.4339709  10.1438796  57.0554867
  62.6354955   9.9038296  57.3128736  63.8825721  10.1953189  57.8021915
  63.3814320  10.1161187  57.2039791  52.0549745   3.6915153  53.5744000
  51.8725318   3.6662039  52.7216292  52.7899414   4.1614091  53.6132908
  52.1363809   3.7576516  53.4541918  58.3942805   5.9523944  50.6087942
  59.0316752   5.7135691  51.1539735  58.8197876   6.1561102  49.8741102
  58.5518971   5.9474954  50.5805099  53.0855447   8.1912280  54.4922246
  53.1259592   8.4627131  53.6642025  53.6449971   8.7154188  54.9080033
  53.1738793   8.3088035  54.4314134  60.7764277   6.4296366  52.2881728
  60.8503285   6.2671538  53.1423578  61.5933783   6.6186556  52.0442210
  60.9080635   6.4333109  52.3779754  54.5370033   6.7754229  49.3176172
  53.7108151   7.0215966  49.1910450  54.5982025   6.6966310  50.1838230
  54.4244200   6.7999178  49.4265116  59.3168862   9.3931109  47.0195201
  59.6067161   9.0020091  46.2954428  60.0472343   9.5747814  47.4600477
  59.4675747   9.3624923  46.9778008  57.2574778  11.3698492  50.0855351
  57.0375073  11.0795846  50.8782018  57.0369300  10.7113447  49.5573263
  57.1922372  11.2298200  50.1244260  59.4242734  12.7427882  48.8686044
  60.0766792  12.2104324  49.0977070  58.7268342  12.3896534  49.2553918
  59.4173452  12.6117405  48.9598211  57.6922225   6.2675621  53.6493533
  57.1702979   6.4075912  54.3345398  58.0796245   5.5086285  53.8395651
  57.6725926   6.1761144  53.7794610  63.8889230   8.0071080  47.6354102
  63.6475906   7.2738940  47.2281167  64.0690563   8.5557937  46.9820435
  63.8796854   7.9793471  47.4784325  58.2568711   9.9736401  56.7323389
  58.4058274   9.4139316  56.0796793  59.0368713  10.0528402  57.1155908
  58.3942804   9.9021966  56.6920338  60.7822011  10.1451043  58.0107880
  60.7065682   9.4759854  58.5658668  60.7111870  10.8468832  58.5248546
  60.7602618  10.1495951  58.1684728  61.4392258   8.6652042  48.8431486
  62.2042149   8.3961686  48.5214150  61.3370348   8.1802053  49.5601548
  61.5373754   8.5541607  48.9011313  60.1713645  13.5519363  56.4685880
  60.6609576  12.8530152  56.2861545  59.5997878  13.2543233  57.0561938
  60.1598175  13.4045587  56.5286921  60.6649991   7.2996137  45.5925787
  60.7342812   6.4410675  45.7318787  61.4438446   7.5168018  45.2644811
  60.7902841   7.2049001  45.5642944  65.0557479   9.7233838  49.8062280
  64.6637271   9.4200553  49.0885146  65.2110551  10.5602928  49.6167234
  65.0211069   9.8017675  49.6718777  58.0484476   6.4247377  58.3438352
  57.9404831   6.4349439  59.2100411  58.2580257   7.2502157  58.1543306
  58.0634587   6.5488452  58.4442444  65.8247784   9.1269331  53.2392315
  65.6267473   9.6160145  52.5448526  65.2035495   9.3310572  53.8176448
  65.7035349   9.2285869  53.2215538  53.3234130   5.3494117  56.9494206
  52.7934055   4.6586556  56.9989181  53.5959223   5.3404302  56.1206915
  53.2858852   5.2461249  56.8341622  48.6029972   2.0221881  54.3062555
  48.4973421   1.9768725  53.4414639  47.8530192   2.3675661  54.5876840
  48.4765575   2.0662789  54.2199884  62.0050290   6.0777266  57.9026007
  61.4975381   6.6313113  58.3466637  61.7076936   6.1385556  57.0844781
  61.8855175   6.1683578  57.8474463  64.6158070   9.9940524  45.8329950
  63.8987380   9.8201386  45.3677187  65.2664808   9.7593096  45.3005436
  64.6059921   9.9336317  45.6859168  61.2492775  11.0101825  54.8083013
  61.0258430  10.2520654  55.1767040  60.7602618  11.0399846  54.0863453
  61.1436224  10.9024049  54.7559754  59.8971232  11.2302283  52.2620098
  59.4831631  10.5676413  51.8723940  60.5818606  11.3780141  51.7415792
  59.9369604  11.1542941  52.1276595  63.2636526  10.3892368  53.0143715
  62.8652809  10.4994638  52.2464535  62.6487746  10.5974434  53.5970274
  63.1135416  10.4365936  52.9875014  56.8625702  11.6711364  54.6633444
  57.1772261  12.4847753  54.6711226  57.2719115  11.2861583  55.3315603
  56.9693800  11.7340067  54.7637536  54.2038722   5.6184473  54.3112052
  54.8083579   5.5780307  53.6825873  53.9966034   6.4655625  54.3416108
  54.2627619   5.7372475  54.2228169  64.0182494   7.8850418  55.5274290
  64.8380868   7.7413384  55.7890585  63.7376572   8.5096617  56.0690728
  64.0979237   7.9560770  55.6462229  49.4390004   4.6019090  54.1810976
  49.3414282   3.7915362  54.4901032  50.2218874   4.5810884  53.7957244
  49.5406141   4.4786181  54.1697839  73.6895829  14.6290921  53.2470097
  72.8333725  14.7899419  53.2979213  73.7363483  13.7582985  53.2675158
  73.5694941  14.5241723  53.2576163  68.0736969  24.1653639  49.0107328
  67.3219868  23.7869177  48.7823373  68.5222981  24.1972072  48.2626139
  68.0286636  24.1139246  48.8664830  73.5261929  24.5879008  44.4392875
  73.1913297  25.2655930  44.0037097  74.0388799  24.1984319  43.8509747
  73.5527510  24.6303586  44.2879667  73.0666220  26.5393277  50.3803987
  73.4505599  27.1080175  49.8408762  73.0025361  25.8142787  49.9009803
  73.1139647  26.5168740  50.2297849  76.5347650  16.6882965  55.8901748
  77.0803610  17.3668051  55.9495718  76.4764527  16.5470425  55.0303330
  76.6063565  16.7674966  55.7713809  69.6521725  24.1772031  51.2770101
  69.7532088  23.3672385  51.5867228  69.0563470  24.0828977  50.6469779
  69.5794264  24.0437059  51.2296339  69.4922465  29.0949620  52.6784957
  70.1359920  29.5362784  53.0681115  69.8178720  28.2903046  52.5915215
  69.6354293  29.0414815  52.7230434  62.8486769  20.1992317  50.9022434
  62.6136954  19.3659970  50.7954703  62.9872410  20.4796983  50.0883635
  62.8342432  20.1175821  50.7664789  65.1476857  12.3678048  53.8006742
  64.5281888  11.7770695  53.6316757  65.0460720  12.9589483  53.1671065
  65.0414532  12.3682130  53.6811732  70.1943044  22.1061595  48.0504818
  70.5158885  22.6466802  47.4466127  70.8415141  21.5358366  48.1827108
  70.3369100  22.1020770  47.9811854  72.2444752  14.1077590  48.1339205
  72.9424917  14.2865717  48.6260668  72.5597085  13.5847929  47.5109595
  72.3940090  14.0571362  48.1141215  64.8745990  15.9130330  56.0450311
  64.7504687  16.4992775  56.6800130  65.5264274  15.4190525  56.3462586
  64.9519639  15.9269134  56.1836240  72.4332688  20.4948035  48.1218997
  72.8726323  19.8865135  48.5673769  72.2837351  20.1155408  47.3504462
  72.4754154  20.3486506  48.0738164  69.9004331  19.0892047  55.3237822
  70.5453333  18.5964490  55.0048771  70.1406108  19.2316833  56.1503900
  70.0314916  19.0369489  55.3987355  72.4390422  21.9346952  54.9744715
  72.7213665  21.1398358  54.7531471  73.1676583  22.4127540  54.9949776
  72.5879986  21.8881549  54.9447730  70.4171616   9.4769986  52.2160480
  70.0874946   9.9281130  51.5464179  69.7416618   9.3986150  52.7633486
  70.2682052   9.5321122  52.1983703  76.0342024  18.8475216  45.0749766
  75.9493320  19.7036183  45.2199335  76.5226408  18.5719540  45.7431925
  76.0930922  18.9332537  45.1951847  76.9660458  15.4660010  46.5747501
  76.4371929  15.6819644  47.2344807  77.4885478  16.1596149  46.4948470
  76.9648911  15.6003147  46.6603100  68.8560065  19.3623227  45.3754969
  68.2717281  19.8673258  45.7820833  68.4530161  19.1365614  44.6351561
  68.7099369  19.4031475  45.3259994  64.4104094  25.0777988  52.1778641
  63.9271672  25.8028478  52.1538224  65.2227412  25.3754118  52.2888798
  64.4594842  25.2280342  52.1905920  70.4818248  23.8710169  54.7828455
  69.9645190  23.5117584  54.1789763  71.1792639  23.3472343  54.7934521
  70.5083829  23.7407857  54.6958714  74.1381840  24.3204983  60.7444628
  74.2265186  24.1331123  61.5922838  74.5671553  23.6742412  60.3449475
  74.2143942  24.1967991  60.8116379  71.7052300  23.6036143  59.7262290
  71.1423135  23.1908753  60.2501951  72.4673323  23.5289048  60.1455433
  71.7346748  23.5313543  59.8655291  73.3137280  15.6088879  43.8523890
  73.5533284  15.8166863  43.0399233  73.6353121  14.8046388  43.9612834
  73.3974438  15.5202980  43.7484443  67.2648291  25.5934164  52.3298920
  67.9668871  25.0786153  52.3871677  67.1845774  25.9208315  53.1345795
  67.3572052  25.5648390  52.4571713  68.3127198  15.8309751  61.4579335
  68.4847702  15.7215646  62.3064617  68.8496555  16.4764156  61.2210528
  68.4172202  15.9101753  61.5484432  66.9784635   9.9452594  44.3961541
  66.7960208  10.1624475  43.5702533  67.8410248  10.0591606  44.4520155
  67.0789224   9.9942492  44.2816028  66.5899067  21.7840516  51.8384528
  67.4287966  22.0163449  51.8858290  66.6210836  20.9144827  51.7691564
  66.7180784  21.6897462  51.8349173  67.2151770  22.2041391  56.1397834
  67.7549995  22.0612522  56.8101206  66.5321716  22.6038142  56.5081860
  67.1943924  22.2421062  56.2932256  76.6392655  17.8832392  51.3342858
  77.3950170  18.3163906  51.3731767  76.7454979  17.2337162  51.9077494
  76.7662825  17.8509876  51.4240884  74.2501899  23.7514002  63.4088412
  75.0342316  23.8644850  63.7744154  74.0498494  22.9255139  63.6047097
  74.3367925  23.6460721  63.4922798  62.6188915  18.4241682  56.2932255
  62.3527330  17.6080799  56.4523246  62.6327479  18.4694837  55.4227771
  62.5813637  18.3098587  56.1885737  66.5246662  13.2226766  42.9084014
  65.8104839  12.9364946  43.3206446  67.0090630  13.5623392  43.5490401
  66.4906025  13.2308416  43.0639648  67.3687521  11.9620060  58.9399263
  66.6759318  11.4917040  59.1859995  67.9847849  11.7358365  59.5140970
  67.3572051  11.8587192  59.0608416  74.4072293  25.6624104  57.0554867
  73.6087538  25.4223604  57.3128736  74.8558304  25.7138497  57.8021915
  74.3546904  25.6346495  57.2039791  73.6993980  21.7256720  43.2845822
  74.1145128  21.3941744  42.5930318  72.8685909  21.4925623  43.1565958
  73.6381988  21.6427976  43.1636669  63.0282328  19.2100461  53.5744000
  62.8457902  19.1847347  52.7216292  63.7631997  19.6799399  53.6132908
  63.1096392  19.2761824  53.4541918  66.0928080  15.9285464  60.0826108
  66.8168052  15.9138495  60.5691003  66.1944217  16.6380819  59.5848077
  66.2146289  16.0310167  60.0804895  76.1404349  16.1318540  49.2370071
  76.2351203  16.8707834  49.6909697  75.5163192  15.7036015  49.6704636
  76.0613379  16.1779861  49.3678219  74.3956822  19.3104753  59.8860352
  74.9695684  18.6731997  60.0408916  74.3171626  19.3108835  59.0170010
  74.4690057  19.2169864  59.7806763  62.9953239  16.0893962  53.7243066
  63.5726741  15.9530413  54.3635312  62.2967301  15.6329746  53.9788651
  62.9774260  16.0016228  53.8565356  76.3927370  17.9767280  42.4707023
  76.3107532  18.0469467  43.3362010  77.0307090  18.5397024  42.2790764
  76.4747207  18.0706251  42.5696973  69.7520541  17.7428018  51.9381550
  69.4939785  16.9099753  51.9112849  69.8069024  17.9685631  51.0974050
  69.7220319  17.6525789  51.8101686  68.7255253  15.2965780  52.4246444
  68.1504844  15.4557949  53.0610405  68.3490929  14.6601189  51.9614895
  68.5858066  15.2263593  52.4501003  72.3928542  13.7689129  57.2838823
  72.0042975  13.3443347  56.6291014  71.7283240  14.0171279  57.7915849
  72.2375470  13.7427851  57.2626691  58.4712072  14.9405855  50.4390885
  58.5572324  14.5637723  51.2204415  59.0987870  14.5666301  49.9610843
  58.5768623  14.8291337  50.4836362  73.4967480  17.9987734  45.4815630
  74.3108119  18.2902627  45.3698401  73.4326621  17.3447596  44.9073923
  73.6070219  17.9452929  45.3804467  69.3675388  21.4709251  50.6087942
  70.0049335  21.2320999  51.1539735  69.7930460  21.6746410  49.8741102
  69.5251555  21.4660262  50.5805099  64.0588031  23.7097588  54.4922246
  64.0992176  23.9812439  53.6642025  64.6182555  24.2339496  54.9080033
  64.1471377  23.8273343  54.4314134  70.0078203  16.6911541  44.9462831
  70.3923356  16.4719248  45.6979376  69.7589824  17.5174487  45.0763908
  70.0280276  16.7809688  45.0763908  71.7496860  21.9481674  52.2881728
  71.8235869  21.7856846  53.1423578  72.5666367  22.1371864  52.0442210
  71.8813219  21.9518416  52.3779754  65.5102617  22.2939537  49.3176172
  64.6840735  22.5401274  49.1910450  65.5714608  22.2151618  50.1838230
  65.3976784  22.3184486  49.4265116  67.7278641   8.3608478  50.2771612
  66.8601066   8.4331077  50.3429221  68.0153845   9.1630557  50.4659587
  67.6418389   8.4902625  50.3146378  70.2901446  24.9116417  47.0195201
  70.5799744  24.5205398  46.2954428  71.0204927  25.0933122  47.4600477
  70.4408330  24.8810231  46.9778008  70.8796191  19.7134163  58.1048332
  70.3807885  20.4249931  58.1833220  71.6896415  20.0334830  58.0666494
  70.9252298  19.8661012  58.1104900  68.2307362  26.8883800  50.0855351
  68.0107657  26.5981154  50.8782018  68.0101884  26.2298755  49.5573263
  68.1654956  26.7483508  50.1244260  67.1424309  18.9757116  52.3511053
  66.8537557  18.3494587  52.8856780  68.0107657  18.9177404  52.4175733
  67.2284561  18.8744660  52.4402007  77.9302207  14.1191899  52.6693035
  77.5866972  13.3982235  53.0200284  78.0295249  13.9105751  51.8271393
  77.8944249  13.9816103  52.5964715  70.3975317  28.2613190  48.8686044
  71.0499375  27.7289632  49.0977070  69.7000926  27.9081842  49.2553918
  70.3906035  28.1302713  48.9598211  67.3456582  20.6152367  48.2753418
  68.1002550  20.9965406  48.4888880  66.7527195  21.0663511  48.7300114
  67.3693296  20.7381195  48.3736296  78.3915236  20.5817604  48.2117023
  78.9573268  21.2410813  48.1275566  77.7443139  20.9267302  48.6833425
  78.3793992  20.7299545  48.2689779  68.6654809  21.7860928  53.6493533
  68.1435562  21.9261220  54.3345398  69.0528829  21.0271593  53.8395651
  68.6458510  21.6946452  53.7794610  65.6545993  11.8366737  47.7188488
  65.3670789  11.4668008  46.9820435  66.3416461  12.3061593  47.4572193
  65.7134890  11.8513707  47.5703564  74.8621814  23.5256388  47.6354102
  74.6208490  22.7924248  47.2281167  75.0423147  24.0743245  46.9820435
  74.8529438  23.4978779  47.4784325  70.0921134  18.8164948  49.0475024
  69.8963917  19.4239682  48.4535327  70.3155480  18.1232892  48.5666698
  70.0955775  18.8042473  48.8891105  68.4899664  15.7019685  49.1655893
  69.2122316  15.8660844  48.7059699  68.0107657  16.4229350  49.0595232
  68.5263395  15.8317915  49.0821507  76.4493172  12.0383484  54.5452578
  75.6104273  12.0644763  54.3090841  76.5197539  12.6854220  55.1257924
  76.3361565  12.1379610  54.5961694  66.1407281  18.1077758  58.2710032
  66.6528378  18.3862011  57.6218792  65.8543624  18.8467052  58.6372846
  66.1742144  18.2580112  58.2299911  63.2274187  12.6147950  48.5673769
  63.3290324  13.4174111  48.8954744  64.0230074  12.4135286  48.2696850
  63.3602093  12.7033848  48.5709124  69.6591006  10.2004146  58.3311074
  69.4674203  10.2159281  59.1810498  70.5089602  10.3967821  58.3077729
  69.7566728  10.2318498  58.4534369  64.0437919  12.7295128  56.3094891
  63.9023411  11.8779069  56.4339399  64.3278483  12.7723789  55.4857097
  64.0645766  12.6094878  56.2062515  74.1976512  14.5662218  50.4539379
  73.9511226  14.4857969  51.2876168  74.5261635  13.7815686  50.2601906
  74.2097755  14.4388483  50.5486902  78.0924561  21.2745577  54.2426160
  77.9538920  21.9726623  54.7474902  77.3124559  21.1194234  53.8862342
  77.9567788  21.3545744  54.2652434  70.1573539  17.3018937  59.8662362
  70.3016915  17.8820145  59.2305472  70.5049188  17.6795233  60.5712217
  70.2301000  17.4439641  59.8761357  72.3293456  16.5009105  57.6487494
  71.5816771  16.6940119  57.2435772  72.4834982  15.6754325  57.4111615
  72.2415884  16.4074216  57.5532899  69.2301294  25.4921709  56.7323389
  69.3790858  24.9324624  56.0796793  70.0101296  25.5713710  57.1155908
  69.3675388  25.4207274  56.6920338  71.7554595  25.6636351  58.0107880
  71.6798266  24.9945162  58.5658668  71.6844454  26.3654140  58.5248546
  71.7335202  25.6681259  58.1684728  72.5695234  10.3959656  58.5382897
  73.0267848  11.1283630  58.6655689  72.6451562   9.9726121  59.2970153
  72.6486203  10.4416894  58.6683974  64.8128225  10.6425476  59.6272341
  64.2770414  10.0305834  59.9433108  64.8745989  11.2173612  60.2806008
  64.7423857  10.6372403  59.7707768  72.4124842  24.1837350  48.8431486
  73.1774733  23.9146994  48.5214150  72.3102932  23.6987361  49.5601548
  72.5106337  24.0726915  48.9011313  70.4477611  12.3861760  55.3824721
  69.6573686  12.2053220  55.7042057  70.8438234  11.6088712  55.3655016
  70.3894488  12.2449221  55.4277270  74.9343502  21.2149534  40.8231435
  75.7016487  21.2749659  40.4137287  74.4874811  20.6429975  40.3387753
  74.9816929  21.1386110  40.6909145  75.8321298  20.0204190  53.1084167
  75.1566300  19.7889422  53.6097554  75.8413674  19.4125373  52.4826272
  75.7339802  19.8963115  53.0900319  72.9615442  14.8622019  59.8648220
  72.8974583  15.7231975  59.7368357  73.1012629  14.5454012  59.0643771
  72.9730912  14.9422185  59.7276433  77.8338032  22.8769322  45.3394345
  77.9157870  23.6836308  45.0155796  78.3187774  22.8965281  46.0635119
  77.9175190  22.9989985  45.3981244  71.6434536  17.5554158  54.0064423
  71.2196785  17.7558657  53.2703441  71.4679391  16.7083006  54.1188723
  71.5545416  17.4602940  53.9138113  71.1446229  29.0704671  56.4685880
  71.6342159  28.3715460  56.2861545  70.5730461  28.7728541  57.0561938
  71.1330759  28.9230895  56.5286921  66.9316981  18.0506210  49.4392396
  67.0881600  17.9853012  50.2948388  67.2717574  18.8254762  49.2271075
  67.0050215  18.1555408  49.5346990  73.4696125  17.4264093  48.3085759
  74.0111671  16.9234474  48.7724379  73.7842684  17.3729288  47.4975244
  73.5960522  17.3443514  48.2569571  71.6382575  22.8181445  45.5925787
  71.7075395  21.9595983  45.7318787  72.4171030  23.0353326  45.2644811
  71.7635425  22.7234309  45.5642944  74.6185395  12.3200398  58.3608059
  74.8327364  11.6811312  57.8071413  74.0019294  12.7646222  57.9315921
  74.5590724  12.2910541  58.2158490  76.0290062  25.2419146  49.8062280
  75.6369854  24.9385861  49.0885146  76.1843135  26.0788236  49.6167234
  75.9943652  25.3202983  49.6718777  63.5051242  15.2341160  49.7553163
  63.8850207  15.6525705  49.0913430  62.9306607  15.8154616  50.0622006
  63.4762567  15.3819019  49.7029904  76.1929737  21.8069135  49.7468311
  75.8344392  21.9783778  50.5232343  75.7068448  22.2682341  49.1896309
  76.0688434  21.9008106  49.7793580  70.9818103  17.4868300  42.2868545
  71.2710627  18.2633183  42.5612119  71.0689901  16.9757032  42.9883044
  71.0372359  17.5260219  42.4311043  77.3534477  22.6973031  60.6935512
  77.9914197  22.2033226  60.3597968  76.7108568  22.6250431  60.1087738
  77.3528703  22.6132039  60.5577867  77.4088733  23.3892839  57.3340868
  78.1981111  23.0381904  57.4542950  77.5832331  24.2029228  57.0717502
  77.5509015  23.4578696  57.3128736  67.1482044  16.8001565  54.3868657
  66.3070050  16.7005439  54.5947551  67.3572052  17.5697045  54.7382978
  67.0546736  16.8993608  54.4695972  64.6257611  14.4221102  52.2153408
  64.2314308  14.4964114  51.4403517  64.0697727  14.8079048  52.7661770
  64.4860423  14.4902876  52.1821068  70.9598708  14.7282964  53.6366255
  70.6561846  14.1738952  54.2376662  70.2578129  14.9075174  53.1494289
  70.8114918  14.6727746  53.6535960  70.0164806  12.0383484  48.2010957
  70.2924540  11.3202396  47.7888524  70.6163475  12.6368404  47.9932063
  70.1458070  12.0203855  48.1091718  69.0217059  21.9432685  58.3438352
  68.9137414  21.9534747  59.2100411  69.2312841  22.7687465  58.1543306
  69.0367171  22.0673760  58.4442444  67.0390851  19.1945327  55.8060290
  66.4478785  19.8354825  55.7763305  67.8011875  19.6182944  55.7791590
  67.0639112  19.3521166  55.7975437  67.4351474  10.3547325  56.4728308
  67.8952956  10.4286254  57.2103431  67.4807581  11.1528579  56.1228129
  67.5102030  10.4841472  56.5301064  69.0834824  11.0214020  61.0400335
  68.6920389  10.3747367  61.4756113  69.2520687  11.6125455  61.6594590
  69.0505734  11.0128288  61.1963041  76.7980368  24.6454639  53.2392315
  76.6000056  25.1345453  52.5448526  76.1768079  24.8495880  53.8176448
  76.6767932  24.7471177  53.2215538  70.8588346  16.4139536  47.5802559
  71.6030391  16.8013812  47.8185509  71.0049042  15.5696961  47.7443047
  70.9898931  16.3470008  47.6396529  73.8466222  11.9865009  53.4796478
  73.3726176  11.4606771  53.9901789  74.2184358  11.4394482  52.9111340
  73.8316111  11.8281005  53.4711625  64.2239252  13.9836516  58.8480024
  65.0864865  13.8832225  58.7617354  63.8931035  13.4031225  58.2865596
  64.3024448  13.8828142  58.7525430  75.7749722  12.8801563  46.5422232
  75.2472740  12.9630307  45.8527941  76.2345430  13.6219435  46.5386877
  75.7651572  13.0022226  46.4396927  67.5841038  12.8078965  55.5090442
  66.9594108  12.8197357  54.9016395  67.2486633  13.2839140  56.1581682
  67.4426530  12.8797482  55.5147011  67.7682787  11.1504083  41.5663127
  67.4195591  11.8023808  42.0294676  67.2879233  11.1361196  40.8386998
  67.6453031  11.2447137  41.5274218  64.2966714  20.8679425  56.9494206
  63.7666638  20.1771864  56.9989181  64.5691807  20.8589610  56.1206915
  64.2591436  20.7646556  56.8341622  75.3286804  21.4505127  45.6731889
  76.0521003  21.9163240  45.5296462  74.8887395  21.5178737  44.9229486
  75.3702496  21.5288964  45.5416670  74.4972959  18.3102669  56.9232578
  73.8829952  17.7660720  57.2181213  75.0140244  17.7966906  56.4438394
  74.4828622  18.1539078  56.8956806  73.7369256  19.3806939  54.6576877
  73.3096864  18.7556658  54.2242312  73.7294201  19.0981861  55.4835884
  73.6728398  19.2459720  54.7156704  66.8531783  14.4172112  57.7265311
  67.0125270  13.6615437  58.1317033  66.6724677  14.9663052  58.3806048
  66.8497142  14.3865926  57.8828017  72.0654966  10.2575694  54.8719411
  72.0897453   9.7235806  54.1832191  72.3166440   9.7493003  55.5345001
  72.1064885  10.1036598  54.8684055  59.5762556  17.5407189  54.3062555
  59.4706005  17.4954033  53.4414639  58.8262776  17.8860969  54.5876840
  59.4498159  17.5848097  54.2199884  68.3456288   8.9846512  54.2525155
  68.3854660   9.4855719  54.9659862  67.5205953   9.0756906  53.9831078
  68.2295814   9.0728328  54.3175693  70.5285901  18.5507252  62.3545449
  69.6781532  18.6878966  62.4903094  70.6914029  17.8171030  62.7993151
  70.4269765  18.4621353  62.4401049  69.7670652  15.5007022  56.5499054
  68.9362581  15.6680840  56.3434302  69.7122169  15.1242973  57.3347939
  69.6360067  15.4696753  56.6347582  68.1406695  13.7762613  47.0789172
  68.2809657  14.2735078  47.7817813  68.6389228  13.0748908  47.2203385
  68.2347776  13.7464592  47.2040751  68.1706918  14.6429724  44.4081748
  68.8051997  15.2390150  44.3431210  68.2532529  14.3433182  45.2227619
  68.2763469  14.6870633  44.5184835  69.7485901  10.5743700  44.3827190
  70.0701742  10.0946782  43.7286453  70.0112844  11.3843346  44.1918002
  69.8351926  10.6233598  44.2582683  72.9782873  21.5962574  57.9026007
  72.4707965  22.1498421  58.3466637  72.6809520  21.6570864  57.0844781
  72.8587758  21.6868885  57.8474463  64.6759906  16.8397565  47.6771294
  65.1852135  17.4362073  48.0582600  65.1494178  16.5723539  46.9947714
  64.8203281  16.8883381  47.6325817  75.5890654  25.5125832  45.8329950
  74.8719963  25.3386694  45.3677187  76.2397391  25.2778404  45.3005436
  75.5792504  25.4521624  45.6859168  78.1738625  14.3890420  49.5771255
  77.5029815  14.9320123  49.4484321  78.8678375  14.8585276  49.3352950
  78.1767492  14.5388692  49.5226783  72.2225359  26.5287132  54.8083013
  71.9991013  25.7705962  55.1767040  71.7335202  26.5585154  54.0863453
  72.1168808  26.4209357  54.7559754  67.0350437  13.4753824  50.5444475
  66.3162427  13.8917956  50.8117338  67.4062800  14.0408063  49.9936113
  66.9842369  13.6203105  50.5027282  76.3350018  14.1081673  56.4346471
  76.3147946  13.9264968  57.2881249  76.3829219  14.9793691  56.4106054
  76.3384659  14.2098211  56.5569765  74.2796348  20.6968865  62.3594947
  74.2392203  20.0518542  61.7740103  75.0919666  20.6405482  62.6720359
  74.3939502  20.5927832  62.3191896  70.8703816  26.7487591  52.2620098
  70.4564214  26.0861721  51.8723940  71.5551190  26.8965449  51.7415792
  70.9102187  26.6728249  52.1276595  74.2369110  25.9077676  53.0143715
  73.8385393  26.0179946  52.2464535  73.6220329  26.1159742  53.5970274
  74.0867999  25.9551244  52.9875014  72.8097012  12.5151824  45.8817854
  72.2161851  12.8368820  45.3302421  72.8472290  11.6692919  45.6738960
  72.7271401  12.4376152  45.7700626  75.6854828  12.4731328  49.3119605
  75.4568521  12.4964030  48.4697963  75.9452905  11.6488795  49.4314615
  75.6901016  12.3547408  49.2044802  69.9674057  14.3265801  58.9144705
  69.4552960  13.7186984  59.2729736  69.7953553  15.0422394  59.3818681
  69.8663694  14.3429101  59.0360928  64.8139772  12.7703377  61.5647067
  64.6442362  13.4304751  61.0195273  64.3705721  12.9809938  62.2859556
  64.7239105  12.8989359  61.5908696  68.7399591  11.0107875  50.6073800
  69.2156957  11.3724954  49.9723981  68.2388191  11.6664342  50.8873943
  68.7364950  11.1602063  50.5550541  61.7141836  15.6750242  56.8235556
  61.1668555  15.0050888  56.9416425  62.5034214  15.3080090  56.8879024
  61.7494020  15.5215229  56.8504257  71.5626244  15.3357699  62.3198967
  72.3137571  15.6509376  62.6338522  71.7548821  15.1336870  61.4932889
  71.7017659  15.3525081  62.2442363  70.7826244  13.1549074  43.9747184
  71.1625209  13.1728703  43.1898299  70.0418840  13.6003063  43.8538032
  70.7295082  13.2230849  43.8410752  60.4728806  14.8871050  53.9781579
  60.2950567  14.4347659  54.7036495  60.1847828  15.6897211  54.1620057
  60.4041759  14.9393608  54.1125082  76.1352387  16.1428767  53.2158970
  76.6306052  15.4251762  53.1762990  75.3252162  15.8399565  53.1013457
  76.0896280  15.9926414  53.1932696  71.5810998  19.9926581  45.3655974
  70.7722321  19.6693254  45.3189284  72.0885907  19.2859803  45.2984223
  71.5360665  19.8407897  45.3486269  62.2101275  17.4198774  51.0903339
  61.3446795  17.4084464  50.9786110  62.3100091  17.2328997  51.9374478
  62.0975442  17.3904835  51.1992283  78.2004206  18.8932455  55.9036099
  78.6259277  18.3706877  55.3506524  77.8361125  19.4913292  55.3824721
  78.2090808  18.9042682  55.7445108  67.8358285  27.1896672  54.6633444
  68.1504844  28.0033061  54.6711226  68.2451699  26.8046891  55.3315603
  67.9426383  27.2525375  54.7637536  74.7882805  22.6066719  52.2337256
  75.2593983  23.3206982  52.4027241  75.1242983  22.0065469  52.7697126
  74.9077920  22.6238183  52.3369632  75.4256751  22.3984653  58.9964949
  74.8777697  21.7742537  58.7285014  75.8869780  22.5878925  58.2809028
  75.4123961  22.3343703  58.8515380  70.7745415   9.3810602  46.6574816
  71.5961109   9.5508915  46.4156511  70.3115066   9.5357863  45.9341113
  70.8276577   9.4292335  46.5146460  65.1771305  21.1369781  54.3112052
  65.7816163  21.0965615  53.6825873  64.9698618  21.9840933  54.3416108
  65.2360203  21.2557783  54.2228169  74.9915078  23.4035726  55.5274290
  75.8113451  23.2598692  55.7890585  74.7109155  24.0281925  56.0690728
  75.0711821  23.4746078  55.6462229  60.4122588  20.1204398  54.1810976
  60.3146866  19.3100670  54.4901032  61.1951457  20.0996192  53.7957244
  60.5138724  19.9971488  54.1697839  73.8219353  35.7177625  50.9022434
  73.5869537  34.8845278  50.7954703  73.9604994  35.9982291  50.0883635
  73.8075015  35.6361129  50.7664789  76.1209440  27.8863356  53.8006742
  75.5014472  27.2956003  53.6316757  76.0193304  28.4774791  53.1671065
  76.0147116  27.8867438  53.6811732  75.8478573  31.4315638  56.0450311
  75.7237270  32.0178083  56.6800130  76.4996858  30.9375833  56.3462586
  75.9252223  31.4454442  56.1836240  75.3836678  40.5963296  52.1778641
  74.9004256  41.3213786  52.1538224  76.1959996  40.8939426  52.2888798
  75.4327425  40.7465650  52.1905920  78.2380875  41.1119472  52.3298920
  78.9401454  40.5971461  52.3871677  78.1578358  41.4393623  53.1345795
  78.3304635  41.0833698  52.4571713  77.9517218  25.4637902  44.3961541
  77.7692792  25.6809782  43.5702533  78.8142831  25.5776914  44.4520155
  78.0521808  25.5127800  44.2816028  77.5631650  37.3025824  51.8384528
  78.4020550  37.5348757  51.8858290  77.5943419  36.4330135  51.7691564
  77.6913368  37.2082770  51.8349173  78.1884353  37.7226699  56.1397834
  78.7282578  37.5797830  56.8101206  77.5054300  38.1223450  56.5081860
  78.1676507  37.7606370  56.2932256  73.5921498  33.9426990  56.2932255
  73.3259914  33.1266107  56.4523246  73.6060063  33.9880145  55.4227771
  73.5546221  33.8283895  56.1885737  77.4979245  28.7412074  42.9084014
  76.7837423  28.4550254  43.3206446  77.9823214  29.0808700  43.5490401
  77.4638609  28.7493724  43.0639648  78.3420105  27.4805368  58.9399263
  77.6491902  27.0102348  59.1859995  78.9580432  27.2543673  59.5140970
  78.3304635  27.3772500  59.0608416  74.0014912  34.7285769  53.5744000
  73.8190485  34.7032655  52.7216292  74.7364581  35.1984707  53.6132908
  74.0828976  34.7947132  53.4541918  77.0660664  31.4470772  60.0826108
  77.7900636  31.4323803  60.5691003  77.1676800  32.1566127  59.5848077
  77.1878873  31.5495475  60.0804895  73.9685822  31.6079270  53.7243066
  74.5459325  31.4715721  54.3635312  73.2699884  31.1515054  53.9788651
  73.9506844  31.5201536  53.8565356  69.4444656  30.4591163  50.4390885
  69.5304907  30.0823031  51.2204415  70.0720453  30.0851608  49.9610843
  69.5501207  30.3476645  50.4836362  75.0320614  39.2282896  54.4922246
  75.0724760  39.4997747  53.6642025  75.5915138  39.7524804  54.9080033
  75.1203960  39.3458651  54.4314134  76.4835201  37.8124845  49.3176172
  75.6573318  38.0586582  49.1910450  76.5447192  37.7336926  50.1838230
  76.3709368  37.8369794  49.4265116  77.1139865  33.6263066  58.2710032
  77.6260962  33.9047319  57.6218792  76.8276207  34.3652360  58.6372846
  77.1474728  33.7765419  58.2299911  74.2006771  28.1333258  48.5673769
  74.3022907  28.9359419  48.8954744  74.9962658  27.9320594  48.2696850
  74.3334677  28.2219156  48.5709124  75.0170503  28.2480436  56.3094891
  74.8755995  27.3964377  56.4339399  75.3011066  28.2909096  55.4857097
  75.0378349  28.1280186  56.2062515  75.7860808  26.1610783  59.6272341
  75.2502998  25.5491142  59.9433108  75.8478573  26.7358919  60.2806008
  75.7156441  26.1557711  59.7707768  77.9049564  33.5691518  49.4392396
  78.0614183  33.5038320  50.2948388  78.2450157  34.3440070  49.2271075
  77.9782799  33.6740716  49.5346990  74.4783826  30.7526468  49.7553163
  74.8582790  31.1711013  49.0913430  73.9039190  31.3339924  50.0622006
  74.4495151  30.9004327  49.7029904  78.1214627  32.3186873  54.3868657
  77.2802634  32.2190747  54.5947551  78.3304635  33.0882353  54.7382978
  78.0279320  32.4178916  54.4695972  75.5990194  29.9406410  52.2153408
  75.2046892  30.0149422  51.4403517  75.0430311  30.3264356  52.7661770
  75.4593006  30.0088184  52.1821068  78.0123435  34.7130635  55.8060290
  77.4211368  35.3540133  55.7763305  78.7744459  35.1368252  55.7791590
  78.0371696  34.8706473  55.7975437  78.4084058  25.8732633  56.4728308
  78.8685539  25.9471562  57.2103431  78.4540165  26.6713887  56.1228129
  78.4834613  26.0026780  56.5301064  75.1971836  29.5021823  58.8480024
  76.0597449  29.4017533  58.7617354  74.8663619  28.9216533  58.2865596
  75.2757032  29.4013450  58.7525430  78.5573622  28.3264273  55.5090442
  77.9326692  28.3382664  54.9016395  78.2219216  28.8024448  56.1581682
  78.4159113  28.3982790  55.5147011  78.7415370  26.6689391  41.5663127
  78.3928175  27.3209116  42.0294676  78.2611816  26.6546504  40.8386998
  78.6185614  26.7632445  41.5274218  75.2699297  36.3864733  56.9494206
  74.7399222  35.6957172  56.9989181  75.5424391  36.3774918  56.1206915
  75.2324019  36.2831864  56.8341622  77.8264367  29.9357420  57.7265311
  77.9857854  29.1800744  58.1317033  77.6457261  30.4848360  58.3806048
  77.8229726  29.9051234  57.8828017  70.5495139  33.0592497  54.3062555
  70.4438588  33.0139341  53.4414639  69.7995359  33.4046277  54.5876840
  70.4230742  33.1033405  54.2199884  75.6492489  32.3582873  47.6771294
  76.1584719  32.9547381  48.0582600  76.1226762  32.0908847  46.9947714
  75.7935865  32.4068689  47.6325817  78.0083021  28.9939132  50.5444475
  77.2895010  29.4103264  50.8117338  78.3795383  29.5593371  49.9936113
  77.9574953  29.1388413  50.5027282  75.7872355  28.2888684  61.5647067
  75.6174945  28.9490059  61.0195273  75.3438305  28.4995246  62.2859556
  75.6971689  28.4174667  61.5908696  72.6874420  31.1935550  56.8235556
  72.1401139  30.5236196  56.9416425  73.4766798  30.8265398  56.8879024
  72.7226603  31.0400536  56.8504257  71.4461389  30.4056358  53.9781579
  71.2683150  29.9532967  54.7036495  71.1580411  31.2082519  54.1620057
  71.3774342  30.4578916  54.1125082  73.1833859  32.9384082  51.0903339
  72.3179378  32.9269772  50.9786110  73.2832675  32.7514304  51.9374478
  73.0708026  32.9090143  51.1992283  76.1503889  36.6555089  54.3112052
  76.7548746  36.6150923  53.6825873  75.9431202  37.5026241  54.3416108
  76.2092786  36.7743091  54.2228169  71.3855171  35.6389706  54.1810976
  71.2879449  34.8285978  54.4901032  72.1684041  35.6181500  53.7957244
  71.4871308  35.5156796  54.1697839  73.5170177  12.6555756  37.8362481
  73.2820361  11.8223409  37.7294750  73.6555818  12.9360422  37.0223682
  73.5025839  12.5739260  37.7004836  75.0787502  17.5341427  39.1118687
  74.5955080  18.2591917  39.0878271  75.8910820  17.8317557  39.2228845
  75.1278249  17.6843781  39.1245967  77.9331699  18.0497603  39.2638967
  78.6352278  17.5349592  39.3211724  77.8529182  18.3771754  40.0685842
  78.0255459  18.0211829  39.3911759  77.2582474  14.2403955  38.7724575
  78.0971374  14.4726888  38.8198337  77.2894243  13.3708266  38.7031611
  77.3864192  14.1460902  38.7689220  77.8835177  14.6604830  43.0737881
  78.4233402  14.5175961  43.7441253  77.2005124  15.0601581  43.4421907
  77.8627331  14.6984501  43.2272302  73.2872322  10.8805121  43.2272302
  73.0210738  10.0644238  43.3863293  73.3010886  10.9258277  42.3567818
  73.2497045  10.7662026  43.1225784  73.6965736  11.6663900  40.5084047
  73.5141309  11.6410786  39.6556339  74.4315405  12.1362838  40.5472955
  73.7779800  11.7325263  40.3881965  74.7271438  16.1661027  41.4262292
  74.7675583  16.4375878  40.5982072  75.2865962  16.6902935  41.8420080
  74.8154784  16.2836782  41.3654181  76.1786024  14.7502976  36.2516218
  75.3524142  14.9964713  36.1250497  76.2398016  14.6715057  37.1178276
  76.0660191  14.7747925  36.3605163  78.8990769  19.3447239  37.0195398
  78.6791064  19.0544593  37.8122065  78.6785291  18.6862194  36.4913310
  78.8338363  19.2046947  37.0584307  78.0139990  13.0715806  35.2093465
  78.7685958  13.4528845  35.4228927  77.4210602  13.5226950  35.6640161
  78.0376703  13.1944634  35.3076343  77.7074259  11.6508766  42.7400337
  77.1162192  12.2918264  42.7103352  78.4695283  12.0746384  42.7131636
  77.7322520  11.8084605  42.7315484  74.9650121  13.3242864  43.8834253
  74.4350046  12.6335303  43.9329228  75.2375214  13.3153049  43.0546962
  74.9274843  13.2209996  43.7681669  70.2445963   9.9970628  41.2402602
  70.1389412   9.9517472  40.3754686  69.4946183  10.3424408  41.5216886
  70.1181566  10.0411536  41.1539931  78.5041693  19.6460111  41.5973491
  78.8188252  20.4596500  41.6051273  78.9135106  19.2610330  42.2655650
  78.6109791  19.7088814  41.6977583  75.8454713  13.5933220  41.2452099
  76.4499570  13.5529054  40.6165920  75.6382025  14.4404372  41.2756155
  75.9043610  13.7121222  41.1568216  71.0805995  12.5767837  41.1151022
  70.9830273  11.7664109  41.4241079  71.8634865  12.5559631  40.7297291
  71.1822132  12.4534928  41.1037885  26.6197112  30.3555047  74.3502433
  26.5891116  31.2099683  74.5220702  27.2178461  30.0550339  74.9088577
  26.7034270  30.4371543  74.4577235  14.2037936  38.9793416  74.8692595
  13.4520836  38.6008954  74.6408640  14.6523948  39.0111849  74.1211405
  14.1587603  38.9279023  74.7250097  19.6562896  39.4018785  70.2978142
  19.3214265  40.0795707  69.8622364  20.1689767  39.0124096  69.7095014
  19.6828477  39.4443363  70.1464934  19.1967188  41.3533054  76.2389254
  19.5806567  41.9219952  75.6994029  19.1326329  40.6282564  75.7595070
  19.2440615  41.3308517  76.0883116  24.4413686  32.9307349  72.6220743
  24.3253212  33.6815035  73.0512881  25.2369573  32.6731302  72.8716830
  24.5418276  33.0042196  72.7224835  15.6223432  43.9089397  78.5370224
  16.2660888  44.3502561  78.9266382  15.9479688  43.1042823  78.4500482
  15.7655261  43.8554592  78.5815701  16.3244012  36.9201372  73.9090085
  16.6459853  37.4606579  73.3051393  16.9716108  36.3498143  74.0412375
  16.4670067  36.9160547  73.8397121  18.5633655  35.3087812  73.9804263
  19.0027291  34.7004912  74.4259036  18.4138318  34.9295185  73.2089728
  18.6055121  35.1626283  73.9323431  22.1642992  33.6614993  70.9335033
  22.0794287  34.5175960  71.0784602  22.6527375  33.3859317  71.6017192
  22.2231889  33.7472314  71.0537114  23.0961425  30.2799787  72.4332768
  22.5672897  30.4959421  73.0930074  23.6186445  30.9735926  72.3533737
  23.0949878  30.4142924  72.5188367  28.5509478  35.8546092  77.8065812
  27.7207181  36.0656735  77.9699229  28.5018730  35.0283146  77.5308096
  28.4216213  35.7635698  77.7903178  14.9861033  34.1763004  71.2340236
  14.4018248  34.6813035  71.6406100  14.5831128  33.9505391  70.4936828
  14.8400337  34.2171252  71.1845261  19.4438247  30.4228656  69.7109156
  19.6834251  30.6306640  68.8984500  19.7654088  29.6186165  69.8198101
  19.5275405  30.3342757  69.6069709  25.8073793  36.5245446  77.9430528
  25.3709025  36.5282188  78.6989500  25.4736709  37.2050945  77.5110106
  25.6936413  36.6257902  77.9911361  12.6547629  28.0366543  68.7669280
  11.9405806  27.7504723  69.1791713  13.1391598  28.3763169  69.4075668
  12.6206993  28.0448193  68.9224915  28.9418139  33.2426366  76.8350165
  29.6034574  32.6817034  76.7346074  28.3009551  32.7478397  77.1602856
  28.9447007  33.0862775  76.8682506  19.8294947  36.5396497  69.1431089
  20.2446096  36.2081521  68.4515584  18.9986877  36.3065400  69.0151225
  19.7682956  36.4567753  69.0221936  25.2282970  34.2591748  76.5762154
  25.4638559  34.4036947  75.7489005  25.3772534  35.0234156  76.9693668
  25.2848773  34.3930803  76.5125758  27.0573427  33.0993414  74.4131758
  27.3881644  33.6321054  73.8071853  27.6306515  33.1532302  75.0693709
  27.1907106  33.1862983  74.4209540  22.5228337  32.7907057  68.3292290
  22.4408500  32.8609244  69.1947277  23.1608058  33.3536801  68.1376031
  22.6048175  32.8846028  68.4282240  28.1652778  28.3403911  75.9171920
  27.9089343  27.5283853  75.7269802  29.0082092  28.3481478  75.6902107
  28.2518804  28.2215909  75.8556737  19.6268448  32.8127511  71.3400897
  20.4409086  33.1042404  71.2283668  19.5627589  32.1587373  70.7659189
  19.7371187  32.7592706  71.2389734  16.1379171  31.5051318  70.8048098
  16.5224324  31.2859025  71.5564643  15.8890791  32.3314264  70.9349174
  16.1581243  31.5949465  70.9349174  16.4202413  39.7256194  72.8780468
  16.7100712  39.3345175  72.1539695  17.1505894  39.9072899  73.3185744
  16.5709298  39.6950008  72.8363275  14.3608329  41.7023577  75.9440618
  14.1408624  41.4120931  76.7367285  14.1402851  41.0438532  75.4158530
  14.2955923  41.5623285  75.9829527  16.5276285  43.0752967  74.7271310
  17.1800343  42.5429409  74.9562336  15.8301894  42.7221619  75.1139184
  16.5207003  42.9442490  74.8183478  24.5216203  35.3957381  74.0702290
  25.0874236  36.0550590  73.9860833  23.8744107  35.7407079  74.5418692
  24.5094960  35.5439322  74.1275046  20.9922781  38.3396165  73.4939369
  20.7509457  37.6064025  73.0866434  21.1724114  38.8883022  72.8405702
  20.9830405  38.3118556  73.3369592  25.7178901  35.4463608  70.8627926
  25.3385710  34.6600746  70.8557215  25.0545146  35.9950465  70.7199570
  25.5637376  35.4108432  70.8408723  18.5425809  38.9977127  74.7016752
  19.3075700  38.7286771  74.3799417  18.4403899  38.5127138  75.4186815
  18.6407305  38.8866692  74.7596580  21.0644470  36.0289311  66.6816702
  21.8317455  36.0889436  66.2722553  20.6175779  35.4569752  66.1973020
  21.1117897  35.9525887  66.5494412  23.9639000  37.6909099  71.1979612
  24.0458837  38.4976085  70.8741063  24.4488742  37.7105058  71.9220385
  24.0476158  37.8129762  71.2566511  19.5997093  32.2403870  74.1671026
  20.1412638  31.7374251  74.6309646  19.9143652  32.1869065  73.3560511
  19.7261490  32.1583291  74.1154838  17.7683542  37.6321222  71.4511054
  17.8376363  36.7735760  71.5904054  18.5471998  37.8493103  71.1230078
  17.8936392  37.5374086  71.4228211  22.1591030  40.0558923  75.6647547
  21.7670822  39.7525638  74.9470413  22.3144102  40.8928013  75.4752501
  22.1244620  40.1342760  75.5304044  22.3230705  36.6208912  75.6053578
  21.9645360  36.7923555  76.3817610  21.8369416  37.0822118  75.0481576
  22.1989402  36.7147883  75.6378847  17.1119070  32.3008077  68.1453812
  17.4011595  33.0772960  68.4197386  17.1990869  31.7896809  68.8468311
  17.1673326  32.3399996  68.2896310  22.9281335  39.4594416  79.0977581
  22.7301024  39.9485230  78.4033793  22.3069046  39.6635657  79.6761715
  22.8068900  39.5610954  79.0800805  21.9050689  27.6941340  72.4007499
  21.3773708  27.7770084  71.7113208  22.3646397  28.4359212  72.3972143
  21.8952540  27.8162003  72.2982194  13.8983754  25.9643860  67.4248394
  13.5496559  26.6163585  67.8879943  13.4180200  25.9500973  66.6972265
  13.7753998  26.0586914  67.3859485  21.4587772  36.2644904  71.5317156
  22.1821970  36.7303017  71.3881729  21.0188363  36.3318514  70.7814753
  21.5003464  36.3428741  71.4001937  14.3007885  29.4569501  70.2667015
  14.9352965  30.0529927  70.2016477  14.3833496  29.1572959  71.0812885
  14.4064436  29.5010410  70.3770102  21.7191621  40.3265609  71.6915217
  21.0020931  40.1526471  71.2262454  22.3698359  40.0918181  71.1590703
  21.7093472  40.2661401  71.5444435  17.0004783  41.5627368  78.1205365
  16.5865182  40.9001498  77.7309207  17.6852157  41.7105226  77.6001059
  17.0403155  41.4868026  77.9861862  20.3670077  40.7217453  78.8728981
  19.9686361  40.8319723  78.1049802  19.7521297  40.9299519  79.4555541
  20.2168967  40.7691021  78.8460281  28.1011920  35.2969420  72.2572072
  28.4845526  36.0460776  72.4870169  27.3056033  35.5435239  71.9984061
  28.0405702  35.4439113  72.2529646  16.9127212  27.9688851  69.8332451
  17.2926176  27.9868480  69.0483566  16.1719808  28.4142840  69.7123298
  16.8596049  28.0370626  69.6996019  17.7111966  34.8066358  71.2241241
  16.9023288  34.4833031  71.1774551  18.2186875  34.0999580  71.1569490
  17.6661632  34.6547674  71.2071535  37.5929695  45.8740355  74.3502433
  37.5623700  46.7284991  74.5220702  38.1911044  45.5735647  74.9088577
  37.6766853  45.9556851  74.4577235  30.7929380  44.9616006  79.1055363
  29.9367276  45.1224504  79.1564480  30.8397034  44.0908070  79.1260424
  30.6728492  44.8566807  79.1161429  25.1770520  54.4978723  74.8692595
  24.4253420  54.1194262  74.6408640  25.6256532  54.5297157  74.1211405
  25.1320187  54.4464331  74.7250097  30.6295480  54.9204093  70.2978142
  30.2946848  55.5981015  69.8622364  31.1422350  54.5309404  69.7095014
  30.6561061  54.9628671  70.1464934  30.1699771  56.8718362  76.2389254
  30.5539151  57.4405260  75.6994029  30.1058912  56.1467872  75.7595070
  30.2173198  56.8493825  76.0883116  33.6381201  47.0208050  81.7487015
  34.1837161  47.6993136  81.8080985  33.5798078  46.8795510  80.8888597
  33.7097116  47.1000051  81.6299076  26.7555276  54.5097116  77.1355368
  26.8565639  53.6997470  77.4452495  26.1597021  54.4154062  76.5055046
  26.6827815  54.3762144  77.0881606  35.4146270  48.4492657  72.6220743
  35.2985796  49.2000343  73.0512881  36.2102157  48.1916610  72.8716830
  35.5150859  48.5227504  72.7224835  26.5956016  59.4274705  78.5370224
  27.2393471  59.8687869  78.9266382  26.9212271  58.6228131  78.4500482
  26.7387844  59.3739900  78.5815701  19.9520320  50.5317402  76.7607701
  19.7170505  49.6985055  76.6539970  20.0905961  50.8122068  75.9468902
  19.9375983  50.4500906  76.6250056  22.2510408  42.7003133  79.6592009
  21.6315440  42.1095780  79.4902024  22.1494272  43.2914568  79.0256332
  22.1448083  42.7007215  79.5396998  27.2976596  52.4386680  73.9090085
  27.6192437  52.9791887  73.3051393  27.9448692  51.8683451  74.0412375
  27.4402651  52.4345855  73.8397121  29.3478304  44.4402675  73.9924472
  30.0458468  44.6190802  74.4845935  29.6630636  43.9173014  73.3694861
  29.4973641  44.3896447  73.9726482  21.9779541  46.2455415  81.9035578
  21.8538238  46.8317860  82.5385397  22.6297825  45.7515610  82.2047853
  22.0553190  46.2594219  82.0421507  29.5366239  50.8273120  73.9804263
  29.9759874  50.2190220  74.4259036  29.3870902  50.4480493  73.2089728
  29.5787705  50.6811591  73.9323431  27.0037882  49.4217131  81.1823089
  27.6486884  48.9289575  80.8634037  27.2439659  49.5641918  82.0089167
  27.1348467  49.3694574  81.2572622  29.5423973  52.2672037  80.8329982
  29.8247216  51.4723443  80.6116737  30.2710134  52.7452625  80.8535043
  29.6913537  52.2206634  80.8032997  27.5205167  39.8095071  78.0745747
  27.1908497  40.2606215  77.4049445  26.8450169  39.7311235  78.6218753
  27.3715603  39.8646206  78.0568970  33.1375576  49.1800301  70.9335033
  33.0526871  50.0361268  71.0784602  33.6259959  48.9044625  71.6017192
  33.1964473  49.2657622  71.0537114  34.7281575  35.7980594  76.3195357
  34.4135016  36.4884073  76.7515780  34.2108517  35.7425376  75.6180858
  34.6046045  35.8915483  76.2792306  34.0694009  45.7985095  72.4332768
  33.5405480  46.0144729  73.0930074  34.5919029  46.4921234  72.3533737
  34.0682462  45.9328232  72.5188367  39.5242062  51.3731400  77.8065812
  38.6939765  51.5842043  77.9699229  39.4751314  50.5468454  77.5308096
  39.3948797  51.2821006  77.7903178  25.9593617  49.6948312  71.2340236
  25.3750832  50.1998343  71.6406100  25.5563712  49.4690699  70.4936828
  25.8132920  49.7356560  71.1845261  21.5137645  55.4103073  78.0363907
  21.0305223  56.1353563  78.0123491  22.3260963  55.7079203  78.1474065
  21.5628393  55.5605427  78.0491187  27.5851799  54.2035254  80.6413722
  27.0678741  53.8442669  80.0375030  28.2826190  53.6797428  80.6519788
  27.6117380  54.0732942  80.5543981  30.4170831  45.9413964  69.7109156
  30.6566835  46.1491948  68.8984500  30.7386672  45.1371473  69.8198101
  30.5007989  45.8528065  69.6069709  25.7261121  37.8707360  73.5568694
  26.4807089  38.2385677  73.3185745  25.5488656  38.2446914  74.3247874
  25.8115600  37.9805548  73.6353583  24.3681842  55.9259249  78.1884187
  25.0702422  55.4111238  78.2456944  24.2879326  56.2533400  78.9931062
  24.4605603  55.8973475  78.3156979  39.0196020  44.0201800  81.6016234
  38.1824441  44.0903987  81.8363828  38.9884251  44.0226295  80.7290536
  38.8914302  44.0312027  81.5075782  24.0818186  40.2777679  70.2546807
  23.8993759  40.4949559  69.4287800  24.9443799  40.3916691  70.3105422
  24.1822775  40.3267577  70.1401294  23.6932618  52.1165601  77.6969795
  24.5321517  52.3488534  77.7443557  23.7244387  51.2469912  77.6276831
  23.8214335  52.0222547  77.6934440  24.3185321  52.5366476  81.9983101
  24.8583546  52.3937607  82.6686473  23.6355267  52.9363227  82.3667127
  24.2977475  52.5746147  82.1517522  29.7617905  37.2804089  73.2895831
  30.4904066  37.1020044  72.8433987  29.8512798  38.1222169  73.5003009
  29.8824567  37.3787968  73.2549349  33.7426206  48.2157477  77.1928125
  34.4983721  48.6488991  77.2317034  33.8488530  47.5662246  77.7662761
  33.8696376  48.1834961  77.2826151  36.7806377  52.0430754  77.9430528
  36.3441609  52.0467496  78.6989500  36.4469292  52.7236253  77.5110106
  36.6668997  52.1443210  77.9911361  36.7003860  39.0844582  80.1859956
  37.3429768  39.1542686  80.7721871  36.9526880  38.4173805  79.6839498
  36.8325992  38.9970930  80.1987235  23.6280213  43.5551851  68.7669280
  22.9138390  43.2690031  69.1791713  24.1124182  43.8948477  69.4075668
  23.5939576  43.5633501  68.9224915  39.9150723  48.7611674  76.8350165
  40.5767157  48.2002342  76.7346074  39.2742135  48.2663705  77.1602856
  39.9179591  48.6048083  76.8682506  30.8027531  52.0581805  69.1431089
  31.2178679  51.7266829  68.4515584  29.9719460  51.8250708  69.0151225
  30.7415540  51.9753061  69.0221936  20.1315880  49.5425546  79.4329267
  19.9491453  49.5172432  78.5801559  20.8665549  50.0124484  79.4718175
  20.2129943  49.6086909  79.3127185  36.2015554  49.7777056  76.5762154
  36.4371143  49.9222255  75.7489005  36.3505117  50.5419464  76.9693668
  36.2581357  49.9116111  76.5125758  38.0306011  48.6178722  74.4131758
  38.3614228  49.1506362  73.8071853  38.6039099  48.6717610  75.0693709
  38.1639690  48.7048291  74.4209540  33.2437900  46.4643625  75.0955338
  33.3384754  47.2032919  75.5494964  32.6196743  46.0361100  75.5289903
  33.1646930  46.5104945  75.2263486  20.0986790  46.4219047  79.5828333
  20.6760293  46.2855498  80.2220578  19.4000852  45.9654831  79.8373918
  20.0807811  46.3341313  79.7150623  33.4960921  48.3092365  68.3292290
  33.4141083  48.3794552  69.1947277  34.1340641  48.8722109  68.1376031
  33.5780758  48.4031336  68.4282240  26.8554092  48.0753103  77.7966816
  26.5973336  47.2424837  77.7698116  26.9102575  48.3010716  76.9559317
  26.8253870  47.9850874  77.6686953  31.9355142  40.1781553  77.8970909
  31.2311469  39.6890739  78.0554828  31.9840117  40.1904028  77.0259353
  31.8385194  40.1071201  77.7910249  25.8288804  45.6290865  78.2831711
  25.2538396  45.7883033  78.9195672  25.4524481  44.9926274  77.8200162
  25.6891617  45.5588678  78.3086270  29.4962093  44.1014214  83.1424090
  29.1076526  43.6768432  82.4876281  28.8316791  44.3496364  83.6501116
  29.3409021  44.0752935  83.1211957  39.1385362  43.8589219  75.9171920
  38.8821927  43.0469161  75.7269802  39.9814676  43.8666786  75.6902107
  39.2251387  43.7401217  75.8556737  15.5745623  45.2730940  76.2976152
  15.6605875  44.8962808  77.0789682  16.2021421  44.8991385  75.8196110
  15.6802174  45.1616422  76.3421629  33.3188454  37.7988843  80.6548074
  33.6998966  37.1167014  81.0415948  32.5151739  37.5098445  80.4723738
  33.2564916  37.6555892  80.6852130  30.6001031  48.3312819  71.3400897
  31.4141670  48.6227712  71.2283668  30.5360172  47.6772681  70.7659189
  30.7103770  48.2778014  71.2389734  26.4708939  51.8034336  76.4673209
  27.1082886  51.5646084  77.0125002  26.8964011  52.0071495  75.7326369
  26.6285106  51.7985347  76.4390366  27.1111754  47.0236626  70.8048098
  27.4956907  46.8044333  71.5564643  26.8623375  47.8499572  70.9349174
  27.1313827  47.1134772  70.9349174  28.8530411  52.2806759  78.1466995
  28.9269420  52.1181931  79.0008845  29.6699918  52.4696949  77.9027477
  28.9846770  52.2843501  78.2365020  22.6136168  52.6264622  75.1761438
  21.7874286  52.8726359  75.0495717  22.6748159  52.5476703  76.0423496
  22.5010335  52.6509571  75.2850383  24.8312192  38.6933563  76.1356879
  23.9634617  38.7656162  76.2014488  25.1187396  39.4955642  76.3244854
  24.7451940  38.8227710  76.1731645  33.9545081  38.8411422  84.4668200
  34.6998673  38.6521233  84.0531626  33.5382385  39.3669660  83.9082057
  34.0030055  38.8913568  84.3232774  27.3934997  55.2441502  72.8780468
  27.6833295  54.8530483  72.1539695  28.1238478  55.4258207  73.3185744
  27.5441881  55.2135316  72.8363275  41.3307351  46.2120651  79.4173705
  41.8815273  45.5788720  79.6570797  41.3151467  46.7436044  80.1089210
  41.4092548  46.1969599  79.5552564  27.9829742  50.0459248  83.9633599
  27.4841436  50.7575016  84.0418487  28.7929967  50.3659915  83.9251761
  28.0285849  50.1986097  83.9690167  25.3340913  57.2208885  75.9440618
  25.1141208  56.9306239  76.7367285  25.1135435  56.5623840  75.4158530
  25.2688507  57.0808593  75.9829527  24.2457860  49.3082201  78.2096320
  23.9571108  48.6819672  78.7442047  25.1141208  49.2502488  78.2761000
  24.3318112  49.2069745  78.2987274  35.0335758  44.4516984  78.5278302
  34.6900524  43.7307320  78.8785551  35.1328800  44.2430836  77.6856660
  34.9977800  44.3141188  78.4549982  27.5008868  58.5938274  74.7271310
  28.1532926  58.0614717  74.9562336  26.8034477  58.2406927  75.1139184
  27.4939586  58.4627797  74.8183478  24.4490133  50.9477452  74.1338685
  25.2036101  51.3290491  74.3474147  23.8560746  51.3988596  74.5885381
  24.4726847  51.0706279  74.2321563  35.4948787  50.9142688  74.0702290
  36.0606819  51.5735898  73.9860833  34.8476690  51.2592387  74.5418692
  35.4827543  51.0624630  74.1275046  25.7688360  52.1186013  79.5078800
  25.2469113  52.2586305  80.1930665  26.1562380  51.3596678  79.6980917
  25.7492061  52.0271537  79.6379877  22.7579544  42.1691822  73.5773755
  22.4704340  41.7993093  72.8405702  23.4450012  42.6386677  73.3157460
  22.8168441  42.1838792  73.4288831  31.9655365  53.8581473  73.4939369
  31.7242041  53.1249333  73.0866434  32.1456698  54.4068330  72.8405702
  31.9562989  53.8303864  73.3369592  27.1954685  49.1490032  74.9060291
  26.9997468  49.7564767  74.3120594  27.4189031  48.4557976  74.4251965
  27.1989326  49.1367558  74.7476372  25.5933215  46.0344770  75.0241159
  26.3155867  46.1985928  74.5644965  25.1141208  46.7554435  74.9180499
  25.6296946  46.1643000  74.9406773  33.5526723  42.3708569  80.4037844
  32.7137824  42.3969848  80.1676108  33.6231090  43.0179305  80.9843191
  33.4395117  42.4704695  80.4546961  31.9996001  39.2693946  75.1365460
  32.7022354  39.0701694  74.6585419  31.7340190  38.4969889  75.4434304
  32.0642634  39.1256912  75.1110902  37.4284247  47.5776556  77.6899086
  37.3418221  47.7331982  78.5433865  36.9734727  48.2214631  77.3158491
  37.3487504  47.6952311  77.7606193  20.3307738  42.9473035  74.4259036
  20.4323875  43.7499196  74.7540011  21.1263625  42.7460371  74.1282116
  20.4635644  43.0358933  74.4294391  31.3010063  44.8987303  76.3124646
  31.0544777  44.8183054  77.1461435  31.6295186  44.1140771  76.1187173
  31.3131307  44.7713568  76.4072169  35.1958112  51.6070662  80.1011427
  35.0572471  52.3051708  80.6060169  34.4158110  51.4519319  79.7447609
  35.0601339  51.6870829  80.1237701  27.2607090  47.6344022  85.7247629
  27.4050466  48.2145230  85.0890739  27.6082739  48.0120318  86.4297483
  27.3334552  47.7764726  85.7346624  29.4327008  46.8334190  83.5072760
  28.6850322  47.0265204  83.1021038  29.5868533  46.0079410  83.2696882
  29.3449435  46.7399301  83.4118166  26.3334845  55.8246793  82.5908656
  26.4824409  55.2649709  81.9382060  27.1134847  55.9038795  82.9741174
  26.4708939  55.7532359  82.5505605  36.6911485  50.9648916  70.8627926
  36.3118293  50.1786054  70.8557215  36.0277730  51.5135773  70.7199570
  36.5369959  50.9293740  70.8408723  34.1456111  33.9074616  78.2662007
  34.2639679  34.3651079  77.5329310  33.9718286  33.1019877  77.9798225
  34.1375282  33.8568388  78.1162941  29.5158393  54.5162435  74.7016752
  30.2808284  54.2472079  74.3799417  29.4136483  54.0312446  75.4186815
  29.6139888  54.4052000  74.7596580  27.5511163  42.7186845  81.2409988
  26.7607237  42.5378305  81.5627324  27.9471785  41.9413797  81.2240283
  27.4928039  42.5774306  81.2862536  32.0377053  51.5474619  66.6816702
  32.8050038  51.6074744  66.2722553  31.5908362  50.9755060  66.1973020
  32.0850481  51.4711195  66.5494412  32.9354849  50.3529275  78.9669434
  32.2599851  50.1214507  79.4682821  32.9447225  49.7450458  78.3411539
  32.8373353  50.2288200  78.9485586  30.0648993  45.1947104  85.7233487
  30.0008134  46.0557060  85.5953624  30.2046181  44.8779097  84.9229038
  30.0764463  45.2747270  85.5861700  34.9371583  53.2094407  71.1979612
  35.0191421  54.0161393  70.8741063  35.4221326  53.2290366  71.9220385
  35.0208741  53.3315070  71.2566511  28.7468087  47.8879243  79.8649690
  28.3230336  48.0883742  79.1288708  28.5712942  47.0408091  79.9773990
  28.6578967  47.7928025  79.7723380  24.0350532  48.3831295  75.2977662
  24.1915151  48.3178097  76.1533655  24.3751125  49.1579847  75.0856342
  24.1083767  48.4880493  75.3932257  30.5729676  47.7589178  74.1671026
  31.1145222  47.2559559  74.6309646  30.8876235  47.7054373  73.3560511
  30.6994073  47.6768599  74.1154838  28.7416126  53.1506530  71.4511054
  28.8108946  52.2921068  71.5904054  29.5204581  53.3678411  71.1230078
  28.8668976  53.0559394  71.4228211  31.7218946  42.6525483  84.2193326
  31.9360915  42.0136397  83.6656680  31.1052845  43.0971306  83.7901188
  31.6624275  42.6235626  84.0743757  33.1323614  55.5744231  75.6647547
  32.7403405  55.2710946  74.9470413  33.2876686  56.4113321  75.4752501
  33.0977203  55.6528068  75.5304044  20.6084793  45.5666245  75.6138430
  20.9883758  45.9850790  74.9498697  20.0340158  46.1479701  75.9207273
  20.5796118  45.7144104  75.5615171  33.8858034  44.2614548  85.1576633
  33.0734715  43.9540438  85.2389806  34.3447968  43.7813548  85.7219345
  33.8338418  44.1451040  85.2531227  33.2963288  52.1394220  75.6053578
  32.9377943  52.3108863  76.3817610  32.8101999  52.6007425  75.0481576
  33.1721985  52.2333191  75.6378847  31.1133674  35.7625418  79.2080669
  30.2427232  35.7364139  79.1613978  31.3674016  35.5902610  78.3906515
  31.0227234  35.7335562  79.0800806  28.0851654  47.8193385  68.1453812
  28.3744179  48.5958268  68.4197386  28.1723453  47.3082117  68.8468311
  28.1405910  47.8585304  68.2896310  28.1382815  37.7731647  80.6654139
  27.6221303  37.0811838  80.7905718  27.5776744  38.4402424  80.6116738
  27.9789328  37.7694904  80.6760205  36.1825028  44.8787262  81.1186694
  35.7552636  44.7913610  80.3634794  35.5451081  44.9865037  81.7041538
  36.0254635  44.8819922  81.0932136  24.2515595  47.1326650  80.2453924
  23.4103601  47.0330524  80.4532818  24.4605603  47.9022130  80.5968245
  24.1580287  47.2318693  80.3281239  21.7291162  44.7546187  78.0738675
  21.3347859  44.8289199  77.2988784  21.1731279  45.1404133  78.6247036
  21.5893974  44.8227961  78.0406334  33.3656108  37.7327481  77.7542554
  33.5705702  37.6649789  78.5999551  33.0382532  38.5386302  77.6863731
  33.3471356  37.8413421  77.8702209  28.0632260  45.0608049  79.4951522
  27.7595397  44.5064037  80.0961929  27.3611680  45.2400259  79.0079556
  27.9148469  45.0052831  79.5121227  27.1198357  42.3708569  74.0596223
  27.3958091  41.6527481  73.6473791  27.7197026  42.9693489  73.8517329
  27.2491621  42.3528939  73.9676985  36.6189796  38.2859245  77.2345319
  36.0064110  38.7729647  77.6199051  36.7153971  37.6102736  77.7782970
  36.5427694  38.2577554  77.3724177  30.6208877  40.0422086  72.3342818
  31.0752624  40.2132647  73.0590663  31.0948923  39.4290197  71.9340594
  30.7577197  39.9772971  72.3816580  24.1424403  49.5270412  81.6645557
  23.5512336  50.1679910  81.6348572  24.9045426  49.9508029  81.6376856
  24.1672663  49.6846250  81.6560704  33.9013919  54.9779724  79.0977581
  33.7033607  55.4670538  78.4033793  33.2801630  55.1820965  79.6761715
  33.7801483  55.0796262  79.0800805  27.9621897  46.7464620  73.4387826
  28.7063942  47.1338897  73.6770776  28.1082593  45.9022046  73.6028313
  28.0932482  46.6795093  73.4981795  30.9499773  42.3190094  79.3381745
  30.4759727  41.7931856  79.8487056  31.3217909  41.7719567  78.7696607
  30.9349662  42.1606090  79.3296892  37.2136504  47.3792469  80.7488526
  36.9734726  46.5398885  80.7530952  37.6928511  47.4592636  81.4729299
  37.2488687  47.2673869  80.8563328  32.8783273  43.2126648  72.4007499
  32.3506291  43.2955392  71.7113208  33.3378981  43.9544520  72.3972143
  32.8685123  43.3347311  72.2982194  39.2141691  44.1593927  78.7017785
  38.9751461  44.1189761  77.8638569  39.3775592  45.0065079  78.8283506
  39.2031994  44.2786012  78.5971267  24.6874589  43.1404050  81.3675709
  24.0627659  43.1522441  80.7601662  24.3520184  43.6164225  82.0166949
  24.5460081  43.2122566  81.3732277  24.8716338  41.4829168  67.4248394
  24.5229142  42.1348893  67.8879943  24.3912784  41.4686281  66.6972265
  24.7486582  41.5772222  67.3859485  32.4320355  51.7830212  71.5317156
  33.1554554  52.2488325  71.3881729  31.9920946  51.8503822  70.7814753
  32.4736047  51.8614049  71.4001937  31.6006510  48.6427754  82.7817845
  30.9863503  48.0985804  83.0766480  32.1173795  48.1291991  82.3023661
  31.5862173  48.4864163  82.7542073  30.8402807  49.7132024  80.5162143
  30.4130415  49.0881743  80.0827579  30.8327752  49.4306946  81.3421151
  30.7761949  49.5784805  80.5741971  29.1688517  40.5900779  80.7304677
  29.1931004  40.0560891  80.0417457  29.4199991  40.0818088  81.3930268
  29.2098436  40.4361683  80.7269322  25.4489839  39.3171597  80.1110422
  25.4888211  39.8180804  80.8245129  24.6239504  39.4081991  79.8416345
  25.3329365  39.4053413  80.1760960  26.8704203  45.8332107  82.4084321
  26.0396132  46.0005925  82.2019569  26.8155720  45.4568058  83.1933206
  26.7393618  45.8021838  82.4932849  25.2440247  44.1087698  72.9374438
  25.3843208  44.6060163  73.6403080  25.7422779  43.4073993  73.0788652
  25.3381327  44.0789677  73.0626017  25.2740469  44.9754809  70.2667015
  25.9085548  45.5715234  70.2016477  25.3566080  44.6758267  71.0812885
  25.3797020  45.0195718  70.3770102  26.8519452  40.9068785  70.2412457
  27.1735293  40.4271867  69.5871720  27.1146396  41.7168431  70.0503269
  26.9385477  40.9558683  70.1167949  30.0816425  51.9287659  83.7611273
  29.5741516  52.4823506  84.2051904  29.7843071  51.9895949  82.9430048
  29.9621310  52.0193970  83.7059730  32.2478607  40.2940979  82.6035936
  32.6733678  39.8413505  81.9919463  31.6335600  39.7401049  82.8800724
  32.2207252  40.1454955  82.5540962  21.7793457  47.1722650  73.5356561
  22.2885686  47.7687158  73.9167867  22.2527729  46.9048624  72.8532981
  21.9236833  47.2208466  73.4911084  32.6924205  55.8450917  71.6915217
  31.9753515  55.6711779  71.2262454  33.3430942  55.6103489  71.1590703
  32.6826055  55.7846709  71.5444435  30.6872830  36.7656079  76.0126513
  30.0441148  36.6153725  76.5811652  30.3472237  36.5198424  75.2475618
  30.5417907  36.7068201  75.9829529  35.2772176  44.7215505  75.4356522
  34.6063366  45.2645208  75.3069588  35.9711926  45.1910361  75.1938217
  35.2801044  44.8713777  75.3812050  29.3258910  56.8612217  80.6668280
  29.1024564  56.1031047  81.0352307  28.8368753  56.8910239  79.9448720
  29.2202359  56.7534442  80.6145021  35.4400304  41.1771389  78.3446895
  35.7927914  40.7501112  79.0192694  34.5815105  41.0922233  78.4747972
  35.3649748  41.1016130  78.4641906  24.1383989  43.8078909  76.4029742
  23.4195978  44.2243041  76.6702605  24.5096351  44.3733148  75.8521380
  24.0875920  43.9528190  76.3612549  33.4383569  44.4406758  82.2931737
  33.4181497  44.2590053  83.1466516  33.4862770  45.3118776  82.2691321
  33.4418210  44.5423296  82.4155032  27.9737367  57.0812676  78.1205365
  27.5597765  56.4186806  77.7309207  28.6584741  57.2290534  77.6001059
  28.0135738  57.0053334  77.9861862  31.3402661  56.2402761  78.8728981
  30.9418944  56.3505031  78.1049802  30.7253880  56.4484827  79.4555541
  31.1901550  56.2876329  78.8460281  29.9130563  42.8476909  71.7403121
  29.3195402  43.1693905  71.1887688  29.9505841  42.0018004  71.5324227
  29.8304952  42.7701237  71.6285892  36.8724364  36.2989801  79.2731208
  36.3655228  35.5918940  79.2052385  37.6691797  35.9682990  79.4032284
  36.9151603  36.1462952  79.2830203  32.7888380  42.8056413  75.1704871
  32.5602073  42.8289115  74.3283230  33.0486456  41.9813880  75.2899882
  32.7934568  42.6872493  75.0630069  25.8433142  41.3432959  76.4659067
  26.3190508  41.7050039  75.8309248  25.3421742  41.9989427  76.7459210
  25.8398501  41.4927148  76.4135808  39.0744504  50.8154728  72.2572072
  39.4578109  51.5646084  72.4870169  38.2788617  51.0620547  71.9984061
  39.0138286  50.9624421  72.2529646  27.8859795  43.4874159  69.8332451
  28.2658760  43.5053788  69.0483566  27.1452391  43.9328148  69.7123298
  27.8328633  43.5555934  69.6996019  35.5145086  41.7956350  75.4208030
  35.5139312  41.6405007  76.2792306  35.3101266  42.6419337  75.3649415
  35.4844864  41.8976971  75.5395969  17.5762357  45.2196135  79.8366846
  17.3984118  44.7672744  80.5621762  17.2881379  46.0222296  80.0205324
  17.5075310  45.2718693  79.9710349  33.2385938  46.4753852  79.0744237
  33.7339603  45.7576847  79.0348257  32.4285713  46.1724650  78.9598724
  33.1929831  46.3251498  79.0517962  28.6844549  50.3251665  71.2241241
  27.8755872  50.0018339  71.1774551  29.1919458  49.6184888  71.1569490
  28.6394216  50.1732982  71.2071535  19.3134827  47.7523859  76.9488605
  18.4480346  47.7409549  76.8371377  19.4133642  47.5654081  77.7959745
  19.2008993  47.7229920  77.0577550  35.3037757  49.2257540  81.7621365
  35.7292828  48.7031962  81.2091790  34.9394676  49.8238377  81.2409988
  35.3124359  49.2367767  81.6030375  24.9391836  57.5221757  80.5218711
  25.2538395  58.3358146  80.5296493  25.3485250  57.1371976  81.1900870
  25.0459934  57.5850460  80.6222803  31.8916356  52.9391804  78.0922523
  32.3627534  53.6532067  78.2612508  32.2276535  52.3390554  78.6282392
  32.0111471  52.9563268  78.1954899  35.3384167  40.7995093  82.2401408
  34.7547156  41.3004299  81.8278975  35.6588461  40.2924649  81.6065731
  35.2997342  40.7986928  82.0859915  27.8778966  39.7135687  72.5160083
  28.6994660  39.8834000  72.2741777  27.4148617  39.8682948  71.7926380
  27.9310128  39.7617420  72.3731727  22.2804857  51.4694866  80.1697319
  22.8849714  51.4290700  79.5411140  22.0732169  52.3166018  80.2001375
  22.3393754  51.5882868  80.0813436  32.0948629  53.7360811  81.3859557
  32.9147002  53.5923777  81.6475852  31.8142706  54.3607010  81.9275995
  32.1745372  53.8071163  81.5047496  40.3210887  59.9587983  73.9924472
  41.0191052  60.1376110  74.4845935  40.6363220  59.4358322  73.3694861
  40.4706224  59.9081755  73.9726482  38.4937751  55.3280379  78.0745747
  38.1641081  55.7791523  77.4049445  37.8182753  55.2496543  78.6218753
  38.3448187  55.3831514  78.0568970  45.7014159  51.3165902  76.3195357
  45.3867600  52.0069381  76.7515780  45.1841100  51.2610684  75.6180858
  45.5778629  51.4100791  76.2792306  36.9326200  65.2133620  71.2340236
  36.3483415  65.7183651  71.6406100  36.5296295  64.9876007  70.4936828
  36.7865504  65.2541868  71.1845261  41.3903415  61.4599272  69.7109156
  41.6299418  61.6677256  68.8984500  41.7119256  60.6556781  69.8198101
  41.4740572  61.3713373  69.6069709  36.6993705  53.3892668  73.5568694
  37.4539673  53.7570985  73.3185745  36.5221239  53.7632222  74.3247874
  36.7848183  53.4990855  73.6353583  35.0550769  55.7962987  70.2546807
  34.8726343  56.0134867  69.4287800  35.9176382  55.9101999  70.3105422
  35.1555359  55.8452885  70.1401294  40.7350489  52.7989397  73.2895831
  41.4636649  52.6205352  72.8433987  40.8245382  53.6407477  73.5003009
  40.8557151  52.8973276  73.2549349  34.6012796  59.0737159  68.7669280
  33.8870974  58.7875339  69.1791713  35.0856765  59.4133785  69.4075668
  34.5672160  59.0818809  68.9224915  41.7760114  67.5767113  69.1431089
  42.1911263  67.2452137  68.4515584  40.9452044  67.3436015  69.0151225
  41.7148123  67.4938369  69.0221936  44.4693505  63.8277673  68.3292290
  44.3873667  63.8979860  69.1947277  45.1073225  64.3907417  68.1376031
  44.5513342  63.9216644  68.4282240  26.5478207  60.7916248  76.2976152
  26.6338459  60.4148116  77.0789682  27.1754004  60.4176693  75.8196110
  26.6534758  60.6801730  76.3421629  41.5733615  63.8498127  71.3400897
  42.3874254  64.1413020  71.2283668  41.5092756  63.1957989  70.7659189
  41.6836354  63.7963322  71.2389734  38.0844338  62.5421934  70.8048098
  38.4689491  62.3229641  71.5564643  37.8355958  63.3684880  70.9349174
  38.1046411  62.6320080  70.9349174  35.8044775  54.2118871  76.1356879
  34.9367201  54.2841470  76.2014488  36.0919980  55.0140950  76.3244854
  35.7184523  54.3413018  76.1731645  33.7312127  57.6877130  73.5773755
  33.4436923  57.3178401  72.8405702  34.4182596  58.1571985  73.3157460
  33.7901025  57.7024099  73.4288831  36.5665799  61.5530078  75.0241159
  37.2888451  61.7171236  74.5644965  36.0873792  62.2739743  74.9180499
  36.6029530  61.6828308  74.9406773  42.9728585  54.7879254  75.1365460
  43.6754938  54.5887002  74.6585419  42.7072774  54.0155196  75.4434304
  43.0375217  54.6442220  75.1110902  31.3040322  58.4658343  74.4259036
  31.4056459  59.2684504  74.7540011  32.0996209  58.2645678  74.1282116
  31.4368228  58.5544241  74.4294391  45.1188694  49.4259924  78.2662007
  45.2372262  49.8836387  77.5329310  44.9450870  48.6205185  77.9798225
  45.1107865  49.3753696  78.1162941  43.0109637  67.0659927  66.6816702
  43.7782622  67.1260052  66.2722553  42.5640946  66.4940368  66.1973020
  43.0583064  66.9896503  66.5494412  31.5817377  61.0851553  75.6138430
  31.9616342  61.5036098  74.9498697  31.0072742  61.6665009  75.9207273
  31.5528702  61.2329412  75.5615171  42.0866258  51.2810726  79.2080669
  41.2159816  51.2549447  79.1613978  42.3406599  51.1087918  78.3906515
  41.9959818  51.2520870  79.0800806  39.0584237  63.3378693  68.1453812
  39.3476762  64.1143576  68.4197386  39.1456036  62.8267425  68.8468311
  39.1138494  63.3770611  68.2896310  38.0930940  57.8893877  74.0596223
  38.3690675  57.1712789  73.6473791  38.6929610  58.4878797  73.8517329
  38.2224205  57.8714247  73.9676985  41.5941461  55.5607394  72.3342818
  42.0485207  55.7317954  73.0590663  42.0681506  54.9475505  71.9340594
  41.7309781  55.4958279  72.3816580  38.9354481  62.2649928  73.4387826
  39.6796526  62.6524205  73.6770776  39.0815177  61.4207354  73.6028313
  39.0665066  62.1980401  73.4981795  40.8534056  54.0600187  78.4719687
  40.0070101  54.2322995  78.3461037  40.8505189  53.2549531  78.8085515
  40.7281206  53.9661216  78.5030814  43.8515856  58.7311956  72.4007499
  43.3238875  58.8140700  71.7113208  44.3111564  59.4729828  72.3972143
  43.8417707  58.8532619  72.2982194  35.8448921  57.0014476  67.4248394
  35.4961726  57.6534201  67.8879943  35.3645367  56.9871589  66.6972265
  35.7219165  57.0957529  67.3859485  36.2172830  59.6273006  72.9374438
  36.3575791  60.1245471  73.6403080  36.7155363  58.9259301  73.0788652
  36.3113911  59.5974985  73.0626017  36.2473053  60.4940117  70.2667015
  36.8818132  61.0900542  70.2016477  36.3298663  60.1943575  71.0812885
  36.3529603  60.5381026  70.3770102  37.8252035  56.4254093  70.2412457
  38.1467876  55.9457175  69.5871720  38.0878979  57.2353739  70.0503269
  37.9118061  56.4743991  70.1167949  32.7526040  62.6907958  73.5356561
  33.2618270  63.2872466  73.9167867  33.2260313  62.4233932  72.8532981
  32.8969416  62.7393774  73.4911084  41.6605413  52.2841387  76.0126513
  41.0173731  52.1339033  76.5811652  41.3204820  52.0383732  75.2475618
  41.5150491  52.2253509  75.9829529  35.1116572  59.3264217  76.4029742
  34.3928561  59.7428349  76.6702605  35.4828934  59.8918455  75.8521380
  35.0608504  59.4713498  76.3612549  40.8863146  58.3662217  71.7403121
  40.2927986  58.6879213  71.1887688  40.9238424  57.5203312  71.5324227
  40.8037536  58.2886545  71.6285892  36.8165726  56.8618267  76.4659067
  37.2923092  57.2235347  75.8309248  36.3154325  57.5174735  76.7459210
  36.8131085  57.0112456  76.4135808  38.8592379  59.0059467  69.8332451
  39.2391344  59.0239096  69.0483566  38.1184975  59.4513456  69.7123298
  38.8061216  59.0741242  69.6996019  39.6577133  65.8436973  71.2241241
  38.8488456  65.5203647  71.1774551  40.1652042  65.1370195  71.1569490
  39.6126800  65.6918290  71.2071535  30.2867410  63.2709167  76.9488605
  29.4212930  63.2594857  76.8371377  30.3866226  63.0839389  77.7959745
  30.1741577  63.2415228  77.0577550  38.8511549  55.2320995  72.5160083
  39.6727244  55.4019308  72.2741777  38.3881200  55.3868256  71.7926380
  38.9042712  55.2802728  72.3731727  26.3147936   7.2933178  61.2842480
  26.2841940   8.1477815  61.4560749  26.9129285   6.9928470  61.8428623
  26.3985094   7.3749674  61.3917282  13.8988760  15.9171547  61.8032642
  13.1471660  15.5387085  61.5748687  14.3474772  15.9489980  61.0551452
  13.8538427  15.8657154  61.6590144  19.3513720  16.3396916  57.2318189
  19.0165089  17.0173838  56.7962411  19.8640591  15.9502227  56.6435061
  19.3779301  16.3821494  57.0804980  18.8918012  18.2911185  63.1729301
  19.2757391  18.8598084  62.6334076  18.8277153  17.5660695  62.6935117
  18.9391439  18.2686648  63.0223163  24.1364510   9.8685480  59.5560790
  24.0204036  10.6193166  59.9852928  24.9320397   9.6109433  59.8056877
  24.2369100   9.9420327  59.6564881  15.3174256  20.8467528  65.4710270
  15.9611712  21.2880692  65.8606429  15.6430512  20.0420954  65.3840529
  15.4606085  20.7932723  65.5155748  16.0194836  13.8579503  60.8430132
  16.3410677  14.3984710  60.2391440  16.6666932  13.2876274  60.9752422
  16.1620891  13.8538678  60.7737167  18.2584479  12.2465943  60.9144310
  18.6978115  11.6383043  61.3599083  18.1089142  11.8673316  60.1429775
  18.3005945  12.1004414  60.8663478  21.8593816  10.5993124  57.8675080
  21.7745111  11.4554091  58.0124648  22.3478199  10.3237448  58.5357239
  21.9182713  10.6850446  57.9877161  22.7912249   7.2177918  59.3672815
  22.2623721   7.4337552  60.0270121  23.3137269   7.9114057  59.2873784
  22.7900702   7.3521055  59.4528414  28.2460302  12.7924223  64.7405859
  27.4158005  13.0034866  64.9039276  28.1969554  11.9661277  64.4648143
  28.1167037  12.7013829  64.7243225  14.6811857  11.1141135  58.1680283
  14.0969072  11.6191166  58.5746147  14.2781952  10.8883522  57.4276875
  14.5351161  11.1549383  58.1185308  19.1389071   7.3606787  56.6449203
  19.3785075   7.5684771  55.8324546  19.4604912   6.5564296  56.7538148
  19.2226229   7.2720888  56.5409756  25.5024617  13.4623577  64.8770575
  25.0659849  13.4660320  65.6329546  25.1687533  14.1429076  64.4450152
  25.3887237  13.5636033  64.9251407  28.6368963  10.1804497  63.7690212
  29.2985398   9.6195166  63.6686121  27.9960375   9.6856528  64.0942903
  28.6397831  10.0240906  63.8022552  19.5245771  13.4774629  56.0771135
  19.9396920  13.1459652  55.3855631  18.6937701  13.2443531  55.9491272
  19.4633780  13.3945884  55.9561983  24.9233794  11.1969879  63.5102201
  25.1589383  11.3415078  62.6829052  25.0723358  11.9612288  63.9033715
  24.9799597  11.3308934  63.4465805  26.7524251  10.0371545  61.3471805
  27.0832468  10.5699186  60.7411900  27.3257339  10.0910433  62.0033756
  26.8857930  10.1241114  61.3549586  22.2179161   9.7285188  55.2632337
  22.1359324   9.7987375  56.1287324  22.8558882  10.2914932  55.0716078
  22.2998999   9.8224159  55.3622286  19.3219272   9.7505642  58.2740943
  20.1359910  10.0420535  58.1623715  19.2578413   9.0965505  57.6999236
  19.4322011   9.6970837  58.1729781  15.8329995   8.4429449  57.7388145
  16.2175148   8.2237156  58.4904690  15.5841615   9.2692395  57.8689221
  15.8532067   8.5327596  57.8689221  16.1153237  16.6634325  59.8120515
  16.4051536  16.2723307  59.0879742  16.8456718  16.8451030  60.2525790
  16.2660122  16.6328139  59.7703322  14.0559153  18.6401708  62.8780665
  13.8359448  18.3499062  63.6707332  13.8353675  17.9816663  62.3498577
  13.9906747  18.5001416  62.9169573  16.2227109  20.0131098  61.6611357
  16.8751167  19.4807540  61.8902383  15.5252717  19.6599750  62.0479231
  16.2157827  19.8820621  61.7523525  24.2167027  12.3335512  61.0042336
  24.7825060  12.9928722  60.9200879  23.5694931  12.6785210  61.4758739
  24.2045784  12.4817453  61.0615093  20.6873605  15.2774296  60.4279416
  20.4460281  14.5442157  60.0206481  20.8674938  15.8261153  59.7745749
  20.6781229  15.2496687  60.2709639  25.4129725  12.3841739  57.7967973
  25.0336534  11.5978877  57.7897262  24.7495970  12.9328596  57.6539617
  25.2588200  12.3486563  57.7748770  18.2376633  15.9355258  61.6356799
  19.0026524  15.6664902  61.3139463  18.1354723  15.4505269  62.3526862
  18.3358129  15.8244823  61.6936627  20.7595294  12.9667442  53.6156749
  21.5268279  13.0267567  53.2062600  20.3126603  12.3947884  53.1313067
  20.8068721  12.8904018  53.4834459  23.6589824  14.6287230  58.1319659
  23.7409661  15.4354217  57.8081110  24.1439566  14.6483190  58.8560432
  23.7426982  14.7507893  58.1906557  17.4634366  14.5699353  58.3851100
  17.5327187  13.7113891  58.5244101  18.2422822  14.7871234  58.0570125
  17.5887216  14.4752217  58.3568258  21.8541854  16.9937054  62.5987594
  21.4621646  16.6903769  61.8810460  22.0094926  17.8306144  62.4092548
  21.8195444  17.0720891  62.4644091  22.0181529  13.5587043  62.5393624
  21.6596183  13.7301686  63.3157657  21.5320239  14.0200249  61.9821623
  21.8940226  13.6526014  62.5718893  16.8069894   9.2386208  55.0793859
  17.0962419  10.0151091  55.3537433  16.8941693   8.7274940  55.7808358
  16.8624150   9.2778127  55.2236357  22.6232159  16.3972547  66.0317628
  22.4251848  16.8863361  65.3373840  22.0019870  16.6013788  66.6101762
  22.5019724  16.4989085  66.0140851  21.6001513   4.6319472  59.3347546
  21.0724532   4.7148216  58.6453254  22.0597221   5.3737343  59.3312190
  21.5903364   4.7540134  59.2322241  21.1538596  13.2023035  58.4657203
  21.8772794  13.6681148  58.3221776  20.7139187  13.2696645  57.7154800
  21.1954288  13.2806872  58.3341984  21.4142445  17.2643740  58.6255264
  20.6971755  17.0904602  58.1602501  22.0649183  17.0296312  58.0930750
  21.4044296  17.2039533  58.4784482  16.6955607  18.5005499  65.0545412
  16.2816006  17.8379629  64.6649253  17.3802981  18.6483358  64.5341106
  16.7353979  18.4246157  64.9201909  20.0620901  17.6595584  65.8069028
  19.6637184  17.7697854  65.0389849  19.4472121  17.8677650  66.3895588
  19.9119791  17.7069152  65.7800328  27.7962744  12.2347551  59.1912119
  28.1796350  12.9838907  59.4210216  27.0006857  12.4813370  58.9324108
  27.7356526  12.3817245  59.1869692  16.6078036   4.9066982  56.7672498
  16.9877000   4.9246612  55.9823613  15.8670632   5.3520971  56.6463345
  16.5546873   4.9748757  56.6336066  17.4062790  11.7444489  58.1581288
  16.5974112  11.4211162  58.1114597  17.9137698  11.0377711  58.0909537
  17.3612456  11.5925805  58.1411582  37.2880519  22.8118486  61.2842480
  37.2574524  23.6663122  61.4560749  37.8861868  22.5113778  61.8428623
  37.3717677  22.8934982  61.3917282  30.4880204  21.8994137  66.0395410
  29.6318100  22.0602635  66.0904527  30.5347858  21.0286201  66.0600471
  30.3679316  21.7944939  66.0501476  24.8721344  31.4356855  61.8032642
  24.1204243  31.0572393  61.5748687  25.3207356  31.4675288  61.0551452
  24.8271011  31.3842462  61.6590144  33.7973921  28.1680662  75.6455866
  34.5040688  27.6732693  75.7742801  33.9861856  28.6089744  74.9158524
  33.9301826  28.1599013  75.5564912  30.3246304  31.8582224  57.2318189
  29.9897672  32.5359146  56.7962411  30.8373174  31.4687535  56.6435061
  30.3511885  31.9006802  57.0804980  29.8650595  33.8096493  63.1729301
  30.2489974  34.3783391  62.6334076  29.8009736  33.0846003  62.6935117
  29.9124022  33.7871956  63.0223163  33.3332025  23.9586181  68.6827062
  33.8787985  24.6371267  68.7421032  33.2748902  23.8173642  67.8228643
  33.4047940  24.0378182  68.5639123  26.4506100  31.4475247  64.0695414
  26.5516463  30.6375601  64.3792542  25.8547845  31.3532193  63.4395093
  26.3778639  31.3140275  64.0221653  35.1097094  25.3870788  59.5560790
  34.9936620  26.1378474  59.9852928  35.9052981  25.1294741  59.8056877
  35.2101683  25.4605635  59.6564881  26.2906840  36.3652836  65.4710270
  26.9344295  36.8066000  65.8606429  26.6163095  35.5606262  65.3840529
  26.4338668  36.3118031  65.5155748  19.6471144  27.4695533  63.6947748
  19.4121329  26.6363186  63.5880017  19.7856785  27.7500199  62.8808949
  19.6326807  27.3879037  63.5590103  21.9461232  19.6381264  66.5932056
  21.3266264  19.0473911  66.4242070  21.8445095  20.2292699  65.9596379
  21.8398907  19.6385346  66.4737045  26.9927419  29.3764811  60.8430132
  27.3143261  29.9170018  60.2391440  27.6399516  28.8061582  60.9752422
  27.1353475  29.3723986  60.7737167  29.0429128  21.3780806  60.9264519
  29.7409292  21.5568933  61.4185982  29.3581460  20.8551145  60.3034908
  29.1924465  21.3274578  60.9066529  21.6730365  23.1833546  68.8375625
  21.5489062  23.7695991  69.4725444  22.3248649  22.6893741  69.1387900
  21.7504014  23.1972350  68.9761554  29.2317063  27.7651251  60.9144310
  29.6710698  27.1568351  61.3599083  29.0821726  27.3858624  60.1429775
  29.2738529  27.6189722  60.8663478  26.6988706  26.3595263  68.1163136
  27.3437708  25.8667706  67.7974084  26.9390483  26.5020049  68.9429214
  26.8299291  26.3072705  68.1912669  29.2374797  29.2050168  67.7670028
  29.5198040  28.4101574  67.5456784  29.9660958  29.6830756  67.7875089
  29.3864361  29.1584765  67.7373044  27.2155991  16.7473202  65.0085793
  26.8859321  17.1984346  64.3389492  26.5400993  16.6689366  65.5558800
  27.0666427  16.8024338  64.9909017  34.4232399  12.7358725  63.2535404
  34.1085840  13.4262204  63.6855826  33.9059341  12.6803508  62.5520905
  34.2996869  12.8293614  63.2132353  33.7644833  22.7363226  59.3672815
  33.2356304  22.9522860  60.0270121  34.2869853  23.4299365  59.2873784
  33.7633286  22.8706363  59.4528414  39.2192886  28.3109531  64.7405859
  38.3890589  28.5220174  64.9039276  39.1702138  27.4846585  64.4648143
  39.0899621  28.2199137  64.7243225  25.6544440  26.6326443  58.1680283
  25.0701656  27.1376474  58.5746147  25.2514536  26.4068830  57.4276875
  25.5083744  26.6734691  58.1185308  21.2088469  32.3481204  64.9703954
  20.7256047  33.0731694  64.9463538  22.0211787  32.6457334  65.0814112
  21.2579217  32.4983558  64.9831233  27.2802623  31.1413385  67.5753769
  26.7629565  30.7820800  66.9715077  27.9777014  30.6175559  67.5859835
  27.3068204  31.0111073  67.4884027  30.9366215  31.5908199  73.5369942
  31.0249561  31.4034339  74.3848152  31.3655928  30.9445628  73.1374788
  31.0128317  31.4671207  73.6041693  28.5036675  30.8739359  72.5187604
  27.9407510  30.4611969  73.0427265  29.2657698  30.7992265  72.9380747
  28.5331124  30.8016759  72.6580604  30.1121655  22.8792095  56.6449203
  30.3517659  23.0870079  55.8324546  30.4337496  22.0749604  56.7538148
  30.1958813  22.7906196  56.5409756  25.4211945  14.8085491  60.4908741
  26.1757913  15.1763808  60.2525791  25.2439480  15.1825045  61.2587921
  25.5066424  14.9183679  60.5693630  24.0632666  32.8637380  65.1224234
  24.7653246  32.3489369  65.1796991  23.9830149  33.1911531  65.9271109
  24.1556427  32.8351606  65.2497026  38.7146844  20.9579931  68.5356280
  37.8775265  21.0282118  68.7703875  38.6835075  20.9604426  67.6630583
  38.5865126  20.9690158  68.4415828  23.7769010  17.2155810  57.1886854
  23.5944583  17.4327691  56.3627847  24.6394623  17.3294823  57.2445469
  23.8773599  17.2645708  57.0741341  23.3883442  29.0543732  64.6309842
  24.2272341  29.2866665  64.6783604  23.4195211  28.1848043  64.5616877
  23.5165159  28.9600679  64.6274487  24.0136145  29.4744607  68.9323148
  24.5534370  29.3315738  69.6026520  23.3306091  29.8741358  69.3007174
  23.9928299  29.5124278  69.0857569  29.4568729  14.2182221  60.2235878
  30.1854889  14.0398175  59.7774034  29.5463622  15.0600300  60.4343056
  29.5775391  14.3166099  60.1889396  33.4377030  25.1535608  64.1268172
  34.1934545  25.5867122  64.1657081  33.5439354  24.5040378  64.7002808
  33.5647200  25.1213092  64.2166198  36.4757201  28.9808885  64.8770575
  36.0392433  28.9845628  65.6329546  36.1420116  29.6614384  64.4450152
  36.3619821  29.0821341  64.9251407  31.0486274  31.0217218  76.2013725
  31.8326691  31.1348066  76.5669467  30.8482869  30.1958355  76.3972411
  31.1352300  30.9163937  76.2848111  19.4173290  25.6944898  69.0857569
  19.1511705  24.8784015  69.2448559  19.4311854  25.7398054  68.2153085
  19.3798012  25.5801803  68.9811051  36.3954684  16.0222713  67.1200003
  37.0380592  16.0920818  67.7061918  36.6477704  15.3551936  66.6179545
  36.5276816  15.9349062  67.1327282  23.3231037  20.4929982  55.7009327
  22.6089214  20.2068162  56.1131760  23.8075006  20.8326608  56.3415715
  23.2890400  20.5011632  55.8564962  31.2056668  32.9327320  69.8480181
  30.4071914  32.6926820  70.1054049  31.6542679  32.9841713  70.5947228
  31.1531279  32.9049711  69.9965105  39.6101547  25.6989805  63.7690212
  40.2717981  25.1380473  63.6686121  38.9692959  25.2041836  64.0942903
  39.6130415  25.5426214  63.8022552  30.4978355  28.9959936  56.0771135
  30.9129503  28.6644960  55.3855631  29.6670284  28.7628839  55.9491272
  30.4366363  28.9131192  55.9561983  19.8266704  26.4803677  66.3669313
  19.6442277  26.4550563  65.5141606  20.5616372  26.9502615  66.4058222
  19.9080767  26.5465040  66.2467232  35.8966378  26.7155187  63.5102201
  36.1321967  26.8600386  62.6829052  36.0455941  27.4797595  63.9033715
  35.9532181  26.8494242  63.4465805  37.7256834  25.5556853  61.3471805
  38.0565052  26.0884493  60.7411900  38.2989923  25.6095741  62.0033756
  37.8590514  25.6426422  61.3549586  32.9388724  23.4021756  62.0295385
  33.0335578  24.1411050  62.4835010  32.3147567  22.9739232  62.4629949
  32.8597754  23.4483077  62.1603532  31.1941197  26.5807969  72.6785666
  31.7680059  25.9435213  72.8334230  31.1156001  26.5812051  71.8095323
  31.2674432  26.4873080  72.5732077  19.7937614  23.3597178  66.5168380
  20.3711116  23.2233629  67.1560625  19.0951676  22.9032962  66.7713964
  19.7758635  23.2719444  66.6490670  33.1911745  25.2470496  55.2632337
  33.1091907  25.3172683  56.1287324  33.8291465  25.8100240  55.0716078
  33.2731582  25.3409467  55.3622286  26.5504916  25.0131234  64.7306863
  26.2924160  24.1802969  64.7038163  26.6053399  25.2388847  63.8899364
  26.5204694  24.9229005  64.6027000  31.6305966  17.1159684  64.8310956
  30.9262293  16.6268870  64.9894875  31.6790941  17.1282159  63.9599400
  31.5336018  17.0449332  64.7250296  25.5239628  22.5668996  65.2171758
  24.9489219  22.7261165  65.8535719  25.1475304  21.9304405  64.7540208
  25.3842441  22.4966809  65.2426316  29.1912917  21.0392346  70.0764136
  28.8027350  20.6146563  69.4216328  28.5267615  21.2874495  70.5841163
  29.0359845  21.0131067  70.0552004  38.8336186  20.7967350  62.8511966
  38.5772751  19.9847292  62.6609849  39.6765500  20.8044917  62.6242154
  38.9202211  20.6779348  62.7896783  15.2696447  22.2109071  63.2316199
  15.3556699  21.8340939  64.0129729  15.8972245  21.8369517  62.7536157
  15.3752998  22.0994553  63.2761676  33.0139278  14.7366974  67.5888121
  33.3949790  14.0545145  67.9755995  32.2102563  14.4476576  67.4063785
  32.9515740  14.5934023  67.6192176  30.2951855  25.2690950  58.2740943
  31.1092494  25.5605843  58.1623715  30.2310996  24.6150812  57.6999236
  30.4054594  25.2156145  58.1729781  36.5161345  27.9516946  72.6870519
  36.2799983  27.1205011  72.5682580  37.1604574  27.9002553  73.2725363
  36.5756016  27.8214634  72.7556413  26.1659763  28.7412468  63.4013255
  26.8033710  28.5024215  63.9465049  26.5914835  28.9449627  62.6666416
  26.3235930  28.7363478  63.3730413  20.8572406  30.9800804  67.2847559
  20.8976551  31.2515655  66.4567339  21.4166930  31.5042712  67.7005347
  20.9455752  31.0976559  67.2239447  26.8062578  23.9614757  57.7388145
  27.1907731  23.7422464  58.4904690  26.5574199  24.7877703  57.8689221
  26.8264651  24.0512904  57.8689221  37.5397766  27.7361395  68.7498813
  37.2343583  28.4689452  69.1112129  36.8203982  27.3299325  68.4691600
  37.3885108  27.7843128  68.7611951  28.5481235  29.2184890  65.0807042
  28.6220244  29.0560062  65.9348892  29.3650742  29.4075080  64.8367523
  28.6797594  29.2221633  65.1705067  43.2399558  24.3754396  68.0767158
  43.1724058  24.3950355  67.2069744  43.2255220  25.2184723  68.3022828
  43.2278314  24.5028130  67.9819635  22.3086992  29.5642753  62.1101485
  21.4825110  29.8104490  61.9835764  22.3698983  29.4854834  62.9763543
  22.1961159  29.5887702  62.2190430  27.0885821  32.1819633  59.8120515
  27.3784119  31.7908615  59.0879742  27.8189302  32.3636338  60.2525790
  27.2392705  32.1513447  59.7703322  41.0258175  23.1498782  66.3513752
  41.5766097  22.5166851  66.5910844  41.0102291  23.6814175  67.0429256
  41.1043372  23.1347730  66.4892610  27.6780566  26.9837379  70.8973646
  27.1792260  27.6953147  70.9758534  28.4880790  27.3038046  70.8591808
  27.7236673  27.1364228  70.9030214  25.0291737  34.1587016  62.8780665
  24.8092032  33.8684370  63.6707332  24.8086259  33.5001971  62.3498577
  24.9639331  34.0186724  62.9169573  23.9408684  26.2460332  65.1436366
  23.6521932  25.6197803  65.6782094  24.8092032  26.1880620  65.2101047
  24.0268936  26.1447876  65.2327321  34.7286582  21.3895116  65.4618348
  34.3851347  20.6685451  65.8125598  34.8279624  21.1808967  64.6196707
  34.6928624  21.2519319  65.3890028  27.1959692  35.5316406  61.6611357
  27.8483750  34.9992848  61.8902383  26.4985301  35.1785058  62.0479231
  27.1890410  35.4005929  61.7523525  24.1440957  27.8855583  61.0678731
  24.8986925  28.2668622  61.2814194  23.5511570  28.3366727  61.5225428
  24.1677671  28.0084411  61.1661610  35.1899611  27.8520820  61.0042336
  35.7557643  28.5114030  60.9200879  34.5427514  28.1970518  61.4758739
  35.1778367  28.0002761  61.0615093  25.4639184  29.0564145  66.4418847
  24.9419937  29.1964436  67.1270712  25.8513204  28.2974809  66.6320964
  25.4442885  28.9649668  66.5719923  22.4530368  19.1069953  60.5113802
  22.1655164  18.7371224  59.7745749  23.1400836  19.5764809  60.2497506
  22.5119265  19.1216923  60.3628877  31.6606189  30.7959604  60.4279416
  31.4192865  30.0627465  60.0206481  31.8407522  31.3446461  59.7745749
  31.6513813  30.7681995  60.2709639  26.8905509  26.0868164  61.8400338
  26.6948292  26.6942898  61.2460641  27.1139855  25.3936108  61.3592012
  26.8940150  26.0745689  61.6816419  25.2884039  22.9722902  61.9581206
  26.0106691  23.1364060  61.4985012  24.8092032  23.6932566  61.8520546
  25.3247770  23.1021131  61.8746820  33.2477547  19.3086700  67.3377891
  32.4088648  19.3347979  67.1016154  33.3181914  19.9557436  67.9183238
  33.1345940  19.4082826  67.3887008  22.9391656  25.3780974  71.0635346
  23.4512753  25.6565227  70.4144106  22.6527999  26.1170268  71.4298159
  22.9726519  25.5283328  71.0225224  31.6946825  16.2072077  62.0705507
  32.3973178  16.0079826  61.5925465  31.4291014  15.4348020  62.3774351
  31.7593458  16.0635043  62.0450949  37.1235071  24.5154687  64.6239133
  37.0369045  24.6710113  65.4773912  36.6685551  25.1592763  64.2498538
  37.0438327  24.6330442  64.6946240  20.0258562  19.8851166  61.3599083
  20.1274699  20.6877327  61.6880058  20.8214449  19.6838502  61.0622163
  20.1586468  19.9737065  61.3634438  30.9960887  21.8365434  63.2464692
  30.7495601  21.7561185  64.0801481  31.3246010  21.0518902  63.0527220
  31.0082130  21.7091700  63.3412216  34.8908936  28.5448794  67.0351474
  34.7523295  29.2429839  67.5400216  34.1108934  28.3897450  66.6787655
  34.7552163  28.6248960  67.0577748  33.2287021  24.8445169  73.2873855
  33.2235059  23.9724985  73.2916282  33.9348015  25.0433338  72.8143311
  33.3332025  24.7449043  73.2180891  26.9557914  24.5722153  72.6587676
  27.1001290  25.1523361  72.0230786  27.3033563  24.9498450  73.3637530
  27.0285376  24.7142857  72.6686671  29.1277832  23.7712321  70.4412807
  28.3801146  23.9643336  70.0361085  29.2819357  22.9457541  70.2036928
  29.0400259  23.6777433  70.3458213  26.0285669  32.7624925  69.5248702
  26.1775233  32.2027841  68.8722107  26.8085671  32.8416926  69.9081221
  26.1659763  32.6910490  69.4845652  36.3862309  27.9027047  57.7967973
  36.0069117  27.1164185  57.7897262  35.7228554  28.4513904  57.6539617
  36.2320783  27.8671871  57.7748770  28.5538970  32.9339568  70.8033193
  28.4782641  32.2648378  71.3583981  28.4828829  33.6357356  71.3173859
  28.5319577  32.9384475  70.9610041  33.8406934  10.8452747  65.2002054
  33.9590503  11.3029210  64.4669357  33.6669110  10.0398008  64.9138271
  33.8326105  10.7946519  65.0502987  29.2109217  31.4540566  61.6356799
  29.9759108  31.1850210  61.3139463  29.1087307  30.9690577  62.3526862
  29.3090712  31.3430131  61.6936627  27.2461986  19.6564976  68.1750035
  26.4558061  19.4756436  68.4967371  27.6422609  18.8791928  68.1580329
  27.1878863  19.5152437  68.2202583  31.7327877  28.4852750  53.6156749
  32.5000862  28.5452875  53.2062600  31.2859186  27.9133192  53.1313067
  31.7801304  28.4089326  53.4834459  32.6305673  27.2907406  65.9009481
  31.9550675  27.0592638  66.4022868  32.6398049  26.6828589  65.2751586
  32.5324177  27.1666331  65.8825633  29.7599817  22.1325235  72.6573534
  29.6958958  22.9935191  72.5293671  29.8997004  21.8157228  71.8569085
  29.7715287  22.2125402  72.5201747  34.6322407  30.1472538  58.1319659
  34.7142245  30.9539525  57.8081110  35.1172150  30.1668498  58.8560432
  34.7159565  30.2693201  58.1906557  28.4418911  24.8257374  66.7989737
  28.0181160  25.0261873  66.0628755  28.2663766  23.9786222  66.9114037
  28.3529791  24.7306156  66.7063427  27.9430604  36.3407887  69.2611194
  28.4326534  35.6418677  69.0786859  27.3714836  36.0431757  69.8487251
  27.9315134  36.1934111  69.3212235  23.7301356  25.3209426  62.2317709
  23.8865975  25.2556229  63.0873701  24.0701949  26.0957978  62.0196389
  23.8034590  25.4258624  62.3272303  30.2680500  24.6967309  61.1011072
  30.8096046  24.1937690  61.5649693  30.5827059  24.6432504  60.2900558
  30.3944897  24.6146730  61.0494885  34.1397608  28.9069957  78.2137985
  34.9532473  28.6355106  78.3743117  33.9792574  28.6077497  77.4098181
  34.2367556  28.8224883  78.1183391  28.4366950  30.0884661  58.3851100
  28.5059770  29.2299199  58.5244101  29.2155405  30.3056542  58.0570125
  28.5619800  29.9937525  58.3568258  31.4169770  19.5903614  71.1533373
  31.6311739  18.9514528  70.5996727  30.8003669  20.0349438  70.7241235
  31.3575099  19.5613758  71.0083804  32.8274437  32.5122362  62.5987594
  32.4354229  32.2089077  61.8810460  32.9827510  33.3491452  62.4092548
  32.7928027  32.5906199  62.4644091  20.3035617  22.5044376  62.5478476
  20.6834582  22.9228921  61.8838744  19.7290982  23.0857832  62.8547320
  20.2746942  22.6522235  62.4955217  33.5808858  21.1992679  72.0916680
  32.7685539  20.8918569  72.1729853  34.0398792  20.7191679  72.6559392
  33.5289242  21.0829171  72.1871274  32.9914112  29.0772351  62.5393624
  32.6328767  29.2486994  63.3157657  32.5052823  29.5385557  61.9821623
  32.8672809  29.1711322  62.5718893  30.8084498  12.7003549  66.1420716
  29.9378056  12.6742271  66.0954025  31.0624840  12.5280742  65.3246561
  30.7178058  12.6713693  66.0140852  27.7802478  24.7571516  55.0793859
  28.0695002  25.5336399  55.3537433  27.8674277  24.2460248  55.7808358
  27.8356734  24.7963435  55.2236357  34.1518852  29.9676247  73.4860825
  34.7898572  29.4736443  73.1523281  33.5092943  29.8953647  72.9013052
  34.1513078  29.8835255  73.3503180  35.8775852  21.8165393  68.0526741
  35.4503460  21.7291741  67.2974840  35.2401905  21.9243168  68.6381585
  35.7205459  21.8198053  68.0272182  34.2073108  30.6596055  70.1266182
  34.9965486  30.3085120  70.2468264  34.3816706  31.4732444  69.8642816
  34.3493390  30.7281912  70.1054050  23.9466419  24.0704781  67.1793971
  23.1054425  23.9708655  67.3872865  24.1556427  24.8400261  67.5308291
  23.8531111  24.1696824  67.2621286  21.4241986  21.6924318  65.0078721
  21.0298683  21.7667330  64.2328831  20.8682102  22.0782264  65.5587083
  21.2844798  21.7606093  64.9746381  33.0606932  14.6705612  64.6882600
  33.2656526  14.6027920  65.5339598  32.7333356  15.4764433  64.6203778
  33.0422180  14.7791552  64.8042256  27.7583083  21.9986180  66.4291568
  27.4546221  21.4442168  67.0301976  27.0562504  22.1778390  65.9419603
  27.6099293  21.9430962  66.4461274  26.8149181  19.3086700  60.9936270
  27.0908915  18.5905612  60.5813838  27.4147850  19.9071620  60.7857376
  26.9442445  19.2907071  60.9017031  25.8201435  29.2135901  71.1363666
  25.7121789  29.2237963  72.0025724  26.0297216  30.0390681  70.9468620
  25.8351546  29.3376976  71.2367758  36.3140620  15.2237376  64.1685366
  35.7014934  15.7107778  64.5539098  36.4104795  14.5480867  64.7123017
  36.2378518  15.1955685  64.3064224  30.3159701  16.9800217  59.2682865
  30.7703448  17.1510778  59.9930710  30.7899747  16.3668328  58.8680641
  30.4528021  16.9151103  59.3156627  23.8375227  26.4648543  68.5985604
  23.2463160  27.1058041  68.5688619  24.5996250  26.8886161  68.5716903
  23.8623487  26.6224382  68.5900751  39.9565648  26.2954313  69.5962882
  40.0148772  26.7440962  70.3422858  39.3232116  26.7053126  69.1592962
  39.8716943  26.4228048  69.6415430  33.5964743  31.9157855  66.0317628
  33.3984431  32.4048669  65.3373840  32.9752454  32.1199096  66.6101762
  33.4752307  32.0174393  66.0140851  27.6572721  23.6842752  60.3727872
  28.4014766  24.0717028  60.6110822  27.8033417  22.8400177  60.5368360
  27.7883306  23.6173224  60.4321842  29.5752297  15.4793011  65.4059734
  28.7288342  15.6515818  65.2801084  29.5723429  14.6742354  65.7425562
  29.4499446  15.3854039  65.4370861  30.6450597  19.2568225  66.2721792
  30.1710551  18.7309987  66.7827103  31.0168733  18.7097698  65.7036653
  30.6300486  19.0984222  66.2636939  36.9087328  24.3170601  67.6828572
  36.6685550  23.4777016  67.6870999  37.3879335  24.3970767  68.4069346
  36.9439511  24.2052000  67.7903375  32.5734097  20.1504780  59.3347546
  32.0457115  20.2333524  58.6453254  33.0329805  20.8922651  59.3312190
  32.5635947  20.2725442  59.2322241  38.9092515  21.0972058  65.6357831
  38.6702285  21.0567892  64.7978616  39.0726416  21.9443210  65.7623553
  38.8982818  21.2164143  65.5311313  35.5138545  25.4822007  71.5662877
  36.2372744  25.0294534  71.3873896  35.2488507  25.7626673  70.7835204
  35.5819818  25.4572976  71.4241592  24.3825413  20.0782181  68.3015756
  23.7578483  20.0900573  67.6941708  24.0471008  20.5542356  68.9506996
  24.2410905  20.1500698  68.3072324  24.5667162  18.4207299  54.3588441
  24.2179966  19.0727024  54.8219990  24.0863608  18.4064412  53.6312312
  24.4437406  18.5150353  54.3199532  21.0951089  28.1382641  69.7419520
  20.5651013  27.4475080  69.7914495  21.3676182  28.1292826  68.9132229
  21.0575811  28.0349773  69.6266936  32.1271179  28.7208343  58.4657203
  32.8505378  29.1866456  58.3221776  31.6871770  28.7881953  57.7154800
  32.1686871  28.7992180  58.3341984  31.2957334  25.5805885  69.7157892
  30.6814327  25.0363936  70.0106527  31.8124619  25.0670122  69.2363708
  31.2812997  25.4242294  69.6882120  30.5353631  26.6510155  67.4502190
  30.1081239  26.0259874  67.0167626  30.5278576  26.3685077  68.2761197
  30.4712773  26.5162936  67.5082018  28.8639341  17.5278910  67.6644724
  28.8881828  16.9939022  66.9757504  29.1150815  17.0196219  68.3270315
  28.9049260  17.3739814  67.6609369  16.3746931  24.8110405  67.0987868
  16.2690380  24.7657249  66.2339952  15.6247151  25.1564185  67.3802153
  16.2482534  24.8551313  67.0125198  25.1440663  16.2549728  67.0450469
  25.1839035  16.7558935  67.7585176  24.3190328  16.3460122  66.7756392
  25.0280189  16.3431545  67.1101007  26.5655027  22.7710238  69.3424368
  25.7346956  22.9384056  69.1359616  26.5106544  22.3946189  70.1273253
  26.4344442  22.7399969  69.4272896  24.9391070  21.0465830  59.8714485
  25.0794032  21.5438294  60.5743127  25.4373603  20.3452124  60.0128699
  25.0332151  21.0167808  59.9966064  24.9691293  21.9132941  57.2007062
  25.6036372  22.5093366  57.1356524  25.0516904  21.6136398  58.0152932
  25.0747844  21.9573849  57.3110149  37.9473859  24.4448418  70.0693426
  38.5391699  25.0845669  70.1011624  38.3832853  23.7471455  70.3585493
  38.0992290  24.4366768  70.1174259  26.5470276  17.8446916  57.1752504
  26.8686117  17.3649999  56.5211766  26.8097219  18.6546562  56.9843316
  26.6336301  17.8936814  57.0507996  29.7767249  28.8665790  70.6951320
  29.2692340  29.4201637  71.1391951  29.4793895  28.9274080  69.8770095
  29.6572133  28.9572102  70.6399777  31.9429431  17.2319110  69.5375983
  32.3684502  16.7791636  68.9259510  31.3286424  16.6779181  69.8140771
  31.9158076  17.0833086  69.4881008  21.4744281  24.1100781  60.4696608
  21.9836510  24.7065289  60.8507914  21.9478553  23.8426755  59.7873028
  21.6187656  24.1586597  60.4251131  32.3875029  32.7829048  58.6255264
  31.6704339  32.6089910  58.1602501  33.0381766  32.5481620  58.0930750
  32.3776879  32.7224841  58.4784482  30.3823654  13.7034210  62.9466560
  29.7391972  13.5531856  63.5151699  30.0423061  13.4576555  62.1815665
  30.2368731  13.6446332  62.9169575  34.9723000  21.6593637  62.3696569
  34.3014190  22.2023339  62.2409634  35.6662750  22.1288492  62.1278264
  34.9751868  21.8091908  62.3152097  29.0209734  33.7990349  67.6008327
  28.7975388  33.0409178  67.9692353  28.5319577  33.8288370  66.8788767
  28.9153183  33.6912573  67.5485068  35.1351128  18.1149520  65.2786942
  35.4878738  17.6879243  65.9532741  34.2765929  18.0300364  65.4088018
  35.0600572  18.0394261  65.3981952  23.8334812  20.7457040  63.3369789
  23.1146802  21.1621172  63.6042652  24.2047175  21.3111279  62.7861427
  23.7826744  20.8906321  63.2952596  33.1334393  21.3784889  69.2271784
  33.1132321  21.1968184  70.0806563  33.1813594  22.2496907  69.2031368
  33.1369034  21.4801427  69.3495079  31.0780723  27.9672081  75.1520261
  31.0376578  27.3221758  74.5665417  31.8904041  27.9108698  75.4645673
  31.1923877  27.8631048  75.1117210  27.6688191  34.0190807  65.0545412
  27.2548589  33.3564937  64.6649253  28.3535565  34.1668665  64.5341106
  27.7086562  33.9431465  64.9201909  31.0353485  33.1780892  65.8069028
  30.6369768  33.2883162  65.0389849  30.4204704  33.3862958  66.3895588
  30.8852374  33.2254460  65.7800328  29.6081387  19.7855040  58.6743168
  29.0146226  20.1072036  58.1227735  29.6456665  18.9396135  58.4664274
  29.5255776  19.7079368  58.5625939  36.5675188  13.2367932  66.2071255
  36.0606052  12.5297072  66.1392432  37.3642621  12.9061121  66.3372331
  36.6102427  13.0841083  66.2170249  32.4839203  19.7434544  62.1044918
  32.2552896  19.7667246  61.2623276  32.7437280  18.9192011  62.2239929
  32.4885391  19.6250624  61.9970116  25.5383966  18.2811091  63.3999114
  26.0141332  18.6428170  62.7649295  25.0372566  18.9367558  63.6799257
  25.5349325  18.4305279  63.3475855  38.7695328  27.7532859  59.1912119
  39.1528933  28.5024215  59.4210216  37.9739441  27.9998678  58.9324108
  38.7089110  27.9002553  59.1869692  27.5810619  20.4252290  56.7672498
  27.9609584  20.4431920  55.9823613  26.8403215  20.8706279  56.6463345
  27.5279457  20.4934065  56.6336066  35.2095910  18.7334482  62.3548077
  35.2090136  18.5783138  63.2132353  35.0052090  19.5797469  62.2989462
  35.1795687  18.8355102  62.4736016  17.2713181  22.1574266  66.7706893
  17.0934942  21.7050875  67.4961809  16.9832203  22.9600427  66.9545371
  17.2026134  22.2096824  66.9050396  32.9336762  23.4131983  66.0084283
  33.4290427  22.6954978  65.9688304  32.1236537  23.1102781  65.8938770
  32.8880655  23.2629630  65.9858009  28.3795373  27.2629797  58.1581288
  27.5706696  26.9396470  58.1114597  28.8870282  26.5563019  58.0909537
  28.3345040  27.1111113  58.1411582  19.0085650  24.6901990  63.8828652
  18.1431170  24.6787680  63.7711423  19.1084466  24.5032213  64.7299791
  18.8959817  24.6608051  63.9917597  34.9988581  26.1635671  68.6961412
  35.4243652  25.6410093  68.1431837  34.6345500  26.7616508  68.1750035
  35.0075183  26.1745898  68.5370422  24.6342660  34.4599888  67.4558758
  24.9489219  35.2736277  67.4636539  25.0436074  34.0750107  68.1240917
  24.7410758  34.5228591  67.5562849  31.5867180  29.8769935  65.0262570
  32.0578358  30.5910198  65.1952555  31.9227358  29.2768685  65.5622439
  31.7062295  29.8941399  65.1294946  33.6744165  31.4871249  77.2054642
  33.7841130  30.6979809  77.5611389  34.0035061  31.3977185  76.4028980
  33.7396570  31.3577101  77.1397032  32.2241126  29.6687869  71.7890262
  31.6762072  29.0445753  71.5210328  32.6854155  29.8582141  71.0734342
  32.2108336  29.6046919  71.6440693  35.0334991  17.7373224  69.1741455
  34.4497979  18.2382430  68.7619022  35.3539285  17.2302780  68.5405778
  34.9948166  17.7365059  69.0199962  27.5729790  16.6513819  59.4500129
  28.3945484  16.8212131  59.2081824  27.1099441  16.8061080  58.7266427
  27.6260952  16.6995552  59.3071774  21.9755680  28.4072997  67.1037366
  22.5800538  28.3668831  66.4751187  21.7682993  29.2544149  67.1341422
  22.0344578  28.5260999  67.0153483  31.7899453  30.6738942  68.3199604
  32.6097826  30.5301908  68.5815899  31.5093530  31.2985141  68.8616041
  31.8696196  30.7449294  68.4387543  17.2106963  27.3907614  66.9736289
  17.1131241  26.5803886  67.2826346  17.9935832  27.3699408  66.5882557
  17.3123099  27.2674705  66.9623152  41.4612788  37.4179445  66.0395410
  40.6050683  37.5787943  66.0904527  41.5080442  36.5471509  66.0600471
  41.3411899  37.3130247  66.0501476  44.7706504  43.6865970  75.6455866
  45.4773272  43.1918001  75.7742801  44.9594440  44.1275052  74.9158524
  44.9034410  43.6784321  75.5564912  44.3064609  39.4771489  68.6827062
  44.8520569  40.1556575  68.7421032  44.2481485  39.3358949  67.8228643
  44.3780523  39.5563490  68.5639123  37.4238684  46.9660555  64.0695414
  37.5249047  46.1560909  64.3792542  36.8280429  46.8717501  63.4395093
  37.3511222  46.8325583  64.0221653  37.2639423  51.8838144  65.4710270
  37.9076879  52.3251308  65.8606429  37.5895679  51.0791570  65.3840529
  37.4071252  51.8303339  65.5155748  30.6203728  42.9880841  63.6947748
  30.3853912  42.1548494  63.5880017  30.7589369  43.2685507  62.8808949
  30.6059390  42.9064345  63.5590103  32.9193815  35.1566572  66.5932056
  32.2998847  34.5659219  66.4242070  32.8177679  35.7478007  65.9596379
  32.8131491  35.1570654  66.4737045  40.0161711  36.8966114  60.9264519
  40.7141876  37.0754241  61.4185982  40.3314044  36.3736453  60.3034908
  40.1657048  36.8459886  60.9066529  32.6462948  38.7018854  68.8375625
  32.5221645  39.2881299  69.4725444  33.2981233  38.2079049  69.1387900
  32.7236598  38.7157658  68.9761554  37.6721289  41.8780571  68.1163136
  38.3170292  41.3853014  67.7974084  37.9123067  42.0205357  68.9429214
  37.8031875  41.8258013  68.1912669  40.2107381  44.7235476  67.7670028
  40.4930624  43.9286882  67.5456784  40.9393541  45.2016064  67.7875089
  40.3596945  44.6770073  67.7373044  38.1888575  32.2658510  65.0085793
  37.8591905  32.7169654  64.3389492  37.5133576  32.1874674  65.5558800
  38.0399011  32.3209646  64.9909017  45.3964982  28.2544033  63.2535404
  45.0818423  28.9447512  63.6855826  44.8791924  28.1988816  62.5520905
  45.2729453  28.3478922  63.2132353  36.6277024  42.1511751  58.1680283
  36.0434239  42.6561782  58.5746147  36.2247119  41.9254138  57.4276875
  36.4816328  42.1919999  58.1185308  32.1821053  47.8666512  64.9703954
  31.6988631  48.5917002  64.9463538  32.9944371  48.1642642  65.0814112
  32.2311800  48.0168866  64.9831233  38.2535207  46.6598693  67.5753769
  37.7362148  46.3006108  66.9715077  38.9509598  46.1360867  67.5859835
  38.2800788  46.5296381  67.4884027  41.9098799  47.1093507  73.5369942
  41.9982145  46.9219647  74.3848152  42.3388511  46.4630936  73.1374788
  41.9860901  46.9856515  73.6041693  39.4769258  46.3924667  72.5187604
  38.9140093  45.9797277  73.0427265  40.2390282  46.3177572  72.9380747
  39.5063707  46.3202067  72.6580604  36.3944529  30.3270799  60.4908741
  37.1490497  30.6949116  60.2525791  36.2172063  30.7010353  61.2587921
  36.4799007  30.4368987  60.5693630  35.0365250  48.3822688  65.1224234
  35.7385829  47.8674677  65.1796991  34.9562733  48.7096839  65.9271109
  35.1289010  48.3536914  65.2497026  49.6879427  36.4765239  68.5356280
  48.8507849  36.5467426  68.7703875  49.6567658  36.4789734  67.6630583
  49.5597710  36.4875466  68.4415828  36.0844156  38.6198275  74.2504649
  36.2564660  38.5104170  75.0989931  36.6213514  39.2652680  74.0135841
  36.1889160  38.6990277  74.3409746  34.7501593  32.7341118  57.1886854
  34.5677167  32.9512999  56.3627847  35.6127206  32.8480130  57.2445469
  34.8506183  32.7831016  57.0741341  34.3616025  44.5729040  64.6309842
  35.2004925  44.8051973  64.6783604  34.3927795  43.7033351  64.5616877
  34.4897743  44.4785986  64.6274487  34.9868728  44.9929915  68.9323148
  35.5266953  44.8501046  69.6026520  34.3038675  45.3926666  69.3007174
  34.9660882  45.0309586  69.0857569  40.4301313  29.7367528  60.2235878
  41.1587473  29.5583483  59.7774034  40.5196205  30.5785608  60.4343056
  40.5507975  29.8351407  60.1889396  44.4109613  40.6720916  64.1268172
  45.1667128  41.1052430  64.1657081  44.5171938  40.0225686  64.7002808
  44.5379784  40.6398400  64.2166198  47.4489784  44.4994193  64.8770575
  47.0125016  44.5030935  65.6329546  47.1152700  45.1799692  64.4450152
  47.3352404  44.6006649  64.9251407  42.0218858  46.5402526  76.2013725
  42.8059275  46.6533374  76.5669467  41.8215453  45.7143663  76.3972411
  42.1084883  46.4349245  76.2848111  30.3905873  41.2130206  69.0857569
  30.1244289  40.3969323  69.2448559  30.4044438  41.2583362  68.2153085
  30.3530596  41.0987111  68.9811051  47.3687267  31.5408021  67.1200003
  48.0113176  31.6106125  67.7061918  47.6210288  30.8737244  66.6179545
  47.5009399  31.4534370  67.1327282  35.1404480  34.7508584  71.7324577
  34.4476277  34.2805564  71.9785308  35.7564807  34.5246889  72.3066284
  35.1289010  34.6475716  71.8533729  42.1789251  48.4512628  69.8480181
  41.3804497  48.2112128  70.1054049  42.6275263  48.5027021  70.5947228
  42.1263863  48.4235019  69.9965105  30.7999287  41.9988985  66.3669313
  30.6174860  41.9735871  65.5141606  31.5348956  42.4687923  66.4058222
  30.8813351  42.0650348  66.2467232  46.8698961  42.2340495  63.5102201
  47.1054550  42.3785694  62.6829052  47.0188525  42.9982903  63.9033715
  46.9264765  42.3679550  63.4465805  33.8645039  38.7173988  72.8751422
  34.5885011  38.7027019  73.3616317  33.9661175  39.4269343  72.3773390
  33.9863248  38.8198691  72.8730209  41.2389988  42.1973073  77.7400369
  40.4462969  42.5116585  77.9252989  41.3538915  42.4124541  76.9021154
  41.1385399  42.2756910  77.6438704  42.1673781  42.0993277  72.6785666
  42.7412643  41.4620521  72.8334230  42.0888585  42.0997359  71.8095323
  42.2407016  42.0058388  72.5732077  30.7670197  38.8782486  66.5168380
  31.3443700  38.7418937  67.1560625  30.0684259  38.4218270  66.7713964
  30.7491219  38.7904752  66.6490670  37.5237500  40.5316542  64.7306863
  37.2656744  39.6988277  64.7038163  37.5785982  40.7574155  63.8899364
  37.4937277  40.4414313  64.6027000  42.6038550  32.6344992  64.8310956
  41.8994876  32.1454178  64.9894875  42.6523524  32.6467467  63.9599400
  42.5068601  32.5634640  64.7250296  36.4972212  38.0854304  65.2171758
  35.9221803  38.2446473  65.8535719  36.1207888  37.4489713  64.7540208
  36.3575024  38.0152117  65.2426316  40.1645500  36.5577653  70.0764136
  39.7759933  36.1331871  69.4216328  39.5000199  36.8059803  70.5841163
  40.0092428  36.5316375  70.0552004  49.8068770  36.3152658  62.8511966
  49.5505334  35.5032600  62.6609849  50.6498084  36.3230225  62.6242154
  49.8934795  36.1964656  62.7896783  26.2429031  37.7294379  63.2316199
  26.3289282  37.3526247  64.0129729  26.8704828  37.3554825  62.7536157
  26.3485582  37.6179861  63.2761676  43.9871862  30.2552282  67.5888121
  44.3682374  29.5730453  67.9755995  43.1835146  29.9661884  67.4063785
  43.9248324  30.1119331  67.6192176  47.4893929  43.4702254  72.6870519
  47.2532566  42.6390319  72.5682580  48.1337158  43.4187861  73.2725363
  47.5488600  43.3399942  72.7556413  37.1392347  44.2597776  63.4013255
  37.7766294  44.0209523  63.9465049  37.5647418  44.4634934  62.6666416
  37.2968513  44.2548786  63.3730413  31.8304989  46.4986112  67.2847559
  31.8709135  46.7700963  66.4567339  32.3899513  47.0228020  67.7005347
  31.9188335  46.6161867  67.2239447  37.7795162  39.4800065  57.7388145
  38.1640315  39.2607772  58.4904690  37.5306782  40.3063011  57.8689221
  37.7997235  39.5698212  57.8689221  37.9463702  32.7606480  77.4550729
  37.6317143  33.5306043  77.1920292  37.6253635  32.1976737  76.8702956
  37.8522621  32.7916749  77.3292079  48.5130349  43.2546703  68.7498813
  48.2076167  43.9874760  69.1112129  47.7936565  42.8484632  68.4691600
  48.3617692  43.3028436  68.7611951  39.5213819  44.7370198  65.0807042
  39.5952827  44.5745370  65.9348892  40.3383325  44.9260388  64.8367523
  39.6530177  44.7406940  65.1705067  54.2132142  39.8939704  68.0767158
  54.1456642  39.9135663  67.2069744  54.1987804  40.7370031  68.3022828
  54.2010898  40.0213438  67.9819635  33.2819576  45.0828061  62.1101485
  32.4557693  45.3289798  61.9835764  33.3431567  45.0040142  62.9763543
  33.1693743  45.1073010  62.2190430  35.4995599  31.1497002  63.0696925
  34.6318025  31.2219601  63.1354535  35.7870804  31.9519081  63.2584900
  35.4135347  31.2791149  63.1071692  44.6228488  31.2974861  71.4008247
  45.3682080  31.1084672  70.9871673  44.2065793  31.8233099  70.8422103
  44.6713462  31.3477007  71.2572820  51.9990759  38.6684090  66.3513752
  52.5498680  38.0352159  66.5910844  51.9834874  39.1999483  67.0429256
  52.0775955  38.6533038  66.4892610  38.6513150  42.5022687  70.8973646
  38.1524843  43.2138455  70.9758534  39.4613374  42.8223354  70.8591808
  38.6969256  42.6549536  70.9030214  36.0024320  49.6772324  62.8780665
  35.7824616  49.3869678  63.6707332  35.7818842  49.0187279  62.3498577
  35.9371914  49.5372032  62.9169573  34.9141267  41.7645640  65.1436366
  34.6254516  41.1383111  65.6782094  35.7824615  41.7065928  65.2101047
  35.0001519  41.6633184  65.2327321  45.7019165  36.9080424  65.4618348
  45.3583931  36.1870759  65.8125598  45.8012208  36.6994275  64.6196707
  45.6661208  36.7704627  65.3890028  38.1692276  51.0501714  61.6611357
  38.8216334  50.5178156  61.8902383  37.4717885  50.6970366  62.0479231
  38.1622994  50.9191237  61.7523525  35.1173541  43.4040891  61.0678731
  35.8719509  43.7853930  61.2814194  34.5244153  43.8552035  61.5225428
  35.1410254  43.5269719  61.1661610  37.5780208  35.3603732  76.1935944
  36.7679984  35.6661511  76.0825786  38.0554894  36.0809314  76.3088528
  37.5283687  35.5118333  76.1943015  36.4371767  44.5749453  66.4418847
  35.9152521  44.7149744  67.1270712  36.8245788  43.8160117  66.6320964
  36.4175468  44.4834976  66.5719923  33.4262951  34.6255261  60.5113802
  33.1387747  34.2556532  59.7745749  34.1133420  35.0950117  60.2497506
  33.4851849  34.6402231  60.3628877  37.8638093  41.6053472  61.8400338
  37.6680876  42.2128206  61.2460641  38.0872439  40.9121416  61.3592012
  37.8672734  41.5930997  61.6816419  36.2616623  38.4908209  61.9581206
  36.9839275  38.6549368  61.4985012  35.7824616  39.2117874  61.8520546
  36.2980354  38.6206439  61.8746820  44.2210131  34.8272008  67.3377891
  43.3821231  34.8533287  67.1016154  44.2914498  35.4742744  67.9183238
  44.1078524  34.9268134  67.3887008  33.9124240  40.8966282  71.0635346
  34.4245337  41.1750535  70.4144106  33.6260582  41.6355576  71.4298159
  33.9459103  41.0468636  71.0225224  42.6679409  31.7257385  62.0705507
  43.3705762  31.5265134  61.5925465  42.4023598  30.9533328  62.3774351
  42.7326041  31.5820351  62.0450949  48.0967654  40.0339995  64.6239133
  48.0101629  40.1895421  65.4773912  47.6418134  40.6778071  64.2498538
  48.0170911  40.1515750  64.6946240  30.9991146  35.4036474  61.3599083
  31.1007282  36.2062635  61.6880058  31.7947033  35.2023810  61.0622163
  31.1319052  35.4922373  61.3634438  37.4307965  32.9892670  71.1236388
  37.2391162  33.0047805  71.9735811  38.2806561  33.1856345  71.1003043
  37.5283687  33.0207022  71.2459683  31.8154878  35.5183652  69.1020204
  31.6740370  34.6667593  69.2264712  32.0995441  35.5612313  68.2782410
  31.8362724  35.3983402  68.9987828  41.9693470  37.3550742  63.2464692
  41.7228185  37.2746493  64.0801481  42.2978594  36.5704210  63.0527220
  41.9814714  37.2277007  63.3412216  45.8641519  44.0634101  67.0351474
  45.7255879  44.7615147  67.5400216  45.0841517  43.9082758  66.6787655
  45.7284746  44.1434268  67.0577748  44.2019604  40.3630477  73.2873855
  44.1967643  39.4910293  73.2916282  44.9080598  40.5618646  72.8143311
  44.3064608  40.2634351  73.2180891  37.9290498  40.0907461  72.6587676
  38.0733873  40.6708669  72.0230786  38.2766146  40.4683757  73.3637530
  38.0017959  40.2328165  72.6686671  40.1010415  39.2897629  70.4412807
  39.3533729  39.4828643  70.0361085  40.2551940  38.4642849  70.2036928
  40.0132843  39.1962741  70.3458213  37.0018253  48.2810233  69.5248702
  37.1507816  47.7213148  68.8722107  37.7818255  48.3602234  69.9081221
  37.1392346  48.2095798  69.4845652  39.5271553  48.4524875  70.8033193
  39.4515224  47.7833686  71.3583981  39.4561412  49.1542664  71.3173859
  39.5052160  48.4569783  70.9610041  40.3412192  33.1848180  71.3308211
  40.7984806  33.9172154  71.4581003  40.4168521  32.7614645  72.0895467
  40.4203162  33.2305418  71.4609287  32.5845183  33.4314000  72.4197655
  32.0487373  32.8194358  72.7358422  32.6462948  34.0062136  73.0731321
  32.5140816  33.4260927  72.5633081  44.8139518  26.3638055  65.2002054
  44.9323086  26.8214518  64.4669357  44.6401694  25.5583316  64.9138271
  44.8058689  26.3131827  65.0502987  38.2194570  35.1750284  68.1750035
  37.4290645  34.9941744  68.4967371  38.6155193  34.3977236  68.1580329
  38.1611446  35.0337745  68.2202583  43.6038256  42.8092714  65.9009481
  42.9283258  42.5777946  66.4022868  43.6130632  42.2013897  65.2751586
  43.5056761  42.6851639  65.8825633  40.7332400  37.6510543  72.6573534
  40.6691542  38.5120499  72.5293671  40.8729588  37.3342536  71.8569085
  40.7447870  37.7310710  72.5201747  39.4151494  40.3442682  66.7989737
  38.9913743  40.5447181  66.0628755  39.2396349  39.4971530  66.9114037
  39.3262375  40.2491464  66.7063427  38.9163188  51.8593195  69.2611194
  39.4059118  51.1603984  69.0786859  38.3447420  51.5617065  69.8487251
  38.9047718  51.7119419  69.3212235  34.7033939  40.8394734  62.2317709
  34.8598558  40.7741536  63.0873701  35.0434532  41.6143286  62.0196389
  34.7767174  40.9443932  62.3272303  45.1130191  44.4255265  78.2137985
  45.9265056  44.1540413  78.3743117  44.9525158  44.1262805  77.4098181
  45.2100140  44.3410191  78.1183391  42.3902353  35.1088922  71.1533373
  42.6044323  34.4699836  70.5996727  41.7736252  35.5534746  70.7241235
  42.3307682  35.0799065  71.0083804  43.8007021  48.0307670  62.5987594
  43.4086813  47.7274385  61.8810460  43.9560093  48.8676760  62.4092548
  43.7660611  48.1091507  62.4644091  31.2768201  38.0229684  62.5478476
  31.6567166  38.4414229  61.8838744  30.7023565  38.6043140  62.8547320
  31.2479526  38.1707543  62.4955217  44.5541441  36.7177987  72.0916680
  43.7418123  36.4103877  72.1729853  45.0131376  36.2376987  72.6559392
  44.5021826  36.6014479  72.1871274  43.9646696  44.5957659  62.5393624
  43.6061351  44.7672302  63.3157657  43.4785407  45.0570865  61.9821623
  43.8405393  44.6896630  62.5718893  41.7817082  28.2188857  66.1420716
  40.9110640  28.1927579  66.0954025  42.0357423  28.0466050  65.3246561
  41.6910642  28.1899001  66.0140852  41.6494949  38.1238058  76.8745382
  42.1194580  38.7480175  77.2613256  41.6956829  37.4555034  77.4338597
  41.7262825  38.1172739  77.0145454  38.8066222  30.2295086  67.5994186
  38.2904711  29.5375277  67.7245765  38.2460151  30.8965863  67.5456785
  38.6472736  30.2258343  67.6100252  40.8758456  30.7688046  69.4287039
  40.4890209  30.7937077  70.2100569  40.3891393  30.2029725  68.9761555
  40.7470965  30.6883797  69.4774942  45.1251435  45.4861555  73.4860825
  45.7631156  44.9921751  73.1523281  44.4825527  45.4138955  72.9013052
  45.1245662  45.4020563  73.3503180  46.8508435  37.3350701  68.0526741
  46.4236043  37.2477049  67.2974840  46.2134488  37.4428476  68.6381585
  46.6938043  37.3383361  68.0272182  40.5415598  27.6555031  71.7197299
  41.1708715  28.1915331  71.4418369  40.7101460  27.5632390  72.5710864
  40.6593392  27.7216394  71.8045827  40.3429512  32.4426226  73.9923710
  41.1702942  32.1711375  74.0482325  40.3637358  33.2387068  74.3487528
  40.4682362  32.5205980  74.0538893  45.1805692  46.1781363  70.1266182
  45.9698070  45.8270428  70.2468264  45.3549290  46.9917752  69.8642816
  45.3225973  46.2467220  70.1054050  34.9199002  39.5890089  67.1793971
  34.0787009  39.4893963  67.3872865  35.1289010  40.3585569  67.5308291
  34.8263695  39.6882132  67.2621286  32.3974569  37.2109626  65.0078721
  32.0031267  37.2852638  64.2328831  31.8414686  37.5967572  65.5587083
  32.2577382  37.2791400  64.9746381  44.0339516  30.1890920  64.6882600
  44.2389109  30.1213228  65.5339598  43.7065940  30.9949741  64.6203778
  44.0154764  30.2976860  64.8042256  38.7315667  37.5171488  66.4291568
  38.4278805  36.9627476  67.0301976  38.0295088  37.6963698  65.9419603
  38.5831877  37.4616270  66.4461274  37.7881764  34.8272008  60.9936270
  38.0641499  34.1090920  60.5813838  38.3880434  35.4256928  60.7857376
  37.9175029  34.8092379  60.9017031  36.7934018  44.7321209  71.1363666
  36.6854373  44.7423271  72.0025724  37.0029800  45.5575989  70.9468620
  36.8084129  44.8562284  71.2367758  47.2873204  30.7422684  64.1685366
  46.6747517  31.2293086  64.5539098  47.3837379  30.0666175  64.7123017
  47.2111101  30.7140993  64.3064224  41.2892285  32.4985525  59.2682865
  41.7436031  32.6696086  59.9930710  41.7632330  31.8853636  58.8680641
  41.4260605  32.4336410  59.3156627  34.8107810  41.9833851  68.5985604
  34.2195743  42.6243349  68.5688619  35.5728834  42.4071468  68.5716903
  34.8356071  42.1409690  68.5900751  35.2068433  33.1435849  69.2653621
  35.6669914  33.2174778  70.0028745  35.2524540  33.9417103  68.9153443
  35.2818988  33.2729996  69.3226378  36.8551783  33.8102544  73.8325648
  36.4637348  33.1635891  74.2681426  37.0237645  34.4013979  74.4519904
  36.8222693  33.8016812  73.9888354  50.9298232  41.8139621  69.5962882
  50.9881355  42.2626270  70.3422858  50.2964699  42.2238434  69.1592962
  50.8449527  41.9413356  69.6415430  44.5697326  47.4343163  66.0317628
  44.3717015  47.9233977  65.3373840  43.9485037  47.6384404  66.6101762
  44.4484891  47.5359701  66.0140851  38.6305305  39.2028060  60.3727872
  39.3747350  39.5902336  60.6110822  38.7766001  38.3585485  60.5368360
  38.7615890  39.1358532  60.4321842  40.5484880  30.9978318  65.4059734
  39.7020925  31.1701126  65.2801084  40.5456013  30.1927662  65.7425562
  40.4232030  30.9039347  65.4370861  41.6183181  34.7753533  66.2721792
  41.1443135  34.2495295  66.7827103  41.9901316  34.2283006  65.7036653
  41.6033069  34.6169530  66.2636939  31.9956211  36.7725040  71.6405338
  32.8581824  36.6720749  71.5542667  31.6647994  36.1919749  71.0790910
  32.0741407  36.6716666  71.5450743  47.8819911  39.8355909  67.6828572
  47.6418134  38.9962324  67.6870999  48.3611918  39.9156075  68.4069346
  47.9172095  39.7237308  67.7903375  49.8825098  36.6157366  65.6357831
  49.6434868  36.5753200  64.7978616  50.0458999  37.4628518  65.7623553
  49.8715402  36.7349451  65.5311313  46.4871128  41.0007315  71.5662877
  47.2105327  40.5479841  71.3873896  46.2221091  41.2811981  70.7835204
  46.5552402  40.9758284  71.4241592  35.3557997  35.5967489  68.3015756
  34.7311067  35.6085881  67.6941708  35.0203592  36.0727664  68.9506996
  35.2143488  35.6686006  68.3072324  32.0683672  43.6567949  69.7419520
  31.5383597  42.9660388  69.7914495  32.3408766  43.6478134  68.9132229
  32.0308395  43.5535081  69.6266936  42.2689918  41.0991193  69.7157892
  41.6546911  40.5549244  70.0106527  42.7857203  40.5855430  69.2363708
  42.2545580  40.9427602  69.6882120  41.5086215  42.1695463  67.4502190
  41.0813823  41.5445182  67.0167626  41.5011159  41.8870385  68.2761197
  41.4445356  42.0348244  67.5082018  34.6248742  37.2060636  70.5190624
  34.7842229  36.4503961  70.9242346  34.4441636  37.7551576  71.1731362
  34.6214101  37.1754450  70.6753330  42.5669045  29.3721872  71.0741414
  42.0709606  29.5685546  70.3832980  43.3238107  29.7714540  70.9030215
  42.6055870  29.4599606  70.9461550  39.8371925  33.0464218  67.6644724
  39.8614412  32.5124330  66.9757504  40.0883398  32.5381527  68.3270315
  39.8781843  32.8925122  67.6609369  27.3479514  40.3295713  67.0987868
  27.2422964  40.2842557  66.2339952  26.5979734  40.6749493  67.3802153
  27.2215117  40.3736621  67.0125198  36.1173247  31.7735036  67.0450469
  36.1571618  32.2744243  67.7585176  35.2922912  31.8645430  66.7756392
  36.0012773  31.8616852  67.1101007  38.3002860  41.3395776  75.1470763
  37.4498490  41.4767490  75.2828408  38.4630987  40.6059554  75.5918465
  38.1986723  41.2509877  75.2326362  37.5387610  38.2895546  69.3424368
  36.7079540  38.4569364  69.1359616  37.4839127  37.9131497  70.1273253
  37.4077025  38.2585277  69.4272896  35.3471393  31.7804439  74.9780778
  35.9724097  31.2366572  75.2510211  34.8921873  31.2999356  74.4088569
  35.3719654  31.6293920  74.9342372  35.9123654  36.5651137  59.8714485
  36.0526615  37.0623602  60.5743127  36.4106187  35.8637432  60.0128699
  36.0064735  36.5353116  59.9966064  35.9423876  37.4318249  57.2007062
  36.5768956  38.0278674  57.1356524  36.0249487  37.1321706  58.0152932
  36.0480427  37.4759157  57.3110149  48.9206442  39.9633726  70.0693426
  49.5124282  40.6030977  70.1011624  49.3565437  39.2656763  70.3585493
  49.0724873  39.9552076  70.1174259  37.5202859  33.3632224  57.1752504
  37.8418700  32.8835306  56.5211766  37.7829803  34.1731870  56.9843316
  37.6068885  33.4122122  57.0507996  40.7499832  44.3851098  70.6951320
  40.2424923  44.9386945  71.1391951  40.4526478  44.4459388  69.8770095
  40.6304717  44.4757409  70.6399777  42.9162014  32.7504418  69.5375983
  43.3417086  32.2976944  68.9259510  42.3019007  32.1964489  69.8140771
  42.8890660  32.6018394  69.4881008  32.4476864  39.6286089  60.4696608
  32.9569094  40.2250597  60.8507914  32.9211137  39.3612063  59.7873028
  32.5920240  39.6771905  60.4251131  41.3556237  29.2219518  62.9466560
  40.7124555  29.0717164  63.5151699  41.0155644  28.9761863  62.1815665
  41.2101314  29.1631640  62.9169575  39.9942317  49.3175657  67.6008327
  39.7707972  48.5594486  67.9692353  39.5052161  49.3473678  66.8788767
  39.8885766  49.2097881  67.5485068  46.1083711  33.6334828  65.2786942
  46.4611321  33.2064551  65.9532741  45.2498513  33.5485672  65.4088018
  46.0333156  33.5579569  65.3981952  34.8067396  36.2642348  63.3369789
  34.0879385  36.6806480  63.6042652  35.1779758  36.8296587  62.7861427
  34.7559328  36.4091629  63.2952596  44.1066977  36.8970197  69.2271784
  44.0864904  36.7153492  70.0806563  44.1546178  37.7682215  69.2031368
  44.1101618  36.9986735  69.3495079  42.0513307  43.4857389  75.1520261
  42.0109162  42.8407066  74.5665417  42.8636625  43.4294006  75.4645673
  42.1656460  43.3816356  75.1117210  38.6420774  49.5376115  65.0545412
  38.2281173  48.8750245  64.6649253  39.3268149  49.6853973  64.5341106
  38.6819146  49.4616773  64.9201909  42.0086068  48.6966200  65.8069028
  41.6102352  48.8068470  65.0389849  41.3937288  48.9048266  66.3895588
  41.8584958  48.7439768  65.7800328  40.5813970  35.3040348  58.6743168
  39.9878810  35.6257344  58.1227735  40.6189248  34.4581443  58.4664274
  40.4988360  35.2264676  58.5625939  47.5407771  28.7553240  66.2071255
  47.0338636  28.0482380  66.1392432  48.3375205  28.4246429  66.3372331
  47.5835010  28.6026391  66.2170249  37.7391015  37.1154325  71.7070018
  37.2269919  36.5075508  72.0655050  37.5670512  37.8310918  72.1743994
  37.6380652  37.1317625  71.8286242  32.5856730  35.5591901  74.3572380
  32.4159320  36.2193275  73.8120587  32.1422680  35.7698462  75.0784869
  32.4956064  35.6877883  74.3834010  36.5116550  33.7996399  63.3999114
  36.9873916  34.1613478  62.7649295  36.0105149  34.4552866  63.6799257
  36.5081909  33.9490587  63.3475855  41.6160086  35.0378570  74.1472274
  42.1731516  34.8092379  73.5150739  41.2921151  35.7984236  73.8707486
  41.6506496  35.1162407  74.0128771  29.4858795  38.4638766  69.6160870
  28.9385514  37.7939412  69.7341738  30.2751173  38.0968614  69.6804337
  29.5210978  38.3103753  69.6429571  39.3343203  38.1246223  75.1124281
  40.0854530  38.4397900  75.4263835  39.5265780  37.9225394  74.2858203
  39.4734617  38.1413605  75.0367677  46.1828493  34.2519790  62.3548077
  46.1822720  34.0968446  63.2132353  45.9784673  35.0982777  62.2989462
  46.1528271  34.3540410  62.4736016  28.2445764  37.6759574  66.7706893
  28.0667525  37.2236183  67.4961809  27.9564786  38.4785735  66.9545371
  28.1758717  37.7282132  66.9050396  43.9069345  38.9317291  66.0084283
  44.4023011  38.2140286  65.9688304  43.0969121  38.6288089  65.8938770
  43.8613239  38.7814938  65.9858009  29.9818234  40.2087298  63.8828652
  29.1163753  40.1972988  63.7711423  30.0817050  40.0217521  64.7299791
  29.8692401  40.1793359  63.9917597  45.9721164  41.6820979  68.6961412
  46.3976236  41.1595401  68.1431837  45.6078084  42.2801816  68.1750035
  45.9807767  41.6931206  68.5370422  35.6075244  49.9785196  67.4558758
  35.9221803  50.7921585  67.4636539  36.0168657  49.5935415  68.1240917
  35.7143342  50.0413899  67.5562849  42.5599764  45.3955243  65.0262570
  43.0310942  46.1095506  65.1952555  42.8959942  44.7953993  65.5622439
  42.6794879  45.4126707  65.1294946  44.6476748  47.0056556  77.2054642
  44.7573714  46.2165117  77.5611389  44.9767645  46.9162493  76.4028980
  44.7129154  46.8762409  77.1397032  39.4769259  30.1682714  71.9820664
  39.6097164  29.3713707  72.3101640  39.8614411  30.6949117  72.5618940
  39.5525587  30.1282630  72.1164167  43.1973710  45.1873177  71.7890262
  42.6494656  44.5631061  71.5210328  43.6586739  45.3767449  71.0734342
  43.1840919  45.1232227  71.6440693  42.5501614  27.0913040  68.5801758
  41.7447577  26.9810769  68.8969596  42.4208349  27.1925495  67.7231624
  42.4121747  27.0896710  68.5009798  46.0067574  33.2558532  69.1741455
  45.4230563  33.7567738  68.7619022  46.3271868  32.7488088  68.5405778
  45.9680750  33.2550367  69.0199962  38.5462373  32.1699127  59.4500129
  39.3678068  32.3397439  59.2081824  38.0832024  32.3246387  58.7266427
  38.5993536  32.2180859  59.3071774  37.1357705  30.1641889  70.2298558
  37.6802118  29.8233016  70.8202900  37.1894641  31.0227350  70.3719843
  37.2246825  30.2397148  70.3380432  32.9488264  43.9258305  67.1037366
  33.5533121  43.8854139  66.4751187  32.7415577  44.7729457  67.1341422
  33.0077161  44.0446307  67.0153483  42.7632036  46.1924250  68.3199604
  43.5830410  46.0487216  68.5815899  42.4826114  46.8170449  68.8616041
  42.8428780  46.2634602  68.4387543  28.1839546  42.9092922  66.9736289
  28.0863824  42.0989194  67.2826346  28.9668416  42.8884716  66.5882557
  28.2855683  42.7860012  66.9623152  59.2345687  53.8489102  61.2842480
  59.2039691  54.7033738  61.4560749  59.8327035  53.5484394  61.8428623
  59.3182844  53.9305598  61.3917282  52.4345371  52.9364753  66.0395410
  51.5783267  53.0973251  66.0904527  52.4813025  52.0656817  66.0600471
  52.3144483  52.8315555  66.0501476  46.8186511  62.4727471  61.8032642
  46.0669411  62.0943009  61.5748687  47.2672523  62.5045904  61.0551452
  46.7736178  62.4213078  61.6590144  52.2711471  62.8952840  57.2318189
  51.9362839  63.5729762  56.7962411  52.7838341  62.5058151  56.6435061
  52.2977052  62.9377418  57.0804980  51.8115762  64.8467109  63.1729301
  52.1955142  65.4154007  62.6334076  51.7474904  64.1216619  62.6935117
  51.8589190  64.8242572  63.0223163  55.2797192  54.9956797  68.6827062
  55.8253152  55.6741883  68.7421032  55.2214069  54.8544257  67.8228643
  55.3513107  55.0748798  68.5639123  48.3971267  62.4845863  64.0695414
  48.4981630  61.6746217  64.3792542  47.8013013  62.3902809  63.4395093
  48.3243806  62.3510891  64.0221653  57.0562261  56.4241404  59.5560790
  56.9401787  57.1749090  59.9852928  57.8518148  56.1665357  59.8056877
  57.1566851  56.4976251  59.6564881  48.2372007  67.4023452  65.4710270
  48.8809462  67.8436616  65.8606429  48.5628262  66.5976878  65.3840529
  48.3803836  67.3488647  65.5155748  41.5936312  58.5066149  63.6947748
  41.3586496  57.6733802  63.5880017  41.7321952  58.7870815  62.8808949
  41.5791974  58.4249653  63.5590103  43.8926399  50.6751880  66.5932056
  43.2731431  50.0844527  66.4242070  43.7910263  51.2663315  65.9596379
  43.7864075  50.6755962  66.4737045  48.9392587  60.4135427  60.8430132
  49.2608428  60.9540634  60.2391440  49.5864683  59.8432198  60.9752422
  49.0818642  60.4094602  60.7737167  43.6195532  54.2204162  68.8375625
  43.4954229  54.8066607  69.4725444  44.2713817  53.7264357  69.1387900
  43.6969181  54.2342966  68.9761554  51.1782230  58.8021867  60.9144310
  51.6175866  58.1938967  61.3599083  51.0286893  58.4229240  60.1429775
  51.2203696  58.6560338  60.8663478  48.6453873  57.3965878  68.1163136
  49.2902876  56.9038322  67.7974084  48.8855650  57.5390665  68.9429214
  48.7764458  57.3443321  68.1912669  49.1621158  47.7843818  65.0085793
  48.8324488  48.2354962  64.3389492  48.4866160  47.7059982  65.5558800
  49.0131595  47.8394953  64.9909017  54.7791567  57.1549048  57.8675080
  54.6942862  58.0110015  58.0124648  55.2675950  56.8793372  58.5357239
  54.8380464  57.2406369  57.9877161  56.3697566  43.7729341  63.2535404
  56.0551007  44.4632820  63.6855826  55.8524508  43.7174123  62.5520905
  56.2462036  43.8664230  63.2132353  55.7110000  53.7733842  59.3672815
  55.1821471  53.9893476  60.0270121  56.2335020  54.4669981  59.2873784
  55.7098453  53.9076979  59.4528414  61.1658053  59.3480147  64.7405859
  60.3355756  59.5590790  64.9039276  61.1167305  58.5217201  64.4648143
  61.0364788  59.2569753  64.7243225  47.6009608  57.6697059  58.1680283
  47.0166823  58.1747090  58.5746147  47.1979703  57.4439446  57.4276875
  47.4548911  57.7105307  58.1185308  43.1553636  63.3851820  64.9703954
  42.6721215  64.1102310  64.9463538  43.9676955  63.6827950  65.0814112
  43.2044384  63.5354174  64.9831233  49.2267790  62.1784001  67.5753769
  48.7094732  61.8191416  66.9715077  49.9242182  61.6546175  67.5859835
  49.2533371  62.0481689  67.4884027  52.0586822  53.9162711  56.6449203
  52.2982826  54.1240695  55.8324546  52.3802663  53.1120220  56.7538148
  52.1423980  53.8276812  56.5409756  46.0097834  63.9007996  65.1224234
  46.7118413  63.3859985  65.1796991  45.9295317  64.2282147  65.9271109
  46.1021594  63.8722222  65.2497026  60.6612011  51.9950547  68.5356280
  59.8240432  52.0652734  68.7703875  60.6300242  51.9975042  67.6630583
  60.5330293  52.0060774  68.4415828  47.0576740  54.1383583  74.2504649
  47.2297244  54.0289477  75.0989931  47.5946098  54.7837988  74.0135841
  47.1621744  54.2175585  74.3409746  45.3348609  60.0914348  64.6309842
  46.1737508  60.3237281  64.6783604  45.3660378  59.2218659  64.5616877
  45.4630327  59.9971294  64.6274487  55.3842197  56.1906224  64.1268172
  56.1399712  56.6237738  64.1657081  55.4904521  55.5410993  64.7002808
  55.5112367  56.1583708  64.2166198  58.4222368  60.0179501  64.8770575
  57.9857600  60.0216243  65.6329546  58.0885283  60.6985000  64.4450152
  58.3084988  60.1191957  64.9251407  41.3638457  56.7315514  69.0857569
  41.0976872  55.9154631  69.2448559  41.3777021  56.7768669  68.2153085
  41.3263179  56.6172419  68.9811051  58.3419851  47.0593329  67.1200003
  58.9845759  47.1291433  67.7061918  58.5942872  46.3922552  66.6179545
  58.4741983  46.9719677  67.1327282  46.1137063  50.2693892  71.7324577
  45.4208860  49.7990872  71.9785308  46.7297391  50.0432197  72.3066284
  46.1021593  50.1661024  71.8533729  61.5566714  56.7360421  63.7690212
  62.2183148  56.1751089  63.6686121  60.9158126  56.2412452  64.0942903
  61.5595582  56.5796830  63.8022552  52.4443522  60.0330552  56.0771135
  52.8594670  59.7015576  55.3855631  51.6135452  59.7999455  55.9491272
  52.3831531  59.9501808  55.9561983  41.7731871  57.5174293  66.3669313
  41.5907444  57.4921179  65.5141606  42.5081540  57.9873231  66.4058222
  41.8545935  57.5835656  66.2467232  57.8431545  57.7525803  63.5102201
  58.0787134  57.8971002  62.6829052  57.9921109  58.5168211  63.9033715
  57.8997348  57.8864858  63.4465805  44.8377622  54.2359296  72.8751422
  45.5617595  54.2212327  73.3616317  44.9393759  54.9454651  72.3773390
  44.9595831  54.3383999  72.8730209  59.6722002  56.5927469  61.3471805
  60.0030219  57.1255109  60.7411900  60.2455090  56.6466357  62.0033756
  59.8055681  56.6797038  61.3549586  54.8853891  54.4392372  62.0295385
  54.9800745  55.1781666  62.4835010  54.2612734  54.0109847  62.4629949
  54.8062921  54.4853693  62.1603532  41.7402781  54.3967794  66.5168380
  42.3176284  54.2604245  67.1560625  41.0416843  53.9403578  66.7713964
  41.7223802  54.3090060  66.6490670  55.1376912  56.2841112  55.2632337
  55.0557075  56.3543299  56.1287324  55.7756633  56.8470856  55.0716078
  55.2196749  56.3780083  55.3622286  48.4970083  56.0501850  64.7306863
  48.2389327  55.2173585  64.7038163  48.5518566  56.2759463  63.8899364
  48.4669861  55.9599621  64.6027000  47.4704795  53.6039612  65.2171758
  46.8954387  53.7631780  65.8535719  47.0940472  52.9675021  64.7540208
  47.3307608  53.5337425  65.2426316  51.1378084  52.0762961  70.0764136
  50.7492517  51.6517179  69.4216328  50.4732782  52.3245111  70.5841163
  50.9825012  52.0501683  70.0552004  60.7801353  51.8337966  62.8511966
  60.5237918  51.0217908  62.6609849  61.6230667  51.8415533  62.6242154
  60.8667379  51.7149964  62.7896783  37.2161614  53.2479687  63.2316199
  37.3021866  52.8711555  64.0129729  37.8437412  52.8740133  62.7536157
  37.3218165  53.1365169  63.2761676  54.9604446  45.7737590  67.5888121
  55.3414957  45.0915761  67.9755995  54.1567730  45.4847192  67.4063785
  54.8980907  45.6304639  67.6192176  52.2417022  56.3061566  58.2740943
  53.0557661  56.5976459  58.1623715  52.1776164  55.6521428  57.6999236
  52.3519761  56.2526761  58.1729781  48.1124931  59.7783083  63.4013255
  48.7498877  59.5394831  63.9465049  48.5380002  59.9820242  62.6666416
  48.2701097  59.7734094  63.3730413  42.8037573  62.0171420  67.2847559
  42.8441718  62.2886271  66.4567339  43.3632097  62.5413328  67.7005347
  42.8920919  62.1347175  67.2239447  48.7527746  54.9985373  57.7388145
  49.1372898  54.7793080  58.4904690  48.5039366  55.8248319  57.8689221
  48.7729818  55.0883519  57.8689221  48.9196286  48.2791788  77.4550729
  48.6049727  49.0491351  77.1920292  48.5986219  47.7162044  76.8702956
  48.8255205  48.3102057  77.3292079  50.4946402  60.2555506  65.0807042
  50.5685411  60.0930678  65.9348892  51.3115909  60.4445696  64.8367523
  50.6262761  60.2592248  65.1705067  44.2552159  60.6013369  62.1101485
  43.4290277  60.8475106  61.9835764  44.3164150  60.5225450  62.9763543
  44.1426326  60.6258318  62.2190430  46.4728183  46.6682310  63.0696925
  45.6050608  46.7404909  63.1354535  46.7603387  47.4704389  63.2584900
  46.3867931  46.7976457  63.1071692  55.5961072  46.8160169  71.4008247
  56.3414664  46.6269980  70.9871673  55.1798376  47.3418407  70.8422103
  55.6446046  46.8662315  71.2572820  49.0350988  63.2190249  59.8120515
  49.3249287  62.8279230  59.0879742  49.7654469  63.4006954  60.2525790
  49.1857872  63.1884063  59.7703322  62.9723343  54.1869398  66.3513752
  63.5231264  53.5537467  66.5910844  62.9567458  54.7184791  67.0429256
  63.0508539  54.1718346  66.4892610  49.6245733  58.0207995  70.8973646
  49.1257427  58.7323763  70.9758534  50.4345958  58.3408662  70.8591808
  49.6701840  58.1734844  70.9030214  46.9756904  65.1957632  62.8780665
  46.7557199  64.9054986  63.6707332  46.7551426  64.5372587  62.3498577
  46.9104498  65.0557340  62.9169573  45.8873851  57.2830948  65.1436366
  45.5987100  56.6568419  65.6782094  46.7557199  57.2251235  65.2101047
  45.9734103  57.1818492  65.2327321  56.6751749  52.4265731  65.4618348
  56.3316515  51.7056067  65.8125598  56.7744791  52.2179583  64.6196707
  56.6393792  52.2889935  65.3890028  49.1424859  66.5687021  61.6611357
  49.7948918  66.0363464  61.8902383  48.4450468  66.2155674  62.0479231
  49.1355577  66.4376544  61.7523525  46.0906124  58.9226199  61.0678731
  46.8452092  59.3039238  61.2814194  45.4976737  59.3737343  61.5225428
  46.1142838  59.0455026  61.1661610  57.1364778  58.8891436  61.0042336
  57.7022810  59.5484645  60.9200879  56.4892681  59.2341134  61.4758739
  57.1243534  59.0373377  61.0615093  48.5512791  50.8789039  76.1935944
  47.7412567  51.1846819  76.0825786  49.0287478  51.5994622  76.3088528
  48.5016270  51.0303641  76.1943015  47.4104351  60.0934760  66.4418847
  46.8885104  60.2335052  67.1270712  47.7978371  59.3345425  66.6320964
  47.3908052  60.0020284  66.5719923  44.3995535  50.1440569  60.5113802
  44.1120331  49.7741840  59.7745749  45.0866003  50.6135425  60.2497506
  44.4584432  50.1587539  60.3628877  53.6071356  61.8330220  60.4279416
  53.3658032  61.0998080  60.0206481  53.7872689  62.3817077  59.7745749
  53.5978980  61.8052611  60.2709639  48.8370677  57.1238779  61.8400338
  48.6413459  57.7313514  61.2460641  49.0605022  56.4306723  61.3592012
  48.8405318  57.1116305  61.6816419  47.2349207  54.0093517  61.9581206
  47.9571858  54.1734676  61.4985012  46.7557199  54.7303182  61.8520546
  47.2712937  54.1391747  61.8746820  55.1942714  50.3457316  67.3377891
  54.3553815  50.3718595  67.1016154  55.2647081  50.9928052  67.9183238
  55.0811108  50.4453442  67.3887008  44.8856823  56.4151590  71.0635346
  45.3977920  56.6935843  70.4144106  44.5993166  57.1540884  71.4298159
  44.9191686  56.5653943  71.0225224  59.0700238  55.5525303  64.6239133
  58.9834213  55.7080729  65.4773912  58.6150718  56.1963378  64.2498538
  58.9903495  55.6701058  64.6946240  41.9723730  50.9221782  61.3599083
  42.0739866  51.7247943  61.6880058  42.7679616  50.7209118  61.0622163
  42.1051635  51.0107680  61.3634438  48.4040549  48.5077978  71.1236388
  48.2123746  48.5233113  71.9735811  49.2539145  48.7041653  71.1003043
  48.5016271  48.5392330  71.2459683  42.7887462  51.0368960  69.1020204
  42.6472953  50.1852901  69.2264712  43.0728025  51.0797621  68.2782410
  42.8095308  50.9168710  68.9987828  52.9426054  52.8736050  63.2464692
  52.6960768  52.7931801  64.0801481  53.2711177  52.0889518  63.0527220
  52.9547298  52.7462315  63.3412216  56.8374103  59.5819409  67.0351474
  56.6988462  60.2800455  67.5400216  56.0574101  59.4268066  66.6787655
  56.7017330  59.6619576  67.0577748  48.9023081  55.6092769  72.6587676
  49.0466457  56.1893977  72.0230786  49.2498730  55.9869065  73.3637530
  48.9750543  55.7513473  72.6686671  51.0742999  54.8082937  70.4412807
  50.3266313  55.0013951  70.0361085  51.2284524  53.9828157  70.2036928
  50.9865426  54.7148048  70.3458213  47.9750836  63.7995540  69.5248702
  48.1240400  63.2398456  68.8722107  48.7550838  63.8787542  69.9081221
  48.1124930  63.7281106  69.4845652  58.3327476  58.9397663  57.7967973
  57.9534284  58.1534801  57.7897262  57.6693721  59.4884520  57.6539617
  58.1785950  58.9042487  57.7748770  51.3144776  48.7033488  71.3308211
  51.7717390  49.4357462  71.4581003  51.3901104  48.2799953  72.0895467
  51.3935746  48.7490726  71.4609287  43.5577767  48.9499307  72.4197655
  43.0219956  48.3379666  72.7358422  43.6195532  49.5247443  73.0731321
  43.4873400  48.9446235  72.5633081  55.7872102  41.8823363  65.2002054
  55.9055670  42.3399826  64.4669357  55.6134277  41.0768624  64.9138271
  55.7791273  41.8317135  65.0502987  51.1574384  62.4911182  61.6356799
  51.9224275  62.2220826  61.3139463  51.0552474  62.0061193  62.3526862
  51.2555879  62.3800747  61.6936627  49.1927154  50.6935592  68.1750035
  48.4023228  50.5127052  68.4967371  49.5887776  49.9162544  68.1580329
  49.1344030  50.5523053  68.2202583  53.6793044  59.5223366  53.6156749
  54.4466030  59.5823491  53.2062600  53.2324353  58.9503807  53.1313067
  53.7266472  59.4459942  53.4834459  54.5770840  58.3278022  65.9009481
  53.9015842  58.0963254  66.4022868  54.5863216  57.7199205  65.2751586
  54.4789344  58.2036947  65.8825633  51.7064984  53.1695851  72.6573534
  51.6424125  54.0305807  72.5293671  51.8462172  52.8527844  71.8569085
  51.7180454  53.2496017  72.5201747  56.5787574  61.1843154  58.1319659
  56.6607412  61.9910140  57.8081110  57.0637317  61.2039113  58.8560432
  56.6624732  61.3063817  58.1906557  50.3884078  55.8627990  66.7989737
  49.9646327  56.0632489  66.0628755  50.2128933  55.0156838  66.9114037
  50.2994958  55.7676772  66.7063427  45.6766523  56.3580042  62.2317709
  45.8331142  56.2926844  63.0873701  46.0167116  57.1328594  62.0196389
  45.7499758  56.4629240  62.3272303  52.2145667  55.7337925  61.1011072
  52.7561213  55.2308306  61.5649693  52.5292226  55.6803120  60.2900558
  52.3410064  55.6517346  61.0494885  50.3832117  61.1255277  58.3851100
  50.4524937  60.2669815  58.5244101  51.1620572  61.3427158  58.0570125
  50.5084967  61.0308141  58.3568258  53.3634937  50.6274230  71.1533373
  53.5776906  49.9885144  70.5996727  52.7468836  51.0720054  70.7241235
  53.3040266  50.5984373  71.0083804  54.7739605  63.5492978  62.5987594
  54.3819396  63.2459693  61.8810460  54.9292677  64.3862068  62.4092548
  54.7393195  63.6276815  62.4644091  42.2500784  53.5414992  62.5478476
  42.6299749  53.9599537  61.8838744  41.6756149  54.1228448  62.8547320
  42.2212109  53.6892851  62.4955217  55.5274025  52.2363295  72.0916680
  54.7150706  51.9289185  72.1729853  55.9863959  51.7562295  72.6559392
  55.4754410  52.1199787  72.1871274  54.9379279  60.1142967  62.5393624
  54.5793934  60.2857610  63.3157657  54.4517990  60.5756172  61.9821623
  54.8137976  60.2081938  62.5718893  52.7549665  43.7374165  66.1420716
  51.8843223  43.7112886  66.0954025  53.0090007  43.5651357  65.3246561
  52.6643225  43.7084309  66.0140852  49.7267645  55.7942132  55.0793859
  50.0160170  56.5707015  55.3537433  49.8139444  55.2830864  55.7808358
  49.7821901  55.8334051  55.2236357  49.7798806  45.7480394  67.5994186
  49.2637294  45.0560585  67.7245765  49.2192735  46.4151171  67.5456785
  49.6205319  45.7443651  67.6100252  51.8491039  46.2873354  69.4287039
  51.4622792  46.3122385  70.2100569  51.3623977  45.7215032  68.9761555
  51.7203548  46.2069105  69.4774942  57.8241019  52.8536009  68.0526741
  57.3968627  52.7662357  67.2974840  57.1867072  52.9613784  68.6381585
  57.6670626  52.8568669  68.0272182  51.5148181  43.1740339  71.7197299
  52.1441299  43.7100639  71.4418369  51.6834044  43.0817698  72.5710864
  51.6325976  43.2401702  71.8045827  51.3162096  47.9611534  73.9923710
  52.1435525  47.6896683  74.0482325  51.3369942  48.7572376  74.3487528
  51.4414946  48.0391288  74.0538893  45.8931586  55.1075397  67.1793971
  45.0519592  55.0079271  67.3872865  46.1021594  55.8770877  67.5308291
  45.7996278  55.2067440  67.2621286  43.3707153  52.7294934  65.0078721
  42.9763850  52.8037946  64.2328831  42.8147270  53.1152880  65.5587083
  43.2309965  52.7976708  64.9746381  55.0072100  45.7076228  64.6882600
  55.2121693  45.6398536  65.5339598  54.6798524  46.5135049  64.6203778
  54.9887347  45.8162168  64.8042256  49.7048251  53.0356796  66.4291568
  49.4011388  52.4812784  67.0301976  49.0027671  53.2149006  65.9419603
  49.5564460  52.9801578  66.4461274  48.7614348  50.3457316  60.9936270
  49.0374082  49.6276228  60.5813838  49.3613017  50.9442236  60.7857376
  48.8907612  50.3277687  60.9017031  47.7666602  60.2506517  71.1363666
  47.6586957  60.2608579  72.0025724  47.9762383  61.0761297  70.9468620
  47.7816713  60.3747591  71.2367758  58.2605787  46.2607992  64.1685366
  57.6480101  46.7478394  64.5539098  58.3569962  45.5851483  64.7123017
  58.1843685  46.2326301  64.3064224  45.7840394  57.5019159  68.5985604
  45.1928327  58.1428657  68.5688619  46.5461417  57.9256776  68.5716903
  45.8088654  57.6594998  68.5900751  46.1801016  48.6621157  69.2653621
  46.6402498  48.7360086  70.0028745  46.2257123  49.4602411  68.9153443
  46.2551572  48.7915304  69.3226378  47.8284366  49.3287852  73.8325648
  47.4369931  48.6821199  74.2681426  47.9970229  49.9199287  74.4519904
  47.7955277  49.3202120  73.9888354  55.5429910  62.9528471  66.0317628
  55.3449599  63.4419285  65.3373840  54.9217621  63.1569712  66.6101762
  55.4217474  63.0545009  66.0140851  49.6037888  54.7213368  60.3727872
  50.3479933  55.1087644  60.6110822  49.7498584  53.8770793  60.5368360
  49.7348473  54.6543840  60.4321842  52.5915764  50.2938841  66.2721792
  52.1175718  49.7680603  66.7827103  52.9633900  49.7468314  65.7036653
  52.5765653  50.1354837  66.2636939  42.9688794  52.2910348  71.6405338
  43.8314407  52.1906057  71.5542667  42.6380577  51.7105057  71.0790910
  43.0473991  52.1901974  71.5450743  58.8552495  55.3541216  67.6828572
  58.6150718  54.5147632  67.6870999  59.3344502  55.4341383  68.4069346
  58.8904678  55.2422616  67.7903375  60.8557682  52.1342674  65.6357831
  60.6167452  52.0938508  64.7978616  61.0191583  52.9813826  65.7623553
  60.8447985  52.2534759  65.5311313  46.3290580  51.1152797  68.3015756
  45.7043650  51.1271188  67.6941708  45.9936175  51.5912972  68.9506996
  46.1876072  51.1871314  68.3072324  43.0416256  59.1753257  69.7419520
  42.5116180  58.4845696  69.7914495  43.3141349  59.1663442  68.9132229
  43.0040978  59.0720388  69.6266936  54.0736346  59.7578959  58.4657203
  54.7970545  60.2237072  58.3221776  53.6336937  59.8252569  57.7154800
  54.1152038  59.8362796  58.3341984  53.2422501  56.6176501  69.7157892
  52.6279494  56.0734552  70.0106527  53.7589786  56.1040738  69.2363708
  53.2278164  56.4612910  69.6882120  52.4818799  57.6880771  67.4502190
  52.0546407  57.0630490  67.0167626  52.4743743  57.4055693  68.2761197
  52.4177940  57.5533552  67.5082018  45.5981326  52.7245944  70.5190624
  45.7574812  51.9689268  70.9242346  45.4174219  53.2736884  71.1731362
  45.5946685  52.6939758  70.6753330  53.5401629  44.8907180  71.0741414
  53.0442190  45.0870854  70.3832980  54.2970691  45.2899848  70.9030215
  53.5788453  44.9784914  70.9461550  50.8104508  48.5649526  67.6644724
  50.8346995  48.0309638  66.9757504  51.0615982  48.0566835  68.3270315
  50.8514427  48.4110430  67.6609369  38.3212098  55.8481021  67.0987868
  38.2155547  55.8027865  66.2339952  37.5712318  56.1934801  67.3802153
  38.1947701  55.8921929  67.0125198  47.0905830  47.2920344  67.0450469
  47.1304202  47.7929551  67.7585176  46.2655495  47.3830738  66.7756392
  46.9745356  47.3802160  67.1101007  48.5120194  53.8080854  69.3424368
  47.6812123  53.9754672  69.1359616  48.4571711  53.4316805  70.1273253
  48.3809609  53.7770585  69.4272896  46.3203977  47.2989747  74.9780778
  46.9456680  46.7551880  75.2510211  45.8654457  46.8184664  74.4088569
  46.3452238  47.1479228  74.9342372  46.8856238  52.0836445  59.8714485
  47.0259199  52.5808910  60.5743127  47.3838770  51.3822740  60.0128699
  46.9797319  52.0538424  59.9966064  46.9156460  52.9503556  57.2007062
  47.5501539  53.5463981  57.1356524  46.9982071  52.6507014  58.0152932
  47.0213011  52.9944465  57.3110149  48.4935443  48.8817532  57.1752504
  48.8151284  48.4020614  56.5211766  48.7562387  49.6917178  56.9843316
  48.5801468  48.9307430  57.0507996  53.8894598  48.2689726  69.5375983
  54.3149669  47.8162252  68.9259510  53.2751591  47.7149797  69.8140771
  53.8623243  48.1203702  69.4881008  43.4209448  55.1471397  60.4696608
  43.9301677  55.7435905  60.8507914  43.8943720  54.8797371  59.7873028
  43.5652824  55.1957213  60.4251131  54.3340196  63.8199664  58.6255264
  53.6169506  63.6460526  58.1602501  54.9846934  63.5852236  58.0930750
  54.3242046  63.7595456  58.4784482  56.9188167  52.6964252  62.3696569
  56.2479357  53.2393955  62.2409634  57.6127917  53.1659108  62.1278264
  56.9217035  52.8462524  62.3152097  50.9674901  64.8360964  67.6008327
  50.7440555  64.0779794  67.9692353  50.4784744  64.8658986  66.8788767
  50.8618350  64.7283189  67.5485068  57.0816295  49.1520136  65.2786942
  57.4343905  48.7249859  65.9532741  56.2231096  49.0670980  65.4088018
  57.0065739  49.0764877  65.3981952  45.7799980  51.7827656  63.3369789
  45.0611969  52.1991788  63.6042652  46.1512342  52.3481895  62.7861427
  45.7291911  51.9276937  63.2952596  55.0799560  52.4155505  69.2271784
  55.0597488  52.2338800  70.0806563  55.1278761  53.2867523  69.2031368
  55.0834201  52.5172043  69.3495079  49.6153358  65.0561423  65.0545412
  49.2013756  64.3935553  64.6649253  50.3000732  65.2039281  64.5341106
  49.6551730  64.9802081  64.9201909  52.9818652  64.2151508  65.8069028
  52.5834935  64.3253778  65.0389849  52.3669872  64.4233574  66.3895588
  52.8317541  64.2625076  65.7800328  58.5140355  44.2738548  66.2071255
  58.0071219  43.5667687  66.1392432  59.3107788  43.9431737  66.3372331
  58.5567594  44.1211699  66.2170249  54.4304371  50.7805160  62.1044918
  54.2018064  50.8037862  61.2623276  54.6902447  49.9562627  62.2239929
  54.4350559  50.6621240  61.9970116  48.7123599  52.6339633  71.7070018
  48.2002502  52.0260816  72.0655050  48.5403095  53.3496226  72.1743994
  48.6113236  52.6502932  71.8286242  43.5589314  51.0777209  74.3572380
  43.3891904  51.7378583  73.8120587  43.1155264  51.2883770  75.0784869
  43.4688647  51.2063191  74.3834010  47.4849133  49.3181706  63.3999114
  47.9606499  49.6798786  62.7649295  46.9837733  49.9738174  63.6799257
  47.4814492  49.4675895  63.3475855  60.7160495  58.7903475  59.1912119
  61.0994100  59.5394831  59.4210216  59.9204608  59.0369294  58.9324108
  60.6554277  58.9373168  59.1869692  52.5892669  50.5563878  74.1472274
  53.1464100  50.3277687  73.5150739  52.2653734  51.3169543  73.8707486
  52.6239080  50.6347715  74.0128771  40.4591378  53.9824074  69.6160870
  39.9118098  53.3124720  69.7341738  41.2483756  53.6153922  69.6804337
  40.4943562  53.8289060  69.6429571  49.5275786  51.4622906  56.7672498
  49.9074751  51.4802535  55.9823613  48.7868382  51.9076895  56.6463345
  49.4744624  51.5304681  56.6336066  57.1561077  49.7705097  62.3548077
  57.1555303  49.6153754  63.2132353  56.9517257  50.6168085  62.2989462
  57.1260855  49.8725718  62.4736016  39.2178348  53.1944882  66.7706893
  39.0400109  52.7421491  67.4961809  38.9297370  53.9971043  66.9545371
  39.1491301  53.2467440  66.9050396  54.8801929  54.4502599  66.0084283
  55.3755594  53.7325594  65.9688304  54.0701705  54.1473397  65.8938770
  54.8345822  54.3000246  65.9858009  50.3260540  58.3000412  58.1581288
  49.5171863  57.9767086  58.1114597  50.8335449  57.5933635  58.0909537
  50.2810207  58.1481729  58.1411582  40.9550818  55.7272606  63.8828652
  40.0896337  55.7158296  63.7711423  41.0549633  55.5402829  64.7299791
  40.8424985  55.6978667  63.9917597  56.9453748  57.2006287  68.6961412
  57.3708819  56.6780709  68.1431837  56.5810668  57.7987124  68.1750035
  56.9540350  57.2116514  68.5370422  46.5807827  65.4970504  67.4558758
  46.8954386  66.3106893  67.4636539  46.9901241  65.1120723  68.1240917
  46.6875925  65.5599207  67.5562849  53.5332347  60.9140551  65.0262570
  54.0043525  61.6280814  65.1952555  53.8692526  60.3139301  65.5622439
  53.6527462  60.9312015  65.1294946  50.4501842  45.6868022  71.9820664
  50.5829748  44.8899015  72.3101640  50.8346995  46.2134425  72.5618940
  50.5258171  45.6467938  72.1164167  53.5234197  42.6098348  68.5801758
  52.7180161  42.4996077  68.8969596  53.3940933  42.7110803  67.7231624
  53.3854330  42.6082018  68.5009798  56.9800158  48.7743840  69.1741455
  56.3963147  49.2753046  68.7619022  57.3004452  48.2673396  68.5405778
  56.9413333  48.7735675  69.0199962  48.1090289  45.6827197  70.2298558
  48.6534702  45.3418323  70.8202900  48.1627225  46.5412658  70.3719843
  48.1979408  45.7582456  70.3380432  43.9220848  59.4443613  67.1037366
  44.5265705  59.4039447  66.4751187  43.7148160  60.2914765  67.1341422
  43.9809745  59.5631615  67.0153483  53.7364620  61.7109558  68.3199604
  54.5562994  61.5672524  68.5815899  53.4558697  62.3355757  68.8616041
  53.8161363  61.7819910  68.4387543  39.1572130  58.4278230  66.9736289
  39.0596408  57.6174502  67.2826346  39.9401000  58.4070024  66.5882557
  39.2588266  58.3045320  66.9623152  61.9626878  67.9336730  60.9264519
  62.6607043  68.1124857  61.4185982  62.2779211  67.4107069  60.3034908
  62.1122215  67.8830502  60.9066529  60.1353742  63.3029126  65.0085793
  59.8057072  63.7540270  64.3389492  59.4598744  63.2245290  65.5558800
  59.9864178  63.3580261  64.9909017  67.3430150  59.2914649  63.2535404
  67.0283591  59.9818128  63.6855826  66.8257091  59.2359431  62.5520905
  67.2194620  59.3849538  63.2132353  58.5742191  73.1882367  58.1680283
  57.9899406  73.6932398  58.5746147  58.1712286  72.9624754  57.4276875
  58.4281495  73.2290615  58.1185308  63.0319406  69.4348019  56.6449203
  63.2715409  69.6426003  55.8324546  63.3535247  68.6305528  56.7538148
  63.1156564  69.3462120  56.5409756  58.3409696  61.3641415  60.4908741
  59.0955664  61.7319732  60.2525791  58.1637230  61.7380969  61.2587921
  58.4264174  61.4739603  60.5693630  56.6966761  63.7711734  57.1886854
  56.5142334  63.9883614  56.3627847  57.5592374  63.8850746  57.2445469
  56.7971350  63.8201632  57.0741341  62.3766480  60.7738144  60.2235878
  63.1052640  60.5954099  59.7774034  62.4661373  61.6156224  60.4343056
  62.4973142  60.8722023  60.1889396  56.2428788  67.0485906  55.7009327
  55.5286965  66.7624086  56.1131760  56.7272756  67.3882532  56.3415715
  56.2088151  67.0567556  55.8564962  63.4176105  75.5515860  56.0771135
  63.8327254  75.2200884  55.3855631  62.5868035  75.3184762  55.9491272
  63.3564114  75.4687116  55.9561983  66.1109496  71.8026420  55.2632337
  66.0289658  71.8728607  56.1287324  66.7489216  72.3656164  55.0716078
  66.1929333  71.8965391  55.3622286  48.1894198  68.7664995  63.2316199
  48.2754450  68.3896863  64.0129729  48.8169995  68.3925440  62.7536157
  48.2950749  68.6550477  63.2761676  63.2149606  71.8246874  58.2740943
  64.0290245  72.1161767  58.1623715  63.1508747  71.1706736  57.6999236
  63.3252345  71.7712069  58.1729781  59.7260329  70.5170681  57.7388145
  60.1105482  70.2978388  58.4904690  59.4771949  71.3433627  57.8689221
  59.7462402  70.6068827  57.8689221  57.4460766  62.1867618  63.0696925
  56.5783192  62.2590217  63.1354535  57.7335971  62.9889697  63.2584900
  57.3600515  62.3161765  63.1071692  55.3728119  65.6625877  60.5113802
  55.0852914  65.2927148  59.7745749  56.0598587  66.1320732  60.2497506
  55.4317016  65.6772846  60.3628877  58.2081790  69.5278825  61.9581206
  58.9304442  69.6919983  61.4985012  57.7289783  70.2488490  61.8520546
  58.2445521  69.6577055  61.8746820  64.6144576  62.7628001  62.0705507
  65.3170929  62.5635749  61.5925465  64.3488765  61.9903944  62.3774351
  64.6791208  62.6190967  62.0450949  52.9456313  66.4407090  61.3599083
  53.0472450  67.2433251  61.6880058  53.7412200  66.2394425  61.0622163
  53.0784219  66.5292988  61.3634438  66.7604685  57.4008671  65.2002054
  66.8788253  57.8585134  64.4669357  66.5866861  56.5953932  64.9138271
  66.7523856  57.3502443  65.0502987  64.6525628  75.0408674  53.6156749
  65.4198613  75.1008799  53.2062600  64.2056937  74.4689115  53.1313067
  64.6999055  74.9645250  53.4834459  53.2233368  69.0600300  62.5478476
  53.6032333  69.4784845  61.8838744  52.6488733  69.6413756  62.8547320
  53.1944693  69.2078159  62.4955217  63.7282249  59.2559473  66.1420716
  62.8575807  59.2298194  66.0954025  63.9822590  59.0836665  65.3246561
  63.6375809  59.2269617  66.0140852  60.7000228  71.3127440  55.0793859
  60.9892753  72.0892323  55.3537433  60.7872027  70.8016172  55.7808358
  60.7554485  71.3519359  55.2236357  59.7346931  65.8642624  60.9936270
  60.0106666  65.1461536  60.5813838  60.3345601  66.4627544  60.7857376
  59.8640196  65.8462994  60.9017031  63.2357452  63.5356141  59.2682865
  63.6901198  63.7066701  59.9930710  63.7097498  62.9224252  58.8680641
  63.3725772  63.4707026  59.3156627  60.5770472  70.2398675  60.3727872
  61.3212517  70.6272952  60.6110822  60.7231168  69.3956101  60.5368360
  60.7081057  70.1729148  60.4321842  65.4931847  66.7060703  59.3347546
  64.9654866  66.7889447  58.6453254  65.9527555  67.4478575  59.3312190
  65.4833698  66.8281366  59.2322241  57.4864912  64.9763223  54.3588441
  57.1377717  65.6282948  54.8219990  57.0061358  64.9620336  53.6312312
  57.3635156  65.0706276  54.3199532  57.8588821  67.6021753  59.8714485
  57.9991782  68.0994218  60.5743127  58.3571354  66.9008048  60.0128699
  57.9529902  67.5723732  59.9966064  57.8889044  68.4688864  57.2007062
  58.5234123  69.0649289  57.1356524  57.9714654  68.1692322  58.0152932
  57.9945595  68.5129773  57.3110149  59.4668026  64.4002840  57.1752504
  59.7883868  63.9205922  56.5211766  59.7294970  65.2102486  56.9843316
  59.5534052  64.4492738  57.0507996  54.3942031  70.6656705  60.4696608
  54.9034261  71.2621213  60.8507914  54.8676304  70.3982679  59.7873028
  54.5385407  70.7142521  60.4251131  63.3021404  60.2590134  62.9466560
  62.6589722  60.1087780  63.5151699  62.9620811  60.0132479  62.1815665
  63.1566482  60.2002256  62.9169575  56.7532563  67.3012964  63.3369789
  56.0344552  67.7177096  63.6042652  57.1244926  67.8667202  62.7861427
  56.7024495  67.4462245  63.2952596  62.5279138  66.3410964  58.6743168
  61.9343977  66.6627960  58.1227735  62.5654415  65.4952059  58.4664274
  62.4453527  66.2635292  58.5625939  58.4581717  64.8367014  63.3999114
  58.9339083  65.1984094  62.7649295  57.9570316  65.4923482  63.6799257
  58.4547076  64.9861203  63.3475855  60.5008370  66.9808214  56.7672498
  60.8807335  66.9987843  55.9823613  59.7600966  67.4262203  56.6463345
  60.4477208  67.0489989  56.6336066  61.2993124  73.8185720  58.1581288
  60.4904447  73.4952394  58.1114597  61.8068033  73.1118943  58.0909537
  61.2542791  73.6667037  58.1411582  60.4927541  63.2069742  59.4500129
  61.3143235  63.3768055  59.2081824  60.0297191  63.3617003  58.7266427
  60.5458703  63.2551475  59.3071774  36.9831343  -0.2503383  48.2182527
  36.9525348   0.6041254  48.3900796  37.5812692  -0.5508090  48.7768670
  37.0668501  -0.1686886  48.3257329  30.1831028  -1.1627732  52.9735457
  29.3268924  -1.0019234  53.0244574  30.2298682  -2.0335668  52.9940518
  30.0630140  -1.2676930  52.9841523  24.5672168   8.3734986  48.7372689
  23.8155067   7.9950524  48.5088734  25.0158180   8.4053419  47.9891499
  24.5221835   8.3220593  48.5930191  33.4924745   5.1058794  62.5795913
  34.1991512   4.6110824  62.7082848  33.6812680   5.5467875  61.8498571
  33.6252650   5.0977144  62.4904959  30.0197128   8.7960355  44.1658236
  29.6848496   9.4737277  43.7302458  30.5323998   8.4065667  43.5775107
  30.0462709   8.8384934  44.0145027  29.5601419  10.7474624  50.1069347
  29.9440798  11.3161523  49.5674123  29.4960560  10.0224134  49.6275163
  29.6074846  10.7250087  49.9563210  33.0282849   0.8964312  55.6167109
  33.5738809   1.5749398  55.6761078  32.9699726   0.7551773  54.7568690
  33.0998764   0.9756314  55.4979169  26.1456924   8.3853378  51.0035461
  26.2467287   7.5753732  51.3132589  25.5498669   8.2910324  50.3735140
  26.0729463   8.2518406  50.9561700  34.8047918   2.3248919  46.4900837
  34.6887444   3.0756605  46.9192975  35.6003805   2.0672872  46.7396924
  34.9052507   2.3983766  46.5904928  25.9857664  13.3030967  52.4050317
  26.6295119  13.7444131  52.7946476  26.3113919  12.4984393  52.3180576
  26.1289492  13.2496162  52.4495794  19.3421968   4.4073665  50.6287795
  19.1072153   3.5741317  50.5220064  19.4807609   4.6878330  49.8148996
  19.3277631   4.3257168  50.4930150  26.6878243   6.3142942  47.7770179
  27.0094084   6.8548149  47.1731487  27.3350340   5.7439713  47.9092469
  26.8304299   6.3102117  47.7077214  28.7379951  -1.6841063  47.8604566
  29.4360116  -1.5052936  48.3526029  29.0532284  -2.2070724  47.2374955
  28.8875289  -1.7347291  47.8406576  21.3681189   0.1211677  55.7715672
  21.2439886   0.7074122  56.4065490  22.0199473  -0.3728127  56.0727946
  21.4454838   0.1350481  55.9101601  28.9267887   4.7029382  47.8484357
  29.3661522   4.0946482  48.2939130  28.7772550   4.3236755  47.0769822
  28.9689353   4.5567853  47.8003524  26.3939530   3.2973394  55.0503183
  27.0388532   2.8045837  54.7314131  26.6341307   3.4398180  55.8769261
  26.5250115   3.2450836  55.1252716  28.9325621   6.1428300  54.7010075
  29.2148864   5.3479705  54.4796831  29.6611782   6.6208887  54.7215136
  29.0815185   6.0962897  54.6713090  32.5277223   3.0556563  44.8015126
  32.4428519   3.9117530  44.9464695  33.0161607   2.7800887  45.4697285
  32.5866121   3.1413885  44.9217208  33.4595657  -0.3258643  46.3012861
  32.9307128  -0.1099009  46.9610168  33.9820677   0.3677496  46.2213831
  33.4584110  -0.1915506  46.3868461  38.9143710   5.2487662  51.6745906
  38.0841413   5.4598306  51.8379322  38.8652962   4.4224716  51.3988190
  38.7850445   5.1577268  51.6583271  25.3495264   3.5704574  45.1020329
  24.7652480   4.0754606  45.5086193  24.9465360   3.3446961  44.3616921
  25.2034568   3.6112822  45.0525355  20.9039293   9.2859335  51.9044001
  20.4206871  10.0109825  51.8803585  21.7162611   9.5835465  52.0154159
  20.9530041   9.4361689  51.9171280  26.9753447   8.0791516  54.5093815
  26.4580389   7.7198931  53.9055124  27.6727838   7.5553690  54.5199882
  27.0019028   7.9489204  54.4224074  30.6317039   8.5286330  60.4709988
  30.7200385   8.3412471  61.3188199  31.0606752   7.8823760  60.0714835
  30.7079141   8.4049338  60.5381740  28.1987499   7.8117490  59.4527651
  27.6358334   7.3990100  59.9767312  28.9608522   7.7370396  59.8720794
  28.2281947   7.7394891  59.5920651  29.8072479  -0.1829774  43.5789250
  30.0468483   0.0248210  42.7664593  30.1288320  -0.9872265  43.6878195
  29.8909637  -0.2715673  43.4749803  23.7583490   9.8015511  52.0564281
  24.4604070   9.2867500  52.1137037  23.6780973  10.1289663  52.8611156
  23.8507251   9.7729737  52.1837073  38.4097668  -2.1041937  55.4696327
  37.5726089  -2.0339750  55.7043922  38.3785899  -2.1017443  54.5970630
  38.2815950  -2.0931710  55.3755875  23.0834266   5.9921863  51.5649889
  23.9223165   6.2244796  51.6123650  23.1146035   5.1226175  51.4956924
  23.2115983   5.8978810  51.5614534  23.7086969   6.4122738  55.8663194
  24.2485194   6.2693869  56.5366567  23.0256915   6.8119489  56.2347221
  23.6879123   6.4502409  56.0197616  33.1327854   2.0913739  51.0608219
  33.8885369   2.5245253  51.0997127  33.2390178   1.4418509  51.6342855
  33.2598024   2.0591223  51.1506244  36.1708025   5.9187016  51.8110622
  35.7343257   5.9223759  52.5669593  35.8370940   6.5992515  51.3790199
  36.0570645   6.0199472  51.8591454  30.7437098   7.9595349  63.1353772
  31.5277515   8.0726197  63.5009514  30.5433693   7.1336486  63.3312458
  30.8303124   7.8542069  63.2188158  19.1124114   2.6323029  56.0197616
  18.8462529   1.8162146  56.1788606  19.1262678   2.6776185  55.1493131
  19.0748836   2.5179934  55.9151098  23.0181861  -2.5691886  42.6349374
  22.3040038  -2.8553707  43.0471807  23.5025829  -2.2295261  43.2755761
  22.9841224  -2.5610237  42.7905009  30.9007492   9.8705451  56.7820228
  30.1022737   9.6304951  57.0394096  31.3493503   9.9219844  57.5287275
  30.8482103   9.8427842  56.9305152  39.3052371   2.6367936  50.7030259
  39.9668805   2.0758605  50.6026167  38.6643783   2.1419967  51.0282950
  39.3081238   2.4804345  50.7362599  30.1929179   5.9338068  43.0111182
  30.6080327   5.6023091  42.3195678  29.3621108   5.7006970  42.8831319
  30.1317187   5.8509324  42.8902030  19.5217527   3.4181809  53.3009360
  19.3393101   3.3928695  52.4481652  20.2567196   3.8880746  53.3398269
  19.6031591   3.4843171  53.1807279  35.5917202   3.6533319  50.4442248
  35.8272791   3.7978517  49.6169098  35.7406765   4.4175727  50.8373761
  35.6483005   3.7872373  50.3805852  37.4207658   2.4934985  48.2811852
  37.7515875   3.0262625  47.6751946  37.9940747   2.5473872  48.9373803
  37.5541338   2.5804553  48.2889633  32.6339548   0.3399887  48.9635432
  32.7286402   1.0789181  49.4175057  32.0098391  -0.0882637  49.3969996
  32.5548578   0.3861208  49.0943579  30.8892021   3.5186100  59.6125713
  31.4630883   2.8813344  59.7674276  30.8106825   3.5190182  58.7435370
  30.9625256   3.4251211  59.5072123  19.4888438   0.2975309  53.4508427
  20.0661940   0.1611760  54.0900672  18.7902500  -0.1588907  53.7054011
  19.4709459   0.2097576  53.5830716  32.8862569   2.1848627  42.1972384
  32.8042731   2.2550814  43.0627371  33.5242289   2.7478371  42.0056124
  32.9682406   2.2787598  42.2962333  26.2455740   1.9509365  51.6646910
  25.9874984   1.1181100  51.6378209  26.3004223   2.1766978  50.8239410
  26.2155518   1.8607136  51.5367047  25.2190452  -0.4952873  52.1511805
  24.6440043  -0.3360704  52.7875766  24.8426128  -1.1317463  51.6880255
  25.0793264  -0.5655060  52.1766363  28.8863741  -2.0229523  57.0104183
  28.4978174  -2.4475306  56.3556374  28.2218439  -1.7747374  57.5181210
  28.7310669  -2.0490802  56.9892051  29.9902679   2.2069081  45.2080990
  30.8043318   2.4983974  45.0963761  29.9261820   1.5528944  44.6339283
  30.1005418   2.1534276  45.1069827  36.2112169   4.8895077  59.6210566
  35.9750807   4.0583142  59.5022626  36.8555398   4.8380685  60.2065410
  36.2706840   4.7592765  59.6896459  25.8610587   5.6790599  50.3353302
  26.4984534   5.4402346  50.8805096  26.2865659   5.8827758  49.6006463
  26.0186754   5.6741609  50.3070460  20.5523230   7.9178935  54.2187606
  20.5927375   8.1893786  53.3907386  21.1117754   8.4420843  54.6345394
  20.6406576   8.0354690  54.1579494  26.5013402   0.8992889  44.6728192
  26.8858555   0.6800595  45.4244737  26.2525023   1.7255834  44.8029268
  26.5215475   0.9891035  44.8029268  37.2348590   4.6739526  55.6838860
  36.9294407   5.4067583  56.0452176  36.5154805   4.2677456  55.4031646
  37.0835932   4.7221259  55.6951997  28.2432059   6.1563021  52.0147088
  28.3171068   5.9938193  52.8688938  29.0601566   6.3453211  51.7707570
  28.3748418   6.1599764  52.1045114  42.9350382   1.3132527  55.0107205
  42.8674882   1.3328486  54.1409791  42.9206044   2.1562854  55.2362875
  42.9229138   1.4406262  54.9159681  22.0037816   6.5020884  49.0441532
  21.1775934   6.7482621  48.9175811  22.0649807   6.4232965  49.9103590
  21.8911983   6.5265833  49.1530476  26.7836645   9.1197764  46.7460562
  27.0734943   8.7286746  46.0219788  27.5140126   9.3014469  47.1865837
  26.9343529   9.0891578  46.7043369  40.7208999   0.0876913  53.2853799
  41.2716921  -0.5455018  53.5250891  40.7053115   0.6192306  53.9769303
  40.7994196   0.0725861  53.4232657  27.3731390   3.9215510  57.8313692
  26.8743084   4.6331278  57.9098581  28.1831614   4.2416177  57.7931855
  27.4187497   4.0742359  57.8370261  24.7242561  11.0965147  49.8120712
  24.5042856  10.8062502  50.6047379  24.5037083  10.4380102  49.2838624
  24.6590155  10.9564855  49.8509620  23.6359508   3.1838463  52.0776413
  23.3472756   2.5575935  52.6122141  24.5042856   3.1258751  52.1441094
  23.7219760   3.0826008  52.1667368  34.4237406  -1.6726753  52.3958395
  34.0802171  -2.3936418  52.7465645  34.5230448  -1.8812902  51.5536753
  34.3879448  -1.8102550  52.3230075  26.8910516  12.4694537  48.5951404
  27.5434574  11.9370979  48.8242430  26.1936125  12.1163189  48.9819278
  26.8841234  12.3384060  48.6863572  23.8391781   4.8233714  48.0018778
  24.5937749   5.2046753  48.2154241  23.2462394   5.2744858  48.4565475
  23.8628495   4.9462542  48.1001657  34.8850435   4.7898951  47.9382383
  35.4508467   5.4492161  47.8540926  34.2378338   5.1348649  48.4098785
  34.8729191   4.9380892  47.9955140  25.1590008   5.9942276  53.3758894
  24.6370761   6.1342567  54.0610758  25.5464028   5.2352940  53.5661011
  25.1393709   5.9027800  53.5059970  31.3557013   7.7337735  47.3619462
  31.1143689   7.0005596  46.9546527  31.5358346   8.2824592  46.7085796
  31.3464637   7.7060126  47.2049685  26.5856333   3.0246295  48.7740385
  26.3899116   3.6321029  48.1800688  26.8090679   2.3314239  48.2932059
  26.5890974   3.0123820  48.6156466  24.9834863  -0.0898967  48.8921253
  25.7057515   0.0742191  48.4325059  24.5042856   0.6310698  48.7860593
  25.0198594   0.0399262  48.8086867  32.9428371  -3.7535168  54.2717938
  32.1039472  -3.7273890  54.0356201  33.0132738  -3.1064433  54.8523285
  32.8296764  -3.6539043  54.3227055  22.6342480   2.3159105  57.9975393
  23.1463577   2.5943358  57.3484153  22.3478823   3.0548399  58.3638206
  22.6677343   2.4661459  57.9565271  36.8185895   1.4532818  51.5579180
  36.7319869   1.6088244  52.4113959  36.3636375   2.0970894  51.1838585
  36.7389151   1.5708573  51.6286287  30.6911711  -1.2256435  50.1804739
  30.4446425  -1.3060684  51.0141528  31.0196834  -2.0102967  49.9867267
  30.7032954  -1.3530169  50.2752262  34.5859760   5.4826925  53.9691521
  34.4474119   6.1807971  54.4740263  33.8059758   5.3275581  53.6127702
  34.4502987   5.5627091  53.9917795  32.9237845   1.7823300  60.2213902
  32.9185883   0.9103117  60.2256329  33.6298839   1.9811469  59.7483358
  33.0282849   1.6827174  60.1520938  26.6508738   1.5100284  59.5927722
  26.7952114   2.0901492  58.9570832  26.9984387   1.8876581  60.2977577
  26.7236199   1.6520988  59.6026717  28.8228655   0.7090452  57.3752854
  28.0751969   0.9021467  56.9701132  28.9770181  -0.1164328  57.1376975
  28.7351083   0.6155564  57.2798260  25.7236493   9.7003056  56.4588749
  25.8726057   9.1405972  55.8062154  26.5036495   9.7795057  56.8421268
  25.8610587   9.6288621  56.4185698  36.0813132   4.8405179  44.7308020
  35.7019941   4.0542316  44.7237309  35.4179378   5.3892036  44.5879664
  35.9271607   4.8050002  44.7088817  28.2489794   9.8717699  57.7373240
  28.1733465   9.2026509  58.2924028  28.1779653  10.5735487  58.2513906
  28.2270401   9.8762606  57.8950088  28.9060041   8.3918698  48.5696846
  29.6709932   8.1228341  48.2479510  28.8038131   7.9068708  49.2866909
  29.0041536   8.2808262  48.6276674  26.9412810  -3.4056893  55.1090082
  26.1508885  -3.5865433  55.4307418  27.3373433  -4.1829940  55.0920376
  26.8829687  -3.5469432  55.1542630  31.4278701   5.4230881  40.5496795
  32.1951686   5.4831006  40.1402647  30.9810010   4.8511323  40.0653114
  31.4752128   5.3467457  40.4174506  32.3256497   4.2285537  52.8349528
  31.6501499   3.9970769  53.3362915  32.3348873   3.6206720  52.2091633
  32.2275001   4.1044462  52.8165680  29.4550641  -0.9296634  59.5913581
  29.3909782  -0.0686677  59.4633717  29.5947828  -1.2464641  58.7909132
  29.4666111  -0.8496467  59.4541794  34.3273231   7.0850670  45.0659706
  34.4093069   7.8917656  44.7421156  34.8122973   7.1046629  45.7900479
  34.4110389   7.2071332  45.1246604  28.1369735   1.7635505  53.7329784
  27.7131984   1.9640005  52.9968802  27.9614590   0.9164353  53.8454083
  28.0480615   1.6684287  53.6403474  27.6381428  13.2786018  56.1951241
  28.1277358  12.5796808  56.0126905  27.0665660  12.9809888  56.7827298
  27.6265958  13.1312242  56.2552282  23.4252180   2.2587557  49.1657756
  23.5816799   2.1934360  50.0213748  23.7652773   3.0336109  48.9536436
  23.4985414   2.3636755  49.2612350  29.9631324   1.6345440  48.0351119
  30.5046870   1.1315822  48.4989740  30.2777883   1.5810635  47.2240605
  30.0895721   1.5524861  47.9834931  33.8348432   5.8448088  65.1478031
  34.6483297   5.5733237  65.3083164  33.6743398   5.5455628  64.3438227
  33.9318380   5.7603014  65.0523437  28.1317774   7.0262792  45.3191147
  28.2010594   6.1677330  45.4584148  28.9106229   7.2434673  44.9910172
  28.2570624   6.9315656  45.2908305  31.1120594  -3.4718255  58.0873420
  31.3262563  -4.1107341  57.5336774  30.4954493  -3.0272431  57.6581282
  31.0525923  -3.5008111  57.9423851  32.5225261   9.4500493  49.5327641
  32.1305053   9.1467208  48.8150507  32.6778334  10.2869583  49.3432594
  32.4878851   9.5284330  49.3984138  19.9986441  -0.5577493  49.4818523
  20.3785406  -0.1392948  48.8178791  19.4241806   0.0235963  49.7887367
  19.9697766  -0.4099634  49.4295264  33.2759682  -1.8629190  59.0256727
  32.4636363  -2.1703299  59.1069900  33.7349616  -2.3430190  59.5899439
  33.2240066  -1.9792697  59.1211321  32.6864936   6.0150482  49.4733671
  32.3279591   6.1865125  50.2497704  32.2003647   6.4763688  48.9161670
  32.5623633   6.1089453  49.5058940  27.4753302   1.6949648  42.0133906
  27.7645826   2.4714530  42.2877480  27.5625100   1.1838379  42.7148405
  27.5307558   1.7341566  42.1576403  33.8469676   6.9054378  60.4200872
  34.4849396   6.4114574  60.0863328  33.2043767   6.8331779  59.8353099
  33.8463902   6.8213387  60.2843227  35.5726676  -1.2456476  54.9866788
  35.1454284  -1.3330127  54.2314887  34.9352729  -1.1378700  55.5721632
  35.4156283  -1.2423816  54.9612229  33.9023932   7.5974186  57.0606229
  34.6916310   7.2463251  57.1808310  34.0767530   8.4110575  56.7982863
  34.0444214   7.6660044  57.0394097  23.6417243   1.0082912  54.1134018
  22.8005249   0.9086786  54.3212912  23.8507251   1.7778392  54.4648338
  23.5481935   1.1074955  54.1961333  21.1192810  -1.3697551  51.9418768
  20.7249507  -1.2954539  51.1668878  20.5632926  -0.9839605  52.4927130
  20.9795622  -1.3015776  51.9086428  27.4533907  -1.0635689  53.3631615
  27.1497045  -1.6179700  53.9642023  26.7513328  -0.8843479  52.8759649
  27.3050117  -1.1190906  53.3801321  26.5100005  -3.7535169  47.9276317
  26.7859739  -4.4716256  47.5153885  27.1098674  -3.1550249  47.7197423
  26.6393269  -3.7714798  47.8357078  25.5152258   6.1514032  58.0703713
  25.4072613   6.1616094  58.9365771  25.7248040   6.9768812  57.8808667
  25.5302370   6.2755107  58.1707805  23.5326050   3.4026674  55.5325651
  22.9413984   4.0436173  55.5028666  24.2947074   3.8264292  55.5056950
  23.5574311   3.5602513  55.5240798  39.6516472   3.2332444  56.5302929
  39.7099596   3.6819093  57.2762905  39.0182940   3.6431257  56.0933009
  39.5667767   3.3606179  56.5755477  33.2915567   8.8535986  52.9657675
  33.0935255   9.3426800  52.2713886  32.6703278   9.0577227  53.5441808
  33.1703131   8.9552524  52.9480898  27.3523545   0.6220883  47.3067919
  28.0965590   1.0095159  47.5450869  27.4984241  -0.2221692  47.4708407
  27.4834130   0.5551356  47.3661889  30.3401421  -3.8053644  53.2061839
  29.8661375  -4.3311882  53.7167150  30.7119557  -4.3524171  52.6376700
  30.3251310  -3.9637647  53.1976986  36.6038151   1.2548732  54.6168619
  36.3636374   0.4155147  54.6211046  37.0830159   1.3348899  55.3409393
  36.6390335   1.1430132  54.7243421  32.2684921  -2.9117089  46.2687592
  31.7407939  -2.8288345  45.5793301  32.7280629  -2.1699218  46.2652237
  32.2586771  -2.7896427  46.1662288  38.6043339  -1.9649811  52.5697878
  38.3653108  -2.0053977  51.7318663  38.7677240  -1.1178659  52.6963599
  38.5933642  -1.8457726  52.4651360  35.2089369   2.4200138  58.5002923
  35.9323568   1.9672665  58.3213943  34.9439331   2.7004804  57.7175251
  35.2770642   2.3951107  58.3581639  24.0776237  -2.9839688  55.2355803
  23.4529307  -2.9721296  54.6281755  23.7421832  -2.5079513  55.8847043
  23.9361729  -2.9121171  55.2412371  20.7901913   5.0760772  56.6759567
  20.2601837   4.3853211  56.7254542  21.0627006   5.0670957  55.8472275
  20.7526635   4.9727904  56.5606983  31.8222003   5.6586474  45.3997249
  32.5456202   6.1244587  45.2561823  31.3822594   5.7260084  44.6494846
  31.8637695   5.7370311  45.2682031  30.9908158   2.5184017  56.6497938
  30.3765151   1.9742067  56.9446574  31.5075443   2.0048253  56.1703755
  30.9763821   2.3620426  56.6222167  30.2304455   3.5888287  54.3842237
  29.8032063   2.9638005  53.9507672  30.2229400   3.3063208  55.2101244
  30.1663596   3.4541067  54.4422065  16.0697755   1.7488536  54.0327915
  15.9641204   1.7035380  53.1679999  15.3197975   2.0942317  54.3142200
  15.9433358   1.7929444  53.9465245  26.2605851  -0.2911631  56.2764414
  25.4297780  -0.1237813  56.0699663  26.2057368  -0.6675680  57.0613300
  26.1295265  -0.3221900  56.3612943  24.6341894  -2.0156039  46.8054532
  24.7744856  -1.5183575  47.5083173  25.1324427  -2.7169745  46.9468746
  24.7282975  -2.0454061  46.9306111  24.6642117  -1.1488928  44.1347109
  25.2987196  -0.5528503  44.0696571  24.7467728  -1.4485471  44.9492979
  24.7698668  -1.1048020  44.2450196  26.2421100  -5.2174953  44.1092551
  26.5636941  -5.6971870  43.4551813  26.5048043  -4.4075307  43.9183363
  26.3287125  -5.1685055  43.9848043  29.4718072   5.8043922  57.6291367
  28.9643164   6.3579768  58.0731998  29.1744719   5.8652211  56.8110142
  29.3522957   5.8950233  57.5739824  21.1695105   1.0478912  47.4036655
  21.6787334   1.6443420  47.7847960  21.6429377   0.7804886  46.7213075
  21.3138480   1.0964728  47.3591178  32.0825853   9.7207179  45.5595311
  31.3655162   9.5468041  45.0942548  32.7332590   9.4859751  45.0270797
  32.0727703   9.6602972  45.4124528  34.6673824  -1.4028232  49.3036616
  33.9965014  -0.8598530  49.1749681  35.3613574  -0.9333377  49.0618310
  34.6702691  -1.2529961  49.2492143  28.7160558  10.7368480  54.5348374
  28.4926212   9.9787309  54.9032400  28.2270401  10.7666501  53.8128814
  28.6104007  10.6290704  54.4825115  23.5285636  -2.3164829  50.2709835
  22.8097626  -1.9000696  50.5382699  23.8997999  -1.7510590  49.7201474
  23.4777568  -2.1715547  50.2292642  32.8285217  -1.6836980  56.1611831
  32.8083145  -1.8653685  57.0146610  32.8764418  -0.8124962  56.1371415
  32.8319858  -1.5820442  56.2835126  30.7731547   4.9050212  62.0860308
  30.7327402   4.2599889  61.5005464  31.5854865   4.8486829  62.3985720
  30.8874701   4.8009179  62.0457257  27.3639015  10.9568938  51.9885459
  26.9499413  10.2943068  51.5989300  28.0486389  11.1046797  51.4681153
  27.4037386  10.8809596  51.8541956  30.7304309  10.1159023  52.7409075
  30.3320592  10.2261293  51.9729895  30.1155528  10.3241089  53.3235635
  30.5803198  10.1632591  52.7140374  29.3032211  -3.2766829  45.6083215
  28.7097050  -2.9549833  45.0567782  29.3407488  -4.1225734  45.4004321
  29.2206600  -3.3542501  45.4965986  32.1790027  -3.3187325  49.0384965
  31.9503720  -3.2954623  48.1963323  32.4388104  -4.1429858  49.1579976
  32.1836215  -3.4371245  48.9310163  25.2334790  -4.7810778  50.3339161
  25.7092156  -4.4193698  49.6989342  24.7323390  -4.1254311  50.6139303
  25.2300149  -4.6316589  50.2815902  38.4646151   4.6910990  46.1252166
  38.8479757   5.4402346  46.3550263  37.6690265   4.9376810  45.8664155
  38.4039934   4.8380684  46.1209739  27.2761443  -2.6369578  43.7012545
  27.6560408  -2.6189949  42.9163659  26.5354039  -2.1915590  43.5803392
  27.2230281  -2.5687804  43.5676113  32.6287586   0.3510115  52.9424330
  33.1241251  -0.3666890  52.9028351  31.8187361   0.0480912  52.8278817
  32.5831479   0.2007761  52.9198056  28.0746197   4.2007928  45.0921335
  27.2657520   3.8774601  45.0454644  28.5821106   3.4941150  45.0249583
  28.0295864   4.0489244  45.0751629  18.7036474   1.6280121  50.8168699
  17.8381994   1.6165811  50.7051470  18.8035290   1.4410344  51.6639838
  18.5910641   1.5986182  50.9257643  34.6939404   3.1013802  55.6301459
  35.1194476   2.5788224  55.0771884  34.3296324   3.6994639  55.1090082
  34.7026007   3.1124029  55.4710469  24.3293484  11.3978020  54.3898805
  24.6440043  12.2114408  54.3976586  24.7386898  11.0128238  55.0580964
  24.4361582  11.4606722  54.4902896  31.2818004   6.8148066  51.9602616
  31.7529182   7.5288329  52.1292602  31.6178182   6.2146816  52.4962486
  31.4013119   6.8319531  52.0634992  33.3694989   8.4249380  64.1394689
  33.4791954   7.6357940  64.4951436  33.6985885   8.3355316  63.3369027
  33.4347394   8.2955233  64.0737079  31.9191950   6.6066000  58.7230309
  31.3712896   5.9823884  58.4550374  32.3804979   6.7960273  58.0074389
  31.9059160   6.5425051  58.5780740  21.6706504   5.3451128  54.0377413
  22.2751362   5.3046962  53.4091234  21.4633817   6.1922280  54.0681469
  21.7295402   5.4639131  53.9493529  31.4850277   7.6117073  55.2539650
  32.3048650   7.4680039  55.5155945  31.2044354   8.2363272  55.7956088
  31.5647020   7.6827425  55.3727590  16.9057787   4.3285746  53.9076336
  16.8082065   3.5182017  54.2166393  17.6886656   4.3077539  53.5222604
  17.0073923   4.2052836  53.8963199  41.1563612  14.3557576  52.9735457
  40.3001507  14.5166074  53.0244574  41.2031265  13.4849640  52.9940518
  41.0362723  14.2508378  52.9841523  44.4657328  20.6244102  62.5795913
  45.1724096  20.1296132  62.7082848  44.6545264  21.0653183  61.8498571
  44.5985234  20.6162452  62.4904959  44.0015433  16.4149620  55.6167109
  44.5471393  17.0934706  55.6761078  43.9432309  16.2737081  54.7568690
  44.0731347  16.4941621  55.4979169  36.9590247  28.8216275  52.4050317
  37.6027703  29.2629439  52.7946476  37.2846503  28.0169701  52.3180576
  37.1022076  28.7681470  52.4495794  30.3154552  19.9258972  50.6287795
  30.0804736  19.0926625  50.5220064  30.4540193  20.2063638  49.8148996
  30.3010214  19.8442476  50.4930150  32.6144639  12.0944703  53.5272103
  31.9949671  11.5037350  53.3582117  32.5128503  12.6856138  52.8936426
  32.5082315  12.0948786  53.4077092  39.7112535  13.8344245  47.8604566
  40.4092700  14.0132372  48.3526029  40.0264868  13.3114584  47.2374955
  39.8607872  13.7838017  47.8406576  32.3413772  15.6396985  55.7715672
  32.2172469  16.2259430  56.4065490  32.9932057  15.1457180  56.0727946
  32.4187422  15.6535789  55.9101601  39.9000470  20.2214690  47.8484357
  40.3394106  19.6131790  48.2939130  39.7505133  19.8422063  47.0769822
  39.9421936  20.0753161  47.8003524  37.3672113  18.8158702  55.0503183
  38.0121116  18.3231145  54.7314131  37.6073890  18.9583488  55.8769261
  37.4982699  18.7636144  55.1252716  39.9058205  21.6613608  54.7010075
  40.1881448  20.8665013  54.4796831  40.6344365  22.1394195  54.7215136
  40.0547768  21.6148205  54.6713090  37.8839399   9.2036642  51.9425840
  37.5542729   9.6547785  51.2729539  37.2084400   9.1252805  52.4898847
  37.7349835   9.2587777  51.9249064  45.0915806   5.1922164  50.1875451
  44.7769247   5.8825643  50.6195873  44.5742748   5.1366947  49.4860952
  44.9680277   5.2857053  50.1472400  49.8876293  20.7672970  51.6745906
  49.0573996  20.9783613  51.8379322  49.8385545  19.9410024  51.3988190
  49.7583029  20.6762576  51.6583271  36.3227848  19.0889882  45.1020329
  35.7385063  19.5939914  45.5086193  35.9197943  18.8632269  44.3616921
  36.1767152  19.1298130  45.0525355  31.8771877  24.8044643  51.9044001
  31.3939455  25.5295133  51.8803585  32.6895195  25.1020773  52.0154159
  31.9262624  24.9546997  51.9171280  37.9486031  23.5976824  54.5093815
  37.4312972  23.2384239  53.9055124  38.6460422  23.0738998  54.5199882
  37.9751612  23.4674512  54.4224074  41.6049623  24.0471638  60.4709988
  41.6932968  23.8597778  61.3188199  42.0339335  23.4009068  60.0714835
  41.6811725  23.9234646  60.5381740  39.1720082  23.3302798  59.4527651
  38.6090917  22.9175408  59.9767312  39.9341106  23.2555704  59.8720794
  39.2014531  23.2580199  59.5920651  40.7805062  15.3355534  43.5789250
  41.0201066  15.5433518  42.7664593  41.1020903  14.5313043  43.6878195
  40.8642220  15.2469635  43.4749803  36.0895353   7.2648930  47.4248788
  36.8441321   7.6327247  47.1865838  35.9122887   7.6388484  48.1927968
  36.1749831   7.3747118  47.5033676  34.7316074  25.3200819  52.0564281
  35.4336653  24.8052808  52.1137037  34.6513557  25.6474971  52.8611156
  34.8239834  25.2915045  52.1837073  49.3830251  13.4143370  55.4696327
  48.5458672  13.4845558  55.7043922  49.3518482  13.4167865  54.5970630
  49.2548534  13.4253597  55.3755875  35.7794980  15.5576406  61.1844696
  35.9515484  15.4482301  62.0329977  36.3164338  16.2030812  60.9475888
  35.8839984  15.6368408  61.2749793  34.4452417   9.6719249  44.1226901
  34.2627991   9.8891130  43.2967894  35.3078030   9.7858262  44.1785515
  34.5457007   9.7209147  44.0081388  34.0566849  21.5107171  51.5649889
  34.8955749  21.7430104  51.6123650  34.0878618  20.6411483  51.4956924
  34.1848567  21.4164118  51.5614534  34.6819552  21.9308046  55.8663194
  35.2217777  21.7879177  56.5366567  33.9989499  22.3304797  56.2347221
  34.6611706  21.9687717  56.0197616  40.1252137   6.6745660  47.1575925
  40.8538297   6.4961615  46.7114081  40.2147029   7.5163739  47.3683103
  40.2458799   6.7729538  47.1229442  44.1060437  17.6099047  51.0608219
  44.8617952  18.0430561  51.0997127  44.2122762  16.9603817  51.6342855
  44.2330608  17.5776531  51.1506244  47.1440608  21.4372324  51.8110622
  46.7075840  21.4409067  52.5669593  46.8103524  22.1177823  51.3790199
  47.0303228  21.5384780  51.8591454  41.7169682  23.4780657  63.1353772
  42.5010099  23.5911505  63.5009514  41.5166276  22.6521794  63.3312458
  41.8035707  23.3727376  63.2188158  30.0856697  18.1508337  56.0197616
  29.8195113  17.3347454  56.1788606  30.0995262  18.1961493  55.1493131
  30.0481420  18.0365242  55.9151098  47.0638091   8.4786152  54.0540050
  47.7064000   8.5484257  54.6401965  47.3161112   7.8115375  53.5519592
  47.1960223   8.3912501  54.0667329  33.9914444  12.9493422  42.6349374
  33.2772621  12.6631601  43.0471807  34.4758413  13.2890047  43.2755761
  33.9573808  12.9575071  42.7905009  34.8355304  11.6886715  58.6664624
  34.1427101  11.2183695  58.9125355  35.4515631  11.4625020  59.2406331
  34.8239834  11.5853847  58.7873776  41.8740075  25.3890759  56.7820228
  41.0755321  25.1490259  57.0394096  42.3226087  25.4405152  57.5287275
  41.8214687  25.3613150  56.9305152  50.2784955  18.1553244  50.7030259
  50.9401389  17.5943913  50.6026167  49.6376367  17.6605275  51.0282950
  50.2813822  17.9989653  50.7362599  30.4950111  18.9367117  53.3009360
  30.3125684  18.9114003  52.4481652  31.2299780  19.4066054  53.3398269
  30.5764175  19.0028479  53.1807279  46.5649785  19.1718627  50.4442248
  46.8005374  19.3163825  49.6169098  46.7139349  19.9361035  50.8373761
  46.6215589  19.3057681  50.3805852  33.5595863  15.6552119  59.8091469
  34.2835835  15.6405150  60.2956364  33.6611999  16.3647475  59.3113437
  33.6814072  15.7576823  59.8070256  40.9340812  19.1351204  64.6740416
  40.1413793  19.4494716  64.8593036  41.0489739  19.3502672  63.8361200
  40.8336223  19.2135041  64.5778751  43.6072131  15.8585195  48.9635432
  43.7018985  16.5974489  49.4175057  42.9830975  15.4302671  49.3969996
  43.5281161  15.9046516  49.0943579  41.8624605  19.0371408  59.6125713
  42.4363467  18.3998652  59.7674276  41.7839409  19.0375490  58.7435370
  41.9357840  18.9436519  59.5072123  30.4621021  15.8160617  53.4508427
  31.0394524  15.6797068  54.0900672  29.7635083  15.3596401  53.7054011
  30.4442043  15.7282883  53.5830716  37.2188324  17.4694673  51.6646910
  36.9607568  16.6366408  51.6378209  37.2736806  17.6952286  50.8239410
  37.1888101  17.3792444  51.5367047  42.2989374   9.5723124  51.7651003
  41.5945700   9.0832309  51.9234922  42.3474348   9.5845598  50.8939447
  42.2019425   9.5012772  51.6590342  36.1923036  15.0232435  52.1511805
  35.6172627  15.1824604  52.7875766  35.8158712  14.3867844  51.6880255
  36.0525848  14.9530248  52.1766363  39.8596324  13.4955785  57.0104183
  39.4710757  13.0710002  56.3556374  39.1951023  13.7437934  57.5181210
  39.7043252  13.4694506  56.9892051  49.5019593  13.2530789  49.7852013
  49.2456158  12.4410731  49.5949896  50.3448907  13.2608356  49.5582201
  49.5885619  13.1342787  49.7236830  25.9379855  14.6672510  50.1656245
  26.0240106  14.2904378  50.9469775  26.5655652  14.2932956  49.6876204
  26.0436406  14.5557992  50.2101723  43.6822686   7.1930413  54.5228167
  44.0633198   6.5108585  54.9096042  42.8785970   6.9040016  54.3403832
  43.6199148   7.0497462  54.5532223  40.9635263  17.7254389  45.2080990
  41.7775901  18.0169282  45.0963761  40.8994404  17.0714252  44.6339283
  41.0738002  17.6719584  45.1069827  47.1844753  20.4080385  59.6210566
  46.9483390  19.5768450  59.5022626  47.8287982  20.3565993  60.2065410
  47.2439424  20.2778073  59.6896459  36.8343171  21.1975907  50.3353302
  37.4717118  20.9587654  50.8805096  37.2598242  21.4013066  49.6006463
  36.9919337  21.1926917  50.3070460  31.5255813  23.4364243  54.2187606
  31.5659959  23.7079094  53.3907386  32.0850337  23.9606151  54.6345394
  31.6139159  23.5539998  54.1579494  37.4745986  16.4178196  44.6728192
  37.8591139  16.1985903  45.4244737  37.2257606  17.2441142  44.8029268
  37.4948058  16.5076343  44.8029268  37.6414526   9.6984612  64.3890776
  37.3267967  10.4684174  64.1260339  37.3204459   9.1354868  63.8043003
  37.5473445   9.7294880  64.2632126  48.2081173  20.1924834  55.6838860
  47.9026990  20.9252891  56.0452176  47.4887389  19.7862764  55.4031646
  48.0568516  20.2406567  55.6951997  39.2164643  21.6748329  52.0147088
  39.2903651  21.5123501  52.8688938  40.0334149  21.8638519  51.7707570
  39.3481001  21.6785072  52.1045114  53.9082966  16.8317835  55.0107205
  53.8407466  16.8513794  54.1409791  53.8938628  17.6748162  55.2362875
  53.8961722  16.9591569  54.9159681  32.9770400  22.0206192  49.0441532
  32.1508517  22.2667929  48.9175811  33.0382391  21.9418273  49.9103590
  32.8644566  22.0451141  49.1530476  35.1946423   8.0875133  50.0036972
  34.3268849   8.1597733  50.0694581  35.4821628   8.8897212  50.1924947
  35.1086171   8.2169280  50.0411739  44.3179312   8.2352993  58.3348294
  45.0632904   8.0462803  57.9211719  43.9016617   8.7611230  57.7762150
  44.3664286   8.2855138  58.1912867  51.6941583  15.6062221  53.2853799
  52.2449504  14.9730290  53.5250891  51.6785698  16.1377614  53.9769303
  51.7726779  15.5911169  53.4232657  38.3463974  19.4400818  57.8313692
  37.8475667  20.1516586  57.9098581  39.1564198  19.7601485  57.7931855
  38.3920080  19.5927667  57.8370261  34.6092091  18.7023771  52.0776413
  34.3205340  18.0761243  52.6122141  35.4775439  18.6444059  52.1441094
  34.6952343  18.6011316  52.1667368  45.3969989  13.8458555  52.3958395
  45.0534755  13.1248890  52.7465645  45.4963032  13.6372406  51.5536753
  45.3612032  13.7082758  52.3230075  45.8583018  20.3084259  47.9382383
  46.4241051  20.9677469  47.8540926  45.2110922  20.6533957  48.4098785
  45.8461775  20.4566200  47.9955140  37.2731032  12.2981863  63.1275991
  36.4630807  12.6039642  63.0165833  37.7505718  13.0187445  63.2428575
  37.2234510  12.4496464  63.1283062  36.1322591  21.5127584  53.3758894
  35.6103345  21.6527875  54.0610758  36.5196612  20.7538248  53.5661011
  36.1126292  21.4213108  53.5059970  33.1213775  11.5633392  47.4453848
  32.8338571  11.1934663  46.7085796  33.8084244  12.0328248  47.1837553
  33.1802673  11.5780362  47.2968924  37.5588917  18.5431603  48.7740385
  37.3631700  19.1506337  48.1800688  37.7823262  17.8499547  48.2932059
  37.5623558  18.5309128  48.6156466  35.9567447  15.4286341  48.8921253
  36.6790099  15.5927499  48.4325059  35.4775440  16.1496005  48.7860593
  35.9931178  15.5584570  48.8086867  43.9160955  11.7650139  54.2717938
  43.0772055  11.7911418  54.0356201  43.9865322  12.4120875  54.8523285
  43.8029348  11.8646265  54.3227055  33.6075064  17.8344413  57.9975393
  34.1196161  18.1128666  57.3484153  33.3211406  18.5733707  58.3638206
  33.6409927  17.9846767  57.9565271  42.3630233   8.6635516  49.0045554
  43.0656586   8.4643265  48.5265512  42.0974422   7.8911459  49.3114397
  42.4276865   8.5198482  48.9790996  47.7918478  16.9718126  51.5579180
  47.7052453  17.1273552  52.4113959  47.3368958  17.6156202  51.1838585
  47.7121735  17.0893881  51.6286287  30.6941970  12.3414605  48.2939129
  30.7958106  13.1440766  48.6220105  31.4897857  12.1401941  47.9962210
  30.8269876  12.4300504  48.2974485  37.1258789   9.9270802  58.0576435
  36.9341986   9.9425936  58.9075858  37.9757385  10.1234476  58.0343089
  37.2234511   9.9585153  58.1799729  31.5105702  12.4561783  56.0360251
  31.3691194  11.6045724  56.1604759  31.7946265  12.4990444  55.2122457
  31.5313548  12.3361533  55.9327875  41.6644294  14.2928873  50.1804739
  41.4179009  14.2124624  51.0141528  41.9929417  13.5082341  49.9867267
  41.6765538  14.1655139  50.2752262  45.5592343  21.0012233  53.9691521
  45.4206703  21.6993278  54.4740263  44.7792341  20.8460889  53.6127702
  45.4235570  21.0812399  53.9917795  43.8970428  17.3008608  60.2213902
  43.8918467  16.4288425  60.2256329  44.6031422  17.4996777  59.7483358
  44.0015432  17.2012482  60.1520938  37.6241322  17.0285592  59.5927722
  37.7684697  17.6086800  58.9570832  37.9716970  17.4061889  60.2977577
  37.6968783  17.1706296  59.6026717  36.6969077  25.2188364  56.4588749
  36.8458640  24.6591280  55.8062154  37.4769079  25.2980365  56.8421268
  36.8343170  25.1473929  56.4185698  39.2222377  25.3903007  57.7373240
  39.1466048  24.7211817  58.2924028  39.1512236  26.0920795  58.2513906
  39.2002984  25.3947914  57.8950088  40.0363016  10.1226311  58.2648258
  40.4935630  10.8550285  58.3921050  40.1119345   9.6992776  59.0235514
  40.1153986  10.1683549  58.3949334  32.2796007  10.3692131  59.3537701
  31.7438197   9.7572489  59.6698469  32.3413772  10.9440267  60.0071368
  32.2091640  10.3639058  59.4973128  44.5090342   3.3016186  52.1342101
  44.6273910   3.7592649  51.4009403  44.3352518   2.4961447  51.8478318
  44.5009513   3.2509958  51.9843034  37.9145394  12.1128415  55.1090082
  37.1241469  11.9319875  55.4307418  38.3106017  11.3355367  55.0920376
  37.8562270  11.9715876  55.1542630  43.2989080  19.7470845  52.8349528
  42.6234082  19.5156077  53.3362915  43.3081456  19.1392028  52.2091633
  43.2007585  19.6229770  52.8165680  40.4283224  14.5888674  59.5913581
  40.3642365  15.4498630  59.4633717  40.5680412  14.2720667  58.7909132
  40.4398694  14.6688841  59.4541794  39.1102318  17.2820813  53.7329784
  38.6864567  17.4825312  52.9968802  38.9347173  16.4349661  53.8454083
  39.0213199  17.1869595  53.6403474  38.6114012  28.7971326  56.1951241
  39.1009942  28.0982116  56.0126905  38.0398244  28.4995196  56.7827298
  38.5998542  28.6497550  56.2552282  34.3984763  17.7772865  49.1657756
  34.5549382  17.7119668  50.0213748  34.7385356  18.5521417  48.9536436
  34.4717998  17.8822063  49.2612350  40.9363908  17.1530748  48.0351119
  41.4779453  16.6501129  48.4989740  41.2510467  17.0995943  47.2240605
  41.0628305  17.0710169  47.9834931  44.8081015  21.3633396  65.1478031
  45.6215880  21.0918545  65.3083164  44.6475981  21.0640936  64.3438227
  44.9050964  21.2788322  65.0523437  42.0853177  12.0467053  58.0873420
  42.2995147  11.4077967  57.5336774  41.4687076  12.4912877  57.6581282
  42.0258506  12.0177197  57.9423851  30.9719025  14.9607815  49.4818523
  31.3517989  15.3792360  48.8178791  30.3974389  15.5421271  49.7887367
  30.9430349  15.1085674  49.4295264  44.2492265  13.6556118  59.0256727
  43.4368947  13.3482008  59.1069900  44.7082200  13.1755118  59.5899439
  44.1972650  13.5392610  59.1211321  43.6597520  21.5335790  49.4733671
  43.3012175  21.7050433  50.2497704  43.1736231  21.9948996  48.9161670
  43.5356217  21.6274761  49.5058940  41.4767906   5.1566989  53.0760763
  40.6061464   5.1305710  53.0294072  41.7308247   4.9844181  52.2586608
  41.3861466   5.1277132  52.9480899  38.4485885  17.2134955  42.0133906
  38.7378410  17.9899838  42.2877480  38.5357684  16.7023687  42.7148405
  38.5040141  17.2526874  42.1576403  41.3445773  15.0616190  63.8085429
  41.8145404  15.6858306  64.1953303  41.3907653  14.3933165  64.3678644
  41.4213648  15.0550870  63.9485501  38.5017046   7.1673217  54.5334233
  37.9855535   6.4753408  54.6585812  37.9410975   7.8343994  54.4796832
  38.3423560   7.1636475  54.5440299  40.5709280   7.7066177  56.3627086
  40.1841033   7.7315209  57.1440615  40.0842217   7.1407856  55.9101602
  40.4421789   7.6261928  56.4114989  44.8202259  22.4239686  60.4200872
  45.4581980  21.9299882  60.0863328  44.1776351  22.3517087  59.8353099
  44.8196486  22.3398695  60.2843227  46.5459259  14.2728832  54.9866788
  46.1186867  14.1855181  54.2314887  45.9085312  14.3806608  55.5721632
  46.3888866  14.2761492  54.9612229  40.2366421   4.5933163  58.6537345
  40.8659539   5.1293463  58.3758416  40.4052284   4.5010521  59.5050911
  40.3544216   4.6594525  58.7385874  40.0380336   9.3804357  60.9263757
  40.8653766   9.1089506  60.9822371  40.0588182  10.1765199  61.2827575
  40.1633186   9.4584111  60.9878940  44.8756516  23.1159494  57.0606229
  45.6648894  22.7648559  57.1808310  45.0500114  23.9295883  56.7982863
  45.0176797  23.1845351  57.0394097  34.6149826  16.5268220  54.1134018
  33.7737833  16.4272094  54.3212912  34.8239834  17.2963700  54.4648338
  34.5214519  16.6260263  54.1961333  32.0925393  14.1487757  51.9418768
  31.6982091  14.2230769  51.1668878  31.5365510  14.5345703  52.4927130
  31.9528205  14.2169532  51.9086428  43.7290340   7.1269051  51.6222647
  43.9339933   7.0591359  52.4679644  43.4016764   7.9327872  51.5543825
  43.7105588   7.2354991  51.7382302  38.4266491  14.4549619  53.3631615
  38.1229629  13.9005607  53.9642023  37.7245912  14.6341829  52.8759649
  38.2782701  14.3994402  53.3801321  37.4832588  11.7650139  47.9276317
  37.7592322  11.0469052  47.5153885  38.0831257  12.3635059  47.7197423
  37.6125853  11.7470510  47.8357078  36.4884842  21.6699340  58.0703713
  36.3805197  21.6801402  58.9365771  36.6980624  22.4954120  57.8808667
  36.5034953  21.7940415  58.1707805  46.9824028   7.6800815  51.1025413
  46.3698341   8.1671217  51.4879145  47.0788203   7.0044306  51.6463064
  46.9061925   7.6519124  51.2404271  40.9843109   9.4363656  46.2022912
  41.4386855   9.6074217  46.9270757  41.4583154   8.8231767  45.8020688
  41.1211429   9.3714542  46.2496674  34.5058634  18.9211982  55.5325651
  33.9146567  19.5621481  55.5028666  35.2679658  19.3449600  55.5056950
  34.5306895  19.0787821  55.5240798  34.9019257  10.0813980  56.1993668
  35.3620738  10.1552910  56.9368792  34.9475364  10.8795234  55.8493490
  34.9769812  10.2108127  56.2566425  36.5502607  10.7480675  60.7665695
  36.1588172  10.1014022  61.2021473  36.7188469  11.3392110  61.3859951
  36.5173517  10.7394943  60.9228401  50.6249056  18.7517752  56.5302929
  50.6832179  19.2004401  57.2762905  49.9915523  19.1616565  56.0933009
  50.5400351  18.8791487  56.5755477  44.2648150  24.3721294  52.9657675
  44.0667839  24.8612108  52.2713886  43.6435861  24.5762535  53.5441808
  44.1435715  24.4737832  52.9480898  38.3256129  16.1406191  47.3067919
  39.0698174  16.5280467  47.5450869  38.4716825  15.2963616  47.4708407
  38.4566714  16.0736664  47.3661889  40.2435704   7.9356450  52.3399781
  39.3971749   8.1079257  52.2141131  40.2406837   7.1305793  52.6765609
  40.1182854   7.8417479  52.3710908  41.3134004  11.7131664  53.2061839
  40.8393959  11.1873426  53.7167150  41.6852140  11.1661137  52.6376700
  41.2983893  11.5547661  53.1976986  31.6907035  13.7103171  58.5745384
  32.5532648  13.6098880  58.4882714  31.3598818  13.1297880  58.0130957
  31.7692231  13.6094797  58.4790790  47.5770735  16.7734040  54.6168619
  47.3368958  15.9340455  54.6211046  48.0562742  16.8534206  55.3409393
  47.6122919  16.6615439  54.7243421  43.2417504  12.6068219  46.2687592
  42.7140523  12.6896963  45.5793301  43.7013212  13.3486090  46.2652237
  43.2319355  12.7288881  46.1662288  49.5775922  13.5535497  52.5697878
  49.3385692  13.5131331  51.7318663  49.7409823  14.4006649  52.6963599
  49.5666226  13.6727582  52.4651360  46.1821952  17.9385446  58.5002923
  46.9056151  17.4857973  58.3213943  45.9171915  18.2190112  57.7175251
  46.2503226  17.9136415  58.3581639  35.0508821  12.5345620  55.2355803
  34.4261891  12.5464012  54.6281755  34.7154415  13.0105795  55.8847043
  34.9094312  12.6064137  55.2412371  35.2350569  10.8770738  41.2928488
  34.8863374  11.5290463  41.7560037  34.7547015  10.8627851  40.5652359
  35.1120813  10.9713792  41.2539579  31.7634496  20.5946080  56.6759567
  31.2334421  19.9038519  56.7254542  32.0359589  20.5856265  55.8472275
  31.7259218  20.4913212  56.5606983  41.9640742  18.0369324  56.6497938
  41.3497735  17.4927375  56.9446574  42.4808027  17.5233561  56.1703755
  41.9496404  17.8805734  56.6222167  41.2037039  19.1073594  54.3842237
  40.7764647  18.4823313  53.9507672  41.1961983  18.8248516  55.2101244
  41.1396180  18.9726375  54.4422065  34.3199566  14.1438768  57.4530671
  34.4793053  13.3882092  57.8582393  34.1392460  14.6929707  58.1071409
  34.3164925  14.1132581  57.6093377  42.2619869   6.3100003  58.0081461
  41.7660430   6.5063677  57.3173027  43.0188931   6.7092671  57.8370262
  42.3006694   6.3977737  57.8801597  39.5322749   9.9842349  54.5984771
  39.5565236   9.4502461  53.9097551  39.7834222   9.4759658  55.2610362
  39.5732667   9.8303253  54.5949416  27.0430338  17.2673844  54.0327915
  26.9373787  17.2220688  53.1679999  26.2930558  17.6127625  54.3142200
  26.9165941  17.3114752  53.9465245  35.8124071   8.7113167  53.9790515
  35.8522442   9.2122374  54.6925223  34.9873735   8.8023561  53.7096438
  35.6963597   8.7994984  54.0441054  37.9953684  18.2773907  62.0810810
  37.1449314  18.4145622  62.2168455  38.1581811  17.5437686  62.5258512
  37.8937547  18.1888008  62.1666409  37.2338434  15.2273677  56.2764414
  36.4030364  15.3947495  56.0699663  37.1789951  14.8509628  57.0613300
  37.1027849  15.1963408  56.3612943  35.0422217   8.7182570  61.9120825
  35.6674921   8.1744703  62.1850257  34.5872697   8.2377488  61.3428616
  35.0670478   8.5672051  61.8682419  35.6074478  13.5029269  46.8054532
  35.7477439  14.0001733  47.5083173  36.1057011  12.8015563  46.9468746
  35.7015559  13.4731247  46.9306111  35.6374700  14.3696380  44.1347109
  36.2719780  14.9656805  44.0696571  35.7200311  14.0699837  44.9492979
  35.7431251  14.4137288  44.2450196  48.6157266  16.9011857  57.0033473
  49.2075106  17.5409108  57.0351671  49.0516261  16.2034894  57.2925540
  48.7675697  16.8930207  57.0514306  37.2153683  10.3010355  44.1092551
  37.5369524   9.8213438  43.4551813  37.4780627  11.1110001  43.9183363
  37.3019709  10.3500253  43.9848043  40.4450656  21.3229229  57.6291367
  39.9375747  21.8765076  58.0731998  40.1477302  21.3837519  56.8110142
  40.3255541  21.4135541  57.5739824  42.6112838   9.6882549  56.4716030
  43.0367910   9.2355075  55.8599556  41.9969831   9.1342620  56.7480818
  42.5841484   9.5396525  56.4221055  32.1427688  16.5664220  47.4036655
  32.6519918  17.1628728  47.7847960  32.6161961  16.2990194  46.7213075
  32.2871064  16.6150036  47.3591178  41.0507061   6.1597649  49.8806607
  40.4075379   6.0095295  50.4491745  40.7106468   5.9139994  49.1155712
  40.9052138   6.1009771  49.8509622  45.6406408  14.1157076  49.3036616
  44.9697597  14.6586778  49.1749681  46.3346158  14.5851931  49.0618310
  45.6435275  14.2655347  49.2492143  39.6893141  26.2553788  54.5348374
  39.4658796  25.4972617  54.9032400  39.2002985  26.2851809  53.8128814
  39.5836590  26.1476012  54.4825115  45.8034535  10.5712959  52.2126989
  46.1562145  10.1442682  52.8872788  44.9449337  10.4863803  52.3428065
  45.7283980  10.4957700  52.3321999  34.5018220  13.2020479  50.2709835
  33.7830209  13.6184612  50.5382699  34.8730582  13.7674718  49.7201474
  34.4510152  13.3469760  50.2292642  43.8017801  13.8348328  56.1611831
  43.7815728  13.6531623  57.0146610  43.8497002  14.7060346  56.1371415
  43.8052442  13.9364866  56.2835126  41.7464131  20.4235520  62.0860308
  41.7059986  19.7785197  61.5005464  42.5587449  20.3672137  62.3985720
  41.8607284  20.3194487  62.0457257  41.7036892  25.6344331  52.7409075
  41.3053176  25.7446601  51.9729895  41.0888112  25.8426397  53.3235635
  41.5535782  25.6817899  52.7140374  40.2764794  12.2418479  45.6083215
  39.6829634  12.5635475  45.0567782  40.3140072  11.3959574  45.4004321
  40.1939184  12.1642807  45.4965986  47.2358595   5.6931371  53.1411301
  46.7289460   4.9860511  53.0732479  48.0326029   5.3624560  53.2712378
  47.2785834   5.5404523  53.1510296  43.1522611  12.1997983  49.0384965
  42.9236304  12.2230685  48.1963323  43.4120687  11.3755450  49.1579976
  43.1568799  12.0814063  48.9310163  37.4341839  14.0532456  58.6410065
  36.9220742  13.4453639  58.9995097  37.2621336  14.7689049  59.1084041
  37.3331476  14.0695756  58.7626289  32.2807554  12.4970032  61.2912427
  32.1110144  13.1571407  60.7460634  31.8373504  12.7076593  62.0124916
  32.1906888  12.6256014  61.3174057  36.2067373  10.7374530  50.3339161
  36.6824740  11.0991610  49.6989342  35.7055973  11.3930997  50.6139303
  36.2032732  10.8868718  50.2815902  41.3110910  11.9756701  61.0812321
  41.8682340  11.7470511  60.4490786  40.9871975  12.7362367  60.8047533
  41.3457320  12.0540538  60.9468818  29.1809619  15.4016897  56.5500917
  28.6336338  14.7317543  56.6681785  29.9701997  15.0346745  56.6144384
  29.2161802  15.2481884  56.5769617  39.0294027  15.0624354  62.0464328
  39.7805354  15.3776031  62.3603882  39.2216603  14.8603525  61.2198250
  39.1685441  15.0791736  61.9707724  38.2494027  12.8815729  43.7012545
  38.6292991  12.8995359  42.9163659  37.5086623  13.3269718  43.5803392
  38.1962864  12.9497504  43.5676113  45.8779317  11.1897921  49.2888123
  45.8773544  11.0346577  50.1472400  45.6735497  12.0360908  49.2329509
  45.8479095  11.2918541  49.4076063  27.9396588  14.6137705  53.7046940
  27.7618349  14.1614314  54.4301856  27.6515610  15.4163867  53.8885417
  27.8709541  14.6660263  53.8390443  43.6020169  15.8695422  52.9424330
  44.0973834  15.1518418  52.9028351  42.7919945  15.5666220  52.8278817
  43.5564062  15.7193069  52.9198056  29.6769058  17.1465429  50.8168699
  28.8114577  17.1351119  50.7051470  29.7767874  16.9595652  51.6639838
  29.5643225  17.1171490  50.9257643  45.6671988  18.6199110  55.6301459
  46.0927060  18.0973532  55.0771884  45.3028908  19.2179947  55.1090082
  45.6758591  18.6309337  55.4710469  35.3026068  26.9163327  54.3898805
  35.6172627  27.7299716  54.3976586  35.7119481  26.5313546  55.0580964
  35.4094166  26.9792030  54.4902896  42.2550587  22.3333374  51.9602616
  42.7261766  23.0473637  52.1292602  42.5910766  21.7332124  52.4962486
  42.3745703  22.3504839  52.0634992  44.3427572  23.9434688  64.1394689
  44.4524538  23.1543248  64.4951436  44.6718469  23.8540624  63.3369027
  44.4079978  23.8140541  64.0737079  39.1720082   7.1060845  58.9160711
  39.3047988   6.3091838  59.2441687  39.5565235   7.6327248  59.4958987
  39.2476411   7.0660762  59.0504214  42.8924534  22.1251308  58.7230309
  42.3445480  21.5009192  58.4550374  43.3537563  22.3145580  58.0074389
  42.8791743  22.0610359  58.5780740  42.2452438   4.0291171  55.5141805
  41.4398401   3.9188901  55.8309643  42.1159173   4.1303627  54.6571670
  42.1072570   4.0274841  55.4349845  45.7018398  10.1936663  56.1081501
  45.1181387  10.6945869  55.6959069  46.0222692   9.6866219  55.4745825
  45.6631574  10.1928498  55.9540009  38.2413197   9.1077258  46.3840176
  39.0628892   9.2775571  46.1421871  37.7782848   9.2624519  45.6606474
  38.2944360   9.1558991  46.2411821  36.8308529   7.1020020  57.1638605
  37.3752942   6.7611147  57.7542947  36.8845465   7.9605481  57.3059890
  36.9197649   7.1775279  57.2720478  32.6439088  20.8636436  54.0377413
  33.2483945  20.8232270  53.4091234  32.4366401  21.7107588  54.0681469
  32.7027985  20.9824438  53.9493529  42.4582860  23.1302381  55.2539650
  43.2781234  22.9865347  55.5155945  42.1776938  23.7548580  55.7956088
  42.5379603  23.2012733  55.3727590  27.8790370  19.8471053  53.9076336
  27.7814648  19.0367325  54.2166393  28.6619240  19.8262847  53.5222604
  27.9806507  19.7238144  53.8963199  58.9296511  30.7867233  48.2182527
  58.8990515  31.6411870  48.3900796  59.5277859  30.4862525  48.7768670
  59.0133668  30.8683729  48.3257329  52.1296195  29.8742884  52.9735457
  51.2734091  30.0351382  53.0244574  52.1763849  29.0034948  52.9940518
  52.0095307  29.7693686  52.9841523  55.4389912  36.1429409  62.5795913
  56.1456679  35.6481440  62.7082848  55.6277847  36.5838491  61.8498571
  55.5717818  36.1347760  62.4904959  54.9748016  31.9334928  55.6167109
  55.5203976  32.6120014  55.6761078  54.9164893  31.7922389  54.7568690
  55.0463931  32.0126929  55.4979169  43.5877223  27.6130011  53.5272103
  42.9682255  27.0222658  53.3582117  43.4861087  28.2041446  52.8936426
  43.4814898  27.6134094  53.4077092  50.6845119  29.3529553  47.8604566
  51.3825283  29.5317680  48.3526029  50.9997451  28.8299892  47.2374955
  50.8340456  29.3023325  47.8406576  43.3146356  31.1582293  55.7715672
  43.1905053  31.7444738  56.4065490  43.9664641  30.6642488  56.0727946
  43.3920005  31.1721097  55.9101601  48.8571982  24.7221949  51.9425840
  48.5275312  25.1733093  51.2729539  48.1816984  24.6438113  52.4898847
  48.7082419  24.7773085  51.9249064  56.0648390  20.7107472  50.1875451
  55.7501831  21.4010951  50.6195873  55.5475332  20.6552255  49.4860952
  55.9412860  20.8042361  50.1472400  60.8608877  36.2858278  51.6745906
  60.0306580  36.4968921  51.8379322  60.8118129  35.4595332  51.3988190
  60.7315612  36.1947884  51.6583271  60.3562835  28.9328678  55.4696327
  59.5191256  29.0030865  55.7043922  60.3251066  28.9353173  54.5970630
  60.2281117  28.9438905  55.3755875  46.7527564  31.0761714  61.1844696
  46.9248068  30.9667609  62.0329977  47.2896922  31.7216119  60.9475888
  46.8572568  31.1553716  61.2749793  58.1173192  36.9557632  51.8110622
  57.6808424  36.9594375  52.5669593  57.7836107  37.6363131  51.3790199
  58.0035812  37.0570088  51.8591454  52.6902266  38.9965965  63.1353772
  53.4742682  39.1096813  63.5009514  52.4898860  38.1707102  63.3312458
  52.7768291  38.8912684  63.2188158  58.0370675  23.9971460  54.0540050
  58.6796583  24.0669565  54.6401965  58.2893696  23.3300683  53.5519592
  58.1692807  23.9097809  54.0667329  45.8087887  27.2072023  58.6664624
  45.1159684  26.7369003  58.9125355  46.4248215  26.9810328  59.2406331
  45.7972417  27.1039155  58.7873776  61.2517538  33.6738552  50.7030259
  61.9133972  33.1129221  50.6026167  60.6108950  33.1790583  51.0282950
  61.2546406  33.5174961  50.7362599  57.5382369  34.6903934  50.4442248
  57.7737958  34.8349133  49.6169098  57.6871932  35.4546342  50.8373761
  57.5948172  34.8242989  50.3805852  44.5328446  31.1737427  59.8091469
  45.2568419  31.1590458  60.2956364  44.6344583  31.8832783  59.3113437
  44.6546655  31.2762131  59.8070256  59.3672826  33.5305600  48.2811852
  59.6981043  34.0633241  47.6751946  59.9405914  33.5844488  48.9373803
  59.5006505  33.6175169  48.2889633  51.9073396  34.6536512  64.6740416
  51.1146376  34.9680024  64.8593036  52.0222323  34.8687980  63.8361200
  51.8068806  34.7320349  64.5778751  52.8357189  34.5556716  59.6125713
  53.4096050  33.9183960  59.7674276  52.7571992  34.5560798  58.7435370
  52.9090423  34.4621827  59.5072123  53.2721957  25.0908432  51.7651003
  52.5678284  24.6017617  51.9234922  53.3206932  25.1030906  50.8939447
  53.1752009  25.0198079  51.6590342  50.8328908  29.0141093  57.0104183
  50.4443341  28.5895310  56.3556374  50.1683606  29.2623242  57.5181210
  50.6775836  28.9879814  56.9892051  60.4752177  28.7716097  49.7852013
  60.2188742  27.9596039  49.5949896  61.3181491  28.7793664  49.5582201
  60.5618202  28.6528095  49.7236830  54.6555269  22.7115721  54.5228167
  55.0365781  22.0293892  54.9096042  53.8518554  22.4225323  54.3403832
  54.5931731  22.5682770  54.5532223  58.1577336  35.9265693  59.6210566
  57.9215974  35.0953758  59.5022626  58.8020565  35.8751300  60.2065410
  58.2172007  35.7963381  59.6896459  48.6147110  25.2169920  64.3890776
  48.3000551  25.9869482  64.1260339  48.2937042  24.6540176  63.8043003
  48.5206029  25.2480188  64.2632126  59.1813757  35.7110142  55.6838860
  58.8759574  36.4438199  56.0452176  58.4619973  35.3048072  55.4031646
  59.0301099  35.7591875  55.6951997  64.8815549  32.3503143  55.0107205
  64.8140049  32.3699102  54.1409791  64.8671212  33.1933470  55.2362875
  64.8694306  32.4776877  54.9159681  46.1679007  23.6060441  50.0036972
  45.3001432  23.6783041  50.0694581  46.4554211  24.4082520  50.1924947
  46.0818755  23.7354588  50.0411739  55.2911896  23.7538300  58.3348294
  56.0365488  23.5648111  57.9211719  54.8749200  24.2796538  57.7762150
  55.3396870  23.8040446  58.1912867  62.6674166  31.1247529  53.2853799
  63.2182088  30.4915598  53.5250891  62.6518282  31.6562922  53.9769303
  62.7459363  31.1096477  53.4232657  49.3196557  34.9586126  57.8313692
  48.8208251  35.6701894  57.9098581  50.1296782  35.2786793  57.7931855
  49.3652664  35.1112975  57.8370261  56.3702573  29.3643863  52.3958395
  56.0267339  28.6434198  52.7465645  56.4695615  29.1557714  51.5536753
  56.3344616  29.2268066  52.3230075  48.2463615  27.8167171  63.1275991
  47.4363391  28.1224950  63.0165833  48.7238302  28.5372753  63.2428575
  48.1967094  27.9681772  63.1283062  54.8893538  27.2835447  54.2717938
  54.0504639  27.3096726  54.0356201  54.9597905  27.9306183  54.8523285
  54.7761932  27.3831573  54.3227055  44.5807647  33.3529721  57.9975393
  45.0928744  33.6313974  57.3484153  44.2943990  34.0919015  58.3638206
  44.6142510  33.5032075  57.9565271  53.3362816  24.1820824  49.0045554
  54.0389169  23.9828573  48.5265512  53.0707005  23.4096767  49.3114397
  53.4009449  24.0383790  48.9790996  58.7651062  32.4903434  51.5579180
  58.6785036  32.6458860  52.4113959  58.3101542  33.1341510  51.1838585
  58.6854319  32.6079189  51.6286287  48.0991373  25.4456110  58.0576435
  47.9074570  25.4611244  58.9075858  48.9489969  25.6419784  58.0343089
  48.1967095  25.4770461  58.1799729  42.4838286  27.9747091  56.0360251
  42.3423777  27.1231032  56.1604759  42.7678849  28.0175752  55.2122457
  42.5046132  27.8546841  55.9327875  52.6376878  29.8114181  50.1804739
  52.3911592  29.7309932  51.0141528  52.9662001  29.0267649  49.9867267
  52.6498122  29.6840447  50.2752262  56.5324927  36.5197541  53.9691521
  56.3939286  37.2178586  54.4740263  55.7524925  36.3646197  53.6127702
  56.3968154  36.5997707  53.9917795  54.8703012  32.8193916  60.2213902
  54.8651050  31.9473732  60.2256329  55.5764006  33.0182085  59.7483358
  54.9748016  32.7197790  60.1520938  48.5973905  32.5470900  59.5927722
  48.7417281  33.1272108  58.9570832  48.9449554  32.9247197  60.2977577
  48.6701367  32.6891604  59.6026717  50.7693823  31.7461068  57.3752854
  50.0217137  31.9392083  56.9701132  50.9235348  30.9206288  57.1376975
  50.6816250  31.6526180  57.2798260  51.0095600  25.6411619  58.2648258
  51.4668214  26.3735593  58.3921050  51.0851928  25.2178084  59.0235514
  51.0886569  25.6868857  58.3949334  43.2528591  25.8877439  59.3537701
  42.7170780  25.2757797  59.6698469  43.3146356  26.4625575  60.0071368
  43.1824224  25.8824366  59.4973128  55.4822926  18.8201494  52.1342101
  55.6006494  19.2777957  51.4009403  55.3085101  18.0146755  51.8478318
  55.4742097  18.7695266  51.9843034  48.8877978  27.6313723  55.1090082
  48.0974052  27.4505183  55.4307418  49.2838600  26.8540675  55.0920376
  48.8294854  27.4901184  55.1542630  54.2721664  35.2656153  52.8349528
  53.5966666  35.0341385  53.3362915  54.2814040  34.6577336  52.2091633
  54.1740168  35.1415078  52.8165680  51.4015808  30.1073982  59.5913581
  51.3374949  30.9683938  59.4633717  51.5412996  29.7905975  58.7909132
  51.4131278  30.1874149  59.4541794  55.7813599  36.8818704  65.1478031
  56.5948464  36.6103853  65.3083164  55.6208565  36.5826244  64.3438227
  55.8783547  36.7973630  65.0523437  53.0585761  27.5652361  58.0873420
  53.2727730  26.9263275  57.5336774  52.4419660  28.0098185  57.6581282
  52.9991090  27.5362505  57.9423851  55.2224849  29.1741426  59.0256727
  54.4101530  28.8667316  59.1069900  55.6814783  28.6940426  59.5899439
  55.1705233  29.0577918  59.1211321  52.4500489  20.6752297  53.0760763
  51.5794047  20.6491018  53.0294072  52.7040831  20.5029489  52.2586608
  52.3594049  20.6462440  52.9480899  52.3178356  30.5801497  63.8085429
  52.7877987  31.2043614  64.1953303  52.3640236  29.9118473  64.3678644
  52.3946232  30.5736178  63.9485501  49.4749630  22.6858525  54.5334233
  48.9588118  21.9938716  54.6585812  48.9143559  23.3529302  54.4796832
  49.3156143  22.6821783  54.5440299  51.5441863  23.2251485  56.3627086
  51.1573616  23.2500516  57.1440615  51.0574801  22.6593164  55.9101602
  51.4154372  23.1447236  56.4114989  55.7934843  37.9424994  60.4200872
  56.4314563  37.4485190  60.0863328  55.1508934  37.8702394  59.8353099
  55.7929069  37.8584002  60.2843227  57.5191843  29.7914140  54.9866788
  57.0919451  29.7040489  54.2314887  56.8817896  29.8991915  55.5721632
  57.3621450  29.7946800  54.9612229  51.2099005  20.1118470  58.6537345
  51.8392123  20.6478771  58.3758416  51.3784868  20.0195829  59.5050911
  51.3276800  20.1779833  58.7385874  51.0112920  24.8989665  60.9263757
  51.8386349  24.6274814  60.9822371  51.0320766  25.6950507  61.2827575
  51.1365770  24.9769419  60.9878940  55.8489099  38.6344802  57.0606229
  56.6381477  38.2833867  57.1808310  56.0232697  39.4481191  56.7982863
  55.9909381  38.7030659  57.0394097  54.7022923  22.6454359  51.6222647
  54.9072517  22.5776667  52.4679644  54.3749347  23.4513180  51.5543825
  54.6838171  22.7540299  51.7382302  49.3999075  29.9734927  53.3631615
  49.0962212  29.4190915  53.9642023  48.6978495  30.1527137  52.8759649
  49.2515284  29.9179709  53.3801321  57.9556611  23.1986123  51.1025413
  57.3430925  23.6856525  51.4879145  58.0520786  22.5229614  51.6463064
  57.8794509  23.1704432  51.2404271  51.9575692  24.9548964  46.2022912
  52.4119439  25.1259525  46.9270757  52.4315738  24.3417075  45.8020688
  52.0944012  24.8899850  46.2496674  45.8751840  25.5999288  56.1993668
  46.3353322  25.6738217  56.9368792  45.9207947  26.3980542  55.8493490
  45.9502396  25.7293435  56.2566425  47.5235190  26.2665983  60.7665695
  47.1320755  25.6199330  61.2021473  47.6921053  26.8577418  61.3859951
  47.4906100  26.2580251  60.9228401  61.5981639  34.2703060  56.5302929
  61.6564763  34.7189709  57.2762905  60.9648107  34.6801873  56.0933009
  61.5132934  34.3976795  56.5755477  55.2380734  39.8906602  52.9657675
  55.0400422  40.3797416  52.2713886  54.6168445  40.0947843  53.5441808
  55.1168298  39.9923140  52.9480898  51.2168288  23.4541758  52.3399781
  50.3704333  23.6264565  52.2141131  51.2139420  22.6491101  52.6765609
  51.0915438  23.3602787  52.3710908  52.2866588  27.2316972  53.2061839
  51.8126542  26.7058734  53.7167150  52.6584724  26.6846445  52.6376700
  52.2716477  27.0732969  53.1976986  42.6639618  29.2288479  58.5745384
  43.5265231  29.1284188  58.4882714  42.3331401  28.6483188  58.0130957
  42.7424815  29.1280105  58.4790790  58.5503319  32.2919348  54.6168619
  58.3101542  31.4525763  54.6211046  59.0295326  32.3719514  55.3409393
  58.5855502  32.1800747  54.7243421  54.2150088  28.1253527  46.2687592
  53.6873106  28.2082271  45.5793301  54.6745796  28.8671398  46.2652237
  54.2051938  28.2474189  46.1662288  60.5508506  29.0720805  52.5697878
  60.3118276  29.0316639  51.7318663  60.7142407  29.9191957  52.6963599
  60.5398809  29.1912890  52.4651360  57.1554536  33.4570754  58.5002923
  57.8788735  33.0043281  58.3213943  56.8904498  33.7375420  57.7175251
  57.2235809  33.4321723  58.3581639  46.0241404  28.0530928  55.2355803
  45.3994474  28.0649320  54.6281755  45.6886999  28.5291103  55.8847043
  45.8826896  28.1249445  55.2412371  52.9373325  33.5554632  56.6497938
  52.3230318  33.0112683  56.9446574  53.4540610  33.0418869  56.1703755
  52.9228988  33.3991041  56.6222167  45.2932150  29.6624075  57.4530671
  45.4525636  28.9067400  57.8582393  45.1125043  30.2115015  58.1071409
  45.2897509  29.6317889  57.6093377  53.2352453  21.8285311  58.0081461
  52.7393014  22.0248985  57.3173027  53.9921515  22.2277979  57.8370262
  53.2739277  21.9163045  57.8801597  50.5055332  25.5027657  54.5984771
  50.5297819  24.9687769  53.9097551  50.7566806  24.9944966  55.2610362
  50.5465251  25.3488561  54.5949416  46.7856654  24.2298475  53.9790515
  46.8255026  24.7307682  54.6925223  45.9606319  24.3208869  53.7096438
  46.6696180  24.3180292  54.0441054  48.9686267  33.7959215  62.0810810
  48.1181898  33.9330929  62.2168455  49.1314395  33.0622993  62.5258512
  48.8670131  33.7073316  62.1666409  48.2071018  30.7458985  56.2764414
  47.3762947  30.9132803  56.0699663  48.1522535  30.3694936  57.0613300
  48.0760433  30.7148716  56.3612943  46.0154801  24.2367878  61.9120825
  46.6407504  23.6930011  62.1850257  45.5605281  23.7562796  61.3428616
  46.0403062  24.0857359  61.8682419  59.5889850  32.4197165  57.0033473
  60.1807690  33.0594416  57.0351671  60.0248844  31.7220202  57.2925540
  59.7408281  32.4115515  57.0514306  51.4183240  36.8414537  57.6291367
  50.9108331  37.3950384  58.0731998  51.1209886  36.9022827  56.8110142
  51.2988125  36.9320849  57.5739824  53.5845422  25.2067857  56.4716030
  54.0100493  24.7540383  55.8599556  52.9702415  24.6527928  56.7480818
  53.5574067  25.0581833  56.4221055  52.0239645  21.6782957  49.8806607
  51.3807963  21.5280603  50.4491745  51.6839052  21.4325302  49.1155712
  51.8784722  21.6195079  49.8509622  56.6138991  29.6342384  49.3036616
  55.9430181  30.1772086  49.1749681  57.3078741  30.1037239  49.0618310
  56.6167859  29.7840655  49.2492143  56.7767119  26.0898267  52.2126989
  57.1294729  25.6627990  52.8872788  55.9181920  26.0049111  52.3428065
  56.7016563  26.0143008  52.3321999  54.7750384  29.3533636  56.1611831
  54.7548312  29.1716931  57.0146610  54.8229585  30.2245654  56.1371415
  54.7785025  29.4550174  56.2835126  51.2497378  27.7603787  45.6083215
  50.6562217  28.0820783  45.0567782  51.2872656  26.9144882  45.4004321
  51.1671767  27.6828115  45.4965986  58.2091179  21.2116679  53.1411301
  57.7022043  20.5045819  53.0732479  59.0058612  20.8809868  53.2712378
  58.2518418  21.0589830  53.1510296  54.1255195  27.7183291  49.0384965
  53.8968888  27.7415993  48.1963323  54.3853271  26.8940758  49.1579976
  54.1301383  27.5999371  48.9310163  48.4074423  29.5717764  58.6410065
  47.8953326  28.9638947  58.9995097  48.2353919  30.2874357  59.1084041
  48.3064060  29.5881064  58.7626289  43.2540138  28.0155340  61.2912427
  43.0842728  28.6756715  60.7460634  42.8106088  28.2261901  62.0124916
  43.1639471  28.1441322  61.3174057  47.1799957  26.2559838  50.3339161
  47.6557323  26.6176917  49.6989342  46.6788557  26.9116305  50.6139303
  47.1765316  26.4054026  50.2815902  60.4111319  35.7281606  46.1252166
  60.7944924  36.4772962  46.3550263  59.6155432  35.9747425  45.8664155
  60.3505101  35.8751300  46.1209739  52.2843493  27.4942009  61.0812321
  52.8414923  27.2655819  60.4490786  51.9604558  28.2547675  60.8047533
  52.3189903  27.5725846  60.9468818  40.1542202  30.9202205  56.5500917
  39.6068922  30.2502851  56.6681785  40.9434580  30.5532053  56.6144384
  40.1894386  30.7667192  56.5769617  50.0026611  30.5809662  62.0464328
  50.7537938  30.8961339  62.3603882  50.1949187  30.3788833  61.2198250
  50.1418025  30.5977044  61.9707724  56.8511901  26.7083229  49.2888123
  56.8506127  26.5531885  50.1472400  56.6468081  27.5546216  49.2329509
  56.8211679  26.8103849  49.4076063  38.9129172  30.1323013  53.7046940
  38.7350933  29.6799622  54.4301856  38.6248194  30.9349174  53.8885417
  38.8442125  30.1845571  53.8390443  54.5752753  31.3880730  52.9424330
  55.0706418  30.6703725  52.9028351  53.7652528  31.0851528  52.8278817
  54.5296646  31.2378377  52.9198056  56.6404572  34.1384418  55.6301459
  57.0659643  33.6158840  55.0771884  56.2761491  34.7365255  55.1090082
  56.6491174  34.1494645  55.4710469  55.3160156  39.4619996  64.1394689
  55.4257121  38.6728556  64.4951436  55.6451052  39.3725932  63.3369027
  55.3812561  39.3325848  64.0737079  50.1452666  22.6246153  58.9160711
  50.2780572  21.8277146  59.2441687  50.5297819  23.1512556  59.4958987
  50.2208995  22.5846069  59.0504214  53.8657117  37.6436616  58.7230309
  53.3178063  37.0194500  58.4550374  54.3270146  37.8330888  58.0074389
  53.8524327  37.5795667  58.5780740  53.2185021  19.5476479  55.5141805
  52.4130985  19.4374209  55.8309643  53.0891757  19.6488935  54.6571670
  53.0805154  19.5460149  55.4349845  56.6750982  25.7121971  56.1081501
  56.0913971  26.2131177  55.6959069  56.9955276  25.2051527  55.4745825
  56.6364157  25.7113806  55.9540009  47.8041113  22.6205328  57.1638605
  48.3485526  22.2796455  57.7542947  47.8578049  23.4790789  57.3059890
  47.8930232  22.6960587  57.2720478  53.4315444  38.6487689  55.2539650
  54.2513818  38.5050655  55.5155945  53.1509521  39.2733888  55.7956088
  53.5112187  38.7198041  55.3727590  69.9029094  46.3052541  48.2182527
  69.8723098  47.1597177  48.3900796  70.5010443  46.0047833  48.7768670
  69.9866252  46.3869037  48.3257329  63.1028779  45.3928192  52.9735457
  62.2466674  45.5536690  53.0244574  63.1496433  44.5220256  52.9940518
  62.9827890  45.2878994  52.9841523  57.4869919  54.9290910  48.7372689
  56.7352818  54.5506448  48.5088734  57.9355930  54.9609343  47.9891499
  57.4419585  54.8776517  48.5930191  66.4122495  51.6614717  62.5795913
  67.1189263  51.1666748  62.7082848  66.6010431  52.1023799  61.8498571
  66.5450401  51.6533068  62.4904959  62.9394879  55.3516279  44.1658236
  62.6046247  56.0293201  43.7302458  63.4521749  54.9621590  43.5775107
  62.9660460  55.3940857  44.0145027  62.4799170  57.3030548  50.1069347
  62.8638549  57.8717446  49.5674123  62.4158311  56.5780058  49.6275163
  62.5272597  57.2806011  49.9563210  65.9480600  47.4520236  55.6167109
  66.4936560  48.1305322  55.6761078  65.8897476  47.3107697  54.7568690
  66.0196514  47.5312237  55.4979169  59.0654675  54.9409302  51.0035461
  59.1665038  54.1309656  51.3132589  58.4696420  54.8466248  50.3735140
  58.9927213  54.8074330  50.9561700  67.7245669  48.8804843  46.4900837
  67.6085195  49.6312529  46.9192975  68.5201555  48.6228796  46.7396924
  67.8250258  48.9539690  46.5904928  58.9055414  59.8586891  52.4050317
  59.5492870  60.3000055  52.7946476  59.2311670  59.0540317  52.3180576
  59.0487243  59.8052086  52.4495794  59.6075994  52.8698866  47.7770179
  59.9291835  53.4104073  47.1731487  60.2548091  52.2995637  47.9092469
  59.7502049  52.8658041  47.7077214  61.8465638  51.2585306  47.8484357
  62.2859273  50.6502406  48.2939130  61.6970300  50.8792679  47.0769822
  61.8887103  51.1123777  47.8003524  59.3137281  49.8529318  55.0503183
  59.9586283  49.3601761  54.7314131  59.5539058  49.9954104  55.8769261
  59.4447866  49.8006760  55.1252716  61.8523372  52.6984223  54.7010075
  62.1346615  51.9035629  54.4796831  62.5809532  53.1764811  54.7215136
  62.0012936  52.6518820  54.6713090  59.8304566  40.2407257  51.9425840
  59.5007896  40.6918401  51.2729539  59.1549568  40.1623421  52.4898847
  59.6815002  40.2958393  51.9249064  65.4474974  49.6112487  44.8015126
  65.3626269  50.4673454  44.9464695  65.9359357  49.3356811  45.4697285
  65.5063871  49.6969808  44.9217208  67.0380974  36.2292780  50.1875451
  66.7234415  36.9196259  50.6195873  66.5207915  36.1737563  49.4860952
  66.9145444  36.3227669  50.1472400  66.3793407  46.2297281  46.3012861
  65.8504879  46.4456915  46.9610168  66.9018427  46.9233420  46.2213831
  66.3781860  46.3640418  46.3868461  71.8341460  51.8043586  51.6745906
  71.0039163  52.0154229  51.8379322  71.7850713  50.9780640  51.3988190
  71.7048196  51.7133192  51.6583271  53.8237044  55.8415259  51.9044001
  53.3404622  56.5665749  51.8803585  54.6360362  56.1391389  52.0154159
  53.8727791  55.9917613  51.9171280  59.8951198  54.6347440  54.5093815
  59.3778139  54.2754855  53.9055124  60.5925589  54.1109614  54.5199882
  59.9216779  54.5045128  54.4224074  63.5514790  55.0842254  60.4709988
  63.6398136  54.8968394  61.3188199  63.9804502  54.4379683  60.0714835
  63.6276892  54.9605262  60.5381740  61.1185250  54.3673414  59.4527651
  60.5556084  53.9546024  59.9767312  61.8806273  54.2926320  59.8720794
  61.1479698  54.2950814  59.5920651  56.6781241  56.3571435  52.0564281
  57.3801820  55.8423424  52.1137037  56.5978724  56.6845586  52.8611156
  56.7705001  56.3285661  52.1837073  71.3295419  44.4513986  55.4696327
  70.4923840  44.5216173  55.7043922  71.2983649  44.4538481  54.5970630
  71.2013701  44.4624213  55.3755875  57.7260148  46.5947022  61.1844696
  57.8980651  46.4852917  62.0329977  58.2629505  47.2401427  60.9475888
  57.8305152  46.6739024  61.2749793  56.0032016  52.5477787  51.5649889
  56.8420916  52.7800720  51.6123650  56.0343786  51.6782098  51.4956924
  56.1313734  52.4534733  51.5614534  56.6284719  52.9678662  55.8663194
  57.1682944  52.8249793  56.5366567  55.9454666  53.3675413  56.2347221
  56.6076873  53.0058333  56.0197616  62.0717304  37.7116275  47.1575925
  62.8003464  37.5332230  46.7114081  62.1612197  38.5534355  47.3683103
  62.1923966  37.8100154  47.1229442  66.0525604  48.6469663  51.0608219
  66.8083119  49.0801177  51.0997127  66.1587929  47.9974433  51.6342855
  66.1795775  48.6147147  51.1506244  69.0905775  52.4742940  51.8110622
  68.6541007  52.4779683  52.5669593  68.7568691  53.1548439  51.3790199
  68.9768395  52.5755396  51.8591454  63.6634849  54.5151273  63.1353772
  64.4475266  54.6282121  63.5009514  63.4631444  53.6892410  63.3312458
  63.7500874  54.4097992  63.2188158  69.0103258  39.5156768  54.0540050
  69.6529167  39.5854873  54.6401965  69.2626279  38.8485991  53.5519592
  69.1425390  39.4283117  54.0667329  63.8205242  56.4261375  56.7820228
  63.0220488  56.1860875  57.0394096  64.2691254  56.4775768  57.5287275
  63.7679854  56.3983766  56.9305152  72.2250122  49.1923860  50.7030259
  72.8866556  48.6314528  50.6026167  71.5841534  48.6975891  51.0282950
  72.2278989  49.0360269  50.7362599  63.1126929  52.4893991  43.0111182
  63.5278078  52.1579015  42.3195678  62.2818859  52.2562894  42.8831319
  63.0514938  52.4065247  42.8902030  68.5114952  50.2089242  50.4442248
  68.7470542  50.3534441  49.6169098  68.6604516  50.9731650  50.8373761
  68.5680756  50.3428297  50.3805852  70.3405409  49.0490908  48.2811852
  70.6713626  49.5818548  47.6751946  70.9138497  49.1029796  48.9373803
  70.4739088  49.1360477  48.2889633  62.8805979  50.1721820  64.6740416
  62.0878960  50.4865332  64.8593036  62.9954906  50.3873288  63.8361200
  62.7801390  50.2505657  64.5778751  65.5537298  46.8955811  48.9635432
  65.6484153  47.6345105  49.4175057  64.9296142  46.4673286  49.3969996
  65.4746328  46.9417132  49.0943579  63.8089772  50.0742024  59.6125713
  64.3828634  49.4369268  59.7674276  63.7304576  50.0746106  58.7435370
  63.8823007  49.9807135  59.5072123  65.8060320  48.7404551  42.1972384
  65.7240482  48.8106738  43.0627371  66.4440040  49.3034295  42.0056124
  65.8880157  48.8343522  42.2962333  59.1653491  48.5065289  51.6646910
  58.9072735  47.6737024  51.6378209  59.2201974  48.7322902  50.8239410
  59.1353269  48.4163060  51.5367047  64.2454541  40.6093739  51.7651003
  63.5410868  40.1202925  51.9234922  64.2939515  40.6216214  50.8939447
  64.1484592  40.5383387  51.6590342  61.8061492  44.5326401  57.0104183
  61.4175924  44.1080618  56.3556374  61.1416190  44.7808550  57.5181210
  61.6508419  44.5065122  56.9892051  71.4484761  44.2901405  49.7852013
  71.1921325  43.4781347  49.5949896  72.2914075  44.2978972  49.5582201
  71.5350786  44.1713403  49.7236830  65.6287853  38.2301029  54.5228167
  66.0098365  37.5479200  54.9096042  64.8251137  37.9410631  54.3403832
  65.5664315  38.0868078  54.5532223  69.1309920  51.4451001  59.6210566
  68.8948557  50.6139066  59.5022626  69.7753149  51.3936608  60.2065410
  69.1904591  51.3148689  59.6896459  58.7808338  52.2346523  50.3353302
  59.4182285  51.9958270  50.8805096  59.2063410  52.4383681  49.6006463
  58.9384504  52.2297533  50.3070460  53.4720980  54.4734859  54.2187606
  53.5125126  54.7449710  53.3907386  54.0315504  54.9976767  54.6345394
  53.5604326  54.5910614  54.1579494  59.5879693  40.7355228  64.3890776
  59.2733135  41.5054790  64.1260339  59.2669626  40.1725484  63.8043003
  59.4938613  40.7665496  64.2632126  70.1546341  51.2295450  55.6838860
  69.8492158  51.9623507  56.0452176  69.4352556  50.8233379  55.4031646
  70.0033683  51.2777183  55.6951997  61.1629810  52.7118945  52.0147088
  61.2368818  52.5494117  52.8688938  61.9799316  52.9009135  51.7707570
  61.2946169  52.7155688  52.1045114  75.8548133  47.8688451  55.0107205
  75.7872633  47.8884410  54.1409791  75.8403795  48.7118778  55.2362875
  75.8426889  47.9962185  54.9159681  66.2644479  39.2723608  58.3348294
  67.0098071  39.0833419  57.9211719  65.8481784  39.7981846  57.7762150
  66.3129453  39.3225754  58.1912867  59.7034396  55.6753688  46.7460562
  59.9932694  55.2842670  46.0219788  60.4337877  55.8570393  47.1865837
  59.8541280  55.6447502  46.7043369  73.6406750  46.6432837  53.2853799
  74.1914672  46.0100906  53.5250891  73.6250865  47.1748230  53.9769303
  73.7191946  46.6281785  53.4232657  60.2929141  50.4771434  57.8313692
  59.7940835  51.1887202  57.9098581  61.1029365  50.7972101  57.7931855
  60.3385248  50.6298283  57.8370261  57.6440311  57.6521071  49.8120712
  57.4240607  57.3618425  50.6047379  57.4234833  56.9936026  49.2838624
  57.5787905  57.5120779  49.8509620  67.3435156  44.8829171  52.3958395
  66.9999922  44.1619506  52.7465645  67.4428199  44.6743022  51.5536753
  67.3077199  44.7453374  52.3230075  59.8108267  59.0250461  48.5951404
  60.4632325  58.4926903  48.8242430  59.1133876  58.6719113  48.9819278
  59.8038985  58.8939984  48.6863572  67.8048185  51.3454875  47.9382383
  68.3706218  52.0048085  47.8540926  67.1576089  51.6904573  48.4098785
  67.7926942  51.4936816  47.9955140  59.2196199  43.3352479  63.1275991
  58.4095975  43.6410258  63.0165833  59.6970886  44.0558061  63.2428575
  59.1699678  43.4867080  63.1283062  58.0787758  52.5498200  53.3758894
  57.5568512  52.6898491  54.0610758  58.4661779  51.7908864  53.5661011
  58.0591459  52.4583723  53.5059970  64.2754763  54.2893659  47.3619462
  64.0341439  53.5561519  46.9546527  64.4556096  54.8380516  46.7085796
  64.2662387  54.2616050  47.2049685  65.8626122  42.8020755  54.2717938
  65.0237222  42.8282034  54.0356201  65.9330489  43.4491491  54.8523285
  65.7494515  42.9016881  54.3227055  64.3095400  39.7006132  49.0045554
  65.0121753  39.5013881  48.5265512  64.0439589  38.9282075  49.3114397
  64.3742032  39.5569098  48.9790996  69.7383646  48.0088742  51.5579180
  69.6517620  48.1644168  52.4113959  69.2834125  48.6526818  51.1838585
  69.6586902  48.1264497  51.6286287  59.0723956  40.9641418  58.0576435
  58.8807153  40.9796552  58.9075858  59.9222552  41.1605092  58.0343089
  59.1699678  40.9955769  58.1799729  63.6109462  45.3299489  50.1804739
  63.3644176  45.2495240  51.0141528  63.9394585  44.5452957  49.9867267
  63.6230705  45.2025755  50.2752262  67.5057510  52.0382849  53.9691521
  67.3671870  52.7363894  54.4740263  66.7257508  51.8831505  53.6127702
  67.3700737  52.1183015  53.9917795  65.8435596  48.3379224  60.2213902
  65.8383634  47.4659040  60.2256329  66.5496589  48.5367393  59.7483358
  65.9480600  48.2383098  60.1520938  59.5706489  48.0656208  59.5927722
  59.7149865  48.6457416  58.9570832  59.9182137  48.4432504  60.2977577
  59.6433950  48.2076912  59.6026717  61.7426406  47.2646376  57.3752854
  60.9949720  47.4577391  56.9701132  61.8967931  46.4391596  57.1376975
  61.6548834  47.1711488  57.2798260  58.6434244  56.2558980  56.4588749
  58.7923808  55.6961895  55.8062154  59.4234246  56.3350981  56.8421268
  58.7808337  56.1844545  56.4185698  69.0010883  51.3961102  44.7308020
  68.6217692  50.6098240  44.7237309  68.3377129  51.9447959  44.5879664
  68.8469358  51.3605926  44.7088817  61.1687544  56.4273622  57.7373240
  61.0931216  55.7582433  58.2924028  61.0977404  57.1291411  58.2513906
  61.1468151  56.4318530  57.8950088  61.9828183  41.1596927  58.2648258
  62.4400797  41.8920901  58.3921050  62.0584512  40.7363392  59.0235514
  62.0619153  41.2054165  58.3949334  66.4555509  34.3386802  52.1342101
  66.5739077  34.7963265  51.4009403  66.2817685  33.5332063  51.8478318
  66.4474680  34.2880574  51.9843034  61.8257791  54.9474621  48.5696846
  62.5907682  54.6784265  48.2479510  61.7235881  54.4624632  49.2866909
  61.9239287  54.8364186  48.6276674  59.8610561  43.1499031  55.1090082
  59.0706636  42.9690491  55.4307418  60.2571184  42.3725983  55.0920376
  59.8027437  43.0086492  55.1542630  64.3476452  51.9786805  40.5496795
  65.1149437  52.0386930  40.1402647  63.9007761  51.4067247  40.0653114
  64.3949879  51.9023381  40.4174506  65.2454247  50.7841461  52.8349528
  64.5699249  50.5526693  53.3362915  65.2546624  50.1762644  52.2091633
  65.1472752  50.6600386  52.8165680  62.3748391  45.6259290  59.5913581
  62.3107533  46.4869246  59.4633717  62.5145579  45.3091283  58.7909132
  62.3863861  45.7059457  59.4541794  67.2470982  53.6406593  45.0659706
  67.3290819  54.4473580  44.7421156  67.7320724  53.6602553  45.7900479
  67.3308140  53.7627256  45.1246604  61.0567485  48.3191429  53.7329784
  60.6329734  48.5195928  52.9968802  60.8812340  47.4720277  53.8454083
  60.9678366  48.2240211  53.6403474  60.5579179  59.8341942  56.1951241
  61.0475109  59.1352731  56.0126905  59.9863411  59.5365812  56.7827298
  60.5463709  59.6868166  56.2552282  66.7546182  52.4004012  65.1478031
  67.5681048  52.1289160  65.3083164  66.5941149  52.1011552  64.3438227
  66.8516131  52.3158938  65.0523437  61.0515525  53.5818716  45.3191147
  61.1208345  52.7233254  45.4584148  61.8303980  53.7990597  44.9910172
  61.1768375  53.4871580  45.2908305  64.0318344  43.0837669  58.0873420
  64.2460314  42.4448583  57.5336774  63.4152243  43.5283493  57.6581282
  63.9723674  43.0547812  57.9423851  65.4423012  56.0056417  49.5327641
  65.0502804  55.7023132  48.8150507  65.5976084  56.8425507  49.3432594
  65.4076602  56.0840254  49.3984138  66.1957432  44.6926734  59.0256727
  65.3834114  44.3852624  59.1069900  66.6547367  44.2125734  59.5899439
  66.1437817  44.5763226  59.1211321  65.6062687  52.5706406  49.4733671
  65.2477342  52.7421049  50.2497704  65.1201398  53.0319612  48.9161670
  65.4821384  52.6645377  49.5058940  63.4233073  36.1937604  53.0760763
  62.5526631  36.1676326  53.0294072  63.6773414  36.0214797  52.2586608
  63.3326633  36.1647748  52.9480899  63.2910940  46.0986805  63.8085429
  63.7610571  46.7228922  64.1953303  63.3372820  45.4303781  64.3678644
  63.3678816  46.0921486  63.9485501  60.4482213  38.2043833  54.5334233
  59.9320702  37.5124024  54.6585812  59.8876142  38.8714610  54.4796832
  60.2888727  38.2007091  54.5440299  62.5174447  38.7436793  56.3627086
  62.1306200  38.7685824  57.1440615  62.0307384  38.1778472  55.9101602
  62.3886956  38.6632544  56.4114989  66.7667426  53.4610302  60.4200872
  67.4047147  52.9670498  60.0863328  66.1241518  53.3887702  59.8353099
  66.7661653  53.3769310  60.2843227  68.4924426  45.3099448  54.9866788
  68.0652034  45.2225796  54.2314887  67.8550479  45.4177223  55.5721632
  68.3354034  45.3132108  54.9612229  62.1831589  35.6303778  58.6537345
  62.8124707  36.1664078  58.3758416  62.3517451  35.5381137  59.5050911
  62.3009383  35.6965141  58.7385874  61.9845503  40.4174973  60.9263757
  62.8118933  40.1460122  60.9822371  62.0053350  41.2135815  61.2827575
  62.1098354  40.4954727  60.9878940  66.8221683  54.1530110  57.0606229
  67.6114061  53.8019175  57.1808310  66.9965281  54.9666499  56.7982863
  66.9641965  54.2215967  57.0394097  65.6755507  38.1639667  51.6222647
  65.8805100  38.0961975  52.4679644  65.3481931  38.9698488  51.5543825
  65.6570755  38.2725607  51.7382302  60.3731658  45.4920235  53.3631615
  60.0694796  44.9376223  53.9642023  59.6711079  45.6712445  52.8759649
  60.2247868  45.4365017  53.3801321  58.4350009  52.7069956  58.0703713
  58.3270364  52.7172018  58.9365771  58.6445791  53.5324736  57.8808667
  58.4500120  52.8311031  58.1707805  68.9289195  38.7171431  51.1025413
  68.3163508  39.2041833  51.4879145  69.0253370  38.0414922  51.6463064
  68.8527092  38.6889740  51.2404271  56.4523801  49.9582598  55.5325651
  55.8611734  50.5992096  55.5028666  57.2144825  50.3820215  55.5056950
  56.4772062  50.1158437  55.5240798  56.8484424  41.1184596  56.1993668
  57.3085906  41.1923525  56.9368792  56.8940531  41.9165850  55.8493490
  56.9234979  41.2478743  56.2566425  58.4967774  41.7851291  60.7665695
  58.1053339  41.1384638  61.2021473  58.6653636  42.3762726  61.3859951
  58.4638684  41.7765559  60.9228401  72.5714223  49.7888368  56.5302929
  72.6297346  50.2375017  57.2762905  71.9380690  50.1987181  56.0933009
  72.4865518  49.9162103  56.5755477  66.2113317  55.4091910  52.9657675
  66.0133006  55.8982724  52.2713886  65.5901028  55.6133151  53.5441808
  66.0900882  55.5108448  52.9480898  62.1900871  38.9727066  52.3399781
  61.3436916  39.1449873  52.2141131  62.1872004  38.1676409  52.6765609
  62.0648021  38.8788094  52.3710908  63.2599172  42.7502280  53.2061839
  62.7859126  42.2244042  53.7167150  63.6317307  42.2031753  52.6376700
  63.2449061  42.5918277  53.1976986  69.5235902  47.8104656  54.6168619
  69.2834125  46.9711071  54.6211046  70.0027909  47.8904822  55.3409393
  69.5588086  47.6986055  54.7243421  65.1882671  43.6438835  46.2687592
  64.6605690  43.7267578  45.5793301  65.6478379  44.3856706  46.2652237
  65.1784522  43.7659497  46.1662288  71.5241089  44.5906113  52.5697878
  71.2850859  44.5501947  51.7318663  71.6874990  45.4377265  52.6963599
  71.5131393  44.7098198  52.4651360  68.1287119  48.9756062  58.5002923
  68.8521318  48.5228589  58.3213943  67.8637082  49.2560728  57.7175251
  68.1968393  48.9507031  58.3581639  64.7419754  52.2142398  45.3997249
  65.4653953  52.6800511  45.2561823  64.3020345  52.2816008  44.6494846
  64.7835446  52.2926235  45.2682031  63.9105909  49.0739940  56.6497938
  63.2962902  48.5297991  56.9446574  64.4273194  48.5604177  56.1703755
  63.8961571  48.9176349  56.6222167  63.1502206  50.1444210  54.3842237
  62.7229814  49.5193929  53.9507672  63.1427150  49.8619132  55.2101244
  63.0861347  50.0096991  54.4422065  64.2085036  37.3470619  58.0081461
  63.7125597  37.5434293  57.3173027  64.9654098  37.7463287  57.8370262
  64.2471861  37.4348353  57.8801597  61.4787916  41.0212965  54.5984771
  61.5030403  40.4873077  53.9097551  61.7299389  40.5130274  55.2610362
  61.5197834  40.8673869  54.5949416  57.7589238  39.7483783  53.9790515
  57.7987610  40.2492990  54.6925223  56.9338903  39.8394177  53.7096438
  57.6428764  39.8365599  54.0441054  59.9418851  49.3144523  62.0810810
  59.0914481  49.4516237  62.2168455  60.1046979  48.5808301  62.5258512
  59.8402714  49.2258624  62.1666409  59.1803601  46.2644293  56.2764414
  58.3495531  46.4318111  56.0699663  59.1255119  45.8880244  57.0613300
  59.0493016  46.2334024  56.3612943  56.9887385  39.7553186  61.9120825
  57.6140088  39.2115319  62.1850257  56.5337865  39.2748103  61.3428616
  57.0135645  39.6042667  61.8682419  70.5622433  47.9382473  57.0033473
  71.1540274  48.5779724  57.0351671  70.9981428  47.2405510  57.2925540
  70.7140865  47.9300823  57.0514306  62.3915823  52.3599845  57.6291367
  61.8840914  52.9135692  58.0731998  62.0942469  52.4208135  56.8110142
  62.2720708  52.4506156  57.5739824  64.5578005  40.7253165  56.4716030
  64.9833077  40.2725691  55.8599556  63.9434998  40.1713236  56.7480818
  64.5306651  40.5767141  56.4221055  65.0023603  56.2763103  45.5595311
  64.2852913  56.1023965  45.0942548  65.6530341  56.0415675  45.0270797
  64.9925454  56.2158896  45.4124528  62.9972228  37.1968265  49.8806607
  62.3540546  37.0465911  50.4491745  62.6571635  36.9510610  49.1155712
  62.8517306  37.1380387  49.8509622  67.5871575  45.1527692  49.3036616
  66.9162765  45.6957394  49.1749681  68.2811325  45.6222547  49.0618310
  67.5900442  45.3025963  49.2492143  61.6358308  57.2924404  54.5348374
  61.4123963  56.5343233  54.9032400  61.1468152  57.3222425  53.8128814
  61.5301757  57.1846628  54.4825115  67.7499702  41.6083575  52.2126989
  68.1027312  41.1813298  52.8872788  66.8914504  41.5234419  52.3428065
  67.6749147  41.5328316  52.3321999  65.7482968  44.8718944  56.1611831
  65.7280895  44.6902239  57.0146610  65.7962169  45.7430962  56.1371415
  65.7517609  44.9735482  56.2835126  63.6929298  51.4606136  62.0860308
  63.6525153  50.8155813  61.5005464  64.5052616  51.4042753  62.3985720
  63.8072451  51.3565103  62.0457257  60.2836765  57.5124862  51.9885459
  59.8697164  56.8498992  51.5989300  60.9684140  57.6602720  51.4681153
  60.3235137  57.4365520  51.8541956  63.6502060  56.6714947  52.7409075
  63.2518343  56.7817217  51.9729895  63.0353279  56.8797013  53.3235635
  63.5000949  56.7188515  52.7140374  69.1823762  36.7301987  53.1411301
  68.6754627  36.0231127  53.0732479  69.9791196  36.3995176  53.2712378
  69.2251001  36.5775138  53.1510296  65.0987778  43.2368599  49.0384965
  64.8701471  43.2601301  48.1963323  65.3585854  42.4126066  49.1579976
  65.1033966  43.1184679  48.9310163  59.3807007  45.0903072  58.6410065
  58.8685910  44.4824255  58.9995097  59.2086503  45.8059665  59.1084041
  59.2796644  45.1066372  58.7626289  54.2272721  43.5340648  61.2912427
  54.0575312  44.1942022  60.7460634  53.7838671  43.7447209  62.0124916
  54.1372055  43.6626630  61.3174057  71.3843902  51.2466914  46.1252166
  71.7677508  51.9958270  46.3550263  70.5888016  51.4932733  45.8664155
  71.3237684  51.3936607  46.1209739  63.2576077  43.0127317  61.0812321
  63.8147507  42.7841126  60.4490786  62.9337142  43.7732983  60.8047533
  63.2922487  43.0911154  60.9468818  60.9759194  46.0994970  62.0464328
  61.7270521  46.4146647  62.3603882  61.1681771  45.8974141  61.2198250
  61.1150608  46.1162352  61.9707724  67.8244484  42.2268537  49.2888123
  67.8238711  42.0717193  50.1472400  67.6200664  43.0731524  49.2329509
  67.7944262  42.3289157  49.4076063  65.5485336  46.9066038  52.9424330
  66.0439002  46.1889033  52.9028351  64.7385112  46.6036836  52.8278817
  65.5029230  46.7563685  52.9198056  67.6137155  49.6569726  55.6301459
  68.0392227  49.1344148  55.0771884  67.2494075  50.2550563  55.1090082
  67.6223758  49.6679953  55.4710469  57.2491235  57.9533943  54.3898805
  57.5637794  58.7670332  54.3976586  57.6584648  57.5684162  55.0580964
  57.3559333  58.0162646  54.4902896  64.2015755  53.3703990  51.9602616
  64.6726933  54.0844253  52.1292602  64.5375933  52.7702740  52.4962486
  64.3210870  53.3875454  52.0634992  66.2892739  54.9805303  64.1394689
  66.3989705  54.1913864  64.4951436  66.6183636  54.8911240  63.3369027
  66.3545145  54.8511156  64.0737079  61.1185250  38.1431461  58.9160711
  61.2513155  37.3462454  59.2441687  61.5030402  38.6697864  59.4958987
  61.1941578  38.1031377  59.0504214  64.8389701  53.1621924  58.7230309
  64.2910647  52.5379808  58.4550374  65.3002730  53.3516196  58.0074389
  64.8256910  53.0980974  58.5780740  64.1917605  35.0661787  55.5141805
  63.3863568  34.9559516  55.8309643  64.0624340  35.1674243  54.6571670
  64.0537738  35.0645457  55.4349845  67.6483565  41.2307279  56.1081501
  67.0646554  41.7316485  55.6959069  67.9687859  40.7236835  55.4745825
  67.6096741  41.2299114  55.9540009  58.7773696  38.1390636  57.1638605
  59.3218109  37.7981763  57.7542947  58.8310632  38.9976097  57.3059890
  58.8662816  38.2145895  57.2720478  54.5904255  51.9007052  54.0377413
  55.1949113  51.8602886  53.4091234  54.3831568  52.7478204  54.0681469
  54.6493152  52.0195054  53.9493529  64.4048027  54.1672997  55.2539650
  65.2246401  54.0235963  55.5155945  64.1242105  54.7919196  55.7956088
  64.4844771  54.2383349  55.3727590  74.0761363  60.9113500  52.9735457
  73.2199258  61.0721998  53.0244574  74.1229016  60.0405564  52.9940518
  73.9560474  60.8064302  52.9841523  68.4602502  70.4476218  48.7372689
  67.7085402  70.0691756  48.5088734  68.9088514  70.4794651  47.9891499
  68.4152169  70.3961825  48.5930191  76.9213184  62.9705544  55.6167109
  77.4669144  63.6490630  55.6761078  76.8630060  62.8293004  54.7568690
  76.9929098  63.0497545  55.4979169  70.0387258  70.4594610  51.0035461
  70.1397621  69.6494964  51.3132589  69.4429004  70.3651556  50.3735140
  69.9659797  70.3259638  50.9561700  63.2352303  66.4814896  50.6287795
  63.0002487  65.6482549  50.5220064  63.3737943  66.7619562  49.8148996
  63.2207965  66.3998400  50.4930150  65.5342390  58.6500627  53.5272103
  64.9147422  58.0593274  53.3582117  65.4326254  59.2412062  52.8936426
  65.4280066  58.6504709  53.4077092  70.5808578  68.3884174  47.7770179
  70.9024419  68.9289381  47.1731487  71.2280674  67.8180945  47.9092469
  70.7234633  68.3843349  47.7077214  72.6310286  60.3900169  47.8604566
  73.3290450  60.5688296  48.3526029  72.9462618  59.8670508  47.2374955
  72.7805623  60.3393941  47.8406576  65.2611523  62.1952909  55.7715672
  65.1370220  62.7815354  56.4065490  65.9129808  61.7013104  56.0727946
  65.3385172  62.2091713  55.9101601  72.8198221  66.7770614  47.8484357
  73.2591857  66.1687714  48.2939130  72.6702884  66.3977987  47.0769822
  72.8619687  66.6309085  47.8003524  70.2869864  65.3714626  55.0503183
  70.9318867  64.8787069  54.7314131  70.5271641  65.5139412  55.8769261
  70.4180449  65.3192068  55.1252716  72.8255956  68.2169531  54.7010075
  73.1079198  67.4220937  54.4796831  73.5542116  68.6950119  54.7215136
  72.9745519  68.1704128  54.6713090  70.8037149  55.7592565  51.9425840
  70.4740479  56.2103709  51.2729539  70.1282151  55.6808729  52.4898847
  70.6547586  55.8143701  51.9249064  76.4207558  65.1297795  44.8015126
  76.3358853  65.9858762  44.9464695  76.9091941  64.8542119  45.4697285
  76.4796455  65.2155116  44.9217208  78.0113557  51.7478088  50.1875451
  77.6966998  52.4381567  50.6195873  77.4940499  51.6922870  49.4860952
  77.8878028  51.8412977  50.1472400  77.3525991  61.7482589  46.3012861
  76.8237462  61.9642223  46.9610168  77.8751011  62.4418728  46.2213831
  77.3514444  61.8825726  46.3868461  69.2425599  65.6445806  45.1020329
  68.6582814  66.1495837  45.5086193  68.8395694  65.4188193  44.3616921
  69.0964903  65.6854054  45.0525355  70.8683781  70.1532748  54.5093815
  70.3510723  69.7940163  53.9055124  71.5658173  69.6294922  54.5199882
  70.8949363  70.0230436  54.4224074  73.7002813  61.8911458  43.5789250
  73.9398817  62.0989442  42.7664593  74.0218654  61.0868967  43.6878195
  73.7839971  61.8025559  43.4749803  69.0093103  53.8204854  47.4248788
  69.7639071  54.1883171  47.1865838  68.8320638  54.1944408  48.1927968
  69.0947582  53.9303042  47.5033676  67.6513825  71.8756743  52.0564281
  68.3534404  71.3608732  52.1137037  67.5711308  72.2030894  52.8611156
  67.7437585  71.8470969  52.1837073  68.6992731  62.1132330  61.1844696
  68.8713235  62.0038225  62.0329977  69.2362089  62.7586735  60.9475888
  68.8037735  62.1924332  61.2749793  67.3650168  56.2275173  44.1226901
  67.1825741  56.4447054  43.2967894  68.2275781  56.3414185  44.1785515
  67.4654758  56.2765071  44.0081388  66.9764600  68.0663095  51.5649889
  67.8153499  68.2986028  51.6123650  67.0076369  67.1967406  51.4956924
  67.1046318  67.9720041  51.5614534  67.6017303  68.4863970  55.8663194
  68.1415528  68.3435101  56.5366567  66.9187249  68.8860721  56.2347221
  67.5809457  68.5243641  56.0197616  73.0449887  53.2301583  47.1575925
  73.7736048  53.0517538  46.7114081  73.1344780  54.0719663  47.3683103
  73.1656549  53.3285462  47.1229442  77.0258188  64.1654971  51.0608219
  77.7815703  64.5986485  51.0997127  77.1320512  63.5159740  51.6342855
  77.1528359  64.1332455  51.1506244  63.0054448  64.7064261  56.0197616
  62.7392863  63.8903378  56.1788606  63.0193012  64.7517416  55.1493131
  62.9679170  64.5921166  55.9151098  66.9112195  59.5049345  42.6349374
  66.1970372  59.2187525  43.0471807  67.3956164  59.8445971  43.2755761
  66.8771558  59.5130995  42.7905009  67.7553054  58.2442639  58.6664624
  67.0624851  57.7739619  58.9125355  68.3713382  58.0180944  59.2406331
  67.7437584  58.1409771  58.7873776  74.0859513  68.0079299  43.0111182
  74.5010661  67.6764323  42.3195678  73.2551443  67.7748202  42.8831319
  74.0247522  67.9250555  42.8902030  63.4147862  65.4923040  53.3009360
  63.2323435  65.4669926  52.4481652  64.1497531  65.9621978  53.3398269
  63.4961926  65.5584403  53.1807279  66.4793613  62.2108043  59.8091469
  67.2033586  62.1961074  60.2956364  66.5809750  62.9203398  59.3113437
  66.6011823  62.3132746  59.8070256  76.5269882  62.4141119  48.9635432
  76.6216736  63.1530413  49.4175057  75.9028725  61.9858594  49.3969996
  76.4478912  62.4602440  49.0943579  63.3818772  62.3716541  53.4508427
  63.9592275  62.2352992  54.0900672  62.6832834  61.9152325  53.7054011
  63.3639794  62.2838807  53.5830716  76.7792903  64.2589859  42.1972384
  76.6973066  64.3292046  43.0627371  77.4172624  64.8219603  42.0056124
  76.8612741  64.3528830  42.2962333  70.1386074  64.0250597  51.6646910
  69.8805319  63.1922332  51.6378209  70.1934557  64.2508210  50.8239410
  70.1085852  63.9348368  51.5367047  75.2187124  56.1279047  51.7651003
  74.5143451  55.6388233  51.9234922  75.2672099  56.1401522  50.8939447
  75.1217176  56.0568695  51.6590342  69.1120786  61.5788359  52.1511805
  68.5370378  61.7380528  52.7875766  68.7356463  60.9423768  51.6880255
  68.9723599  61.5086172  52.1766363  72.7794075  60.0511708  57.0104183
  72.3908508  59.6265926  56.3556374  72.1148773  60.2993858  57.5181210
  72.6241003  60.0250430  56.9892051  58.8577605  61.2228434  50.1656245
  58.9437857  60.8460302  50.9469775  59.4853403  60.8488880  49.6876204
  58.9634156  61.1113916  50.2101723  76.6020437  53.7486337  54.5228167
  76.9830948  53.0664508  54.9096042  75.7983721  53.4595939  54.3403832
  76.5396898  53.6053386  54.5532223  73.8833013  64.2810313  45.2080990
  74.6973652  64.5725206  45.0963761  73.8192155  63.6270175  44.6339283
  73.9935752  64.2275508  45.1069827  69.7540922  67.7531830  50.3353302
  70.3914869  67.5143578  50.8805096  70.1795993  67.9568989  49.6006463
  69.9117088  67.7482841  50.3070460  64.4453564  69.9920167  54.2187606
  64.4857709  70.2635018  53.3907386  65.0048088  70.5162075  54.6345394
  64.5336910  70.1095922  54.1579494  70.3943737  62.9734120  44.6728192
  70.7788889  62.7541827  45.4244737  70.1455357  63.7997066  44.8029268
  70.4145809  63.0632266  44.8029268  70.5612277  56.2540535  64.3890776
  70.2465718  57.0240098  64.1260339  70.2402210  55.6910791  63.8043003
  70.4671196  56.2850804  64.2632126  72.1362394  68.2304253  52.0147088
  72.2101402  68.0679425  52.8688938  72.9531900  68.4194443  51.7707570
  72.2678752  68.2340995  52.1045114  65.8968150  68.5762116  49.0441532
  65.0706268  68.8223853  48.9175811  65.9580141  68.4974197  49.9103590
  65.7842317  68.6007065  49.1530476  68.1144174  54.6431057  50.0036972
  67.2466599  54.7153656  50.0694581  68.4019378  55.4453136  50.1924947
  68.0283922  54.7725204  50.0411739  77.2377063  54.7908916  58.3348294
  77.9830655  54.6018727  57.9211719  76.8214367  55.3167154  57.7762150
  77.2862037  54.8411062  58.1912867  70.6766979  71.1938996  46.7460562
  70.9665278  70.8027977  46.0219788  71.4070460  71.3755701  47.1865837
  70.8273863  71.1632810  46.7043369  71.2661724  65.9956742  57.8313692
  70.7673418  66.7072510  57.9098581  72.0761949  66.3157409  57.7931855
  71.3117831  66.1483591  57.8370261  68.6172895  73.1706379  49.8120712
  68.3973190  72.8803733  50.6047379  68.3967417  72.5121334  49.2838624
  68.5520489  73.0306087  49.8509620  67.5289842  65.2579695  52.0776413
  67.2403091  64.6317166  52.6122141  68.3973190  65.1999983  52.1441094
  67.6150094  65.1567239  52.1667368  78.3167740  60.4014478  52.3958395
  77.9732506  59.6804814  52.7465645  78.4160782  60.1928330  51.5536753
  78.2809783  60.2638682  52.3230075  67.7322115  66.8974946  48.0018778
  68.4868083  67.2787985  48.2154241  67.1392728  67.3486090  48.4565475
  67.7558829  67.0203774  48.1001657  70.1928782  58.8537786  63.1275991
  69.3828558  59.1595566  63.0165833  70.6703469  59.5743369  63.2428575
  70.1432261  59.0052388  63.1283062  69.0520342  68.0683507  53.3758894
  68.5301096  68.2083799  54.0610758  69.4394362  67.3094172  53.5661011
  69.0324043  67.9769031  53.5059970  66.0411526  58.1189316  47.4453848
  65.7536322  57.7490587  46.7085796  66.7281994  58.5884172  47.1837553
  66.1000423  58.1336286  47.2968924  70.4786668  65.0987527  48.7740385
  70.2829450  65.7062261  48.1800688  70.7021013  64.4055471  48.2932059
  70.4821309  65.0865052  48.6156466  68.8765198  61.9842264  48.8921253
  69.5987850  62.1483423  48.4325059  68.3973190  62.7051929  48.7860593
  68.9128928  62.1140494  48.8086867  76.8358705  58.3206063  54.2717938
  75.9969806  58.3467342  54.0356201  76.9063073  58.9676799  54.8523285
  76.7227099  58.4202189  54.3227055  66.5272814  64.3900337  57.9975393
  67.0393911  64.6684590  57.3484153  66.2409157  65.1289631  58.3638206
  66.5607677  64.5402691  57.9565271  75.2827984  55.2191440  49.0045554
  75.9854336  55.0199189  48.5265512  75.0172172  54.4467383  49.3114397
  75.3474616  55.0754406  48.9790996  63.6139721  58.8970529  48.2939129
  63.7155857  59.6996690  48.6220105  64.4095607  58.6957865  47.9962210
  63.7467626  58.9856427  48.2974485  70.0456540  56.4826725  58.0576435
  69.8539737  56.4981860  58.9075858  70.8955136  56.6790400  58.0343089
  70.1432262  56.5141077  58.1799729  64.4303453  59.0117707  56.0360251
  64.2888945  58.1601648  56.1604759  64.7144016  59.0546368  55.2122457
  64.4511299  58.8917457  55.9327875  74.5842045  60.8484797  50.1804739
  74.3376759  60.7680548  51.0141528  74.9127168  60.0638265  49.9867267
  74.5963289  60.7211062  50.2752262  70.5439072  63.5841516  59.5927722
  70.6882448  64.1642724  58.9570832  70.8914721  63.9617812  60.2977577
  70.6166534  63.7262220  59.6026717  72.7158990  62.7831684  57.3752854
  71.9682304  62.9762698  56.9701132  72.8700515  61.9576904  57.1376975
  72.6281417  62.6896795  57.2798260  72.9560767  56.6782235  58.2648258
  73.4133381  57.4106209  58.3921050  73.0317096  56.2548700  59.0235514
  73.0351737  56.7239473  58.3949334  65.1993758  56.9248055  59.3537701
  64.6635947  56.3128413  59.6698469  65.2611523  57.4996190  60.0071368
  65.1289391  56.9194982  59.4973128  77.4288093  49.8572110  52.1342101
  77.5471661  50.3148573  51.4009403  77.2550268  49.0517371  51.8478318
  77.4207264  49.8065882  51.9843034  72.7990375  70.4659929  48.5696846
  73.5640266  70.1969573  48.2479510  72.6968465  69.9809940  49.2866909
  72.8971870  70.3549494  48.6276674  70.8343145  58.6684339  55.1090082
  70.0439219  58.4875799  55.4307418  71.2303768  57.8911291  55.0920376
  70.7760021  58.5271800  55.1542630  75.3209035  67.4972113  40.5496795
  76.0882021  67.5572238  40.1402647  74.8740344  66.9252554  40.0653114
  75.3682463  67.4208689  40.4174506  76.2186831  66.3026769  52.8349528
  75.5431833  66.0712001  53.3362915  76.2279207  65.6947952  52.2091633
  76.1205336  66.1785694  52.8165680  73.3480975  61.1444598  59.5913581
  73.2840116  62.0054554  59.4633717  73.4878163  60.8276591  58.7909132
  73.3596445  61.2244764  59.4541794  72.0300069  63.8376737  53.7329784
  71.6062318  64.0381236  52.9968802  71.8544924  62.9905585  53.8454083
  71.9410949  63.7425519  53.6403474  67.3182514  64.3328789  49.1657756
  67.4747133  64.2675591  50.0213748  67.6583107  65.1077341  48.9536436
  67.3915749  64.4377987  49.2612350  73.8561658  63.7086672  48.0351119
  74.3977204  63.2057053  48.4989740  74.1708217  63.6551867  47.2240605
  73.9826056  63.6266093  47.9834931  72.0248108  69.1004024  45.3191147
  72.0940928  68.2418562  45.4584148  72.8036563  69.3175905  44.9910172
  72.1500958  69.0056888  45.2908305  75.0050928  58.6022977  58.0873420
  75.2192897  57.9633891  57.5336774  74.3884827  59.0468801  57.6581282
  74.9456257  58.5733120  57.9423851  63.8916775  61.5163739  49.4818523
  64.2715740  61.9348284  48.8178791  63.3172140  62.0977195  49.7887367
  63.8628100  61.6641598  49.4295264  77.1690016  60.2112042  59.0256727
  76.3566698  59.9037932  59.1069900  77.6279950  59.7311042  59.5899439
  77.1170401  60.0948534  59.1211321  76.5795271  68.0891714  49.4733671
  76.2209925  68.2606357  50.2497704  76.0933981  68.5504919  48.9161670
  76.4553967  68.1830685  49.5058940  74.3965656  51.7122912  53.0760763
  73.5259214  51.6861633  53.0294072  74.6505998  51.5400105  52.2586608
  74.3059217  51.6833056  52.9480899  71.3683636  63.7690879  42.0133906
  71.6576161  64.5455762  42.2877480  71.4555435  63.2579611  42.7148405
  71.4237892  63.8082798  42.1576403  71.4214797  53.7229141  54.5334233
  70.9053286  53.0309332  54.6585812  70.8608726  54.3899918  54.4796832
  71.2621310  53.7192398  54.5440299  73.4907030  54.2622101  56.3627086
  73.1038784  54.2871132  57.1440615  73.0039968  53.6963779  55.9101602
  73.3619539  54.1817852  56.4114989  73.1564172  51.1489086  58.6537345
  73.7857290  51.6849386  58.3758416  73.3250035  51.0566445  59.5050911
  73.2741967  51.2150449  58.7385874  72.9578087  55.9360281  60.9263757
  73.7851516  55.6645430  60.9822371  72.9785933  56.7321123  61.2827575
  73.0830937  56.0140035  60.9878940  67.5347577  63.0824144  54.1134018
  66.6935583  62.9828018  54.3212912  67.7437585  63.8519624  54.4648338
  67.4412269  63.1816187  54.1961333  65.0123144  60.7043681  51.9418768
  64.6179842  60.7786693  51.1668878  64.4563261  61.0901627  52.4927130
  64.8725956  60.7725455  51.9086428  76.6488091  53.6824975  51.6222647
  76.8537684  53.6147283  52.4679644  76.3214515  54.4883796  51.5543825
  76.6303339  53.7910915  51.7382302  71.3464242  61.0105543  53.3631615
  71.0427379  60.4561531  53.9642023  70.6443663  61.1897753  52.8759649
  71.1980452  60.9550325  53.3801321  70.4030339  58.3206063  47.9276317
  70.6790073  57.6024975  47.5153885  71.0029008  58.9190983  47.7197423
  70.5323603  58.3026434  47.8357078  69.4082593  68.2255264  58.0703713
  69.3002948  68.2357326  58.9365771  69.6178374  69.0510044  57.8808667
  69.4232704  68.3496339  58.1707805  73.9040859  55.9919580  46.2022912
  74.3584606  56.1630141  46.9270757  74.3780905  55.3787691  45.8020688
  74.0409179  55.9270465  46.2496674  67.4256385  65.4767906  55.5325651
  66.8344318  66.1177404  55.5028666  68.1877408  65.9005523  55.5056950
  67.4504645  65.6343745  55.5240798  67.8217008  56.6369904  56.1993668
  68.2818489  56.7108833  56.9368792  67.8673114  57.4351158  55.8493490
  67.8967563  56.7664051  56.2566425  69.4700357  57.3036599  60.7665695
  69.0785922  56.6569946  61.2021473  69.6386220  57.8948034  61.3859951
  69.4371268  57.2950867  60.9228401  71.2453879  62.6962115  47.3067919
  71.9895924  63.0836391  47.5450869  71.3914576  61.8519540  47.4708407
  71.3764464  62.6292587  47.3661889  73.1633455  54.4912373  52.3399781
  72.3169500  54.6635181  52.2141131  73.1604587  53.6861717  52.6765609
  73.0380605  54.3973402  52.3710908  74.2331755  58.2687588  53.2061839
  73.7591709  57.7429350  53.7167150  74.6049891  57.7217061  52.6376700
  74.2181644  58.1103584  53.1976986  64.6104785  60.2659095  58.5745384
  65.4730398  60.1654804  58.4882714  64.2796568  59.6853804  58.0130957
  64.6889982  60.1650721  58.4790790  76.1615255  59.1624142  46.2687592
  75.6338273  59.2452886  45.5793301  76.6210963  59.9042014  46.2652237
  76.1517105  59.2844805  46.1662288  67.9706571  59.0901544  55.2355803
  67.3459641  59.1019936  54.6281755  67.6352166  59.5661719  55.8847043
  67.8292063  59.1620061  55.2412371  68.1548320  57.4326662  41.2928488
  67.8061124  58.0846387  41.7560037  67.6744766  57.4183775  40.5652359
  68.0318564  57.5269716  41.2539579  64.6832247  67.1502004  56.6759567
  64.1532171  66.4594443  56.7254542  64.9557340  67.1412189  55.8472275
  64.6456969  67.0469135  56.5606983  75.7152337  67.7327706  45.3997249
  76.4386536  68.1985819  45.2561823  75.2752928  67.8001316  44.6494846
  75.7568030  67.8111543  45.2682031  74.8838492  64.5925248  56.6497938
  74.2695486  64.0483299  56.9446574  75.4005777  64.0789485  56.1703755
  74.8694155  64.4361657  56.6222167  74.1234790  65.6629518  54.3842237
  73.6962398  65.0379237  53.9507672  74.1159734  65.3804440  55.2101244
  74.0593931  65.5282299  54.4422065  67.2397317  60.6994691  57.4530671
  67.3990803  59.9438015  57.8582393  67.0590210  61.2485631  58.1071409
  67.2362676  60.6688505  57.6093377  75.1817620  52.8655927  58.0081461
  74.6858181  53.0619601  57.3173027  75.9386682  53.2648595  57.8370262
  75.2204444  52.9533661  57.8801597  72.4520499  56.5398273  54.5984771
  72.4762986  56.0058385  53.9097551  72.7031973  56.0315582  55.2610362
  72.4930418  56.3859177  54.5949416  59.9628089  63.8229768  54.0327915
  59.8571538  63.7776612  53.1679999  59.2128309  64.1683548  54.3142200
  59.8363692  63.8670676  53.9465245  68.7321821  55.2669091  53.9790515
  68.7720193  55.7678298  54.6925223  67.9071486  55.3579485  53.7096438
  68.6161347  55.3550907  54.0441054  70.1536185  61.7829601  56.2764414
  69.3228115  61.9503419  56.0699663  70.0987702  61.4065552  57.0613300
  70.0225600  61.7519332  56.3612943  67.9619968  55.2738494  61.9120825
  68.5872672  54.7300627  62.1850257  67.5070448  54.7933411  61.3428616
  67.9868229  55.1227975  61.8682419  68.5272229  60.0585192  46.8054532
  68.6675190  60.5557657  47.5083173  69.0254762  59.3571487  46.9468746
  68.6213310  60.0287171  46.9306111  68.5572451  60.9252303  44.1347109
  69.1917531  61.5212729  44.0696571  68.6398062  60.6255761  44.9492979
  68.6629002  60.9693212  44.2450196  70.1351434  56.8566279  44.1092551
  70.4567275  56.3769361  43.4551813  70.3978378  57.6665925  43.9183363
  70.2217459  56.9056177  43.9848043  75.5310589  56.2438473  56.4716030
  75.9565661  55.7910999  55.8599556  74.9167582  55.6898544  56.7480818
  75.5039234  56.0952449  56.4221055  65.0625439  63.1220144  47.4036655
  65.5717668  63.7184652  47.7847960  65.5359711  62.8546118  46.7213075
  65.2068815  63.1705960  47.3591178  73.9704812  52.7153573  49.8806607
  73.3273130  52.5651219  50.4491745  73.6304219  52.4695918  49.1155712
  73.8249889  52.6565695  49.8509622  67.4215971  59.7576403  50.2709835
  66.7027960  60.1740535  50.5382699  67.7928333  60.3230642  49.7201474
  67.3707903  59.9025684  50.2292642  76.7215552  60.3904252  56.1611831
  76.7013479  60.2087547  57.0146610  76.7694752  61.2616270  56.1371415
  76.7250193  60.4920790  56.2835126  73.1962545  58.7974403  45.6083215
  72.6027384  59.1191399  45.0567782  73.2337823  57.9515498  45.4004321
  73.1136934  58.7198731  45.4965986  76.0720362  58.7553907  49.0384965
  75.8434055  58.7786609  48.1963323  76.3318438  57.9311374  49.1579976
  76.0766550  58.6369987  48.9310163  70.3539590  60.6088380  58.6410065
  69.8418493  60.0009563  58.9995097  70.1819086  61.3244973  59.1084041
  70.2529227  60.6251680  58.7626289  65.2005305  59.0525956  61.2912427
  65.0307895  59.7127330  60.7460634  64.7571255  59.2632517  62.0124916
  65.1104638  59.1811938  61.3174057  69.1265124  57.2930453  50.3339161
  69.6022490  57.6547533  49.6989342  68.6253724  57.9486921  50.6139303
  69.1230483  57.4424642  50.2815902  74.2308660  58.5312625  61.0812321
  74.7880091  58.3026434  60.4490786  73.9069725  59.2918290  60.8047533
  74.2655071  58.6096462  60.9468818  62.1007369  61.9572821  56.5500917
  61.5534089  61.2873467  56.6681785  62.8899748  61.5902669  56.6144384
  62.1359553  61.8037808  56.5769617  71.1691777  59.4371653  43.7012545
  71.5490742  59.4551282  42.9163659  70.4284373  59.8825642  43.5803392
  71.1160615  59.5053428  43.5676113  78.7977068  57.7453844  49.2888123
  78.7971294  57.5902501  50.1472400  78.5933248  58.5916832  49.2329509
  78.7676846  57.8474465  49.4076063  60.8594339  61.1693629  53.7046940
  60.6816100  60.7170238  54.4301856  60.5713361  61.9719790  53.8885417
  60.7907292  61.2216187  53.8390443  76.5217920  62.4251346  52.9424330
  77.0171585  61.7074341  52.9028351  75.7117696  62.1222144  52.8278817
  76.4761813  62.2748993  52.9198056  71.9676531  66.2749160  45.0921335
  71.1587854  65.9515833  45.0454644  72.4751440  65.5682382  45.0249583
  71.9226198  66.1230476  45.0751629  62.5966809  63.7021353  50.8168699
  61.7312328  63.6907043  50.7051470  62.6965625  63.5151576  51.6639838
  62.4840976  63.6727414  50.9257643  68.2223819  73.4719251  54.3898805
  68.5370378  74.2855640  54.3976586  68.6317232  73.0869470  55.0580964
  68.3291917  73.5347954  54.4902896  75.1748338  68.8889298  51.9602616
  75.6459516  69.6029561  52.1292602  75.5108517  68.2888048  52.4962486
  75.2943453  68.9060762  52.0634992  72.0917833  53.6616769  58.9160711
  72.2245739  52.8647762  59.2441687  72.4762986  54.1883172  59.4958987
  72.1674162  53.6216685  59.0504214  75.1650188  50.5847095  55.5141805
  74.3596152  50.4744824  55.8309643  75.0356924  50.6859550  54.6571670
  75.0270321  50.5830765  55.4349845  78.6216149  56.7492587  56.1081501
  78.0379138  57.2501793  55.6959069  78.9420443  56.2422143  55.4745825
  78.5829324  56.7484422  55.9540009  71.1610948  55.6633181  46.3840176
  71.9826642  55.8331494  46.1421871  70.6980599  55.8180442  45.6606474
  71.2142110  55.7114914  46.2411821  69.7506280  53.6575944  57.1638605
  70.2950693  53.3167070  57.7542947  69.8043216  54.5161405  57.3059890
  69.8395399  53.7331203  57.2720478  65.5636839  67.4192360  54.0377413
  66.1681696  67.3788194  53.4091234  65.3564151  68.2663512  54.0681469
  65.6225736  67.5380362  53.9493529  60.7988121  66.4026977  53.9076336
  60.7012399  65.5923249  54.2166393  61.5816991  66.3818771  53.5222604
  60.9004257  66.2794067  53.8963199  35.2355575   0.8298425  35.6712735
  34.4838475   0.4513963  35.4428781  35.6841587   0.8616859  34.9231546
  35.1905242   0.7784032  35.5270238  40.6880535   1.2523794  31.0998283
  40.3531904   1.9300716  30.6642505  41.2007406   0.8629106  30.5115154
  40.7146116   1.2948373  30.9485074  40.2284827   3.2038063  37.0409394
  40.6124206   3.7724962  36.5014169  40.1643968   2.4787573  36.5615210
  40.2758254   3.1813527  36.8903257  36.8140332   0.8416817  37.9375508
  36.9150695   0.0317171  38.2472636  36.2182077   0.7473763  37.3075186
  36.7412870   0.7081845  37.8901746  36.6541071   5.7594406  39.3390364
  37.2978527   6.2007570  39.7286522  36.9797327   4.9547832  39.2520623
  36.7972900   5.7059601  39.3835841  30.0105376  -3.1362896  37.5627842
  29.7755560  -3.9695244  37.4560110  30.1491017  -2.8558231  36.7489043
  29.9961038  -3.2179393  37.4270197  37.3561651  -1.2293619  34.7110226
  37.6777492  -0.6888412  34.1071534  38.0033747  -1.7996848  34.8432516
  37.4987706  -1.2334444  34.6417261  31.5722701   1.7422774  38.8384048
  31.0890279   2.4673264  38.8143631  32.3846019   2.0398904  38.9494205
  31.6213448   1.8925128  38.8511327  37.6436855   0.5354955  41.4433862
  37.1263796   0.1762370  40.8395170  38.3411246   0.0117130  41.4539928
  37.6702436   0.4052643  41.3564121  41.3000447   0.9849769  47.4050035
  41.3883792   0.7975910  48.2528246  41.7290159   0.3387199  47.0054882
  41.3762549   0.8612777  47.4721787  38.8670906   0.2680929  46.3867697
  38.3041741  -0.1446461  46.9107359  39.6291930   0.1933835  46.8060841
  38.8965355   0.1958330  46.5260698  34.4266898   2.2578950  38.9904328
  35.1287477   1.7430939  39.0477084  34.3464381   2.5853102  39.7951203
  34.5190658   2.2293177  39.1177120  33.7517673  -1.5514698  38.4989936
  34.5906573  -1.3191765  38.5463697  33.7829442  -2.4210386  38.4296971
  33.8799391  -1.6457751  38.4954580  34.3770376  -1.1313822  42.8003241
  34.9168601  -1.2742691  43.4706614  33.6940323  -0.7317072  43.1687267
  34.3562530  -1.0934152  42.9537663  41.4120506   0.4158788  50.0693819
  42.1960922   0.5289636  50.4349561  41.2117100  -0.4100075  50.2652505
  41.4986531   0.3105508  50.1528205  41.5690899   2.3268890  43.7160274
  40.7706145   2.0868390  43.9734143  42.0176911   2.3783283  44.4627322
  41.5165510   2.2991281  43.8645199  30.1900935  -4.1254752  40.2349407
  30.0076508  -4.1507866  39.3821699  30.9250604  -3.6555814  40.2738316
  30.2714999  -4.0593390  40.1147325  36.5293995  -1.8645962  37.2693349
  37.1667942  -2.1034215  37.8145142  36.9549066  -1.6608803  36.5346510
  36.6870161  -1.8694952  37.2410506  31.2206637   0.3742374  41.1527653
  31.2610782   0.6457225  40.3247432  31.7801161   0.8984282  41.5685441
  31.3089983   0.4918129  41.0919541  38.9115467  -1.3873540  38.9487135
  38.9854475  -1.5498368  39.8028985  39.7284973  -1.1983350  38.7047617
  39.0431825  -1.3836797  39.0385161  32.6721223  -1.0415677  35.9781579
  31.8459341  -0.7953939  35.8515858  32.7333215  -1.1203596  36.8443637
  32.5595390  -1.0170728  36.0870523  37.4520052   1.5761204  33.6800609
  37.7418351   1.1850185  32.9559835  38.1823533   1.7577908  34.1205884
  37.6026937   1.5455017  33.6383416  35.3925968   3.5528586  36.7460758
  35.1726263   3.2625941  37.5387425  35.1720490   2.8943541  36.2178671
  35.3273562   3.4128294  36.7849667  37.5593924   4.9257976  35.5291451
  38.2117982   4.3934418  35.7582477  36.8619532   4.5726628  35.9159325
  37.5524642   4.7947499  35.6203619  34.5075189  -2.7202846  34.9358825
  35.2621157  -2.3389807  35.1494288  33.9145801  -2.2691703  35.3905522
  34.5311902  -2.5974019  35.0341704  35.8273415  -1.5494285  40.3098941
  35.3054169  -1.4093993  40.9950805  36.2147436  -2.3083621  40.5001058
  35.8077116  -1.6408761  40.4400017  42.0240420   0.1901174  34.2959509
  41.7827096  -0.5430965  33.8886574  42.2041753   0.7388031  33.6425843
  42.0148044   0.1623565  34.1389732  36.3919901   2.1566495  43.3928796
  36.5409464   1.5969411  42.7402200  37.1719903   2.2358497  43.7761315
  36.5293994   2.0852060  43.3525745  38.9173201   2.3281138  44.6713287
  38.8416872   1.6589948  45.2264075  38.8463060   3.0298926  45.1853953
  38.8953808   2.3326045  44.8290135  39.5743448   0.8482137  35.5036893
  40.3393339   0.5791780  35.1819557  39.4721538   0.3632147  36.2206956
  39.6724944   0.7371701  35.5616720  38.3064836   5.7349458  43.1291288
  38.7960766   5.0360247  42.9466952  37.7349068   5.4373328  43.7167345
  38.2949365   5.5875681  43.1892328  38.8001181  -0.5173769  32.2531194
  38.8694002  -1.3759230  32.3924195  39.5789637  -0.3001888  31.9250219
  38.9254031  -0.6120905  32.2248351  43.1908669   1.9063932  36.4667687
  42.7988461   1.6030648  35.7490554  43.3461741   2.7433022  36.2772641
  43.1562259   1.9847769  36.3324185  36.1835666  -1.3922529  45.0043760
  36.0756021  -1.3820467  45.8705818  36.3931447  -0.5667748  44.8148714
  36.1985777  -1.2681454  45.1047851  43.9598974   1.3099425  39.8997722
  43.7618663   1.7990240  39.2053933  43.3386685   1.5140667  40.4781855
  43.8386539   1.4115963  39.8820945  31.4585320  -2.4675789  43.6099614
  30.9285245  -3.1583350  43.6594588  31.7310413  -2.4765604  42.7812322
  31.4210042  -2.5708657  43.4947030  26.7381162  -5.7948025  40.9667962
  26.6324611  -5.8401180  40.1020046  25.9881382  -5.4494244  41.2482247
  26.6116765  -5.7507117  40.8805292  40.1401480  -1.7392639  44.5631414
  39.6326571  -1.1856793  45.0072044  39.8428126  -1.6784349  43.7450188
  40.0206365  -1.6486328  44.5079871  42.7509260   2.1770618  32.4935357
  42.0338570   2.0031481  32.0282595  43.4015998   1.9423191  31.9610843
  42.7411111   2.1166411  32.3464575  39.3843965   3.1931919  41.4688421
  39.1609620   2.4350748  41.8372447  38.8953809   3.2229940  40.7468860
  39.2787414   3.0854143  41.4165162  38.0322422   3.4132377  38.9225505
  37.6182821   2.7506507  38.5329347  38.7169796   3.5610236  38.4021200
  38.0720794   3.3373035  38.7882002  41.3987716   2.5722462  39.6749122
  41.0004000   2.6824733  38.9069942  40.7838936   2.7804529  40.2575682
  41.2486606   2.6196030  39.6480421  34.9976892   3.8541459  41.3238851
  35.3123451   4.6677847  41.3316633  35.4070305   3.4691677  41.9921010
  35.1044990   3.9170161  41.4242943  44.0378396   0.8812819  51.0734735
  44.1475361   0.0921379  51.4291483  44.3669293   0.7918755  50.2709073
  44.1030802   0.7518672  51.0077126  32.3389912  -2.1985433  40.9717460
  32.9434769  -2.2389599  40.3431280  32.1317224  -1.3514281  41.0021516
  32.3978809  -2.0797430  40.8833576  42.1533684   0.0680512  42.1879697
  42.9732058  -0.0756522  42.4495992  41.8727762   0.6926711  42.7296135
  42.2330427   0.1390864  42.3067637  27.5741194  -3.2150815  40.8416383
  27.4765472  -4.0254544  41.1506440  28.3570064  -3.2359022  40.4562651
  27.6757331  -3.3383725  40.8303246  58.6247334   7.7245364  35.1522573
  58.5941339   8.5790001  35.3240843  59.2228683   7.4240657  35.7108717
  58.7084492   7.8061861  35.2597376  51.8247019   6.8121015  39.9075504
  50.9684915   6.9729513  39.9584621  51.8714673   5.9413079  39.9280565
  51.7046131   6.7071817  39.9181570  55.1340736  13.0807541  49.5135960
  55.8407503  12.5859571  49.6422894  55.3228671  13.5216622  48.7838618
  55.2668641  13.0725891  49.4245005  51.6613119  16.7709102  31.0998283
  51.3264487  17.4486024  30.6642505  52.1739989  16.3814414  30.5115154
  51.6878700  16.8133681  30.9485074  51.2017410  18.7223371  37.0409394
  51.5856790  19.2910270  36.5014169  51.1376551  17.9972881  36.5615210
  51.2490837  18.6998834  36.8903257  54.6698840   8.8713059  42.5507156
  55.2154800   9.5498146  42.6101125  54.6115717   8.7300520  41.6908737
  54.7414755   8.9505061  42.4319216  56.4463909  10.2997666  33.4240883
  56.3303435  11.0505352  33.8533021  57.2419796  10.0421619  33.6736970
  56.5468498  10.3732513  33.5244975  40.9837959  12.3822412  37.5627842
  40.7488144  11.5490064  37.4560110  41.1223600  12.6627077  36.7489043
  40.9693622  12.3005915  37.4270197  43.2828047   4.5508142  40.4612149
  42.6633079   3.9600789  40.2922164  43.1811911   5.1419577  39.8276473
  43.1765722   4.5512225  40.3417139  50.3795943   6.2907684  34.7944612
  51.0776107   6.4695812  35.2866076  50.6948275   5.7678023  34.1715002
  50.5291280   6.2401456  34.7746623  43.0097180   8.0960424  42.7055718
  42.8855877   8.6822869  43.3405537  43.6615464   7.6020620  43.0067993
  43.0870829   8.1099228  42.8441648  48.0355521  11.2722141  41.9843229
  48.6804523  10.7794584  41.6654178  48.2757298  11.4146927  42.8109308
  48.1666106  11.2199583  42.0592763  50.5741612  14.1177047  41.6350122
  50.8564855  13.3228452  41.4136878  51.3027773  14.5957634  41.6555183
  50.7231176  14.0711644  41.6053137  48.5522806   1.6600081  38.8765887
  48.2226136   2.1111224  38.2069586  47.8767808   1.5816244  39.4238893
  48.4033242   1.7151216  38.8589110  54.1693215  11.0305310  31.7355173
  54.0844510  11.8866277  31.8804742  54.6577598  10.7549634  32.4037332
  54.2282112  11.1162632  31.8557255  55.1011648   7.6490104  33.2352908
  54.5723119   7.8649738  33.8950214  55.6236668   8.3426243  33.1553878
  55.1000101   7.7833241  33.3208507  60.5559701  13.2236409  38.6085953
  59.7257404  13.4347053  38.7719369  60.5068953  12.3973463  38.3328236
  60.4266436  13.1326015  38.5923318  46.9911256  11.5453321  32.0360376
  46.4068471  12.0503353  32.4426240  46.5881351  11.3195708  31.2956968
  46.8450559  11.5861570  31.9865401  52.2733030  16.5035077  47.4050035
  52.3616376  16.3161218  48.2528246  52.7022743  15.8572507  47.0054882
  52.3495133  16.3798085  47.4721787  51.4488470   7.7918973  30.5129297
  51.6884474   7.9996957  29.7004640  51.7704311   6.9876482  30.6218241
  51.5325628   7.7033075  30.4089850  60.0513659   5.8706810  42.4036374
  59.2142080   5.9408997  42.6383969  60.0201890   5.8731304  41.5310676
  59.9231941   5.8817037  42.3095922  46.4478388   8.0139845  48.1184743
  46.6198892   7.9045740  48.9670024  46.9847745   8.6594251  47.8815935
  46.5523392   8.0931847  48.2089839  45.1135825   2.1282688  31.0566948
  44.9311398   2.3454569  30.2307941  45.9761438   2.2421701  31.1125562
  45.2140414   2.1772586  30.9421435  54.7743845  10.0662486  37.9948266
  55.5301360  10.4994000  38.0337174  54.8806169   9.4167256  38.5682902
  54.9014015  10.0339970  38.0846291  57.8124016  13.8935763  38.7450669
  57.3759248  13.8972506  39.5009640  57.4786931  14.5741262  38.3130246
  57.6986636  13.9948219  38.7931501  52.3853089  15.9344096  50.0693819
  53.1693506  16.0474944  50.4349561  52.1849684  15.1085233  50.2652505
  52.4719115  15.8290816  50.1528205  40.7540105  10.6071776  42.9537663
  40.4878520   9.7910893  43.1128653  40.7678669  10.6524932  42.0833178
  40.7164827  10.4928681  42.8491145  44.6597852   5.4056861  29.5689421
  43.9456029   5.1195040  29.9811853  45.1441821   5.7453486  30.2095808
  44.6257215   5.4138510  29.7245056  45.5038711   4.1450155  45.6004670
  44.8110508   3.6747134  45.8465402  46.1199039   3.9188459  46.1746378
  45.4923241   4.0417286  45.7213823  60.9468362  10.6116683  37.6370306
  61.6084796  10.0507352  37.5366214  60.3059774  10.1168714  37.9622997
  60.9497230  10.4553092  37.6702646  51.8345170  13.9086815  29.9451229
  52.2496318  13.5771838  29.2535725  51.0037099  13.6755717  29.8171366
  51.7733179  13.8258071  29.8242076  41.1633519  11.3930556  40.2349407
  40.9809092  11.3677442  39.3821699  41.8983187  11.8629493  40.2738316
  41.2447582  11.4591918  40.1147325  57.2333193  11.6282066  37.3782295
  57.4688782  11.7727265  36.5509145  57.3822756  12.3924474  37.7713808
  57.2898996  11.7621120  37.3145898  44.2279270   8.1115559  46.7431516
  44.9519243   8.0968589  47.2296410  44.3295407   8.8210914  46.2453484
  44.3497479   8.2140262  46.7410302  59.0623649  10.4683732  35.2151898
  59.3931867  11.0011372  34.6091993  59.6356738  10.5222619  35.8713849
  59.1957329  10.5553300  35.2229680  51.6024220  11.5914643  51.6080463
  50.8097200  11.9058155  51.7933082  51.7173147  11.8066112  50.7701247
  51.5019630  11.6698480  51.5118797  54.2755539   8.3148634  35.8975478
  54.3702393   9.0537928  36.3515104  53.6514382   7.8866110  36.3310043
  54.1964569   8.3609955  36.0283626  52.5308012  11.4934847  46.5465759
  53.1046874  10.8562091  46.7014323  52.4522816  11.4938929  45.6775417
  52.6041247  11.3999958  46.4412170  41.1304429   8.2724056  40.3848474
  41.7077932   8.1360507  41.0240719  40.4318491   7.8159840  40.6394058
  41.1125450   8.1846323  40.5170763  54.5278560  10.1597374  29.1312430
  54.4458722  10.2299561  29.9967417  55.1658280  10.7227118  28.9396171
  54.6098397  10.2536345  29.2302380  47.8871731   9.9258112  38.5986957
  47.6290975   9.0929847  38.5718256  47.9420214  10.1515725  37.7579457
  47.8571509   9.8355883  38.4707094  46.8606443   7.4795874  39.0851852
  46.2856034   7.6388043  39.7215812  46.4842120   6.8431284  38.6220302
  46.7209256   7.4093687  39.1106410  50.5279732   5.9519224  43.9444230
  50.1394165   5.5273442  43.2896421  49.8634430   6.2001373  44.4521257
  50.3726660   5.9257945  43.9232098  36.6063262   7.1235949  37.0996292
  36.6923514   6.7467818  37.8809822  37.2339060   6.7496395  36.6216250
  36.7119813   7.0121431  37.1441769  51.6318670  10.1817828  32.1421037
  52.4459309  10.4732721  32.0303808  51.5677811   9.5277691  31.5679330
  51.7421409  10.1283023  32.0409874  57.8528160  12.8643824  46.5550613
  57.6166798  12.0331889  46.4362673  58.4971389  12.8129432  47.1405457
  57.9122831  12.7341512  46.6236506  48.1429393   8.8741636  31.6068238
  48.5274546   8.6549342  32.3584784  47.8941014   9.7004581  31.7369315
  48.1631466   8.9639782  31.7369315  48.3097934   2.1548051  51.3230823
  47.9951375   2.9247614  51.0600385  47.9887866   1.5918307  50.7383050
  48.2156853   2.1858319  51.1972173  58.8764581  12.6488273  42.6178907
  58.5710398  13.3816330  42.9792223  58.1570797  12.2426203  42.3371693
  58.7251923  12.6970006  42.6292044  64.5766373   9.2881274  41.9447251
  64.5090873   9.3077233  41.0749838  64.5622035  10.1311601  42.1702922
  64.5645130   9.4155009  41.8499728  43.6453807  14.4769631  35.9781579
  42.8191925  14.7231368  35.8515858  43.7065798  14.3981712  36.8443637
  43.5327974  14.5014580  36.0870523  45.8629831   0.5438572  36.9377019
  44.9952256   0.6161172  37.0034628  46.1505035   1.3460651  37.1264994
  45.7769579   0.6732719  36.9751786  62.3624990   8.0625660  40.2193846
  62.9132912   7.4293729  40.4590938  62.3469106   8.5941053  40.9109350
  62.4410187   8.0474608  40.3572704  49.0147381  11.8964257  44.7653739
  48.5159075  12.6080025  44.8438628  49.8247606  12.2164924  44.7271902
  49.0603488  12.0491106  44.7710308  45.2775499  11.1587210  39.0116460
  44.9888747  10.5324682  39.5462187  46.1458847  11.1007498  39.0781141
  45.3635751  11.0574755  39.1007415  56.0653397   6.3021994  39.3298442
  55.7218162   5.5812329  39.6805692  56.1646439   6.0935845  38.4876800
  56.0295439   6.1646197  39.2570122  56.5266426  12.7647698  34.8722430
  57.0924458  13.4240908  34.7880973  55.8794329  13.1097396  35.3438832
  56.5145182  12.9129639  34.9295187  47.9414439   4.7545302  50.0616037
  47.1314215   5.0603082  49.9505880  48.4189126   5.4750884  50.1768622
  47.8917918   4.9059903  50.0623109  43.7897183   4.0196832  34.3793895
  43.5021979   3.6498102  33.6425843  44.4767651   4.4891687  34.1177600
  43.8486080   4.0343801  34.2308971  52.9973004  15.7086482  34.2959509
  52.7559680  14.9754343  33.8886574  53.1774337  16.2573339  33.6425843
  52.9880628  15.6808873  34.1389732  46.6250854   7.8849780  35.8261300
  47.3473506   8.0490938  35.3665106  46.1458847   8.6059445  35.7200640
  46.6614585   8.0148009  35.7426914  54.5844362   4.2213579  41.2057985
  53.7455463   4.2474857  40.9696248  54.6548729   4.8684314  41.7863331
  54.4712756   4.3209704  41.2567102  44.2758471  10.2907852  44.9315440
  44.7879568  10.5692105  44.2824200  43.9894814  11.0297146  45.2978253
  44.3093334  10.4410206  44.8905318  58.4601886   9.4281565  38.4919227
  58.3735860   9.5836991  39.3454005  58.0052366  10.0719641  38.1178632
  58.3805142   9.5457320  38.5626333  41.3625377   4.7978044  35.2279176
  41.4641514   5.6004205  35.5560152  42.1581264   4.5965380  34.9302257
  41.4953283   4.8863943  35.2314532  47.7942197   2.3834241  44.9916481
  47.6025394   2.3989375  45.8415905  48.6440792   2.5797915  44.9683136
  47.8917918   2.4148592  45.1139776  42.1789110   4.9125222  42.9700298
  42.0374601   4.0609163  43.0944806  42.4629673   4.9553883  42.1462504
  42.1996956   4.7924972  42.8667922  52.3327702   6.7492312  37.1144786
  52.0862416   6.6688063  37.9481575  52.6612825   5.9645780  36.9207314
  52.3448945   6.6218578  37.2092309  56.2275751  13.4575672  40.9031567
  56.0890110  14.1556718  41.4080310  55.4475749  13.3024328  40.5467749
  56.0918978  13.5375838  40.9257842  54.5653836   9.7572047  47.1553949
  54.5601874   8.8851864  47.1596376  55.2714830   9.9560216  46.6823405
  54.6698840   9.6575921  47.0860984  48.2924729   9.4849031  46.5267769
  48.4368105  10.0650239  45.8910879  48.6400378   9.8625328  47.2317624
  48.3652191   9.6269735  46.5366764  50.4644647   8.6839199  44.3092901
  49.7167961   8.8770214  43.9041179  50.6186172   7.8584419  44.0717022
  50.3767074   8.5904311  44.2138307  57.7229124  12.8153926  31.6648067
  57.3435932  12.0291063  31.6577356  57.0595369  13.3640783  31.5219711
  57.5687598  12.7798750  31.6428863  50.7046424   2.5789750  45.1988305
  51.1619038   3.3113724  45.3261097  50.7802752   2.1556215  45.9575560
  50.7837393   2.6246988  45.3289381  42.9479415   2.8255570  46.2877748
  42.4121604   2.2135928  46.6038516  43.0097180   3.4003706  46.9411415
  42.8775047   2.8202498  46.4313175  48.5828801   4.5691854  42.0430129
  47.7924876   4.3883314  42.3647464  48.9789424   3.7918807  42.0260423
  48.5245678   4.4279315  42.0882677  53.0694692  13.3979628  27.4836842
  53.8367677  13.4579753  27.0742694  52.6226001  12.8260070  26.9993161
  53.1168120  13.3216204  27.3514552  53.9672488  12.2034284  39.7689574
  53.2917490  11.9719516  40.2702961  53.9764864  11.5955467  39.1431679
  53.8690992  12.0793209  39.7505727  51.0966632   7.0452113  46.5253627
  51.0325773   7.9062070  46.3973764  51.2363820   6.7284106  45.7249179
  51.1082102   7.1252280  46.3881840  55.9689222  15.0599417  31.9999752
  56.0509060  15.8666403  31.6761203  56.4538965  15.0795376  32.7240526
  56.0526380  15.1820079  32.0586651  49.7785726   9.7384252  40.6669830
  49.3547975   9.9388752  39.9308849  49.6030581   8.8913100  40.7794130
  49.6896606   9.6433034  40.5743520  45.0668171  10.2336304  36.0997803
  45.2232790  10.1683107  36.9553795  45.4068764  11.0084856  35.8876483
  45.1401405  10.3385502  36.1952397  51.6047315   9.6094188  34.9691166
  52.1462861   9.1064569  35.4329787  51.9193874   9.5559382  34.1580651
  51.7311712   9.5273608  34.9174978  55.4764423  13.8196835  52.0818078
  56.2899288  13.5481984  52.2423211  55.3159389  13.5204375  51.2778274
  55.5734371  13.7351761  51.9863484  52.7536585   4.5030492  45.0213467
  52.9678554   3.8641406  44.4676821  52.1370484   4.9476316  44.5921328
  52.6941914   4.4740636  44.8763898  54.1641253  17.4249240  36.4667687
  53.7721044  17.1215955  35.7490554  54.3194325  18.2618330  36.2772641
  54.1294842  17.5033077  36.3324185  41.6402432   7.4171254  36.4158570
  42.0201397   7.8355799  35.7518837  41.0657797   7.9984710  36.7227413
  41.6113757   7.5649113  36.3635311  54.9175673   6.1119557  45.9596774
  54.1052354   5.8045448  46.0409946  55.3765607   5.6318557  46.5239486
  54.8656057   5.9956050  46.0551368  54.3280927  13.9899229  36.4073718
  53.9695582  14.1613872  37.1837750  53.8419638  14.4512435  35.8501716
  54.2039624  14.0838200  36.4398987  49.1169293   9.6698395  28.9473952
  49.4061818  10.4463277  29.2217527  49.2041092   9.1587126  29.6488452
  49.1723549   9.7090313  29.0916450  52.0129180   7.5179629  50.7425476
  52.4828811   8.1421745  51.1293350  52.0591060   6.8496604  51.3018691
  52.0897056   7.5114309  50.8825547  55.4885667  14.8803125  47.3540919
  56.1265387  14.3863321  47.0203375  54.8459758  14.8080526  46.7693146
  55.4879893  14.7962134  47.2183274  57.2142667   6.7292271  41.9206834
  56.7870275   6.6418620  41.1654934  56.5768720   6.8370047  42.5061679
  57.0572274   6.7324931  41.8952276  55.5439923  15.5722933  43.9946276
  56.3332301  15.2211998  44.1148357  55.7183521  16.3859322  43.7322909
  55.6860205  15.6408791  43.9734144  45.2833234   8.9831659  41.0474064
  44.4421240   8.8835533  41.2552958  45.4923242   9.7527139  41.3988385
  45.1897926   9.0823702  41.1301379  42.7608801   6.6051196  38.8758815
  42.3665498   6.6794208  38.1008925  42.2048917   6.9909142  39.4267177
  42.6211613   6.6732971  38.8426475  49.0949899   6.9113058  40.2971662
  48.7913036   6.3569047  40.8982070  48.3929319   7.0905268  39.8099696
  48.9466108   6.8557841  40.3141368  48.1515996   4.2213578  34.8616364
  48.4275730   3.5032491  34.4493931  48.7514665   4.8198498  34.6537470
  48.2809260   4.2033949  34.7697125  45.1742042  11.3775421  42.4665697
  44.5829975  12.0184920  42.4368712  45.9363065  11.8013039  42.4396997
  45.1990302  11.5351260  42.4580845  45.5702664   2.5377419  43.1333715
  46.0304146   2.6116349  43.8708839  45.6158771   3.3358673  42.7833536
  45.6453220   2.6671566  43.1906471  47.2186014   3.2044114  47.7005742
  46.8271579   2.5577461  48.1361520  47.3871877   3.7955549  48.3199997
  47.1856924   3.1958382  47.8568448  61.2932463  11.2081191  43.4642976
  61.3515587  11.6567840  44.2102952  60.6598931  11.6180004  43.0273056
  61.2083758  11.3354926  43.5095524  54.9331558  16.8284733  39.8997722
  54.7351246  17.3175548  39.2053933  54.3119269  17.0325975  40.4781855
  54.8119122  16.9301271  39.8820945  48.9939536   8.5969630  34.2407966
  49.7381581   8.9843906  34.4790916  49.1400232   7.7527055  34.4048454
  49.1250121   8.5300103  34.3001936  51.9817412   4.1695103  40.1401885
  51.5077366   3.6436865  40.6507196  52.3535548   3.6224576  39.5716747
  51.9667301   4.0111100  40.1317033  42.3590442   6.1666610  45.5085431
  43.2216055   6.0662319  45.4222761  42.0282225   5.5861319  44.9471003
  42.4375639   6.0658237  45.4130837  58.2454143   9.2297479  41.5508666
  58.0052365   8.3903894  41.5551092  58.7246150   9.3097646  42.2749439
  58.2806326   9.1178879  41.6583468  53.9100912   5.0631658  33.2027639
  53.3823930   5.1460402  32.5133348  54.3696620   5.8049529  33.1992284
  53.9002762   5.1852320  33.1002334  60.2459330   6.0098936  39.5037925
  60.0069100   5.9694770  38.6658710  60.4093231   6.8570088  39.6303646
  60.2349633   6.1291021  39.3991407  56.8505360  10.3948885  45.4342970
  57.5739559   9.9421412  45.2553990  56.5855322  10.6753551  44.6515298
  56.9186633  10.3699854  45.2921686  45.7192228   4.9909059  42.1695849
  45.0945298   5.0027451  41.5621802  45.3837823   5.4669234  42.8187090
  45.5777720   5.0627576  42.1752418  45.9033977   3.3334177  28.2268534
  45.5546781   3.9853903  28.6900084  45.4230423   3.3191290  27.4992406
  45.7804221   3.4277231  28.1879626  42.4317904  13.0509519  43.6099614
  41.9017828  12.3601958  43.6594588  42.7042997  13.0419704  42.7812322
  42.3942626  12.9476651  43.4947030  53.4637994  13.6335221  32.3337296
  54.1872193  14.0993334  32.1901870  53.0238585  13.7008831  31.5834893
  53.5053686  13.7119058  32.2022078  52.6324149  10.4932764  43.5837985
  52.0181142   9.9490814  43.8786621  53.1491434   9.9797000  43.1043801
  52.6179812  10.3369173  43.5562214  51.8720446  11.5637034  41.3182284
  51.4448054  10.9386752  40.8847719  51.8645391  11.2811955  42.1441291
  51.8079588  11.4289814  41.3762111  44.9882973   6.6002207  44.3870718
  45.1476460   5.8445531  44.7922440  44.8075867   7.1493146  45.0411456
  44.9848332   6.5696020  44.5433424  50.2006156   2.4405788  41.5324818
  50.2248643   1.9065900  40.8437598  50.4517630   1.9323097  42.1950408
  50.2416075   2.2866692  41.5289463  37.7113746   9.7237283  40.9667962
  37.6057195   9.6784127  40.1020046  36.9613966  10.0691064  41.2482247
  37.5849349   9.7678191  40.8805292  46.4807478   1.1676606  40.9130562
  46.5205850   1.6685813  41.6265270  45.6557143   1.2587000  40.6436485
  46.3647004   1.2558423  40.9781100  48.6637091  10.7337346  49.0150857
  47.8132722  10.8709061  49.1508502  48.8265219  10.0001125  49.4598558
  48.5620955  10.6451448  49.1006456  47.9021842   7.6837116  43.2104461
  47.0713771   7.8510934  43.0039709  47.8473359   7.3073067  43.9953347
  47.7711257   7.6526848  43.2952989  45.7105625   1.1746009  48.8460872
  46.3358328   0.6308142  49.1190304  45.2556105   0.6940927  48.2768662
  45.7353886   1.0235490  48.8022466  46.2757886   5.9592708  33.7394579
  46.4160847   6.4565172  34.4423220  46.7740418   5.2579002  33.8808793
  46.3698966   5.9294687  33.8646158  46.3058108   6.8259819  31.0687156
  46.9403187   7.4220244  31.0036618  46.3883719   6.5263276  31.8833026
  46.4114659   6.8700727  31.1790242  59.2840674   9.3575296  43.9373520
  59.8758514   9.9972547  43.9691718  59.7199668   8.6598333  44.2265587
  59.4359105   9.3493647  43.9854353  47.8837091   2.7573794  31.0432598
  48.2052932   2.2776877  30.3891860  48.1464035   3.5673440  30.8523409
  47.9703116   2.8063692  30.9188090  51.1134064  13.7792669  44.5631414
  50.6059155  14.3328515  45.0072044  50.8160710  13.8400958  43.7450188
  50.9938948  13.8698980  44.5079871  42.8111096   9.0227660  34.3376702
  43.3203325   9.6192167  34.7188007  43.2845368   8.7553633  33.6553121
  42.9554471   9.0713475  34.2931224  53.7241844  17.6955926  32.4935357
  53.0071154  17.5216788  32.0282595  54.3748581  17.4608499  31.9610843
  53.7143694  17.6351719  32.3464575  56.3089815   6.5720515  36.2376662
  55.6381005   7.1150217  36.1089728  57.0029565   7.0415370  35.9958357
  56.3118683   6.7218786  36.1832190  45.1701628   5.6583918  37.2049882
  44.4513617   6.0748051  37.4722746  45.5413990   6.2238157  36.6541520
  45.1193559   5.8033200  37.1632689  54.4701208   6.2911767  43.0951878
  54.4499136   6.1095062  43.9486657  54.5180409   7.1623786  43.0711462
  54.4735849   6.3928305  43.2175173  52.4147538  12.8798959  49.0200354
  52.3743393  12.2348636  48.4345510  53.2270856  12.8235576  49.3325767
  52.5290692  12.7757926  48.9797304  52.3720300  18.0907770  39.6749122
  51.9736583  18.2010040  38.9069942  51.7571519  18.2989836  40.2575682
  52.2219189  18.1381338  39.6480421  50.9448202   4.6981918  32.5423262
  50.3513041   5.0198914  31.9907829  50.9823480   3.8523013  32.3344368
  50.8622591   4.6206246  32.4306033  53.8206018   4.6561422  35.9725012
  53.5919711   4.6794124  35.1303370  54.0804095   3.8318890  36.0920022
  53.8252207   4.5377502  35.8650210  48.1025247   6.5095896  45.5750112
  47.5904150   5.9017079  45.9335143  47.9304743   7.2252488  46.0424088
  48.0014884   6.5259195  45.6966336  42.9490962   4.9533471  48.2252474
  42.7793552   5.6134846  47.6800681  42.5056911   5.1640032  48.9464963
  42.8590295   5.0819453  48.2514103  46.8750781   3.1937969  37.2679208
  47.3508147   3.5555049  36.6329389  46.3739381   3.8494436  37.5479350
  46.8716140   3.3432158  37.2155949  60.1062143  12.6659737  33.0592213
  60.4895748  13.4151093  33.2890310  59.3106256  12.9125557  32.8004202
  60.0455925  12.8129431  33.0549786  51.9794317   4.4320140  48.0152368
  52.5365747   4.2033950  47.3830833  51.6555382   5.1925806  47.7387580
  52.0140727   4.5103977  47.8808865  39.8493026   7.8580336  43.4840964
  39.3019746   7.1880982  43.6021832  40.6385404   7.4910184  43.5484431
  39.8845210   7.7045323  43.5109664  49.6977435   7.5187793  48.9804375
  50.4488761   7.8339470  49.2943929  49.8900011   7.3166964  48.1538297
  49.8368849   7.5355175  48.9047771  48.9177434   5.3379169  30.6352592
  49.2976399   5.3558798  29.8503706  48.1770030   5.7833157  30.5143439
  48.8646272   5.4060943  30.5016160  38.6079996   7.0701144  40.6386987
  38.4301757   6.6177753  41.3641902  38.3199018   7.8727306  40.8225464
  38.5392949   7.1223702  40.7730490  54.2703577   8.3258862  39.8764377
  54.7657242   7.6081857  39.8368397  53.4603352   8.0229659  39.7618864
  54.2247470   8.1756508  39.8538103  49.7162188  12.1756675  32.0261382
  48.9073511  11.8523348  31.9794691  50.2237097  11.4689897  31.9589630
  49.6711855  12.0237991  32.0091676  40.3452465   9.6028868  37.7508746
  39.4797985   9.5914558  37.6391517  40.4451281   9.4159091  38.5979885
  40.2326632   9.5734929  37.8597690  56.3355396  11.0762549  42.5641506
  56.7610467  10.5536971  42.0111931  55.9712315  11.6743387  42.0430129
  56.3441998  11.0872776  42.4050516  52.9233995  14.7896813  38.8942663
  53.3945173  15.5037076  39.0632649  53.2594174  14.1895564  39.4302533
  53.0429110  14.8068278  38.9975039  55.0110980  16.3998127  51.0734735
  55.1207945  15.6106687  51.4291483  55.3401876  16.3104063  50.2709073
  55.0763385  16.2703980  51.0077126  53.5607941  14.5814748  45.6570356
  53.0128887  13.9572631  45.3890421  54.0220970  14.7709020  44.9414435
  53.5475151  14.5173798  45.5120787  48.9096605   1.5640697  33.3180223
  49.7312299   1.7339010  33.0761918  48.4466256   1.7187958  32.5946521
  48.9627767   1.6122430  33.1751867  43.3122496  13.3199875  40.9717460
  43.9167353  13.2795709  40.3431280  43.1049808  14.1671027  41.0021516
  43.3711393  13.4387878  40.8833576  53.1266268  15.5865820  42.1879697
  53.9464641  15.4428786  42.4495992  52.8460345  16.2112019  42.7296135
  53.2063011  15.6576172  42.3067637  38.5473778  12.3034493  40.8416383
  38.4498056  11.4930764  41.1506440  39.3302647  12.2826286  40.4562651
  38.6489914  12.1801583  40.8303246  69.5979918  23.2430672  35.1522573
  69.5673922  24.0975309  35.3240843  70.1961267  22.9425964  35.7108717
  69.6817076  23.3247168  35.2597376  62.7979603  22.3306323  39.9075504
  61.9417498  22.4914821  39.9584621  62.8447257  21.4598387  39.9280565
  62.6778714  22.2257125  39.9181570  66.1073319  28.5992849  49.5135960
  66.8140087  28.1044879  49.6422894  66.2961255  29.0401930  48.7838618
  66.2401225  28.5911199  49.4245005  62.6345702  32.2894410  31.0998283
  62.2997071  32.9671332  30.6642505  63.1472573  31.8999722  30.5115154
  62.6611284  32.3318989  30.9485074  62.1749994  34.2408679  37.0409394
  62.5589373  34.8095578  36.5014169  62.1109135  33.5158189  36.5615210
  62.2223421  34.2184142  36.8903257  65.6431424  24.3898367  42.5507156
  66.1887384  25.0683453  42.6101125  65.5848300  24.2485828  41.6908737
  65.7147338  24.4690369  42.4319216  58.7605499  31.8787433  37.9375508
  58.8615862  31.0687787  38.2472636  58.1647244  31.7844379  37.3075186
  58.6878037  31.7452461  37.8901746  67.4196493  25.8182974  33.4240883
  67.3036018  26.5690660  33.8533021  68.2152379  25.5606927  33.6736970
  67.5201082  25.8917821  33.5244975  54.2560630  20.0693450  40.4612149
  53.6365662  19.4786097  40.2922164  54.1544494  20.6604885  39.8276473
  54.1498306  20.0697533  40.3417139  59.3026818  29.8076997  34.7110226
  59.6242659  30.3482204  34.1071534  59.9498915  29.2373768  34.8432516
  59.4452873  29.8036172  34.6417261  61.3528526  21.8092992  34.7944612
  62.0508691  21.9881119  35.2866076  61.6680859  21.2863331  34.1715002
  61.5023863  21.7586764  34.7746623  53.9829764  23.6145732  42.7055718
  53.8588460  24.2008177  43.3405537  54.6348048  23.1205928  43.0067993
  54.0603413  23.6284536  42.8441648  61.5416462  28.1963437  34.7824404
  61.9810097  27.5880537  35.2279177  61.3921124  27.8170810  34.0109869
  61.5837927  28.0501908  34.7343571  59.0088105  26.7907449  41.9843229
  59.6537107  26.2979892  41.6654178  59.2489882  26.9332235  42.8109308
  59.1398690  26.7384891  42.0592763  61.5474196  29.6362355  41.6350122
  61.8297439  28.8413760  41.4136878  62.2760356  30.1142942  41.6555183
  61.6963760  29.5896952  41.6053137  59.5255390  17.1785389  38.8765887
  59.1958720  17.6296532  38.2069586  58.8500392  17.1001552  39.4238893
  59.3765826  17.2336524  38.8589110  65.1425798  26.5490618  31.7355173
  65.0577093  27.4051585  31.8804742  65.6310181  26.2734942  32.4037332
  65.2014695  26.6347940  31.8557255  66.7331797  13.1670911  37.1215498
  66.4185238  13.8574390  37.5535920  66.2158739  13.1115694  36.4200998
  66.6096268  13.2605800  37.0812447  66.0744231  23.1675412  33.2352908
  65.5455703  23.3835046  33.8950214  66.5969251  23.8611551  33.1553878
  66.0732684  23.3018549  33.3208507  71.5292284  28.7421717  38.6085953
  70.6989987  28.9532361  38.7719369  71.4801537  27.9158771  38.3328236
  71.3999020  28.6511323  38.5923318  57.9643839  27.0638629  32.0360376
  57.3801054  27.5688661  32.4426240  57.5613934  26.8381016  31.2956968
  57.8183143  27.1046877  31.9865401  59.5902022  31.5725571  41.4433862
  59.0728963  31.2132986  40.8395170  60.2876413  31.0487745  41.4539928
  59.6167603  31.4423259  41.3564121  63.2465614  32.0220385  47.4050035
  63.3348960  31.8346525  48.2528246  63.6755326  31.3757815  47.0054882
  63.3227716  31.8983393  47.4721787  60.8136074  31.3051545  46.3867697
  60.2506908  30.8924155  46.9107359  61.5757097  31.2304451  46.8060841
  60.8430522  31.2328946  46.5260698  62.4221054  23.3104281  30.5129297
  62.6617057  23.5182265  29.7004640  62.7436894  22.5061790  30.6218241
  62.5058211  23.2218382  30.4089850  57.7311344  15.2397677  34.3588835
  58.4857312  15.6075994  34.1205885  57.5538878  15.6137231  35.1268014
  57.8165822  15.3495865  34.4373723  71.0246242  21.3892117  42.4036374
  70.1874664  21.4594305  42.6383969  70.9934473  21.3916612  41.5310676
  70.8964525  21.4002345  42.3095922  57.4210972  23.5325153  48.1184743
  57.5931475  23.4231048  48.9670024  57.9580329  24.1779559  47.8815935
  57.5255976  23.6117155  48.2089839  56.0868408  17.6467996  31.0566948
  55.9043982  17.8639877  30.2307941  56.9494021  17.7607009  31.1125562
  56.1872998  17.6957894  30.9421435  61.7668128  14.6494407  34.0915972
  62.4954288  14.4710362  33.6454128  61.8563021  15.4912486  34.3023150
  61.8874790  14.7478285  34.0569489  65.7476428  25.5847794  37.9948266
  66.5033943  26.0179308  38.0337174  65.8538753  24.9352564  38.5682902
  65.8746599  25.5525278  38.0846291  68.7856599  29.4121071  38.7450669
  68.3491831  29.4157814  39.5009640  68.4519515  30.0926570  38.3130246
  68.6719219  29.5133527  38.7931501  63.3585673  31.4529404  50.0693819
  64.1426090  31.5660252  50.4349561  63.1582268  30.6270541  50.2652505
  63.4451698  31.3476124  50.1528205  51.7272688  26.1257084  42.9537663
  51.4611104  25.3096201  43.1128653  51.7411253  26.1710240  42.0833178
  51.6897411  26.0113989  42.8491145  68.7054082  16.4534899  40.9880096
  69.3479991  16.5233004  41.5742012  68.9577103  15.7864122  40.4859638
  68.8376214  16.3661248  41.0007376  55.6330435  20.9242169  29.5689421
  54.9188613  20.6380348  29.9811853  56.1174404  21.2638794  30.2095808
  55.5989799  20.9323818  29.7245056  56.4771295  19.6635462  45.6004670
  55.7843092  19.1932442  45.8465402  57.0931622  19.4373767  46.1746378
  56.4655825  19.5602594  45.7213823  63.5156066  33.3639506  43.7160274
  62.7171312  33.1239006  43.9734143  63.9642078  33.4153899  44.4627322
  63.4630678  33.3361897  43.8645199  71.9200946  26.1301991  37.6370306
  72.5817380  25.5692660  37.5366214  71.2792358  25.6354022  37.9622997
  71.9229813  25.9738400  37.6702646  62.8077753  29.4272123  29.9451229
  63.2228902  29.0957146  29.2535725  61.9769683  29.1941025  29.8171366
  62.7465762  29.3443379  29.8242076  68.2065776  27.1467374  37.3782295
  68.4421366  27.2912572  36.5509145  68.3555340  27.9109782  37.7713808
  68.2631580  27.2806428  37.3145898  55.2011854  23.6300866  46.7431516
  55.9251826  23.6153897  47.2296410  55.3027990  24.3396222  46.2453484
  55.3230063  23.7325570  46.7410302  70.0356233  25.9869039  35.2151898
  70.3664450  26.5196680  34.6091993  70.6089321  26.0407927  35.8713849
  70.1689912  26.0738608  35.2229680  62.5756803  27.1099951  51.6080463
  61.7829784  27.4243463  51.7933082  62.6905730  27.3251419  50.7701247
  62.4752214  27.1883788  51.5118797  65.2488122  23.8333942  35.8975478
  65.3434977  24.5723236  36.3515104  64.6246966  23.4051418  36.3310043
  65.1697152  23.8795263  36.0283626  63.5040596  27.0120155  46.5465759
  64.0779458  26.3747399  46.7014323  63.4255400  27.0124237  45.6775417
  63.5773831  26.9185266  46.4412170  65.5011143  25.6782682  29.1312430
  65.4191306  25.7484869  29.9967417  66.1390864  26.2412426  28.9396171
  65.5830981  25.7721653  29.2302380  58.8604315  25.4443420  38.5986957
  58.6023559  24.6115155  38.5718256  58.9152797  25.6701033  37.7579457
  58.8304093  25.3541191  38.4707094  63.9405365  17.5471871  38.6991049
  63.2361692  17.0581056  38.8574969  63.9890339  17.5594345  37.8279494
  63.8435416  17.4761519  38.5930389  57.8339027  22.9981182  39.0851852
  57.2588618  23.1573351  39.7215812  57.4574703  22.3616592  38.6220302
  57.6941839  22.9278995  39.1106410  61.5012315  21.4704532  43.9444230
  61.1126748  21.0458749  43.2896421  60.8367014  21.7186681  44.4521257
  61.3459243  21.4443253  43.9232098  71.1435585  21.2279536  36.7192060
  70.8872149  20.4159478  36.5289943  71.9864899  21.2357104  36.4922247
  71.2301610  21.1091534  36.6576877  65.3238677  15.1679160  41.4568214
  65.7049189  14.4857332  41.8436088  64.5201961  14.8788763  41.2743879
  65.2615139  15.0246209  41.4872270  62.6051254  25.7003136  32.1421037
  63.4191893  25.9918029  32.0303808  62.5410395  25.0462999  31.5679330
  62.7153993  25.6468331  32.0409874  68.8260744  28.3829132  46.5550613
  68.5899381  27.5517197  46.4362673  69.4703973  28.3314740  47.1405457
  68.8855415  28.2526820  46.6236506  58.4759162  29.1724654  37.2693349
  59.1133109  28.9336401  37.8145142  58.9014234  29.3761813  36.5346510
  58.6335328  29.1675664  37.2410506  59.1161977  24.3926943  31.6068238
  59.5007130  24.1734650  32.3584784  58.8673597  25.2189889  31.7369315
  59.1364050  24.4825090  31.7369315  59.2830517  17.6733359  51.3230823
  58.9683958  18.4432921  51.0600385  58.9620450  17.1103615  50.7383050
  59.1889436  17.7043627  51.1972173  69.8497164  28.1673581  42.6178907
  69.5442982  28.9001638  42.9792223  69.1303380  27.7611511  42.3371693
  69.6984507  28.2155314  42.6292044  60.8580634  29.6497076  38.9487135
  60.9319642  29.4872248  39.8028985  61.6750140  29.8387266  38.7047617
  60.9896993  29.6533819  39.0385161  75.5498957  24.8066582  41.9447251
  75.4823457  24.8262541  41.0749838  75.5354619  25.6496909  42.1702922
  75.5377713  24.9340317  41.8499728  56.8362414  16.0623880  36.9377019
  55.9684840  16.1346480  37.0034628  57.1237619  16.8645959  37.1264994
  56.7502162  16.1918027  36.9751786  65.9595303  16.2101740  45.2688341
  66.7048895  16.0211550  44.8551766  65.5432608  16.7359978  44.7102197
  66.0080277  16.2603885  45.1252914  59.3985220  32.6131819  33.6800609
  59.6883518  32.2220801  32.9559835  60.1288700  32.7948524  34.1205884
  59.5492104  32.5825633  33.6383416  73.3357574  23.5810968  40.2193846
  73.8865496  22.9479037  40.4590938  73.3201689  24.1126361  40.9109350
  73.4142770  23.5659916  40.3572704  59.9879965  27.4149565  44.7653739
  59.4891658  28.1265333  44.8438628  60.7980189  27.7350232  44.7271902
  60.0336072  27.5676414  44.7710308  56.2508082  26.6772518  39.0116460
  55.9621331  26.0509990  39.5462187  57.1191430  26.6192806  39.0781141
  56.3368334  26.5760063  39.1007415  67.0385980  21.8207302  39.3298442
  66.6950746  21.0997637  39.6805692  67.1379023  21.6121153  38.4876800
  67.0028023  21.6831505  39.2570122  59.5059091  35.9628592  35.5291451
  60.1583149  35.4305034  35.7582477  58.8084700  35.6097244  35.9159325
  59.4989809  35.8318115  35.6203619  56.4540356  28.3167769  34.9358825
  57.2086324  28.6980808  35.1494288  55.8610968  28.7678913  35.3905522
  56.4777069  28.4396597  35.0341704  67.4999009  28.2833006  34.8722430
  68.0657042  28.9426216  34.7880973  66.8526913  28.6282704  35.3438832
  67.4877766  28.4314947  34.9295187  58.9147023  20.2730610  50.0616037
  58.1046799  20.5788389  49.9505880  59.3921710  20.9936192  50.1768622
  58.8650502  20.4245211  50.0623109  57.7738582  29.4876331  40.3098941
  57.2519336  29.6276622  40.9950805  58.1612603  28.7286995  40.5001058
  57.7542283  29.3961855  40.4400017  54.7629766  19.5382139  34.3793895
  54.4754562  19.1683410  33.6425843  55.4500235  20.0076995  34.1177600
  54.8218664  19.5529109  34.2308971  63.9705587  31.2271790  34.2959509
  63.7292263  30.4939651  33.8886574  64.1506920  31.7758647  33.6425843
  63.9613211  31.1994181  34.1389732  59.2004908  26.5180350  35.7080432
  59.0047691  27.1255084  35.1140735  59.4239254  25.8248294  35.2272106
  59.2039549  26.5057875  35.5496512  57.5983438  23.4035088  35.8261300
  58.3206090  23.5676246  35.3665106  57.1191431  24.1244753  35.7200640
  57.6347169  23.5333317  35.7426914  65.5576946  19.7398886  41.2057985
  64.7188046  19.7660165  40.9696248  65.6281313  20.3869622  41.7863331
  65.4445339  19.8395012  41.2567102  55.2491055  25.8093160  44.9315440
  55.7612152  26.0877413  44.2824200  54.9627397  26.5482454  45.2978253
  55.2825918  25.9595514  44.8905318  64.0046224  16.6384263  35.9385601
  64.7072577  16.4392012  35.4605559  63.7390413  15.8660206  36.2454444
  64.0692856  16.4947230  35.9131042  69.4334469  24.9466873  38.4919227
  69.3468444  25.1022299  39.3454005  68.9784949  25.5904949  38.1178632
  69.3537726  25.0642628  38.5626333  52.3357961  20.3163352  35.2279176
  52.4374097  21.1189513  35.5560152  53.1313848  20.1150688  34.9302257
  52.4685867  20.4049251  35.2314532  58.7674780  17.9019549  44.9916481
  58.5757977  17.9174683  45.8415905  59.6173376  18.0983223  44.9683136
  58.8650502  17.9333900  45.1139776  53.1521693  20.4310530  42.9700298
  53.0107185  19.5794471  43.0944806  53.4362257  20.4739191  42.1462504
  53.1729539  20.3110280  42.8667922  63.3060286  22.2677620  37.1144786
  63.0595000  22.1873371  37.9481575  63.6345409  21.4831088  36.9207314
  63.3181529  22.1403886  37.2092309  67.2008334  28.9760980  40.9031567
  67.0622694  29.6742025  41.4080310  66.4208332  28.8209636  40.5467749
  67.0651561  29.0561146  40.9257842  65.5386419  25.2757355  47.1553949
  65.5334458  24.4037172  47.1596376  66.2447413  25.4745524  46.6823405
  65.6431423  25.1761229  47.0860984  59.2657313  25.0034339  46.5267769
  59.4100689  25.5835547  45.8910879  59.6132961  25.3810636  47.2317624
  59.3384774  25.1455043  46.5366764  61.4377230  24.2024507  44.3092901
  60.6900544  24.3955522  43.9041179  61.5918755  23.3769727  44.0717022
  61.3499658  24.1089619  44.2138307  58.3385068  33.1937111  43.3928796
  58.4874632  32.6340027  42.7402200  59.1185070  33.2729112  43.7761315
  58.4759161  33.1222676  43.3525745  68.6961707  28.3339233  31.6648067
  68.3168516  27.5476371  31.6577356  68.0327953  28.8826090  31.5219711
  68.5420182  28.2984057  31.6428863  60.8638368  33.3651754  44.6713287
  60.7882039  32.6960564  45.2264075  60.7928228  34.0669542  45.1853953
  60.8418975  33.3696661  44.8290135  61.6779007  18.0975058  45.1988305
  62.1351621  18.8299032  45.3261097  61.7535336  17.6741523  45.9575560
  61.7569977  18.1432296  45.3289381  53.9211998  18.3440878  46.2877748
  53.3854188  17.7321236  46.6038516  53.9829763  18.9189014  46.9411415
  53.8507631  18.3387805  46.4313175  66.1506333  11.2764933  39.0682147
  66.2689901  11.7341397  38.3349450  65.9768509  10.4710194  38.7818365
  66.1425504  11.2258705  38.9183081  61.5208615  31.8852753  35.5036893
  62.2858506  31.6162396  35.1819557  61.4186705  31.4002763  36.2206956
  61.6190111  31.7742317  35.5616720  59.5561385  20.0877162  42.0430129
  58.7657460  19.9068622  42.3647464  59.9522008  19.3104115  42.0260423
  59.4978261  19.9464623  42.0882677  64.0427276  28.9164936  27.4836842
  64.8100261  28.9765061  27.0742694  63.5958585  28.3445378  26.9993161
  64.0900703  28.8401512  27.3514552  64.9405071  27.7219592  39.7689574
  64.2650073  27.4904824  40.2702961  64.9497447  27.1140775  39.1431679
  64.8423576  27.5978517  39.7505727  62.0699215  22.5637421  46.5253627
  62.0058357  23.4247378  46.3973764  62.2096403  22.2469414  45.7249179
  62.0814685  22.6437588  46.3881840  66.9421806  30.5784724  31.9999752
  67.0241643  31.3851711  31.6761203  67.4271548  30.5980684  32.7240526
  67.0258964  30.7005387  32.0586651  60.7518309  25.2569560  40.6669830
  60.3280558  25.4574059  39.9308849  60.5763164  24.4098408  40.7794130
  60.6629190  25.1618342  40.5743520  56.0400754  25.7521612  36.0997803
  56.1965373  25.6868415  36.9553795  56.3801347  26.5270164  35.8876483
  56.1133989  25.8570810  36.1952397  62.5779899  25.1279495  34.9691166
  63.1195444  24.6249877  35.4329787  62.8926458  25.0744690  34.1580651
  62.7044296  25.0458916  34.9174978  66.4497006  29.3382143  52.0818078
  67.2631872  29.0667292  52.2423211  66.2891973  29.0389683  51.2778274
  66.5466955  29.2537069  51.9863484  60.7466349  30.5196847  32.2531194
  60.8159169  29.6611385  32.3924195  61.5254804  30.7368728  31.9250219
  60.8719199  30.4249711  32.2248351  63.7269168  20.0215800  45.0213467
  63.9411138  19.3826714  44.4676821  63.1103067  20.4661624  44.5921328
  63.6674497  19.9925944  44.8763898  65.1373836  32.9434548  36.4667687
  64.7453628  32.6401263  35.7490554  65.2926908  33.7803638  36.2772641
  65.1027426  33.0218385  36.3324185  52.6135016  22.9356562  36.4158570
  52.9933981  23.3541107  35.7518837  52.0390381  23.5170018  36.7227413
  52.5846341  23.0834421  36.3635311  65.8908256  21.6304865  45.9596774
  65.0784938  21.3230756  46.0409946  66.3498191  21.1503865  46.5239486
  65.8388641  21.5141358  46.0551368  65.3013511  29.5084537  36.4073718
  64.9428166  29.6799180  37.1837750  64.8152222  29.9697743  35.8501716
  65.1772208  29.6023508  36.4398987  63.1183897  13.1315736  40.0100809
  62.2477455  13.1054457  39.9634119  63.3724238  12.9592928  39.1926655
  63.0277457  13.1025879  39.8820946  60.0901876  25.1883703  28.9473952
  60.3794401  25.9648585  29.2217527  60.1773675  24.6772434  29.6488452
  60.1456133  25.2275621  29.0916450  62.9861764  23.0364937  50.7425476
  63.4561395  23.6607053  51.1293350  63.0323644  22.3681912  51.3018691
  63.0629640  23.0299617  50.8825547  60.1433037  15.1421964  41.4674280
  59.6271526  14.4502156  41.5925859  59.5826966  15.8092741  41.4136878
  59.9839551  15.1385222  41.4780346  62.2125271  15.6814924  43.2967132
  61.8257024  15.7063956  44.0780662  61.7258208  15.1156603  42.8441649
  62.0837780  15.6010675  43.3455036  66.4618250  30.3988433  47.3540919
  67.0997971  29.9048629  47.0203375  65.8192342  30.3265834  46.7693146
  66.4612477  30.3147442  47.2183274  68.1875250  22.2477579  41.9206834
  67.7602858  22.1603928  41.1654934  67.5501303  22.3555355  42.5061679
  68.0304858  22.2510239  41.8952276  61.8782413  12.5681910  45.5877392
  62.5075531  13.1042210  45.3098463  62.0468275  12.4759269  46.4390958
  61.9960207  12.6343272  45.6725920  61.6796327  17.3553104  47.8603804
  62.5069757  17.0838253  47.9162418  61.7004173  18.1513946  48.2167622
  61.8049177  17.4332859  47.9218987  66.5172507  31.0908241  43.9946276
  67.3064885  30.7397306  44.1148357  66.6916105  31.9044630  43.7322909
  66.6592788  31.1594098  43.9734144  56.2565817  24.5016967  41.0474064
  55.4153824  24.4020841  41.2552958  56.4655825  25.2712447  41.3988385
  56.1630510  24.6009010  41.1301379  53.7341384  22.1236504  38.8758815
  53.3398082  22.1979516  38.1008925  53.1781501  22.5094450  39.4267177
  53.5944197  22.1918279  38.8426475  65.3706331  15.1017798  38.5562694
  65.5755924  15.0340106  39.4019691  65.0432755  15.9076619  38.4883871
  65.3521579  15.2103738  38.6722349  60.0682482  22.4298366  40.2971662
  59.7645620  21.8754355  40.8982070  59.3661903  22.6090576  39.8099696
  59.9198692  22.3743149  40.3141368  59.1248579  19.7398886  34.8616364
  59.4008314  19.0217799  34.4493931  59.7247249  20.3383806  34.6537470
  59.2541844  19.7219257  34.7697125  58.1300833  29.6448087  45.0043760
  58.0221188  29.6550149  45.8705818  58.3396615  30.4702867  44.8148714
  58.1450944  29.7689162  45.1047851  68.6240019  15.6549562  38.0365459
  68.0114332  16.1419964  38.4219191  68.7204194  14.9793053  38.5803111
  68.5477916  15.6267871  38.1744318  62.6259100  17.4112403  33.1362959
  63.0802846  17.5822964  33.8610803  63.0999145  16.7980514  32.7360735
  62.7627420  17.3463289  33.1836720  56.1474625  26.8960729  42.4665697
  55.5562558  27.5370228  42.4368712  56.9095649  27.3198347  42.4396997
  56.1722886  27.0536568  42.4580845  56.5435248  18.0562727  43.1333715
  57.0036729  18.1301657  43.8708839  56.5891355  18.8543981  42.7833536
  56.6185803  18.1856874  43.1906471  58.1918598  18.7229422  47.7005742
  57.8004163  18.0762769  48.1361520  58.3604460  19.3140857  48.3199997
  58.1589508  18.7143690  47.8568448  72.2665047  26.7266499  43.4642976
  72.3248170  27.1753148  44.2102952  71.6331514  27.1365312  43.0273056
  72.1816342  26.8540234  43.5095524  65.9064141  32.3470041  39.8997722
  65.7083830  32.8360855  39.2053933  65.2851852  32.5511282  40.4781855
  65.7851706  32.4486579  39.8820945  59.9672120  24.1154938  34.2407966
  60.7114165  24.5029214  34.4790916  60.1132816  23.2712363  34.4048454
  60.0982705  24.0485411  34.3001936  61.8851695  15.9105197  39.2739827
  61.0387740  16.0828004  39.1481177  61.8822828  15.1054540  39.6105656
  61.7598845  15.8166226  39.3050954  62.9549996  19.6880411  40.1401885
  62.4809950  19.1622173  40.6507196  63.3268131  19.1409884  39.5716747
  62.9399885  19.5296408  40.1317033  53.3323026  21.6851918  45.5085431
  54.1948639  21.5847627  45.4222761  53.0014809  21.1046627  44.9471003
  53.4108222  21.5843545  45.4130837  69.2186726  24.7482787  41.5508666
  68.9784949  23.9089202  41.5551092  69.6978733  24.8282953  42.2749439
  69.2538910  24.6364186  41.6583468  64.8833495  20.5816966  33.2027639
  64.3556514  20.6645710  32.5133348  65.3429203  21.3234837  33.1992284
  64.8735346  20.7037628  33.1002334  71.2191913  21.5284244  39.5037925
  70.9801683  21.4880078  38.6658710  71.3825814  22.3755396  39.6303646
  71.2082217  21.6476329  39.3991407  67.8237943  25.9134193  45.4342970
  68.5472142  25.4606720  45.2553990  67.5587906  26.1938859  44.6515298
  67.8919217  25.8885162  45.2921686  56.6924812  20.5094367  42.1695849
  56.0677882  20.5212759  41.5621802  56.3570407  20.9854542  42.8187090
  56.5510304  20.5812884  42.1752418  56.8766560  18.8519485  28.2268534
  56.5279365  19.5039211  28.6900084  56.3963006  18.8376598  27.4992406
  56.7536804  18.9462539  28.1879626  53.4050487  28.5694827  43.6099614
  52.8750412  27.8787266  43.6594588  53.6775581  28.5605012  42.7812322
  53.3675210  28.4661959  43.4947030  64.4370578  29.1520529  32.3337296
  65.1604777  29.6178642  32.1901870  63.9971169  29.2194139  31.5834893
  64.4786270  29.2304366  32.2022078  63.6056733  26.0118072  43.5837985
  62.9913726  25.4676122  43.8786621  64.1224018  25.4982308  43.1043801
  63.5912395  25.8554481  43.5562214  62.8453030  27.0822342  41.3182284
  62.4180638  26.4572060  40.8847719  62.8377974  26.7997263  42.1441291
  62.7812171  26.9475122  41.3762111  55.9615557  22.1187515  44.3870718
  56.1209044  21.3630839  44.7922440  55.7808451  22.6678454  45.0411456
  55.9580916  22.0881328  44.5433424  63.9035860  14.2848750  44.9421507
  63.4076421  14.4812424  44.2513074  64.6604922  14.6841418  44.7710309
  63.9422685  14.3726484  44.8141644  61.1738740  17.9591096  41.5324818
  61.1981227  17.4251208  40.8437598  61.4250213  17.4508405  42.1950408
  61.2148658  17.8052000  41.5289463  57.4540062  16.6861914  40.9130562
  57.4938433  17.1871121  41.6265270  56.6289727  16.7772308  40.6436485
  57.3379588  16.7743731  40.9781100  59.6369675  26.2522654  49.0150857
  58.7865305  26.3894369  49.1508502  59.7997802  25.5186433  49.4598558
  59.5353538  26.1636756  49.1006456  58.8754425  23.2022424  43.2104461
  58.0446355  23.3696242  43.0039709  58.8205942  22.8258375  43.9953347
  58.7443840  23.1712155  43.2952989  56.6838209  16.6931317  48.8460872
  57.3090912  16.1493450  49.1190304  56.2288688  16.2126235  48.2768662
  56.7086469  16.5420798  48.8022466  57.2490469  21.4778016  33.7394579
  57.3893430  21.9750480  34.4423220  57.7473002  20.7764310  33.8808793
  57.3431550  21.4479994  33.8646158  57.2790691  22.3445127  31.0687156
  57.9135771  22.9405552  31.0036618  57.3616302  22.0448584  31.8833026
  57.3847242  22.3886035  31.1790242  70.2573257  24.8760604  43.9373520
  70.8491098  25.5157855  43.9691718  70.6932252  24.1783641  44.2265587
  70.4091688  24.8678954  43.9854353  58.8569674  18.2759102  31.0432598
  59.1785515  17.7962185  30.3891860  59.1196618  19.0858748  30.8523409
  58.9435700  18.3249000  30.9188090  62.0866647  29.2977976  44.5631414
  61.5791738  29.8513823  45.0072044  61.7893293  29.3586266  43.7450188
  61.9671532  29.3884288  44.5079871  64.2528829  17.6631296  43.4056077
  64.6783901  17.2103823  42.7939603  63.6385822  17.1091367  43.6820864
  64.2257475  17.5145272  43.3561102  53.7843679  24.5412967  34.3376702
  54.2935909  25.1377475  34.7188007  54.2577952  24.2738941  33.6553121
  53.9287055  24.5898783  34.2931224  64.6974427  33.2141234  32.4935357
  63.9803737  33.0402096  32.0282595  65.3481165  32.9793806  31.9610843
  64.6876278  33.1537027  32.3464575  62.6923052  14.1346396  36.8146654
  62.0491370  13.9844042  37.3831792  62.3522459  13.8888741  36.0495758
  62.5468129  14.0758518  36.7849669  67.2822399  22.0905823  36.2376662
  66.6113589  22.6335525  36.1089728  67.9762149  22.5600678  35.9958357
  67.2851266  22.2404094  36.1832190  61.3309132  34.2302535  41.4688421
  61.1074787  33.4721364  41.8372447  60.8418976  34.2600556  40.7468860
  61.2252581  34.1224759  41.4165162  67.4450526  18.5461706  39.1467036
  67.7978136  18.1191429  39.8212834  66.5865328  18.4612550  39.2768112
  67.3699971  18.4706447  39.2662046  56.1434211  21.1769226  37.2049882
  55.4246200  21.5933359  37.4722746  56.5146573  21.7423465  36.6541520
  56.0926143  21.3218507  37.1632689  65.4433792  21.8097075  43.0951878
  65.4231719  21.6280370  43.9486657  65.4912993  22.6809093  43.0711462
  65.4468433  21.9113613  43.2175173  63.3880122  28.3984267  49.0200354
  63.3475977  27.7533944  48.4345510  64.2003440  28.3420884  49.3325767
  63.5023275  28.2943234  48.9797304  59.9787589  34.4502993  38.9225505
  59.5647988  33.7877123  38.5329347  60.6634964  34.5980852  38.4021200
  60.0185961  34.3743651  38.7882002  63.3452883  33.6093078  39.6749122
  62.9469167  33.7195348  38.9069942  62.7304103  33.8175144  40.2575682
  63.1951773  33.6566646  39.6480421  61.9180785  20.2167226  32.5423262
  61.3245625  20.5384222  31.9907829  61.9556063  19.3708321  32.3344368
  61.8355175  20.1391554  32.4306033  68.8774586  13.6680118  40.0751348
  68.3705451  12.9609258  40.0072526  69.6742020  13.3373307  40.2052425
  68.9201825  13.5153270  40.0850343  64.7938602  20.1746730  35.9725012
  64.5652295  20.1979432  35.1303370  65.0536678  19.3504197  36.0920022
  64.7984790  20.0562810  35.8650210  59.0757830  22.0281203  45.5750112
  58.5636734  21.4202386  45.9335143  58.9037327  22.7437796  46.0424088
  58.9747467  22.0444503  45.6966336  53.9223545  20.4718779  48.2252474
  53.7526135  21.1320154  47.6800681  53.4789495  20.6825340  48.9464963
  53.8322879  20.6004761  48.2514103  57.8483365  18.7123277  37.2679208
  58.3240731  19.0740357  36.6329389  57.3471964  19.3679744  37.5479350
  57.8448724  18.8617465  37.2155949  71.0794726  28.1845045  33.0592213
  71.4628332  28.9336401  33.2890310  70.2838839  28.4310864  32.8004202
  71.0188508  28.3314739  33.0549786  62.9526901  19.9505448  48.0152368
  63.5098331  19.7219258  47.3830833  62.6287966  20.7111114  47.7387580
  62.9873311  20.0289285  47.8808865  60.6710018  23.0373101  48.9804375
  61.4221345  23.3524778  49.2943929  60.8632595  22.8352272  48.1538297
  60.8101432  23.0540483  48.9047771  59.8910018  20.8564477  30.6352592
  60.2708983  20.8744106  29.8503706  59.1502614  21.3018465  30.5143439
  59.8378855  20.9246251  30.5016160  67.5195308  19.1646668  36.2228170
  67.5189535  19.0095324  37.0812447  67.3151488  20.0109655  36.1669556
  67.4895086  19.2667288  36.3416110  65.2436160  23.8444170  39.8764377
  65.7389826  23.1267165  39.8368397  64.4335936  23.5414967  39.7618864
  65.1980054  23.6941816  39.8538103  60.6894772  27.6941983  32.0261382
  59.8806095  27.3708656  31.9794691  61.1969681  26.9875205  31.9589630
  60.6444439  27.5423299  32.0091676  67.3087979  26.5947857  42.5641506
  67.7343051  26.0722279  42.0111931  66.9444899  27.1928694  42.0430129
  67.3174582  26.6058084  42.4050516  63.8966579  30.3082121  38.8942663
  64.3677757  31.0222384  39.0632649  64.2326757  29.7080871  39.4302533
  64.0161694  30.3253586  38.9975039  65.9843563  31.9183435  51.0734735
  66.0940529  31.1291995  51.4291483  66.3134460  31.8289371  50.2709073
  66.0495969  31.7889288  51.0077126  60.8136074  15.0809592  45.8500758
  60.9463979  14.2840585  46.1781734  61.1981226  15.6075995  46.4299034
  60.8892402  15.0409509  45.9844261  64.5340525  30.1000055  45.6570356
  63.9861471  29.4757939  45.3890421  64.9953554  30.2894327  44.9414435
  64.5207734  30.0359106  45.5120787  63.8868429  12.0039918  42.4481851
  63.0814392  11.8937648  42.7649690  63.7575164  12.1052374  41.5911717
  63.7488562  12.0023588  42.3689892  67.3434389  18.1685410  43.0421548
  66.7597378  18.6694616  42.6299116  67.6638683  17.6614966  42.4085872
  67.3047565  18.1677245  42.8880055  59.8829188  17.0826005  33.3180223
  60.7044883  17.2524318  33.0761918  59.4198839  17.2373266  32.5946521
  59.9360351  17.1307738  33.1751867  58.4724520  15.0768767  44.0978652
  59.0168933  14.7359894  44.6882994  58.5261456  15.9354228  44.2399936
  58.5613640  15.1524026  44.2060525  54.2855079  28.8385183  40.9717460
  54.8899936  28.7981017  40.3431280  54.0782392  29.6856335  41.0021516
  54.3443976  28.9573185  40.8833576  64.0998851  31.1051128  42.1879697
  64.9197225  30.9614094  42.4495992  63.8192929  31.7297327  42.7296135
  64.1795595  31.1761480  42.3067637  73.7712186  37.8491631  39.9075504
  72.9150082  38.0100129  39.9584621  73.8179840  36.9783695  39.9280565
  73.6511298  37.7442433  39.9181570  68.1553326  47.3854349  35.6712735
  67.4036226  47.0069887  35.4428781  68.6039338  47.4172782  34.9231546
  68.1102993  47.3339956  35.5270238  77.0805903  44.1178156  49.5135960
  77.7872670  43.6230187  49.6422894  77.2693838  44.5587238  48.7838618
  77.2133809  44.1096507  49.4245005  73.6078286  47.8079718  31.0998283
  73.2729655  48.4856640  30.6642505  74.1205156  47.4185029  30.5115154
  73.6343867  47.8504296  30.9485074  73.1482577  49.7593987  37.0409394
  73.5321957  50.3280886  36.5014169  73.0841719  49.0343497  36.5615210
  73.1956005  49.7369450  36.8903257  76.6164007  39.9083675  42.5507156
  77.1619968  40.5868761  42.6101125  76.5580884  39.7671136  41.6908737
  76.6879922  39.9875676  42.4319216  69.7338082  47.3972741  37.9375508
  69.8348445  46.5873095  38.2472636  69.1379828  47.3029687  37.3075186
  69.6610621  47.2637769  37.8901746  69.5738822  52.3150330  39.3390364
  70.2176277  52.7563494  39.7286522  69.8995077  51.5103756  39.2520623
  69.7170651  52.2615525  39.3835841  65.2293214  35.5878758  40.4612149
  64.6098246  34.9971405  40.2922164  65.1277078  36.1790193  39.8276473
  65.1230890  35.5882841  40.3417139  70.2759402  45.3262305  34.7110226
  70.5975243  45.8667512  34.1071534  70.9231498  44.7559076  34.8432516
  70.4185457  45.3221480  34.6417261  72.3261110  37.3278300  34.7944612
  73.0241274  37.5066427  35.2866076  72.6413442  36.8048639  34.1715002
  72.4756447  37.2772072  34.7746623  64.9562347  39.1331040  42.7055718
  64.8321044  39.7193485  43.3405537  65.6080632  38.6391235  43.0067993
  65.0335996  39.1469844  42.8441648  72.5149045  43.7148745  34.7824404
  72.9542681  43.1065845  35.2279177  72.3653708  43.3356118  34.0109869
  72.5570511  43.5687216  34.7343571  69.9820688  42.3092757  41.9843229
  70.6269691  41.8165200  41.6654178  70.2222465  42.4517543  42.8109308
  70.1131273  42.2570199  42.0592763  72.5206779  45.1547663  41.6350122
  72.8030022  44.3599068  41.4136878  73.2492940  45.6328250  41.6555183
  72.6696343  45.1082259  41.6053137  70.4987973  32.6970697  38.8765887
  70.1691303  33.1481840  38.2069586  69.8232975  32.6186860  39.4238893
  70.3498410  32.7521832  38.8589110  76.1158382  42.0675926  31.7355173
  76.0309677  42.9236893  31.8804742  76.6042765  41.7920250  32.4037332
  76.1747279  42.1533248  31.8557255  77.7064381  28.6856219  37.1215498
  77.3917822  29.3759698  37.5535920  77.1891323  28.6301002  36.4200998
  77.5828851  28.7791108  37.0812447  77.0476815  38.6860720  33.2352908
  76.5188286  38.9020354  33.8950214  77.5701835  39.3796859  33.1553878
  77.0465268  38.8203857  33.3208507  68.9376423  42.5823937  32.0360376
  68.3533638  43.0873968  32.4426240  68.5346518  42.3566324  31.2956968
  68.7915726  42.6232185  31.9865401  64.4920451  48.2978698  38.8384048
  64.0088030  49.0229188  38.8143631  65.3043770  48.5954828  38.9494205
  64.5411199  48.4481052  38.8511327  70.5634605  47.0910879  41.4433862
  70.0461547  46.7318294  40.8395170  71.2608997  46.5673053  41.4539928
  70.5900186  46.9608567  41.3564121  74.2198197  47.5405693  47.4050035
  74.3081543  47.3531833  48.2528246  74.6487910  46.8943123  47.0054882
  74.2960300  47.4168701  47.4721787  71.7868657  46.8236853  46.3867697
  71.2239492  46.4109463  46.9107359  72.5489681  46.7489759  46.8060841
  71.8163106  46.7514253  46.5260698  73.3953637  38.8289589  30.5129297
  73.6349641  39.0367573  29.7004640  73.7169478  38.0247098  30.6218241
  73.4790795  38.7403690  30.4089850  68.7043927  30.7582985  34.3588835
  69.4589895  31.1261302  34.1205885  68.5271462  31.1322539  35.1268014
  68.7898406  30.8681173  34.4373723  67.3464649  48.8134874  38.9904328
  68.0485228  48.2986863  39.0477084  67.2662132  49.1409025  39.7951203
  67.4388409  48.7849100  39.1177120  68.3943555  39.0510461  48.1184743
  68.5664059  38.9416356  48.9670024  68.9312913  39.6964867  47.8815935
  68.4988559  39.1302463  48.2089839  67.0600992  33.1653304  31.0566948
  66.8776565  33.3825185  30.2307941  67.9226605  33.2792317  31.1125562
  67.1605581  33.2143202  30.9421435  67.2968127  45.4242101  42.8003241
  67.8366352  45.2813232  43.4706614  66.6138073  45.8238852  43.1687267
  67.2760281  45.4621772  42.9537663  72.7400711  30.1679715  34.0915972
  73.4686872  29.9895670  33.6454128  72.8295604  31.0097794  34.3023150
  72.8607373  30.2663593  34.0569489  76.7209012  41.1033102  37.9948266
  77.4766527  41.5364616  38.0337174  76.8271336  40.4537872  38.5682902
  76.8479182  41.0710586  38.0846291  74.3318257  46.9714712  50.0693819
  75.1158673  47.0845560  50.4349561  74.1314851  46.1455849  50.2652505
  74.4184282  46.8661431  50.1528205  66.6063019  36.4427477  29.5689421
  65.8921196  36.1565656  29.9811853  67.0906988  36.7824102  30.2095808
  66.5722382  36.4509126  29.7245056  67.4503878  35.1820770  45.6004670
  66.7575675  34.7117750  45.8465402  68.0664206  34.9559075  46.1746378
  67.4388408  35.0787902  45.7213823  74.4888650  48.8824814  43.7160274
  73.6903896  48.6424314  43.9734143  74.9374661  48.9339207  44.4627322
  74.4363261  48.8547205  43.8645199  73.7810337  44.9457430  29.9451229
  74.1961485  44.6142454  29.2535725  72.9502267  44.7126333  29.8171366
  73.7198346  44.8628686  29.8242076  66.1744437  39.1486174  46.7431516
  66.8984410  39.1339205  47.2296410  66.2760574  39.8581530  46.2453484
  66.2962646  39.2510878  46.7410302  73.5489387  42.6285259  51.6080463
  72.7562368  42.9428771  51.7933082  73.6638314  42.8436727  50.7701247
  73.4484797  42.7069096  51.5118797  76.2220706  39.3519250  35.8975478
  76.3167560  40.0908544  36.3515104  75.5979549  38.9236726  36.3310043
  76.1429736  39.3980571  36.0283626  74.4773180  42.5305463  46.5465759
  75.0512041  41.8932707  46.7014323  74.3987983  42.5309545  45.6775417
  74.5506414  42.4370574  46.4412170  76.4743727  41.1967990  29.1312430
  76.3923890  41.2670177  29.9967417  77.1123448  41.7597734  28.9396171
  76.5563564  41.2906961  29.2302380  69.8336898  40.9628728  38.5986957
  69.5756143  40.1300463  38.5718256  69.8885381  41.1886341  37.7579457
  69.8036676  40.8726499  38.4707094  74.9137948  33.0657179  38.6991049
  74.2094275  32.5766364  38.8574969  74.9622923  33.0779653  37.8279494
  74.8168000  32.9946827  38.5930389  68.8071610  38.5166490  39.0851852
  68.2321202  38.6758659  39.7215812  68.4307287  37.8801899  38.6220302
  68.6674423  38.4464303  39.1106410  72.4744899  36.9889840  43.9444230
  72.0859332  36.5644057  43.2896421  71.8099597  37.2371989  44.4521257
  72.3191827  36.9628561  43.9232098  76.2971261  30.6864468  41.4568214
  76.6781772  30.0042639  41.8436088  75.4934545  30.3974070  41.2743879
  76.2347722  30.5431517  41.4872270  73.5783837  41.2188444  32.1421037
  74.3924476  41.5103337  32.0303808  73.5142979  40.5648307  31.5679330
  73.6886576  41.1653639  32.0409874  69.4491746  44.6909962  37.2693349
  70.0865692  44.4521709  37.8145142  69.8746817  44.8947121  36.5346510
  69.6067912  44.6860972  37.2410506  70.0894561  39.9112251  31.6068238
  70.4739713  39.6919958  32.3584784  69.8406181  40.7375197  31.7369315
  70.1096633  40.0010398  31.7369315  70.2563101  33.1918667  51.3230823
  69.9416542  33.9618229  51.0600385  69.9353034  32.6288923  50.7383050
  70.1622020  33.2228935  51.1972173  71.8313217  45.1682384  38.9487135
  71.9052226  45.0057556  39.8028985  72.6482724  45.3572574  38.7047617
  71.9629576  45.1719127  39.0385161  67.8094998  31.5809188  36.9377019
  66.9417423  31.6531788  37.0034628  68.0970202  32.3831267  37.1264994
  67.7234746  31.7103335  36.9751786  76.9327887  31.7287047  45.2688341
  77.6781479  31.5396858  44.8551766  76.5165191  32.2545285  44.7102197
  76.9812861  31.7789193  45.1252914  70.3717803  48.1317127  33.6800609
  70.6616102  47.7406109  32.9559835  71.1021284  48.3133832  34.1205884
  70.5224687  48.1010941  33.6383416  70.9612548  42.9334873  44.7653739
  70.4624242  43.6450641  44.8438628  71.7712773  43.2535540  44.7271902
  71.0068655  43.0861722  44.7710308  68.3123719  50.1084510  36.7460758
  68.0924014  49.8181864  37.5387425  68.0918241  49.4499465  36.2178671
  68.2471313  49.9684218  36.7849667  78.0118564  37.3392610  39.3298442
  77.6683330  36.6182945  39.6805692  78.1111606  37.1306461  38.4876800
  77.9760607  37.2016813  39.2570122  70.4791675  51.4813900  35.5291451
  71.1315733  50.9490342  35.7582477  69.7817283  51.1282552  35.9159325
  70.4722392  51.3503423  35.6203619  69.8879606  35.7915918  50.0616037
  69.0779382  36.0973697  49.9505880  70.3654293  36.5121500  50.1768622
  69.8383085  35.9430519  50.0623109  68.7471166  45.0061639  40.3098941
  68.2251919  45.1461930  40.9950805  69.1345186  44.2472303  40.5001058
  68.7274867  44.9147162  40.4400017  74.9438171  46.7457098  34.2959509
  74.7024847  46.0124959  33.8886574  75.1239504  47.2943955  33.6425843
  74.9345795  46.7179489  34.1389732  70.1737492  42.0365658  35.7080432
  69.9780274  42.6440392  35.1140735  70.3971837  41.3433602  35.2272106
  70.1772133  42.0243183  35.5496512  68.5716022  38.9220396  35.8261300
  69.2938674  39.0861554  35.3665106  68.0924014  39.6430060  35.7200640
  68.6079752  39.0518625  35.7426914  76.5309529  35.2584194  41.2057985
  75.6920630  35.2845473  40.9696248  76.6013896  35.9054930  41.7863331
  76.4177923  35.3580320  41.2567102  66.2223638  41.3278468  44.9315440
  66.7344735  41.6062721  44.2824200  65.9359981  42.0667762  45.2978253
  66.2558501  41.4780822  44.8905318  74.9778807  32.1569571  35.9385601
  75.6805160  31.9577320  35.4605559  74.7122996  31.3845514  36.2454444
  75.0425440  32.0132537  35.9131042  63.3090545  35.8348660  35.2279176
  63.4106681  36.6374821  35.5560152  64.1046431  35.6335996  34.9302257
  63.4418450  35.9234559  35.2314532  69.7407364  33.4204857  44.9916481
  69.5490561  33.4359991  45.8415905  70.5905960  33.6168531  44.9683136
  69.8383086  33.4519208  45.1139776  64.1254277  35.9495838  42.9700298
  63.9839769  35.0979779  43.0944806  64.4094840  35.9924499  42.1462504
  64.1462123  35.8295588  42.8667922  74.2792869  37.7862928  37.1144786
  74.0327583  37.7058679  37.9481575  74.6077992  37.0016396  36.9207314
  74.2914113  37.6589194  37.2092309  78.1740918  44.4946288  40.9031567
  78.0355277  45.1927333  41.4080310  77.3940916  44.3394944  40.5467749
  78.0384145  44.5746454  40.9257842  76.5119003  40.7942663  47.1553949
  76.5067042  39.9222480  47.1596376  77.2179997  40.9930832  46.6823405
  76.6164007  40.6946537  47.0860984  70.2389896  40.5219647  46.5267769
  70.3833272  41.1020855  45.8910879  70.5865545  40.8995944  47.2317624
  70.3117358  40.6640351  46.5366764  72.4109814  39.7209815  44.3092901
  71.6633128  39.9140830  43.9041179  72.5651339  38.8955035  44.0717022
  72.3232241  39.6274927  44.2138307  69.3117651  48.7122419  43.3928796
  69.4607215  48.1525335  42.7402200  70.0917653  48.7914420  43.7761315
  69.4491745  48.6407984  43.3525745  71.8370952  48.8837062  44.6713287
  71.7614623  48.2145872  45.2264075  71.7660811  49.5854850  45.1853953
  71.8151559  48.8881969  44.8290135  72.6511591  33.6160366  45.1988305
  73.1084205  34.3484340  45.3261097  72.7267920  33.1926831  45.9575560
  72.7302561  33.6617604  45.3289381  64.8944582  33.8626186  46.2877748
  64.3586771  33.2506544  46.6038516  64.9562347  34.4374322  46.9411415
  64.8240215  33.8573113  46.4313175  77.1238917  26.7950241  39.0682147
  77.2422485  27.2526704  38.3349450  76.9501092  25.9895502  38.7818365
  77.1158088  26.7444013  38.9183081  72.4941199  47.4038060  35.5036893
  73.2591090  47.1347704  35.1819557  72.3919289  46.9188071  36.2206956
  72.5922694  47.2927625  35.5616720  70.5293969  35.6062470  42.0430129
  69.7390043  35.4253930  42.3647464  70.9254591  34.8289422  42.0260423
  70.4710845  35.4649931  42.0882677  75.0159859  44.4350244  27.4836842
  75.7832845  44.4950369  27.0742694  74.5691168  43.8630686  26.9993161
  75.0633287  44.3586820  27.3514552  75.9137655  43.2404900  39.7689574
  75.2382657  43.0090132  40.2702961  75.9230031  42.6326083  39.1431679
  75.8156159  43.1163825  39.7505727  73.0431799  38.0822729  46.5253627
  72.9790940  38.9432685  46.3973764  73.1828987  37.7654722  45.7249179
  73.0547269  38.1622896  46.3881840  77.9154390  46.0970032  31.9999752
  77.9974227  46.9037019  31.6761203  78.4004132  46.1165992  32.7240526
  77.9991547  46.2190695  32.0586651  71.7250893  40.7754868  40.6669830
  71.3013142  40.9759367  39.9308849  71.5495748  39.9283716  40.7794130
  71.6361773  40.6803650  40.5743520  71.2262586  52.2905381  43.1291288
  71.7158517  51.5916171  42.9466952  70.6546819  51.9929251  43.7167345
  71.2147116  52.1431605  43.1892328  67.0133338  41.2706920  36.0997803
  67.1697957  41.2053723  36.9553795  67.3533931  42.0455472  35.8876483
  67.0866573  41.3756118  36.1952397  73.5512482  40.6464803  34.9691166
  74.0928028  40.1435184  35.4329787  73.8659041  40.5929998  34.1580651
  73.6776879  40.5644224  34.9174978  77.4229590  44.8567451  52.0818078
  78.2364455  44.5852600  52.2423211  77.2624556  44.5574991  51.2778274
  77.5199538  44.7722377  51.9863484  71.7198932  46.0382155  32.2531194
  71.7891752  45.1796693  32.3924195  72.4987387  46.2554036  31.9250219
  71.8451782  45.9435019  32.2248351  74.7001752  35.5401108  45.0213467
  74.9143721  34.9012022  44.4676821  74.0835651  35.9846932  44.5921328
  74.6407081  35.5111252  44.8763898  76.1106420  48.4619856  36.4667687
  75.7186211  48.1586571  35.7490554  76.2659492  49.2988946  36.2772641
  76.0760010  48.5403693  36.3324185  63.5867599  38.4541870  36.4158570
  63.9666564  38.8726415  35.7518837  63.0122964  39.0355326  36.7227413
  63.5578924  38.6019729  36.3635311  76.8640840  37.1490173  45.9596774
  76.0517522  36.8416063  46.0409946  77.3230774  36.6689173  46.5239486
  76.8121225  37.0326665  46.0551368  76.2746094  45.0269845  36.4073718
  75.9160749  45.1984488  37.1837750  75.7884805  45.4883051  35.8501716
  76.1504791  45.1208816  36.4398987  74.0916480  28.6501044  40.0100809
  73.2210038  28.6239765  39.9634119  74.3456822  28.4778236  39.1926655
  74.0010041  28.6211187  39.8820946  71.0634460  40.7069010  28.9473952
  71.3526985  41.4833893  29.2217527  71.1506259  40.1957742  29.6488452
  71.1188716  40.7460929  29.0916450  73.9594347  38.5550244  50.7425476
  74.4293978  39.1792361  51.1293350  74.0056227  37.8867220  51.3018691
  74.0362223  38.5484925  50.8825547  71.1165621  30.6607272  41.4674280
  70.6004110  29.9687463  41.5925859  70.5559550  31.3278049  41.4136878
  70.9572134  30.6570530  41.4780346  73.1857854  31.2000232  43.2967132
  72.7989608  31.2249264  44.0780662  72.6990792  30.6341911  42.8441649
  73.0570363  31.1195983  43.3455036  77.4350834  45.9173741  47.3540919
  78.0730554  45.4233937  47.0203375  76.7924925  45.8451141  46.7693146
  77.4345060  45.8332749  47.2183274  72.8514996  28.0867218  45.5877392
  73.4808114  28.6227518  45.3098463  73.0200859  27.9944576  46.4390958
  72.9692791  28.1528580  45.6725920  72.6528911  32.8738412  47.8603804
  73.4802340  32.6023561  47.9162418  72.6736757  33.6699254  48.2167622
  72.7781761  32.9518166  47.9218987  77.4905090  46.6093549  43.9946276
  78.2797469  46.2582614  44.1148357  77.6648688  47.4229938  43.7322909
  77.6325372  46.6779406  43.9734144  67.2298401  40.0202275  41.0474064
  66.3886407  39.9206149  41.2552958  67.4388409  40.7897755  41.3988385
  67.1363093  40.1194318  41.1301379  64.7073968  37.6421812  38.8758815
  64.3130666  37.7164824  38.1008925  64.1514085  38.0279758  39.4267177
  64.5676780  37.7103587  38.8426475  76.3438915  30.6203106  38.5562694
  76.5488508  30.5525414  39.4019691  76.0165339  31.4261927  38.4883871
  76.3254162  30.7289046  38.6722349  71.0415066  37.9483674  40.2971662
  70.7378203  37.3939662  40.8982070  70.3394486  38.1275884  39.8099696
  70.8931275  37.8928457  40.3141368  70.0981163  35.2584194  34.8616364
  70.3740897  34.5403107  34.4493931  70.6979832  35.8569114  34.6537470
  70.2274427  35.2404565  34.7697125  69.1033417  45.1633395  45.0043760
  68.9953772  45.1735457  45.8705818  69.3129198  45.9888175  44.8148714
  69.1183528  45.2874470  45.1047851  73.5991683  32.9297711  33.1362959
  74.0535430  33.1008272  33.8610803  74.0731729  32.3165822  32.7360735
  73.7360003  32.8648597  33.1836720  67.1207209  42.4146037  42.4665697
  66.5295142  43.0555535  42.4368712  67.8828232  42.8383655  42.4396997
  67.1455469  42.5721876  42.4580845  67.5167831  33.5748035  43.1333715
  67.9769313  33.6486964  43.8708839  67.5623938  34.3729289  42.7833536
  67.5918387  33.7042182  43.1906471  69.1651181  34.2414730  47.7005742
  68.7736746  33.5948077  48.1361520  69.3337044  34.8326165  48.3199997
  69.1322092  34.2328998  47.8568448  76.8796725  47.8655349  39.8997722
  76.6816414  48.3546163  39.2053933  76.2584436  48.0696590  40.4781855
  76.7584289  47.9671887  39.8820945  70.9404703  39.6340246  34.2407966
  71.6846748  40.0214522  34.4790916  71.0865399  38.7897671  34.4048454
  71.0715288  39.5670719  34.3001936  72.8584279  31.4290505  39.2739827
  72.0120324  31.6013312  39.1481177  72.8555411  30.6239848  39.6105656
  72.7331429  31.3351534  39.3050954  73.9282579  35.2065719  40.1401885
  73.4542533  34.6807481  40.6507196  74.3000715  34.6595192  39.5716747
  73.9132468  35.0481716  40.1317033  64.3055609  37.2037226  45.5085431
  65.1681222  37.1032935  45.4222761  63.9747392  36.6231935  44.9471003
  64.3840806  37.1028852  45.4130837  75.8566079  36.1002274  33.2027639
  75.3289097  36.1831018  32.5133348  76.3161787  36.8420145  33.1992284
  75.8467929  36.2222936  33.1002334  67.6657395  36.0279675  42.1695849
  67.0410465  36.0398067  41.5621802  67.3302990  36.5039850  42.8187090
  67.5242887  36.0998192  42.1752418  67.8499144  34.3704793  28.2268534
  67.5011948  35.0224518  28.6900084  67.3695590  34.3561906  27.4992406
  67.7269388  34.4647847  28.1879626  75.4103161  44.6705837  32.3337296
  76.1337360  45.1363950  32.1901870  74.9703752  44.7379447  31.5834893
  75.4518854  44.7489674  32.2022078  74.5789316  41.5303379  43.5837985
  73.9646309  40.9861430  43.8786621  75.0956601  41.0167616  43.1043801
  74.5644979  41.3739788  43.5562214  73.8185614  42.6007649  41.3182284
  73.3913222  41.9757368  40.8847719  73.8110558  42.3182571  42.1441291
  73.7544755  42.4660430  41.3762111  66.9348141  37.6372823  44.3870718
  67.0941627  36.8816147  44.7922440  66.7541034  38.1863762  45.0411456
  66.9313500  37.6066636  44.5433424  74.8768444  29.8034058  44.9421507
  74.3809005  29.9997732  44.2513074  75.6337506  30.2026726  44.7710309
  74.9155268  29.8911792  44.8141644  72.1471323  33.4776404  41.5324818
  72.1713810  32.9436516  40.8437598  72.3982797  32.9693713  42.1950408
  72.1881242  33.3237308  41.5289463  68.4272645  32.2047222  40.9130562
  68.4671017  32.7056429  41.6265270  67.6022310  32.2957616  40.6436485
  68.3112171  32.2929039  40.9781100  70.6102258  41.7707962  49.0150857
  69.7597889  41.9079676  49.1508502  70.7730386  41.0371740  49.4598558
  70.5086122  41.6822063  49.1006456  69.8487009  38.7207732  43.2104461
  69.0178938  38.8881550  43.0039709  69.7938526  38.3443683  43.9953347
  69.7176424  38.6897463  43.2952989  67.6570792  32.2116625  48.8460872
  68.2823495  31.6678758  49.1190304  67.2021272  31.7311543  48.2768662
  67.6819053  32.0606106  48.8022466  68.2223053  36.9963324  33.7394579
  68.3626014  37.4935788  34.4423220  68.7205585  36.2949618  33.8808793
  68.3164134  36.9665302  33.8646158  68.2523275  37.8630435  31.0687156
  68.8868355  38.4590860  31.0036618  68.3348886  37.5633892  31.8833026
  68.3579826  37.9071343  31.1790242  69.8302258  33.7944410  31.0432598
  70.1518099  33.3147493  30.3891860  70.0929202  34.6044056  30.8523409
  69.9168283  33.8434308  30.9188090  73.0599231  44.8163284  44.5631414
  72.5524322  45.3699131  45.0072044  72.7625877  44.8771574  43.7450188
  72.9404116  44.9069596  44.5079871  75.2261413  33.1816604  43.4056077
  75.6516484  32.7289130  42.7939603  74.6118406  32.6276675  43.6820864
  75.1990058  33.0330580  43.3561102  75.6707011  48.7326542  32.4935357
  74.9536321  48.5587404  32.0282595  76.3213749  48.4979114  31.9610843
  75.6608861  48.6722335  32.3464575  73.6655636  29.6531704  36.8146654
  73.0223954  29.5029350  37.3831792  73.3255043  29.4074049  36.0495758
  73.5200713  29.5943826  36.7849669  78.2554982  37.6091131  36.2376662
  77.5846172  38.1520833  36.1089728  78.9494732  38.0785986  35.9958357
  78.2583850  37.7589402  36.1832190  72.3041716  49.7487843  41.4688421
  72.0807370  48.9906672  41.8372447  71.8151559  49.7785864  40.7468860
  72.1985165  49.6410067  41.4165162  78.4183110  34.0647014  39.1467036
  78.7710720  33.6376737  39.8212834  77.5597911  33.9797858  39.2768112
  78.3432554  33.9891755  39.2662046  67.1166795  36.6954534  37.2049882
  66.3978784  37.1118667  37.4722746  67.4879157  37.2608773  36.6541520
  67.0658726  36.8403815  37.1632689  76.4166375  37.3282383  43.0951878
  76.3964303  37.1465678  43.9486657  76.4645576  38.1994401  43.0711462
  76.4201016  37.4298921  43.2175173  74.3612705  43.9169575  49.0200354
  74.3208560  43.2719252  48.4345510  75.1736024  43.8606192  49.3325767
  74.4755859  43.8128542  48.9797304  70.9520173  49.9688301  38.9225505
  70.5380572  49.3062431  38.5329347  71.6367547  50.1166160  38.4021200
  70.9918545  49.8928959  38.7882002  74.3185467  49.1278386  39.6749122
  73.9201750  49.2380656  38.9069942  73.7036687  49.3360452  40.2575682
  74.1684356  49.1751954  39.6480421  72.8913369  35.7352534  32.5423262
  72.2978208  36.0569530  31.9907829  72.9288647  34.8893629  32.3344368
  72.8087758  35.6576862  32.4306033  75.7671186  35.6932038  35.9725012
  75.5384879  35.7164740  35.1303370  76.0269262  34.8689505  36.0920022
  75.7717374  35.5748118  35.8650210  70.0490414  37.5466511  45.5750112
  69.5369317  36.9387694  45.9335143  69.8769910  38.2623104  46.0424088
  69.9480051  37.5629811  45.6966336  64.8956129  35.9904087  48.2252474
  64.7258719  36.6505462  47.6800681  64.4522079  36.2010648  48.9464963
  64.8055462  36.1190069  48.2514103  68.8215948  34.2308585  37.2679208
  69.2973314  34.5925664  36.6329389  68.3204548  34.8865052  37.5479350
  68.8181307  34.3802773  37.2155949  73.9259484  35.4690756  48.0152368
  74.4830915  35.2404566  47.3830833  73.6020549  36.2296422  47.7387580
  73.9605895  35.5474593  47.8808865  71.6442602  38.5558409  48.9804375
  72.3953929  38.8710086  49.2943929  71.8365178  38.3537580  48.1538297
  71.7834016  38.5725791  48.9047771  70.8642601  36.3749784  30.6352592
  71.2441566  36.3929414  29.8503706  70.1235197  36.8203773  30.5143439
  70.8111439  36.4431559  30.5016160  78.4927892  34.6831976  36.2228170
  78.4922118  34.5280632  37.0812447  78.2884072  35.5294963  36.1669556
  78.4627670  34.7852596  36.3416110  76.2168744  39.3629477  39.8764377
  76.7122409  38.6452472  39.8368397  75.4068520  39.0600275  39.7618864
  76.1712637  39.2127124  39.8538103  71.6627355  43.2127291  32.0261382
  70.8538678  42.8893964  31.9794691  72.1702264  42.5060513  31.9589630
  71.6177022  43.0608607  32.0091676  78.2820563  42.1133165  42.5641506
  78.7075634  41.5907587  42.0111931  77.9177483  42.7114002  42.0430129
  78.2907165  42.1243392  42.4050516  67.9174643  50.4097382  41.3238851
  68.2321201  51.2233771  41.3316633  68.3268056  50.0247601  41.9921010
  68.0242741  50.4726085  41.4242943  74.8699162  45.8267429  38.8942663
  75.3410340  46.5407692  39.0632649  75.2059341  45.2266179  39.4302533
  74.9894277  45.8438893  38.9975039  76.9576147  47.4368743  51.0734735
  77.0673112  46.6477303  51.4291483  77.2867043  47.3474679  50.2709073
  77.0228553  47.3074596  51.0077126  71.7868657  30.5994900  45.8500758
  71.9196563  29.8025893  46.1781734  72.1713810  31.1261303  46.4299034
  71.8624986  30.5594816  45.9844261  75.5073108  45.6185363  45.6570356
  74.9594054  44.9943247  45.3890421  75.9686137  45.8079635  44.9414435
  75.4940318  45.5544414  45.5120787  74.8601012  27.5225226  42.4481851
  74.0546976  27.4122956  42.7649690  74.7307748  27.6237682  41.5911717
  74.7221145  27.5208896  42.3689892  78.3166973  33.6870718  43.0421548
  77.7329962  34.1879924  42.6299116  78.6371267  33.1800274  42.4085872
  78.2780148  33.6862553  42.8880055  70.8561772  32.6011313  33.3180223
  71.6777466  32.7709626  33.0761918  70.3931423  32.7558574  32.5946521
  70.9092934  32.6493046  33.1751867  69.4457104  30.5954075  44.0978652
  69.9901517  30.2545202  44.6882994  69.4994040  31.4539536  44.2399936
  69.5346223  30.6709334  44.2060525  75.0731435  46.6236436  42.1879697
  75.8929809  46.4799402  42.4495992  74.7925512  47.2482635  42.7296135
  75.1528178  46.6946788  42.3067637  73.9035710  58.9378335  37.5627842
  73.6685895  58.1045988  37.4560110  74.0421351  59.2183001  36.7489043
  73.8891373  58.8561839  37.4270197  76.2025798  51.1064066  40.4612149
  75.5830829  50.5156713  40.2922164  76.1009661  51.6975501  39.8276473
  76.0963473  51.1068148  40.3417139  75.9294931  54.6516348  42.7055718
  75.8053628  55.2378793  43.3405537  76.5813215  54.1576543  43.0067993
  76.0068580  54.6655152  42.8441648  75.4653035  63.8164006  38.8384048
  74.9820613  64.5414496  38.8143631  76.2776353  64.1140136  38.9494205
  75.5143783  63.9666360  38.8511327  78.0333576  48.6838612  31.0566948
  77.8509149  48.9010493  30.2307941  78.8959189  48.7977625  31.1125562
  78.1338165  48.7328510  30.9421435  77.6448008  60.5226534  38.4989936
  78.4836907  60.7549467  38.5463697  77.6759777  59.6530845  38.4296971
  77.7729725  60.4283481  38.4954580  78.2700711  60.9427409  42.8003241
  78.8098936  60.7998540  43.4706614  77.5870657  61.3424160  43.1687267
  78.2492864  60.9807080  42.9537663  73.6737856  57.1627700  42.9537663
  73.4076271  56.3466817  43.1128653  73.6876420  57.2080856  42.0833178
  73.6362578  57.0484605  42.8491145  77.5795603  51.9612784  29.5689421
  76.8653780  51.6750964  29.9811853  78.0639571  52.3009410  30.2095808
  77.5454966  51.9694434  29.7245056  74.0831269  57.9486479  40.2349407
  73.9006843  57.9233365  39.3821699  74.8180938  58.4185417  40.2738316
  74.1645333  58.0147842  40.1147325  77.1477021  54.6671482  46.7431516
  77.8716993  54.6524513  47.2296410  77.2493157  55.3766838  46.2453484
  77.2695230  54.7696186  46.7410302  74.0502180  54.8279980  40.3848474
  74.6275682  54.6916431  41.0240719  73.3516241  54.3715764  40.6394058
  74.0323201  54.7402246  40.5170763  69.5261013  53.6791873  37.0996292
  69.6121265  53.3023741  37.8809822  70.1536810  53.3052319  36.6216250
  69.6317564  53.5677355  37.1441769  75.1136972  62.4483606  41.1527653
  75.1541117  62.7198457  40.3247432  75.6731496  62.9725514  41.5685441
  75.2020317  62.5659361  41.0919541  76.5651558  61.0325555  35.9781579
  75.7389675  61.2787292  35.8515858  76.6263549  60.9537636  36.8443637
  76.4525725  61.0570504  36.0870523  76.7094934  50.5752755  34.3793895
  76.4219729  50.2054026  33.6425843  77.3965402  51.0447611  34.1177600
  76.7683831  50.5899725  34.2308971  77.1956222  56.8463776  44.9315440
  77.7077319  57.1248029  44.2824200  76.9092564  57.5853070  45.2978253
  77.2291085  56.9966130  44.8905318  74.2823128  51.3533968  35.2279176
  74.3839265  52.1560129  35.5560152  75.0779015  51.1521304  34.9302257
  74.4151034  51.4419867  35.2314532  75.0986860  51.4681146  42.9700298
  74.9572352  50.6165087  43.0944806  75.3827424  51.5109807  42.1462504
  75.1194706  51.3480896  42.8667922  75.8677166  49.3811494  46.2877748
  75.3319355  48.7691852  46.6038516  75.9294930  49.9559630  46.9411415
  75.7972798  49.3758421  46.4313175  77.9865921  56.7892228  36.0997803
  78.1430541  56.7239031  36.9553795  78.3266514  57.5640780  35.8876483
  78.0599156  56.8941426  36.1952397  74.5600183  53.9727178  36.4158570
  74.9399148  54.3911723  35.7518837  73.9855548  54.5540634  36.7227413
  74.5311508  54.1205037  36.3635311  78.2030984  55.5387583  41.0474064
  77.3618991  55.4391457  41.2552958  78.4120992  56.3083063  41.3988385
  78.1095677  55.6379626  41.1301379  75.6806551  53.1607120  38.8758815
  75.2863249  53.2350132  38.1008925  75.1246668  53.5465066  39.4267177
  75.5409364  53.2288895  38.8426475  78.0939792  57.9331345  42.4665697
  77.5027726  58.5740843  42.4368712  78.8560816  58.3568963  42.4396997
  78.1188053  58.0907184  42.4580845  78.4900415  49.0933343  43.1333715
  78.9501897  49.1672272  43.8708839  78.5356522  49.8914597  42.7833536
  78.5650970  49.2227490  43.1906471  75.2788193  52.7222534  45.5085431
  76.1413806  52.6218243  45.4222761  74.9479976  52.1417243  44.9471003
  75.3573389  52.6214160  45.4130837  78.6389979  51.5464983  42.1695849
  78.0143049  51.5583375  41.5621802  78.3035574  52.0225158  42.8187090
  78.4975471  51.6183500  42.1752418  78.8231728  49.8890101  28.2268534
  78.4744532  50.5409826  28.6900084  78.3428173  49.8747214  27.4992406
  78.7001971  49.9833155  28.1879626  75.3515654  59.6065443  43.6099614
  74.8215579  58.9157882  43.6594588  75.6240748  59.5975628  42.7812322
  75.3140377  59.5032575  43.4947030  77.9080724  53.1558130  44.3870718
  78.0674211  52.4001455  44.7922440  77.7273618  53.7049070  45.0411456
  77.9046083  53.1251944  44.5433424  70.6311497  56.2793207  40.9667962
  70.5254946  56.2340051  40.1020046  69.8811717  56.6246987  41.2482247
  70.5047100  56.3234115  40.8805292  75.7308847  55.5783583  34.3376702
  76.2401076  56.1748091  34.7188007  76.2043119  55.3109557  33.6553121
  75.8752222  55.6269399  34.2931224  78.0899378  52.2139842  37.2049882
  77.3711367  52.6303974  37.4722746  78.4611741  52.7794081  36.6541520
  78.0391310  52.3589123  37.1632689  75.8688712  51.5089395  48.2252474
  75.6991303  52.1690769  47.6800681  75.4254662  51.7195956  48.9464963
  75.7788046  51.6375377  48.2514103  72.7690777  54.4136260  43.4840964
  72.2217496  53.7436906  43.6021832  73.5583155  54.0466108  43.5484431
  72.8042961  54.2601247  43.5109664  71.5277746  53.6257068  40.6386987
  71.3499507  53.1733677  41.3641902  71.2396768  54.4283229  40.8225464
  71.4590700  53.6779626  40.7730490  73.2650216  56.1584792  37.7508746
  72.3995736  56.1470482  37.6391517  73.3649032  55.9715015  38.5979885
  73.1524383  56.1290853  37.8597690  76.2320246  59.8755799  40.9717460
  76.8365104  59.8351633  40.3431280  76.0247559  60.7226951  41.0021516
  76.2909144  59.9943801  40.8833576  71.4671529  58.8590416  40.8416383
  71.3695807  58.0486688  41.1506440  72.2500398  58.8382210  40.4562651
  71.5687665  58.7357507  40.8303246  56.8771567   8.8047172  22.6052782
  56.1254466   8.4262710  22.3768827  57.3257578   8.8365606  21.8571593
  56.8321233   8.7532779  22.4610284  62.3296526   9.2272541  18.0338329
  61.9947895   9.9049463  17.5982552  62.8423397   8.8377853  17.4455201
  62.3562108   9.2697120  17.8825121  61.8700818  11.1786810  23.9749441
  62.2540197  11.7473709  23.4354216  61.8059959  10.4536320  23.4955257
  61.9174245  11.1562274  23.8243304  58.4556323   8.8165564  24.8715555
  58.5566686   8.0065918  25.1812683  57.8598068   8.7222511  24.2415233
  58.3828861   8.6830592  24.8241793  58.2957062  13.7343153  26.2730411
  58.9394518  14.1756317  26.6626569  58.6213318  12.9296579  26.1860670
  58.4388891  13.6808348  26.3175888  51.6521367   4.8385851  24.4967888
  51.4171551   4.0053503  24.3900157  51.7907008   5.1190516  23.6829089
  51.6377029   4.7569354  24.3610243  58.9977642   6.7455128  21.6450273
  59.3193483   7.2860335  21.0411581  59.6449739   6.1751900  21.7772562
  59.1403697   6.7414303  21.5757308  61.2425020   6.5740486  28.5690169
  61.5248263   5.7791892  28.3476925  61.9711180   7.0521073  28.5895230
  61.3914584   6.5275083  28.5393184  53.2138692   9.7171521  25.7724095
  52.7306270  10.4422011  25.7483678  54.0262010  10.0147652  25.8834252
  53.2629439   9.8673875  25.7851374  59.2852846   8.5103702  28.3773909
  58.7679787   8.1511117  27.7735217  59.9827237   7.9865877  28.3879975
  59.3118427   8.3801390  28.2904168  62.9416438   8.9598516  34.3390082
  63.0299784   8.7724657  35.1868292  63.3706150   8.3135946  33.9394929
  63.0178540   8.8361524  34.4061834  60.5086897   8.2429676  33.3207744
  59.9457732   7.8302286  33.8447406  61.2707921   8.1682582  33.7400888
  60.5381346   8.1707077  33.4600745  56.0682889  10.2327697  25.9244374
  56.7703468   9.7179686  25.9817131  55.9880372  10.5601849  26.7291250
  56.1606649  10.2041924  26.0517167  55.3933664   6.4234049  25.4329982
  56.2322564   6.6556982  25.4803744  55.4245433   5.5538361  25.3637018
  55.5215382   6.3290996  25.4294627  56.0186367   6.8434925  29.7343288
  56.5584592   6.7006056  30.4046660  55.3356314   7.2431675  30.1027314
  55.9978521   6.8814595  29.8877710  63.0536497   8.3907535  37.0033866
  63.8376914   8.5038383  37.3689608  62.8533092   7.5648672  37.1992552
  63.1402522   8.2854255  37.0868252  51.4223512   3.0635215  29.8877710
  51.1561928   2.2474332  30.0468700  51.4362077   3.1088371  29.0173225
  51.3848235   2.9492120  29.7831192  63.2106890  10.3017637  30.6500321
  62.4122136  10.0617137  30.9074190  63.6592902  10.3532030  31.3967369
  63.1581502  10.2740028  30.7985246  51.8316926   3.8493995  27.1689454
  51.6492499   3.8240881  26.3161746  52.5666595   4.3192933  27.2078363
  51.9130990   3.9155357  27.0487372  58.1709986   6.1102785  24.2033396
  58.8083933   5.8714532  24.7485189  58.5965057   6.3139944  23.4686556
  58.3286152   6.1053795  24.1750553  52.8622628   8.3491121  28.0867700
  52.9026774   8.6205972  27.2587479  53.4217152   8.8733029  28.5025488
  52.9505974   8.4666876  28.0259588  60.5531458   6.5875208  25.8827182
  60.6270466   6.4250379  26.7369032  61.3700964   6.7765397  25.6387664
  60.6847816   6.5911950  25.9725208  54.3137215   6.9333070  22.9121626
  53.4875332   7.1794808  22.7855904  54.3749206   6.8545151  23.7783684
  54.2011382   6.9578019  23.0210570  59.0936044   9.5509951  20.6140655
  59.3834342   9.1598932  19.8899882  59.8239524   9.7326656  21.0545931
  59.2442928   9.5203764  20.5723463  57.0341959  11.5277333  23.6800805
  56.8142255  11.2374688  24.4727472  56.8136481  10.8692288  23.1518718
  56.9689553  11.3877041  23.7189714  59.2009915  12.9006723  22.4631498
  59.8533973  12.3683165  22.6922524  58.5035524  12.5475375  22.8499372
  59.1940633  12.7696246  22.5543665  56.1491180   5.2545901  21.8698872
  56.9037148   5.6358940  22.0834334  55.5561792   5.7057044  22.3245568
  56.1727893   5.3774728  21.9681750  57.4689406   6.4254462  27.2438987
  56.9470160   6.5654754  27.9290852  57.8563427   5.6665126  27.4341105
  57.4493107   6.3339986  27.3740064  63.6656411   8.1649921  21.2299556
  63.4243087   7.4317782  20.8226621  63.8457744   8.7136778  20.5765889
  63.6564035   8.1372312  21.0729779  58.0335892  10.1315242  30.3268843
  58.1825455   9.5718158  29.6742247  58.8135894  10.2107244  30.7101362
  58.1709985  10.0600807  30.2865792  60.5589192  10.3029885  31.6053334
  60.4832863   9.6338695  32.1604122  60.4879051  11.0047673  32.1194000
  60.5369799  10.3074792  31.7630182  61.2159439   8.8230884  22.4376940
  61.9809330   8.5540527  22.1159604  61.1137529   8.3380894  23.1547002
  61.3140935   8.7120448  22.4956767  59.9480827  13.7098205  30.0631334
  60.4376757  13.0108994  29.8806999  59.3765059  13.4122075  30.6507392
  59.9365357  13.5624428  30.1232375  60.4417172   7.4574978  19.1871241
  60.5109993   6.5989517  19.3264241  61.2205628   7.6746859  18.8590266
  60.5670023   7.3627842  19.1588398  64.8324660   9.8812679  23.4007734
  64.4404452   9.5779395  22.6830600  64.9877732  10.7181769  23.2112688
  64.7978250   9.9596516  23.2664231  57.8251657   6.5826218  31.9383807
  57.7172012   6.5928280  32.8045865  58.0347439   7.4080999  31.7488760
  57.8401768   6.7067293  32.0387898  55.8425449   3.8338861  29.4005744
  55.2513382   4.4748359  29.3708759  56.6046473   4.2576478  29.3737044
  55.8673710   3.9914699  29.3920891  65.6014965   9.2848172  26.8337769
  65.4034654   9.7738987  26.1393980  64.9802676   9.4889414  27.4121902
  65.4802530   9.3864710  26.8160992  53.1001311   5.5072958  30.5439660
  52.5701236   4.8165397  30.5934635  53.3726405   5.4983143  29.7152369
  53.0626034   5.4040090  30.4287076  48.3797153   2.1800722  27.9008009
  48.2740602   2.1347567  27.0360093  47.6297373   2.5254503  28.1822294
  48.2532756   2.2241630  27.8145338  61.7817471   6.2356108  31.4971461
  61.2742562   6.7891954  31.9412091  61.4844117   6.2964398  30.6790235
  61.6622356   6.3262419  31.4419917  64.3925251  10.1519365  19.4275404
  63.6754561   9.9780228  18.9622641  65.0431989   9.9171938  18.8950890
  64.3827102  10.0915158  19.2804622  61.0259956  11.1680666  28.4028468
  60.8025611  10.4099495  28.7712494  60.5369800  11.1978687  27.6808907
  60.9203405  11.0602890  28.3505208  59.6738413  11.3881124  25.8565552
  59.2598812  10.7255254  25.4669394  60.3585788  11.5358983  25.3361246
  59.7136785  11.3121782  25.7222049  63.0403707  10.5471209  26.6089169
  62.6419991  10.6573480  25.8409989  62.4254927  10.7553276  27.1915729
  62.8902597  10.5944777  26.5820468  56.6392883  11.8290206  28.2578898
  56.9539442  12.6426594  28.2656680  57.0486296  11.4440424  28.9261057
  56.7460981  11.8918908  28.3582990  63.5917403   7.2460252  25.8282710
  64.0628581   7.9600515  25.9972695  63.9277581   6.6459003  26.3642580
  63.7112518   7.2631717  25.9315086  65.6794387   8.8561566  38.0074782
  65.7891353   8.0670126  38.3631529  66.0085284   8.7667502  37.2049120
  65.7446793   8.7267419  37.9417173  53.9805903   5.7763314  27.9057507
  54.5850760   5.7359148  27.2771327  53.7733216   6.6234466  27.9361562
  54.0394800   5.8951317  27.8173623  63.7949675   8.0429259  29.1219744
  64.6148049   7.8992225  29.3836039  63.5143753   8.6675458  29.6636182
  63.8746419   8.1139611  29.2407683  49.2157185   4.7597932  27.7756430
  49.1181463   3.9494203  28.0846486  49.9986055   4.7389725  27.3902698
  49.3173322   4.6365022  27.7643293  73.4663010  14.7869762  26.8415551
  72.6100906  14.9478260  26.8924668  73.5130664  13.9161826  26.8620612
  73.3462122  14.6820564  26.8521617  67.8504150  24.3232480  22.6052782
  67.0987050  23.9448018  22.3768827  68.2990162  24.3550914  21.8571593
  67.8053817  24.2718087  22.4610284  76.7756727  21.0556288  36.4476007
  77.4823494  20.5608318  36.5762941  76.9644662  21.4965369  35.7178665
  76.9084633  21.0474638  36.3585052  73.3029110  24.7457849  18.0338329
  72.9680478  25.4234771  17.5982552  73.8155980  24.3563161  17.4455201
  73.3294691  24.7882428  17.8825121  72.8433401  26.6972118  23.9749441
  73.2272781  27.2659017  23.4354216  72.7792543  25.9721628  23.4955257
  72.8906828  26.6747582  23.8243304  76.3114831  16.8461806  29.4847202
  76.8570791  17.5246893  29.5441172  76.2531708  16.7049267  28.6248784
  76.3830746  16.9253808  29.3659263  69.4288906  24.3350872  24.8715555
  69.5299269  23.5251226  25.1812683  68.8330652  24.2407818  24.2415233
  69.3561445  24.2015900  24.8241793  78.0879900  18.2746413  20.3580930
  77.9719426  19.0254099  20.7873068  78.8835787  18.0170366  20.6077017
  78.1884490  18.3481260  20.4585022  69.2689646  29.2528461  26.2730411
  69.9127101  29.6941625  26.6626569  69.5945901  28.4481887  26.1860670
  69.4121475  29.1993656  26.3175888  62.6253951  20.3571159  24.4967888
  62.3904135  19.5238811  24.3900157  62.7639591  20.6375824  23.6829089
  62.6109613  20.2754662  24.3610243  64.9244038  12.5256889  27.3952196
  64.3049070  11.9349536  27.2262211  64.8227902  13.1168324  26.7616519
  64.8181714  12.5260972  27.2757186  69.9710226  22.2640436  21.6450273
  70.2926067  22.8045643  21.0411581  70.6182322  21.6937207  21.7772562
  70.1136281  22.2599611  21.5757308  72.0211934  14.2656431  21.7284659
  72.7192098  14.4444559  22.2206123  72.3364266  13.7426770  21.1055049
  72.1707271  14.2150203  21.7086669  64.6513171  16.0709171  29.6395765
  64.5271868  16.6571616  30.2745584  65.3031456  15.5769367  29.9408040
  64.7286820  16.0847975  29.7781694  72.2099869  20.6526876  21.7164451
  72.6493505  20.0443977  22.1619224  72.0604532  20.2734249  20.9449916
  72.2521335  20.5065347  21.6683618  69.6771512  19.2470888  28.9183276
  70.3220515  18.7543331  28.5994225  69.9173289  19.3895674  29.7449355
  69.8082097  19.1948330  28.9932809  72.2157603  22.0925794  28.5690169
  72.4980846  21.2977199  28.3476925  72.9443764  22.5706381  28.5895230
  72.3647167  22.0460391  28.5393184  70.1938797   9.6348828  25.8105934
  69.8642127  10.0859971  25.1409633  69.5183799   9.5564991  26.3578940
  70.0449234   9.6899963  25.7929157  75.8109206  19.0054057  18.6695220
  75.7260501  19.8615024  18.8144789  76.2993589  18.7298381  19.3377379
  75.8698103  19.0911379  18.7897301  76.7427639  15.6238852  20.1692955
  76.2139110  15.8398485  20.8290261  77.2652659  16.3174990  20.0893924
  76.7416092  15.7581988  20.2548554  68.6327247  19.5202068  18.9700423
  68.0484462  20.0252100  19.3766287  68.2297342  19.2944455  18.2297015
  68.4866550  19.5610317  18.9205448  64.1871275  25.2356829  25.7724095
  63.7038853  25.9607319  25.7483678  64.9994594  25.5332959  25.8834252
  64.2362023  25.3859183  25.7851374  70.2585429  24.0289010  28.3773909
  69.7412371  23.6696425  27.7735217  70.9559821  23.5051185  28.3879975
  70.2851010  23.8986698  28.2904168  73.9149021  24.4783824  34.3390082
  74.0032367  24.2909965  35.1868292  74.3438734  23.8321254  33.9394929
  73.9911124  24.3546832  34.4061834  71.4819481  23.7614984  33.3207744
  70.9190316  23.3487594  33.8447406  72.2440505  23.6867890  33.7400888
  71.5113930  23.6892385  33.4600745  67.0415473  25.7513005  25.9244374
  67.7436052  25.2364994  25.9817131  66.9612956  26.0787157  26.7291250
  67.1339233  25.7227232  26.0517167  68.0894379  15.9888592  35.0524790
  68.2614883  15.8794487  35.9010071  68.6263737  16.6342998  34.8155982
  68.1939383  16.0680594  35.1429886  66.7551816  10.1031435  17.9906995
  66.5727389  10.3203316  17.1647987  67.6177429  10.2170448  18.0465609
  66.8556405  10.1521333  17.8761482  66.3666248  21.9419357  25.4329982
  67.2055147  22.1742290  25.4803744  66.3978017  21.0723669  25.3637018
  66.4947966  21.8476304  25.4294627  66.9918951  22.3620232  29.7343288
  67.5317176  22.2191364  30.4046660  66.3088897  22.7616983  30.1027314
  66.9711105  22.3999903  29.8877710  76.4159836  18.0411233  24.9288312
  77.1717351  18.4742747  24.9677221  76.5222160  17.3916003  25.5022948
  76.5430006  18.0088717  25.0186338  74.0269081  23.9092843  37.0033866
  74.8109497  24.0223691  37.3689608  73.8265675  23.0833980  37.1992552
  74.1135106  23.8039563  37.0868252  62.3956096  18.5820523  29.8877710
  62.1294511  17.7659640  30.0468700  62.4094660  18.6273679  29.0173225
  62.3580818  18.4677428  29.7831192  66.3013843  13.3805608  16.5029468
  65.5872020  13.0943787  16.9151900  66.7857812  13.7202234  17.1435855
  66.2673206  13.3887257  16.6585103  67.1454702  12.1198902  32.5344717
  66.4526499  11.6495881  32.7805449  67.7615030  11.8937206  33.1086424
  67.1339232  12.0166033  32.6553870  74.1839474  25.8202945  30.6500321
  73.3854720  25.5802445  30.9074190  74.6325485  25.8717338  31.3967369
  74.1314085  25.7925336  30.7985246  73.4761161  21.8835562  16.8791276
  73.8912309  21.5520586  16.1875772  72.6453091  21.6504464  16.7511413
  73.4149170  21.8006818  16.7582123  62.8049510  19.3679303  27.1689454
  62.6225083  19.3426189  26.3161746  63.5399179  19.8378241  27.2078363
  62.8863574  19.4340665  27.0487372  65.8695261  16.0864306  33.6771562
  66.5935234  16.0717336  34.1636457  65.9711398  16.7959661  33.1793531
  65.9913470  16.1889009  33.6750349  73.2440211  19.5663390  38.5420509
  72.4513192  19.8806902  38.7273129  73.3589138  19.7814859  37.7041294
  73.1435621  19.6447227  38.4458844  75.9171530  16.2897381  22.8315525
  76.0118384  17.0286675  23.2855151  75.2930373  15.8614857  23.2650090
  75.8380560  16.3358702  22.9623673  74.1724004  19.4683594  33.4805806
  74.7462865  18.8310838  33.6354370  74.0938807  19.4687676  32.6115464
  74.2457238  19.3748705  33.3752217  62.7720420  16.2472803  27.3188520
  63.3493923  16.1109254  27.9580766  62.0734482  15.7908588  27.5734105
  62.7541441  16.1595070  27.4510810  69.5287722  17.9006859  25.5327004
  69.2706966  17.0678594  25.5058303  69.5836205  18.1264472  24.6919504
  69.4987500  17.8104630  25.4047140  68.5022434  15.4544622  26.0191898
  67.9272026  15.6136790  26.6555859  68.1258111  14.8180031  25.5560349
  68.3625247  15.3842434  26.0446457  72.1695723  13.9267971  30.8784277
  71.7810156  13.5022189  30.2236468  71.5050421  14.1750120  31.3861303
  72.0142651  13.9006692  30.8572145  58.2479253  15.0984696  24.0336339
  58.3339505  14.7216565  24.8149869  58.8755051  14.7245142  23.5556297
  58.3535804  14.9870178  24.0781816  73.2734661  18.1566575  19.0761084
  74.0875300  18.4481468  18.9643855  73.2093802  17.5026438  18.5019377
  73.3837400  18.1031770  18.9749921  69.1442569  21.6288093  24.2033396
  69.7816516  21.3899840  24.7485189  69.5697641  21.8325252  23.4686556
  69.3018736  21.6239103  24.1750553  63.8355212  23.8676429  28.0867700
  63.8759357  24.1391280  27.2587479  64.3949736  24.3918337  28.5025488
  63.9238558  23.9852184  28.0259588  69.7845385  16.8490383  18.5408285
  70.1690537  16.6298089  19.2924830  69.5357005  17.6753328  18.6709362
  69.8047457  16.9388529  18.6709362  69.9513925  10.1296798  38.2570869
  69.6367366  10.8996361  37.9940432  69.6303857   9.5667054  37.6723096
  69.8572844  10.1607066  38.1312219  71.5264041  22.1060515  25.8827182
  71.6003050  21.9435687  26.7369032  72.3433548  22.2950705  25.6387664
  71.6580400  22.1097258  25.9725208  65.2869798  22.4518378  22.9121626
  64.4607916  22.6980115  22.7855904  65.3481789  22.3730459  23.7783684
  65.1743965  22.4763327  23.0210570  67.5045822   8.5187319  23.8717066
  66.6368247   8.5909919  23.9374675  67.7921026   9.3209398  24.0605041
  67.4185570   8.6481466  23.9091832  70.0668627  25.0695259  20.6140655
  70.3566926  24.6784240  19.8899882  70.7972108  25.2511963  21.0545931
  70.2175511  25.0389072  20.5723463  70.6563372  19.8713004  31.6993786
  70.1575066  20.5828772  31.7778674  71.4663597  20.1913671  31.6611948
  70.7019479  20.0239853  31.7050355  68.0074543  27.0462641  23.6800805
  67.7874838  26.7559996  24.4727472  67.7869065  26.3877596  23.1518718
  67.9422137  26.9062349  23.7189714  66.9191490  19.1335957  25.9456507
  66.6304739  18.5073429  26.4802234  67.7874838  19.0756245  26.0121187
  67.0051742  19.0323502  26.0347461  77.7069388  14.2770741  26.2638489
  77.3634154  13.5561076  26.6145738  77.8062430  14.0684592  25.4216847
  77.6711431  14.1394944  26.1910169  70.1742498  28.4192031  22.4631498
  70.8266556  27.8868473  22.6922524  69.4768107  28.0660683  22.8499372
  70.1673216  28.2881554  22.5543665  67.1223763  20.7731209  21.8698872
  67.8769731  21.1544248  22.0834334  66.5294376  21.2242352  22.3245568
  67.1460477  20.8960036  21.9681750  78.1682417  20.7396445  21.8062477
  78.7340449  21.3989655  21.7221020  77.5210320  21.0846143  22.2778879
  78.1561173  20.8878386  21.8635233  69.5830430  12.7294049  36.9956084
  68.7730206  13.0351829  36.8845927  70.0605117  13.4499631  37.1108668
  69.5333909  12.8808650  36.9963155  68.4421990  21.9439770  27.2438987
  67.9202743  22.0840062  27.9290852  68.8296010  21.1850434  27.4341105
  68.4225691  21.8525294  27.3740064  65.4313174  11.9945579  21.3133942
  65.1437970  11.6246849  20.5765889  66.1183642  12.4640434  21.0517647
  65.4902071  12.0092548  21.1649018  74.6388995  23.6835229  21.2299556
  74.3975671  22.9503090  20.8226621  74.8190328  24.2322086  20.5765889
  74.6296619  23.6557620  21.0729779  69.8688316  18.9743789  22.6420478
  69.6731098  19.5818523  22.0480781  70.0922661  18.2811733  22.1612152
  69.8722957  18.9621314  22.4836559  68.2666846  15.8598527  22.7601347
  68.9889497  16.0239685  22.3005153  67.7874838  16.5808192  22.6540686
  68.3030576  15.9896756  22.6766961  76.2260353  12.1962326  28.1398032
  75.3871454  12.2223604  27.9036295  76.2964720  12.8433061  28.7203378
  76.1128747  12.2958451  28.1907149  65.9174462  18.2656599  31.8655487
  66.4295559  18.5440852  31.2164246  65.6310805  19.0045893  32.2318300
  65.9509325  18.4158953  31.8245365  63.0041369  12.7726791  22.1619223
  63.1057505  13.5752952  22.4900199  63.7997255  12.5714127  21.8642304
  63.1369274  12.8612690  22.1654578  69.4358188  10.3582988  31.9256528
  69.2441385  10.3738122  32.7755952  70.2856784  10.5546662  31.9023183
  69.5333910  10.3897339  32.0479823  63.8205101  12.8873969  29.9040345
  63.6790592  12.0357910  30.0284853  64.1045664  12.9302630  29.0802551
  63.8412947  12.7673719  29.8007969  73.9743693  14.7241059  24.0484833
  73.7278407  14.6436810  24.8821622  74.3028816  13.9394527  23.8547360
  73.9864937  14.5967325  24.1432356  77.8691742  21.4324419  27.8371614
  77.7306101  22.1305465  28.3420357  77.0891740  21.2773075  27.4807796
  77.7334969  21.5124585  27.8597888  76.2069827  17.7320794  34.0893996
  76.2017865  16.8600611  34.0936422  76.9130821  17.9308963  33.6163452
  76.3114831  17.6324668  34.0201031  69.9340720  17.4597778  33.4607816
  70.0784096  18.0398986  32.8250926  70.2816369  17.8374075  34.1657671
  70.0068182  17.6018482  33.4706811  72.1060638  16.6587946  31.2432948
  71.3583952  16.8518961  30.8381226  72.2602163  15.8333166  31.0057069
  72.0183065  16.5653058  31.1478353  69.0068475  25.6500550  30.3268843
  69.1558039  25.0903466  29.6742247  69.7868477  25.7292552  30.7101362
  69.1442569  25.5786115  30.2865792  71.5321776  25.8215193  31.6053334
  71.4565447  25.1524003  32.1604122  71.4611635  26.5232981  32.1194000
  71.5102383  25.8260100  31.7630182  72.3462415  10.5538497  32.1328351
  72.8035029  11.2862471  32.2601144  72.4218743  10.1304962  32.8915607
  72.4253385  10.5995735  32.2629428  64.5895406  10.8004317  33.2217795
  64.0537595  10.1884675  33.5378562  64.6513171  11.3752453  33.8751462
  64.5191039  10.7951245  33.3653222  72.1892023  24.3416192  22.4376940
  72.9541914  24.0725835  22.1159604  72.0870113  23.8566202  23.1547002
  72.2873518  24.2305756  22.4956767  70.2244793  12.5440601  28.9770175
  69.4340867  12.3632061  29.2987511  70.6205415  11.7667554  28.9600470
  70.1661669  12.4028062  29.0222724  75.6088479  20.1783031  26.7029621
  74.9333481  19.9468263  27.2043008  75.6180855  19.5704214  26.0771726
  75.5106983  20.0541956  26.6845774  72.7382623  15.0200860  33.4593674
  72.6741764  15.8810817  33.3313811  72.8779811  14.7032853  32.6589226
  72.7498093  15.1001027  33.3221887  77.6105213  23.0348164  18.9339799
  77.6925051  23.8415150  18.6101250  78.0954956  23.0544123  19.6580573
  77.6942371  23.1568826  18.9926698  71.4201717  17.7133000  27.6009877
  70.9963966  17.9137499  26.8648896  71.2446572  16.8661848  27.7134177
  71.3312597  17.6181781  27.5083567  70.9213410  29.2283512  30.0631334
  71.4109341  28.5294302  29.8806999  70.3497642  28.9307382  30.6507392
  70.9097940  29.0809736  30.1232375  66.7084162  18.2085051  23.0337850
  66.8648781  18.1431854  23.8893842  67.0484755  18.9833604  22.8216529
  66.7817397  18.3134249  23.1292444  73.2463306  17.5842935  21.9031213
  73.7878852  17.0813316  22.3669833  73.5609865  17.5308129  21.0920698
  73.3727703  17.5022355  21.8515025  77.1180414  21.7945582  39.0158125
  77.9315279  21.5230731  39.1763258  76.9575380  21.4953122  38.2118321
  77.2150362  21.7100508  38.9203531  71.4149756  22.9760286  19.1871241
  71.4842576  22.1174825  19.3264241  72.1938211  23.1932167  18.8590266
  71.5402606  22.8813150  19.1588398  74.3952576  12.4779239  31.9553513
  74.6094545  11.8390153  31.4016867  73.7786475  12.9225063  31.5261375
  74.3357905  12.4489383  31.8103944  75.8057244  25.3997987  23.4007734
  75.4137035  25.0964703  22.6830600  75.9610316  26.2367077  23.2112688
  75.7710833  25.4781824  23.2664231  63.2818423  15.3920001  23.3498617
  63.6617388  15.8104546  22.6858884  62.7073788  15.9733457  23.6567460
  63.2529748  15.5397860  23.2975358  76.5591664  14.0868304  32.8936820
  75.7468345  13.7794195  32.9749993  77.0181598  13.6067304  33.4579533
  76.5072048  13.9704797  32.9891415  75.9696918  21.9647976  23.3413765
  75.6111573  22.1362619  24.1177797  75.4835629  22.4261182  22.7841763
  75.8455615  22.0586947  23.3739034  70.7585284  17.6447142  15.8813999
  71.0477809  18.4212024  16.1557573  70.8457083  17.1335873  16.5828498
  70.8139540  17.6839060  16.0256497  73.6545171  15.4928376  37.6765523
  74.1244802  16.1170492  38.0633397  73.7007051  14.8245351  38.2358737
  73.7313047  15.4863056  37.8165594  77.1301658  22.8551872  34.2880966
  77.7681378  22.3612068  33.9543422  76.4875749  22.7829273  33.7033193
  77.1295884  22.7710881  34.1523321  78.8558658  14.7041018  28.8546881
  78.4286266  14.6167367  28.0994981  78.2184711  14.8118794  29.4401725
  78.6988265  14.7073678  28.8292323  77.1855914  23.5471680  30.9286322
  77.9748293  23.1960745  31.0488404  77.3599512  24.3608069  30.6662956
  77.3276196  23.6157538  30.9074190  66.9249225  16.9580406  27.9814111
  66.0837231  16.8584280  28.1893005  67.1339233  17.7275886  28.3328432
  66.8313917  17.0572450  28.0641426  64.4024792  14.5799943  25.8098862
  64.0081489  14.6542955  25.0348972  63.8464909  14.9657889  26.3607224
  64.2627604  14.6481718  25.7766522  70.7365890  14.8861805  27.2311709
  70.4329027  14.3317794  27.8322116  70.0345310  15.0654015  26.7439743
  70.5882099  14.8306588  27.2481414  69.7931987  12.1962325  21.7956411
  70.0691721  11.4781238  21.3833978  70.3930656  12.7947245  21.5877517
  69.9225251  12.1782696  21.7037172  68.7984241  22.1011526  31.9383807
  68.6904596  22.1113588  32.8045865  69.0080022  22.9266306  31.7488760
  68.8134352  22.2252601  32.0387898  66.8158033  19.3524169  29.4005744
  66.2245966  19.9933667  29.3708759  67.5779056  19.7761786  29.3737044
  66.8406293  19.5100007  29.3920891  67.2118655  10.5126166  30.0673762
  67.6720137  10.5865096  30.8048886  67.2574762  11.3107420  29.7173583
  67.2869211  10.6420313  30.1246518  68.8602005  11.1792861  34.6345789
  68.4687570  10.5326208  35.0701567  69.0287868  11.7704296  35.2540044
  68.8272916  11.1707129  34.7908495  76.5747549  24.8033480  26.8337769
  76.3767238  25.2924295  26.1393980  75.9535260  25.0074722  27.4121902
  76.4535113  24.9050018  26.8160992  70.6355527  16.5718377  21.1748013
  71.3797572  16.9592653  21.4130963  70.7816223  15.7275802  21.3388501
  70.7666112  16.5048850  21.2341983  73.6233403  12.1443850  27.0741932
  73.1493357  11.6185612  27.5847243  73.9951539  11.5973323  26.5056794
  73.6083292  11.9859847  27.0657079  64.0006433  14.1415357  32.4425478
  64.8632046  14.0411066  32.3562808  63.6698216  13.5610066  31.8811050
  64.0791630  14.0406984  32.3470884  67.3608219  12.9657806  29.1035896
  66.7361289  12.9776198  28.4961849  67.0253814  13.4417981  29.7527136
  67.2193711  13.0376323  29.1092465  67.5449968  11.3082924  15.1608581
  67.1962772  11.9602650  15.6240131  67.0646414  11.2940037  14.4332452
  67.4220212  11.4025978  15.1219672  64.0733895  21.0258266  30.5439660
  63.5433819  20.3350705  30.5934635  64.3458988  21.0168451  29.7152369
  64.0358617  20.9225398  30.4287076  75.1053985  21.6083968  19.2677343
  75.8288184  22.0742081  19.1241916  74.6654576  21.6757578  18.5174940
  75.1469677  21.6867805  19.1362124  74.2740140  18.4681511  30.5178032
  73.6597133  17.9239561  30.8126667  74.7907425  17.9545747  30.0383848
  74.2595803  18.3117920  30.4902260  73.5136437  19.5385781  28.2522331
  73.0864046  18.9135499  27.8187766  73.5061382  19.2560703  29.0781338
  73.4495579  19.4038561  28.3102158  66.6298965  14.5750954  31.3210765
  66.7892451  13.8194278  31.7262487  66.4491858  15.1241893  31.9751502
  66.6264324  14.5444767  31.4773471  71.8422147  10.4154535  28.4664865
  71.8664634   9.8814647  27.7777645  72.0933621   9.9071844  29.1290455
  71.8832066  10.2615439  28.4629509  59.3529737  17.6986030  27.9008009
  59.2473186  17.6532874  27.0360093  58.6029957  18.0439811  28.1822294
  59.2265340  17.7426938  27.8145338  68.1223469   9.1425353  27.8470609
  68.1621841   9.6434560  28.5605316  67.2973134   9.2335747  27.5776532
  68.0062995   9.2307170  27.9121147  70.3053082  18.7086093  35.9490904
  69.4548713  18.8457808  36.0848549  70.4681210  17.9749872  36.3938605
  70.2036946  18.6200195  36.0346503  69.5437833  15.6585863  30.1444508
  68.7129762  15.8259681  29.9379756  69.4889350  15.2821814  30.9293393
  69.4127248  15.6275595  30.2293036  67.3521616   9.1494756  35.7800919
  67.9774319   8.6056889  36.0530351  66.8972096   8.6689674  35.2108709
  67.3769877   8.9984237  35.7362513  67.9173877  13.9341455  20.6734626
  68.0576838  14.4313919  21.3763267  68.4156409  13.2327749  20.8148839
  68.0114958  13.9043434  20.7986205  67.9474099  14.8008566  18.0027203
  68.5819178  15.3968991  17.9376664  68.0299710  14.5012023  18.8173073
  68.0530650  14.8449474  18.1130289  69.5253082  10.7322541  17.9772645
  69.8468923  10.2525624  17.3231907  69.7880026  11.5422187  17.7863456
  69.6119107  10.7812439  17.8528137  72.7550055  21.7541416  31.4971461
  72.2475146  22.3077262  31.9412091  72.4576701  21.8149705  30.6790235
  72.6354940  21.8447727  31.4419917  64.4527087  16.9976407  21.2716749
  64.9619316  17.5940914  21.6528054  64.9261359  16.7302380  20.5893168
  64.5970463  17.0462222  21.2271271  75.3657835  25.6704673  19.4275404
  74.6487145  25.4965536  18.9622641  76.0164573  25.4357246  18.8950890
  75.3559685  25.6100466  19.2804622  77.9505806  14.5469262  23.1716709
  77.2796996  15.0898964  23.0429775  78.6445556  15.0164117  22.9298404
  77.9534674  14.6967533  23.1172237  71.9992540  26.6865974  28.4028468
  71.7758194  25.9284803  28.7712494  71.5102383  26.7163995  27.6808907
  71.8935989  26.5788198  28.3505208  66.8117619  13.6332665  24.1389929
  66.0929608  14.0496798  24.4062793  67.1829981  14.1986904  23.5881567
  66.7609550  13.7781947  24.0972736  76.1117199  14.2660514  30.0291925
  76.0915127  14.0843809  30.8826704  76.1596400  15.1372533  30.0051508
  76.1151840  14.3677052  30.1515219  74.0563529  20.8547706  35.9540401
  74.0159384  20.2097383  35.3685557  74.8686848  20.7984323  36.2665813
  74.1706683  20.7506673  35.9137350  70.6470997  26.9066432  25.8565552
  70.2331395  26.2440562  25.4669394  71.3318371  27.0544291  25.3361246
  70.6869369  26.8307090  25.7222049  74.0136291  26.0656517  26.6089169
  73.6152574  26.1758788  25.8409989  73.3987511  26.2738584  27.1915729
  73.8635180  26.1130085  26.5820468  72.5864193  12.6730665  19.4763308
  71.9929032  12.9947662  18.9247875  72.6239471  11.8271760  19.2684415
  72.5038582  12.5954993  19.3646080  75.4622010  12.6310170  22.9065059
  75.2335703  12.6542871  22.0643417  75.7220086  11.8067637  23.0260069
  75.4668198  12.5126249  22.7990256  69.7441238  14.4844643  32.5090159
  69.2320141  13.8765826  32.8675190  69.5720734  15.2001235  32.9764135
  69.6430875  14.5007942  32.6306383  64.5906953  12.9282218  35.1592521
  64.4209543  13.5883593  34.6140727  64.1472903  13.1388779  35.8805010
  64.5006286  13.0568200  35.1854150  68.5166772  11.1686716  24.2019254
  68.9924138  11.5303796  23.5669435  68.0155372  11.8243183  24.4819397
  68.5132131  11.3180905  24.1495995  73.6210308  12.4068887  34.9492414
  74.1781739  12.1782697  34.3170880  73.2971373  13.1674553  34.6727627
  73.6556719  12.4852724  34.8148912  61.4909017  15.8329083  30.4181011
  60.9435737  15.1629729  30.5361879  62.2801395  15.4658931  30.4824478
  61.5261201  15.6794070  30.4449711  71.3393426  15.4936541  35.9144422
  72.0904753  15.8088217  36.2283976  71.5316002  15.2915711  35.0878343
  71.4784840  15.5103922  35.8387817  70.5593425  13.3127916  17.5692638
  70.9392390  13.3307545  16.7843753  69.8186021  13.7581904  17.4483486
  70.5062263  13.3809690  17.4356206  60.2495987  15.0449891  27.5727034
  60.0717748  14.5926500  28.2981949  59.9615009  15.8476053  27.7565511
  60.1808940  15.0972449  27.7070536  75.9119568  16.3007609  26.8104424
  76.4073233  15.5830604  26.7708444  75.1019344  15.9978406  26.6958911
  75.8663461  16.1505255  26.7878150  71.3578179  20.1505422  18.9601428
  70.5489502  19.8272095  18.9134738  71.8653088  19.4438644  18.8929677
  71.3127846  19.9986738  18.9431723  61.9868457  17.5777615  24.6848793
  61.1213976  17.5663305  24.5731564  62.0867272  17.3907838  25.5319932
  61.8742624  17.5483676  24.7937737  77.9771387  19.0511296  29.4981553
  78.4026458  18.5285718  28.9451978  77.6128307  19.6492134  28.9770176
  77.9857989  19.0621523  29.3390562  67.6125466  27.3475514  28.2578898
  67.9272025  28.1611902  28.2656680  68.0218880  26.9625732  28.9261057
  67.7193564  27.4104216  28.3582990  74.5649986  22.7645560  25.8282710
  75.0361164  23.4785823  25.9972695  74.9010165  22.1644311  26.3642580
  74.6845101  22.7817025  25.9315086  76.6526971  24.3746874  38.0074782
  76.7623936  23.5855434  38.3631529  76.9817867  24.2852810  37.2049120
  76.7179376  24.2452727  37.9417173  75.2023932  22.5563495  32.5910403
  74.6544878  21.9321378  32.3230468  75.6636961  22.7457767  31.8754482
  75.1891142  22.4922545  32.4460834  70.5512596   9.5389444  20.2520270
  71.3728290   9.7087757  20.0101965  70.0882247   9.6936705  19.5286567
  70.6043758   9.5871177  20.1091914  64.9538487  21.2948622  27.9057507
  65.5583344  21.2544456  27.2771327  64.7465799  22.1419774  27.9361562
  65.0127384  21.4136625  27.8173623  74.7682259  23.5614567  29.1219744
  75.5880633  23.4177533  29.3836039  74.4876336  24.1860766  29.6636182
  74.8479002  23.6324919  29.2407683  60.1889769  20.2783240  27.7756430
  60.0914047  19.4679511  28.0846486  60.9718639  20.2575033  27.3902698
  60.2905905  20.1550330  27.7643293  73.5986534  35.8756467  24.4967888
  73.3636719  35.0424119  24.3900157  73.7372175  36.1561132  23.6829089
  73.5842197  35.7939970  24.3610243  75.8976622  28.0442197  27.3952196
  75.2781653  27.4534844  27.2262211  75.7960485  28.6353632  26.7616519
  75.7914297  28.0446280  27.2757186  75.6245755  31.5894479  29.6395765
  75.5004451  32.1756924  30.2745584  76.2764039  31.0954675  29.9408040
  75.7019404  31.6033283  29.7781694  75.1603859  40.7542137  25.7724095
  74.6771437  41.4792627  25.7483678  75.9727177  41.0518267  25.8834252
  75.2094607  40.9044491  25.7851374  78.0148056  41.2698313  25.9244374
  78.7168635  40.7550302  25.9817131  77.9345539  41.5972465  26.7291250
  78.1071817  41.2412539  26.0517167  77.7284400  25.6216743  17.9906995
  77.5459973  25.8388624  17.1647987  78.5910013  25.7355756  18.0465609
  77.8288989  25.6706641  17.8761482  77.3398831  37.4604665  25.4329982
  78.1787731  37.6927598  25.4803744  77.3710601  36.5908977  25.3637018
  77.4680549  37.3661612  25.4294627  77.9651535  37.8805540  29.7343288
  78.5049759  37.7376671  30.4046660  77.2821481  38.2802291  30.1027314
  77.9443688  37.9185211  29.8877710  73.3688680  34.1005831  29.8877710
  73.1027095  33.2844948  30.0468700  73.3827244  34.1458987  29.0173225
  73.3313402  33.9862736  29.7831192  77.2746427  28.8990916  16.5029468
  76.5604604  28.6129095  16.9151900  77.7590395  29.2387541  17.1435855
  77.2405790  28.9072565  16.6585103  78.1187286  27.6384210  32.5344717
  77.4259083  27.1681189  32.7805449  78.7347613  27.4122514  33.1086424
  78.1071816  27.5351341  32.6553870  73.7782093  34.8864611  27.1689454
  73.5957666  34.8611497  26.3161746  74.5131762  35.3563548  27.2078363
  73.8596157  34.9525973  27.0487372  76.8427845  31.6049613  33.6771562
  77.5667817  31.5902644  34.1636457  76.9443981  32.3144969  33.1793531
  76.9646054  31.7074317  33.6750349  73.7453004  31.7658111  27.3188520
  74.3226506  31.6294562  27.9580766  73.0467065  31.3093895  27.5734105
  73.7274025  31.6780378  27.4510810  69.2211837  30.6170004  24.0336339
  69.3072089  30.2401873  24.8149869  69.8487634  30.2430450  23.5556297
  69.3268388  30.5055486  24.0781816  74.8087795  39.3861737  28.0867700
  74.8491941  39.6576588  27.2587479  75.3682320  39.9103645  28.5025488
  74.8971141  39.5037492  28.0259588  76.2602382  37.9703686  22.9121626
  75.4340499  38.2165423  22.7855904  76.3214373  37.8915767  23.7783684
  76.1476549  37.9948635  23.0210570  78.4778405  24.0372627  23.8717066
  77.6100831  24.1095227  23.9374675  78.7653610  24.8394706  24.0605041
  78.3918154  24.1666774  23.9091832  77.8924074  34.6521265  25.9456507
  77.6037322  34.0258737  26.4802234  78.7607422  34.5941553  26.0121187
  77.9784325  34.5508810  26.0347461  78.0956347  36.2916516  21.8698872
  78.8502315  36.6729555  22.0834334  77.5026960  36.7427660  22.3245568
  78.1193060  36.4145344  21.9681750  76.4045758  27.5130886  21.3133942
  76.1170553  27.1432157  20.5765889  77.0916226  27.9825742  21.0517647
  76.4634655  27.5277856  21.1649018  76.8907046  33.7841907  31.8655487
  77.4028143  34.0626160  31.2164246  76.6043388  34.5231201  32.2318300
  76.9241909  33.9344261  31.8245365  73.9773952  28.2912099  22.1619223
  74.0790089  29.0938260  22.4900199  74.7729839  28.0899435  21.8642304
  74.1101858  28.3797998  22.1654578  74.7937684  28.4059277  29.9040345
  74.6523176  27.5543218  30.0284853  75.0778248  28.4487938  29.0802551
  74.8145530  28.2859027  29.8007969  75.5627989  26.3189625  33.2217795
  75.0270179  25.7069983  33.5378562  75.6245754  26.8937761  33.8751462
  75.4923622  26.3136553  33.3653222  77.6816745  33.7270359  23.0337850
  77.8381364  33.6617162  23.8893842  78.0217338  34.5018911  22.8216529
  77.7549980  33.8319557  23.1292444  74.2551007  30.9105309  23.3498617
  74.6349972  31.3289854  22.6858884  73.6806372  31.4918765  23.6567460
  74.2262332  31.0583168  23.2975358  77.8981808  32.4765714  27.9814111
  77.0569815  32.3769588  28.1893005  78.1071816  33.2461194  28.3328432
  77.8046501  32.5757757  28.0641426  75.3757375  30.0985251  25.8098862
  74.9814073  30.1728263  25.0348972  74.8197492  30.4843197  26.3607224
  75.2360188  30.1667026  25.7766522  77.7890616  34.8709476  29.4005744
  77.1978549  35.5118975  29.3708759  78.5511640  35.2947094  29.3737044
  77.8138877  35.0285315  29.3920891  78.1851239  26.0311474  30.0673762
  78.6452721  26.1050404  30.8048886  78.2307346  26.8292728  29.7173583
  78.2601794  26.1605621  30.1246518  74.9739017  29.6600665  32.4425478
  75.8364630  29.5596374  32.3562808  74.6430800  29.0795374  31.8811050
  75.0524213  29.5592292  32.3470884  78.3340803  28.4843114  29.1035896
  77.7093873  28.4961506  28.4961849  77.9986398  28.9603289  29.7527136
  78.1926295  28.5561631  29.1092465  78.5182551  26.8268232  15.1608581
  78.1695356  27.4787958  15.6240131  78.0378997  26.8125345  14.4332452
  78.3952795  26.9211286  15.1219672  75.0466478  36.5443574  30.5439660
  74.5166403  35.8536013  30.5934635  75.3191572  36.5353759  29.7152369
  75.0091201  36.4410706  30.4287076  77.6031548  30.0936262  31.3210765
  77.7625035  29.3379586  31.7262487  77.4224442  30.6427201  31.9751502
  77.5996907  30.0630075  31.4773471  70.3262321  33.2171338  27.9008009
  70.2205770  33.1718182  27.0360093  69.5762541  33.5625119  28.1822294
  70.1997923  33.2612246  27.8145338  78.3254200  24.6680064  35.7800919
  78.9506903  24.1242197  36.0530351  77.8704680  24.1874982  35.2108709
  78.3502460  24.5169545  35.7362513  75.4259670  32.5161714  21.2716749
  75.9351900  33.1126222  21.6528054  75.8993943  32.2487688  20.5893168
  75.5703046  32.5647530  21.2271271  77.7850202  29.1517973  24.1389929
  77.0662191  29.5682106  24.4062793  78.1562564  29.7172212  23.5881567
  77.7342134  29.2967254  24.0972736  75.5639536  28.4467526  35.1592521
  75.3942127  29.1068901  34.6140727  75.1205486  28.6574087  35.8805010
  75.4738870  28.5753508  35.1854150  72.4641601  31.3514391  30.4181011
  71.9168320  30.6815037  30.5361879  73.2533979  30.9844239  30.4824478
  72.4993784  31.1979378  30.4449711  71.2228570  30.5635199  27.5727034
  71.0450331  30.1111808  28.2981949  70.9347592  31.3661361  27.7565511
  71.1541523  30.6157757  27.7070536  72.9601040  33.0962923  24.6848793
  72.0946560  33.0848613  24.5731564  73.0599856  32.9093146  25.5319932
  72.8475207  33.0668984  24.7937737  75.9271070  36.8133930  27.9057507
  76.5315928  36.7729764  27.2771327  75.7198383  37.6605082  27.9361562
  75.9859967  36.9321933  27.8173623  71.1622352  35.7968548  27.7756430
  71.0646630  34.9864819  28.0846486  71.9451222  35.7760341  27.3902698
  71.2638489  35.6735638  27.7643293   4.7548302  22.5385141  61.0107840
   4.7242306  23.3929778  61.1826110   5.3529651  22.2380434  61.5693984
   4.8385460  22.6201638  61.1182643   2.5764876  25.1137443  59.2826150
   2.4604402  25.8645129  59.7118288   3.3720763  24.8561396  59.5322237
   2.6769466  25.1872290  59.3830242   1.2312615  22.4629881  59.0938175
   0.7024087  22.6789515  59.7535481   1.7537635  23.1566020  59.0139144
   1.2301068  22.5973018  59.1793774   6.6860668  28.0376186  64.4671220
   5.8558371  28.2486830  64.6304636   6.6369920  27.2113240  64.1913503
   6.5567404  27.9465792  64.4508585   3.9424983  28.7075540  64.6035935
   3.5060215  28.7112283  65.3594907   3.6087899  29.3881039  64.1715513
   3.8287603  28.8087996  64.6516768   7.0769330  25.4256460  63.4955573
   7.7385764  24.8647129  63.3951481   6.4360742  24.9308491  63.8208264
   7.0798197  25.2692869  63.5287913   3.3634160  26.4421843  63.2367561
   3.5989749  26.5867042  62.4094412   3.5123724  27.2064251  63.6299075
   3.4199964  26.5760897  63.1731165   5.1924617  25.2823509  61.0737165
   5.5232834  25.8151149  60.4677260   5.7657705  25.3362396  61.7299116
   5.3258296  25.3693077  61.0814947   2.6567393  27.5787475  60.7307697
   3.2225426  28.2380685  60.6466240   2.0095297  27.9237173  61.2024099
   2.6446150  27.7269416  60.7880453   3.8530091  27.6293703  57.5233333
   3.4736900  26.8430840  57.5162623   3.1896337  28.1780560  57.3804978
   3.6988566  27.5938527  57.5014130   2.0990190  29.8739194  57.8585019
   2.1810027  30.6806180  57.5346470   2.5839932  29.8935153  58.5825793
   2.1827348  29.9959856  57.9171918   6.2363110  27.4799514  58.9177479
   6.6196716  28.2290870  59.1475576   5.4407223  27.7265334  58.6589468
   6.1756892  27.6269208  58.9135053  15.7280886  38.0570449  61.0107840
  15.6974890  38.9115086  61.1826110  16.3262234  37.7565741  61.5693984
  15.8118043  38.1386945  61.1182643   8.9280570  37.1446100  65.7660771
   8.0718466  37.3054598  65.8169888   8.9748224  36.2738164  65.7865832
   8.8079682  37.0396902  65.7766837   3.3121710  46.6808818  61.5298002
   2.5604610  46.3024356  61.3014047   3.7607722  46.7127251  60.7816813
   3.2671377  46.6294425  61.3855504  12.2374287  43.4132626  75.3721227
  12.9441054  42.9184656  75.5008161  12.4262222  43.8541707  74.6423885
  12.3702193  43.4050976  75.2830272   8.7646670  47.1034187  56.9583549
   8.4298038  47.7811109  56.5227772   9.2773540  46.7139499  56.3700421
   8.7912251  47.1458765  56.8070341   8.3050961  49.0548456  62.8994661
   8.6890341  49.6235355  62.3599436   8.2410103  48.3297966  62.4200477
   8.3524388  49.0323919  62.7488524  11.7732391  39.2038144  68.4092422
  12.3188351  39.8823230  68.4686392  11.7149268  39.0625605  67.5494004
  11.8448306  39.2830146  68.2904483   4.8906466  46.6927210  63.7960775
   4.9916829  45.8827564  64.1057903   4.2948212  46.5984156  63.1660453
   4.8179005  46.5592238  63.7487013  13.5497460  40.6322751  59.2826150
  13.4336986  41.3830437  59.7118288  14.3453347  40.3746704  59.5322237
  13.6502050  40.7057598  59.3830242   4.7307206  51.6104799  65.1975631
   5.3744661  52.0517963  65.5871789   5.0563461  50.8058225  65.1105890
   4.8739035  51.5569994  65.2421108   5.4327786  44.6216774  60.5695493
   5.7543627  45.1621981  59.9656801   6.0799882  44.0513545  60.7017782
   5.5753841  44.6175949  60.5002528   7.4829494  36.6232769  60.6529879
   8.1809658  36.8020896  61.1451343   7.7981826  36.1003108  60.0300269
   7.6324831  36.5726541  60.6331889   7.6717429  43.0103214  60.6409671
   8.1111065  42.4020314  61.0864444   7.5222092  42.6310587  59.8695136
   7.7138895  42.8641685  60.5928838   5.1389072  41.6047226  67.8428496
   5.7838075  41.1119669  67.5239445   5.3790849  41.7472012  68.6694575
   5.2699657  41.5524668  67.9178029   7.6775163  44.4502132  67.4935389
   7.9598406  43.6553537  67.2722145   8.4061324  44.9282719  67.5140450
   7.8264727  44.4036729  67.4638404   5.6556357  31.9925166  64.7351154
   5.3259687  32.4436309  64.0654853   4.9801359  31.9141329  65.2824160
   5.5066794  32.0476301  64.7174377  11.2726766  41.3630395  57.5940440
  11.1878061  42.2191362  57.7390009  11.7611149  41.0874719  58.2622599
  11.3315663  41.4487717  57.7142522  12.8632765  27.9810688  62.9800765
  12.5486206  28.6714167  63.4121187  12.3459707  27.9255471  62.2786265
  12.7397235  28.0745577  62.9397714  12.2045199  37.9815189  59.0938175
  11.6756670  38.1974823  59.7535481  12.7270219  38.6751328  59.0139144
  12.2033652  38.1158326  59.1793774  17.6593252  43.5561494  64.4671220
  16.8290955  43.7672137  64.6304636  17.6102504  42.7298548  64.1913503
  17.5299987  43.4651100  64.4508585   4.0944807  41.8778406  57.8945643
   3.5102022  42.3828438  58.3011507   3.6914902  41.6520793  57.1542235
   3.9484110  41.9186654  57.8450668   5.7202989  46.3865348  67.3019129
   5.2029931  46.0272763  66.6980437   6.4177381  45.8627522  67.3125195
   5.7468570  46.2563036  67.2149388   9.3766581  46.8360162  73.2635302
   9.4649927  46.6486302  74.1113512   9.8056294  46.1897592  72.8640149
   9.4528684  46.7123170  73.3307054   8.5522021  38.1244058  56.3714564
   8.7918025  38.3322042  55.5589907   8.8737862  37.3201567  56.4803508
   8.6359179  38.0358159  56.2675117   3.8612311  30.0537454  60.2174102
   4.6158279  30.4215771  59.9791152   3.6839846  30.4277008  60.9853281
   3.9466790  30.1635642  60.2958990   2.5033033  48.1089343  64.8489594
   3.2053612  47.5941332  64.9062351   2.4230516  48.4363495  65.6536470
   2.5956793  48.0803569  64.9762387  17.1547210  36.2031894  68.2621641
  16.3175631  36.2734082  68.4969235  17.1235441  36.2056389  67.3895943
  17.0265492  36.2142122  68.1681189   2.2169376  32.4607773  56.9152215
   2.0344949  32.6779654  56.0893207   3.0794989  32.5746786  56.9710829
   2.3173965  32.5097671  56.8006702   1.8283808  44.2995695  64.3575203
   2.6672707  44.5318628  64.4048964   1.8595577  43.4300007  64.2882238
   1.9565526  44.2052642  64.3539847   2.4536511  44.7196570  68.6588508
   2.9934736  44.5767701  69.3291880   1.7706457  45.1193321  69.0272534
   2.4328665  44.7576241  68.8122930   7.8969095  29.4634184  59.9501238
   8.6255256  29.2850139  59.5039395   7.9863988  30.3052263  60.1608417
   8.0175757  29.5618062  59.9154756  11.8777396  40.3987571  63.8533532
  12.6334911  40.8319085  63.8922441  11.9839720  39.7492341  64.4268168
  12.0047566  40.3665055  63.9431558  14.9157567  44.2260848  64.6035935
  14.4792799  44.2297591  65.3594907  14.5820482  44.9066347  64.1715513
  14.8020187  44.3273304  64.6516768  14.8355050  31.2674676  66.8465363
  15.4780958  31.3372781  67.4327279  15.0878071  30.6003899  66.3444905
  14.9677182  31.1801025  66.8592643   1.7631403  35.7381946  55.4274688
   1.0489580  35.4520125  55.8397120   2.2475372  36.0778571  56.0681075
   1.7290766  35.7463595  55.5830323   9.6457034  48.1779283  69.5745541
   8.8472280  47.9378783  69.8319410  10.0943045  48.2293676  70.3212589
   9.5931645  48.1501674  69.7230466  18.0501913  40.9441768  63.4955573
  18.7118347  40.3832437  63.3951481  17.4093325  40.4493799  63.8208264
  18.0530781  40.7878177  63.5287913   8.9378721  44.2411900  55.8036496
   9.3529869  43.9096923  55.1120992   8.1070651  44.0080802  55.6756633
   8.8766730  44.1583156  55.6827343  14.3366744  41.9607151  63.2367561
  14.5722333  42.1052349  62.4094412  14.4856308  42.7249559  63.6299075
  14.3932547  42.0946205  63.1731165  16.1657201  40.8008816  61.0737165
  16.4965418  41.3336457  60.4677260  16.7390289  40.8547704  61.7299116
  16.2990880  40.8878385  61.0814947  11.3789090  38.6473719  61.7560745
  11.4735944  39.3863013  62.2100371  10.7547933  38.2191195  62.1895310
  11.2998120  38.6935040  61.8868893   9.6341564  41.8259932  72.4051026
  10.2080425  41.1887176  72.5599590   9.5556367  41.8264014  71.5360684
   9.7074798  41.7325043  72.2997437  11.6312111  40.4922459  54.9897697
  11.5492274  40.5624646  55.8552684  12.2691832  41.0552203  54.7981438
  11.7131948  40.5861430  55.0887647   4.9905282  40.2583197  64.4572224
   4.7324526  39.4254932  64.4303523   5.0453765  40.4840810  63.6164724
   4.9605060  40.1680968  64.3292360  10.0706332  32.3611648  64.5576316
   9.3662659  31.8720833  64.7160235  10.1191307  32.3734122  63.6864761
   9.9736384  32.2901296  64.4515656   3.9639994  37.8120959  64.9437118
   3.3889586  37.9713128  65.5801079   3.5875671  37.1756369  64.4805569
   3.8242807  37.7418772  64.9691677   7.6313283  36.2844309  69.8029497
   7.2427716  35.8598526  69.1481688   6.9667981  36.5326458  70.3106523
   7.4760211  36.2583030  69.7817365  17.2736552  36.0419313  62.5777327
  17.0173117  35.2299255  62.3875210  18.1165866  36.0496881  62.3507514
  17.3602578  35.9231311  62.5162144  11.4539645  29.9818937  67.3153481
  11.8350156  29.2997109  67.7021355  10.6502929  29.6928540  67.1329145
  11.3916106  29.8385986  67.3457537   8.7352221  40.5142913  58.0006304
   9.5492860  40.8057806  57.8889075   8.6711362  39.8602776  57.4264597
   8.8454960  40.4608108  57.8995141  14.9561711  43.1968909  72.4135879
  14.7200349  42.3656974  72.2947940  15.6004940  43.1454517  72.9990724
  15.0156382  43.0666597  72.4821773   4.6060129  43.9864431  63.1278616
   5.2434076  43.7476178  63.6730409   5.0315201  44.1901590  62.3931776
   4.7636296  43.9815441  63.0995773   5.2462945  39.2066720  57.4653505
   5.6308097  38.9874427  58.2170050   4.9974565  40.0329666  57.5954582
   5.2665017  39.2964867  57.5954582  15.9798132  42.9813358  68.4764174
  15.6743949  43.7141415  68.8377490  15.2604348  42.5751288  68.1956960
  15.8285474  43.0295091  68.4877311   6.9881601  44.4636853  64.8072402
   7.0620610  44.3012025  65.6614252   7.8051108  44.6527043  64.5632884
   7.1197960  44.4673596  64.8970428  21.6799924  39.6206359  67.8032518
  21.6124424  39.6402318  66.9335105  21.6655587  40.4636686  68.0288189
  21.6678681  39.7480094  67.7084995   2.9663382  30.8763657  62.7962286
   2.0985807  30.9486257  62.8619895   3.2538586  31.6785736  62.9850261
   2.8803130  31.0057804  62.8337052  12.0896271  31.0241517  71.1273608
  12.8349863  30.8351327  70.7137033  11.6733575  31.5499754  70.5687464
  12.1381245  31.0743662  70.9838181   5.5286187  47.4271596  59.5385876
   5.8184486  47.0360578  58.8145102   6.2589668  47.6088301  59.9791151
   5.6793071  47.3965410  59.4968683  19.4658541  38.3950745  66.0779113
  20.0166463  37.7618814  66.3176205  19.4502657  38.9266138  66.7694617
  19.5443738  38.3799693  66.2157971   6.1180932  42.2289342  70.6239006
   5.6192626  42.9405110  70.7023894   6.9281157  42.5490009  70.5857168
   6.1637039  42.3816191  70.6295575   3.4692103  49.4038979  62.6046025
   3.2492398  49.1136334  63.3972692   3.2486625  48.7453934  62.0763938
   3.4039697  49.2638687  62.6434934   2.3809050  41.4912295  64.8701727
   2.0922299  40.8649767  65.4047454   3.2492398  41.4332583  64.9366407
   2.4669302  41.3899840  64.9592681  13.1686948  36.6347079  65.1883709
  12.8251714  35.9137414  65.5390958  13.2679990  36.4260930  64.3462067
  13.1328991  36.4971282  65.1155389   5.6360058  50.7768369  61.3876718
   6.2884116  50.2444811  61.6167744   4.9385667  50.4237021  61.7744592
   5.6290776  50.6457892  61.4788885   2.5841323  43.1307546  60.7944092
   3.3387291  43.5120585  61.0079554   1.9911936  43.5818690  61.2490788
   2.6078037  43.2536374  60.8926970  13.6299977  43.0972783  60.7307697
  14.1958009  43.7565993  60.6466240  12.9827880  43.4422481  61.2024099
  13.6178733  43.2454724  60.7880453   3.9039550  44.3016108  66.1684207
   3.3820303  44.4416399  66.8536072   4.2913570  43.5426772  66.3586325
   3.8843251  44.2101632  66.2985284  10.1006555  46.0411567  60.1544776
   9.8593231  45.3079428  59.7471841  10.2807888  46.5898424  59.5011109
  10.0914179  46.0133958  59.9974999   5.3305876  41.3320127  61.5665698
   5.1348658  41.9394861  60.9726001   5.5540221  40.6388071  61.0857372
   5.3340517  41.3197652  61.4081779   3.7284406  38.2174865  61.6846567
   4.4507057  38.3816023  61.2250373   3.2492398  38.9384529  61.5785906
   3.7648136  38.3473094  61.6012181  11.6877913  34.5538663  67.0643252
  10.8489014  34.5799942  66.8281515  11.7582280  35.2009399  67.6448598
  11.5746307  34.6534789  67.1152369  10.1347191  31.4524040  61.7970868
  10.8373544  31.2531789  61.3190826   9.8691380  30.6799983  62.1039711
  10.1993824  31.3087007  61.7716309  15.5635437  39.7606650  64.3504493
  15.4769411  39.9162076  65.2039272  15.1085917  40.4044726  63.9763898
  15.4838694  39.8782405  64.4211600   9.4361253  37.0817397  62.9730053
   9.1895967  37.0013148  63.8066842   9.7646376  36.2970865  62.7792580
   9.4482497  36.9543663  63.0677576  13.3309302  43.7900757  66.7616834
  13.1923661  44.4881802  67.2665577  12.5509300  43.6349413  66.4053016
  13.1952529  43.8700923  66.7843108  11.6687387  40.0897132  73.0139216
  11.6635425  39.2176949  73.0181642  12.3748381  40.2885301  72.5408672
  11.7732391  39.9901006  72.9446251   5.3958280  39.8174116  72.3853036
   5.5401656  40.3975324  71.7496146   5.7433929  40.1950413  73.0902891
   5.4685742  39.9594820  72.3952031   7.5678198  39.0164284  70.1678168
   6.8201512  39.2095299  69.7626446   7.7219723  38.1909504  69.9302289
   7.4800625  38.9229396  70.0723573   4.4686035  48.0076888  69.2514063
   4.6175599  47.4479804  68.5987467   5.2486037  48.0868889  69.6346582
   4.6060129  47.9362453  69.2111012  14.8262675  43.1479010  57.5233333
  14.4469483  42.3616148  57.5162623  14.1628920  43.6965867  57.3804978
  14.6721149  43.1123834  57.5014130   6.9939336  48.1791531  70.5298554
   6.9183007  47.5100341  71.0849342   6.9229195  48.8809319  71.0439220
   6.9719943  48.1836438  70.6875402  12.2807301  26.0904710  64.9267414
  12.3990869  26.5481174  64.1934717  12.1069476  25.2849971  64.6403632
  12.2726472  26.0398482  64.7768348   7.6509583  46.6992530  61.3622160
   8.4159474  46.4302173  61.0404824   7.5487673  46.2142540  62.0792222
   7.7491078  46.5882094  61.4201987   5.6862353  34.9016939  67.9015395
   4.8958427  34.7208399  68.2232731   6.0822975  34.1243892  67.8845690
   5.6279229  34.7604400  67.9467944  10.1728243  43.7304713  53.3422109
  10.9401228  43.7904838  52.9327961   9.7259552  43.1585155  52.8578428
  10.2201671  43.6541289  53.2099819  11.0706039  42.5359369  65.6274841
  10.3951041  42.3044601  66.1288228  11.0798415  41.9280552  65.0016946
  10.9724543  42.4118294  65.6090994   8.2000183  37.3777198  72.3838894
   8.1359324  38.2387155  72.2559031   8.3397371  37.0609191  71.5834446
   8.2115653  37.4577365  72.2467107  13.0722773  45.3924501  57.8585019
  13.1542611  46.1991488  57.5346470  13.5572516  45.4120461  58.5825793
  13.1559931  45.5145164  57.9171918   6.8819277  40.0709337  66.5255097
   6.4581526  40.2713836  65.7894116   6.7064132  39.2238185  66.6379397
   6.7930157  39.9758119  66.4328787   2.1701722  40.5661389  61.9583070
   2.3266341  40.5008192  62.8139062   2.5102315  41.3409941  61.7461749
   2.2434957  40.6710587  62.0537664   8.7080866  39.9419272  60.8276433
   9.2496412  39.4389654  61.2915053   9.0227425  39.8884467  60.0165918
   8.8345263  39.8598693  60.7760245  12.5797974  44.1521920  77.9403345
  13.3932839  43.8807069  78.1008478  12.4192940  43.8529460  77.1363541
  12.6767922  44.0676846  77.8448751   6.8767316  45.3336624  58.1116461
   6.9460136  44.4751162  58.2509461   7.6555771  45.5508505  57.7835486
   7.0020166  45.2389488  58.0833618   9.8570136  34.8355577  70.8798733
  10.0712105  34.1966491  70.3262087   9.2404035  35.2801401  70.4506595
   9.7975465  34.8065721  70.7349164  11.2674804  47.7574325  62.3252954
  10.8754595  47.4541040  61.6075820  11.4227876  48.5943415  62.1357908
  11.2328393  47.8358162  62.1909451  12.0209224  36.4444642  71.8182040
  11.2085905  36.1370532  71.8995213  12.4799158  35.9643642  72.3824753
  11.9689608  36.3281134  71.9136635  11.4314478  44.3224314  62.2658985
  11.0729133  44.4938957  63.0423017  10.9453189  44.7837520  61.7086983
  11.3073175  44.4163285  62.2984254   9.2484864  27.9455513  65.8686076
   8.3778422  27.9194234  65.8219386   9.5025206  27.7732705  65.0511922
   9.1578424  27.9165656  65.7406213   6.2202844  40.0023479  54.8059219
   6.5095369  40.7788362  55.0802793   6.3074643  39.4912211  55.5073719
   6.2757100  40.0415398  54.9501717   6.2734005  29.9561741  67.3259547
   5.7572493  29.2641933  67.4511126   5.7127934  30.6232518  67.2722145
   6.1140518  29.9524999  67.3365613  12.5919218  45.2128210  73.2126186
  13.2298938  44.7188406  72.8788642  11.9493309  45.1405611  72.6278413
  12.5913444  45.1287219  73.0768541  14.3176218  37.0617356  67.7792101
  13.8903826  36.9743705  67.0240201  13.6802271  37.1695132  68.3646945
  14.1605825  37.0650016  67.7537543  12.6473474  45.9048018  69.8531542
  13.4365853  45.5537083  69.9733624  12.8217072  46.7184407  69.5908176
  12.7893756  45.9733875  69.8319410   2.3866785  39.3156744  66.9059331
   1.5454791  39.2160618  67.1138225   2.5956793  40.0852224  67.2573652
   2.2931477  39.4148787  66.9886646  11.5007299  29.9157575  64.4147961
  11.7056892  29.8479883  65.2604958  11.1733722  30.7216396  64.3469138
  11.4822546  30.0243515  64.5307616   6.1983450  37.2438143  66.1556929
   5.8946587  36.6894132  66.7567336   5.4962870  37.4230353  65.6684963
   6.0499659  37.1882926  66.1726634   5.2549547  34.5538663  60.7201631
   5.5309281  33.8357576  60.3079198   5.8548216  35.1523583  60.5122737
   5.3842811  34.5359034  60.6282392  14.7540986  30.4689339  63.8950726
  14.1415300  30.9559741  64.2804458  14.8505161  29.7932830  64.4388378
  14.6778884  30.4407648  64.0329585   8.7560067  32.2252180  58.9948226
   9.2103814  32.3962741  59.7196070   9.2300113  31.6120291  58.5946001
   8.8928387  32.1603066  59.0421987   2.2775593  41.7100506  68.3250964
   1.6863526  42.3510005  68.2953979   3.0396616  42.1338124  68.2982264
   2.3023853  41.8676345  68.3166111  18.3966014  41.5406276  69.3228242
  18.4549138  41.9892925  70.0688219  17.7632482  41.9505089  68.8858322
  18.3117309  41.6680011  69.3680791  12.0365109  47.1609818  65.7582989
  11.8384798  47.6500632  65.0639200  11.4152820  47.3651059  66.3367122
  11.9152673  47.2626356  65.7406212   6.0973087  38.9294715  60.0993233
   6.8415132  39.3168991  60.3376183   6.2433783  38.0852140  60.2633721
   6.2283672  38.8625188  60.1587203   8.0152663  30.7244974  65.1325094
   7.1688708  30.8967781  65.0066444   8.0123795  29.9194317  65.4690923
   7.8899813  30.6306003  65.1636221   9.0850963  34.5020188  65.9987152
   8.6110917  33.9761950  66.5092463   9.4569099  33.9549661  65.4302014
   9.0700852  34.3436185  65.9902299  15.3487694  39.5622564  67.4093933
  15.1085917  38.7228979  67.4136359  15.8279701  39.6422730  68.1334706
  15.3839877  39.4503963  67.5168735  11.0134463  35.3956743  59.0612906
  10.4857481  35.4785487  58.3718615  11.4730171  36.1374614  59.0577551
  11.0036313  35.5177405  58.9587601  17.3492881  36.3424021  65.3623192
  17.1102651  36.3019855  64.5243976  17.5126782  37.1895173  65.4888913
  17.3383184  36.4616106  65.2576674  13.9538911  40.7273970  71.2928237
  14.6773110  40.2746497  71.1139257  13.6888873  41.0078636  70.5100565
  14.0220184  40.7024939  71.1506952   2.8225779  35.3234144  68.0281116
   2.1978849  35.3352536  67.4207069   2.4871374  35.7994319  68.6772356
   2.6811271  35.3952661  68.0337685   3.0067528  33.6659262  54.0853801
   2.6580332  34.3178988  54.5485351   2.5263974  33.6516375  53.3577672
   2.8837772  33.7602316  54.0464892  10.5671545  43.9660306  58.1922563
  11.2905744  44.4318419  58.0487136  10.1272136  44.0333916  57.4420160
  10.6087237  44.0444143  58.0607344   9.7357700  40.8257848  69.4423252
   9.1214693  40.2815899  69.7371887  10.2524985  40.3122085  68.9629068
   9.7213363  40.6694258  69.4147480   8.9753997  41.8962119  67.1767551
   8.5481606  41.2711837  66.7432986   8.9678942  41.6137040  68.0026558
   8.9113139  41.7614899  67.2347378   7.3039707  32.7730873  67.3910085
   7.3282194  32.2390985  66.7022865   7.5551181  32.2648182  68.0535675
   7.3449626  32.6191777  67.3874729   3.5841029  31.5001691  66.7715829
   3.6239401  32.0010898  67.4850536   2.7590694  31.5912085  66.5021752
   3.4680555  31.5883508  66.8366367   5.0055393  38.0162201  69.0689728
   4.1747322  38.1836019  68.8624976   4.9506910  37.6398152  69.8538613
   4.8744808  37.9851932  69.1538256   3.3791437  36.2917793  59.5979846
   3.5194398  36.7890257  60.3008487   3.8773969  35.5904087  59.7394059
   3.4732518  36.2619771  59.7231425   3.4091659  37.1584904  56.9272423
   4.0436738  37.7545329  56.8621884   3.4917270  36.8588361  57.7418293
   3.5148210  37.2025812  57.0375509  16.3874225  39.6900381  69.7958787
  16.9792065  40.3297632  69.8276985  16.8233219  38.9923418  70.0850854
  16.5392656  39.6818731  69.8439619   4.9870642  33.0898879  56.9017865
   5.3086483  32.6101962  56.2477127   5.2497586  33.8998525  56.7108676
   5.0736667  33.1388777  56.7773357   8.2167615  44.1117753  70.4216681
   7.7092706  44.6653600  70.8657311   7.9194261  44.1726043  69.6035455
   8.0972500  44.2024065  70.3665137  10.3829797  32.4771073  69.2641344
  10.8084868  32.0243600  68.6524870   9.7686790  31.9231144  69.5406131
  10.3558442  32.3285049  69.2146369  10.8275395  48.0281011  58.3520624
  10.1104705  47.8541873  57.8867862  11.4782133  47.7933583  57.8196110
  10.8177245  47.9676804  58.2049842   8.8224020  28.9486173  62.6731921
   8.1792338  28.7983819  63.2417059   8.4823427  28.7028518  61.9081025
   8.6769097  28.8898295  62.6434936  13.4123366  36.9045600  62.0961929
  12.7414556  37.4475302  61.9674995  14.1063116  37.3740455  61.8543624
  13.4152234  37.0543871  62.0417457   7.4610100  49.0442312  67.3273688
   7.2375754  48.2861141  67.6957714   6.9719943  49.0740333  66.6054127
   7.3553549  48.9364536  67.2750429  13.5751494  33.3601483  65.0052302
  13.9279104  32.9331206  65.6798101  12.7166295  33.2752327  65.1353379
  13.5000938  33.2846224  65.1247313   2.2735179  35.9909003  63.0635149
   1.5547168  36.4073136  63.3308013   2.6447541  36.5563242  62.5126787
   2.2227110  36.1358284  63.0217956  11.5734759  36.6236852  68.9537145
  11.5532687  36.4420147  69.8071924  11.6213960  37.4948870  68.9296728
  11.5769400  36.7253390  69.0760439   9.5181089  43.2124044  74.8785621
   9.4776944  42.5673721  74.2930777  10.3304408  43.1560661  75.1911033
   9.6324243  43.1083011  74.8382570   6.1088557  49.2642770  64.7810772
   5.6948955  48.6016900  64.3914614   6.7935931  49.4120629  64.2606466
   6.1486929  49.1883428  64.6467269   9.4753851  48.4232855  65.5334389
   9.0770134  48.5335125  64.7655209   8.8605071  48.6314921  66.1160949
   9.3252740  48.4706423  65.5065688   8.0481753  35.0307003  58.4008528
   7.4546592  35.3523999  57.8493095   8.0857031  34.1848098  58.1929635
   7.9656142  34.9531331  58.2891300  15.0075554  28.4819895  65.9336615
  14.5006418  27.7749035  65.8657792  15.8042987  28.1513084  66.0637692
  15.0502793  28.3293047  65.9435610  10.9239570  34.9886507  61.8310279
  10.6953263  35.0119209  60.9888637  11.1837646  34.1643974  61.9505289
  10.9285758  34.8702587  61.7235476   3.9784332  33.5263054  63.1264474
   4.4541698  33.8880134  62.4914655   3.4772932  34.1819521  63.4064617
   3.9749691  33.6757242  63.0741215  17.2095694  42.9984822  58.9177479
  17.5929299  43.7476178  59.1475576  16.4139807  43.2450641  58.6589468
  17.1489476  43.1454516  58.9135053   6.0210985  35.6704254  56.4937858
   6.4009950  35.6883883  55.7088973   5.2803581  36.1158242  56.3728706
   5.9679823  35.7386028  56.3601427  13.6496276  33.9786445  62.0813437
  13.6490502  33.8235101  62.9397713  13.4452456  34.8249432  62.0254823
  13.6196054  34.0807065  62.2001376  11.3737128  38.6583947  65.7349644
  11.8690793  37.9406942  65.6953664  10.5636904  38.3554744  65.6204131
  11.3281021  38.5081593  65.7123370   6.8195739  42.5081760  57.8846648
   6.0107062  42.1848433  57.8379958   7.3270648  41.8014982  57.8174897
   6.7745406  42.3563076  57.8676943  13.4388947  41.4087634  68.4226773
  13.8644018  40.8862056  67.8697198  13.0745867  42.0068471  67.9015396
  13.4475549  41.4197861  68.2635782   3.0743026  49.7051852  67.1824118
   3.3889585  50.5188240  67.1901900   3.4836440  49.3202070  67.8506277
   3.1811124  49.7680554  67.2828210  10.0267546  45.1221898  64.7527930
  10.4978724  45.8362161  64.9217915  10.3627725  44.5220648  65.2887800
  10.1462661  45.1393363  64.8560306  10.6641492  44.9139832  71.5155623
  10.1162438  44.2897716  71.2475688  11.1254521  45.1034104  70.7999702
  10.6508702  44.8498883  71.3706054  13.4735357  32.9825187  68.9006815
  12.8898346  33.4834393  68.4884382  13.7939651  32.4754743  68.2671138
  13.4348532  32.9817022  68.7465322   6.0130156  31.8965782  59.1765490
   6.8345850  32.0664095  58.9347185   5.5499807  32.0513043  58.4531787
   6.0661318  31.9447515  59.0337134  10.2299819  45.9190905  68.0464964
  11.0498193  45.7753871  68.3081259   9.9493896  46.5437104  68.5881402
  10.3096562  45.9901257  68.1652903  26.7013469  53.5755757  61.0107840
  26.6707473  54.4300394  61.1826110  27.2994818  53.2751049  61.5693984
  26.7850627  53.6572253  61.1182643  19.9013154  52.6631408  65.7660771
  19.0451049  52.8239906  65.8169888  19.9480808  51.7923472  65.7865832
  19.7812265  52.5582210  65.7766837  14.2854294  62.1994126  61.5298002
  13.5337193  61.8209664  61.3014047  14.7340305  62.2312559  60.7816813
  14.2403960  62.1479733  61.3855504  23.2106870  58.9317933  75.3721227
  23.9173638  58.4369964  75.5008161  23.3994806  59.3727015  74.6423885
  23.3434776  58.9236284  75.2830272  19.7379254  62.6219495  56.9583549
  19.4030622  63.2996417  56.5227772  20.2506124  62.2324806  56.3700421
  19.7644835  62.6644073  56.8070341  19.2783545  64.5733764  62.8994661
  19.6622924  65.1420663  62.3599436  19.2142686  63.8483274  62.4200477
  19.3256972  64.5509227  62.7488524  22.7464975  54.7223452  68.4092422
  23.2920935  55.4008538  68.4686392  22.6881851  54.5810913  67.5494004
  22.8180889  54.8015453  68.2904483  15.8639050  62.2112518  63.7960775
  15.9649413  61.4012872  64.1057903  15.2680795  62.1169464  63.1660453
  15.7911588  62.0777546  63.7487013  24.5230044  56.1508059  59.2826150
  24.4069570  56.9015745  59.7118288  25.3185930  55.8932012  59.5322237
  24.6234633  56.2242906  59.3830242  15.7039789  67.1290107  65.1975631
  16.3477245  67.5703271  65.5871789  16.0296045  66.3243533  65.1105890
  15.8471618  67.0755302  65.2421108   9.0604094  58.2332804  63.4213108
   8.8254279  57.4000457  63.3145377   9.1989735  58.5137470  62.6074309
   9.0459757  58.1516308  63.2855463  11.3594182  50.4018535  66.3197416
  10.7399213  49.8111182  66.1507431  11.2578045  50.9929970  65.6861739
  11.2531857  50.4022618  66.2002406  16.4060369  60.1402082  60.5695493
  16.7276210  60.6807289  59.9656801  17.0532466  59.5698853  60.7017782
  16.5486424  60.1361257  60.5002528  18.4562077  52.1418077  60.6529879
  19.1542242  52.3206204  61.1451343  18.7714410  51.6188416  60.0300269
  18.6057414  52.0911849  60.6331889  11.0863315  53.9470817  68.5640985
  10.9622011  54.5333262  69.1990804  11.7381599  53.4531012  68.8653260
  11.1636964  53.9609621  68.7026914  18.6450013  58.5288522  60.6409671
  19.0843648  57.9205622  61.0864444  18.4954675  58.1495895  59.8695136
  18.6871478  58.3826993  60.5928838  16.1121656  57.1232534  67.8428496
  16.7570658  56.6304977  67.5239445  16.3523433  57.2657320  68.6694575
  16.2432241  57.0709976  67.9178029  18.6507747  59.9687440  67.4935389
  18.9330990  59.1738845  67.2722145  19.3793907  60.4468027  67.5140450
  18.7997311  59.9222036  67.4638404  16.6288941  47.5110473  64.7351154
  16.2992271  47.9621617  64.0654853  15.9533943  47.4326637  65.2824160
  16.4799377  47.5661609  64.7174377  22.2459349  56.8815703  57.5940440
  22.1610644  57.7376670  57.7390009  22.7343732  56.6060027  58.2622599
  22.3048246  56.9673025  57.7142522  23.8365349  43.4995996  62.9800765
  23.5218790  44.1899475  63.4121187  23.3192290  43.4440779  62.2786265
  23.7129819  43.5930885  62.9397714  23.1777782  53.5000497  59.0938175
  22.6489254  53.7160131  59.7535481  23.7002802  54.1936636  59.0139144
  23.1766235  53.6343634  59.1793774  28.6325835  59.0746802  64.4671220
  27.8023538  59.2857445  64.6304636  28.5835088  58.2483856  64.1913503
  28.5032571  58.9836408  64.4508585  15.0677390  57.3963714  57.8945643
  14.4834605  57.9013745  58.3011507  14.6647485  57.1706101  57.1542235
  14.9216694  57.4371962  57.8450668  10.6221419  63.1118475  64.6969315
  10.1388997  63.8368965  64.6728898  11.4344737  63.4094605  64.8079472
  10.6712167  63.2620829  64.7096594  16.6935573  61.9050656  67.3019129
  16.1762515  61.5458071  66.6980437  17.3909964  61.3812830  67.3125195
  16.7201154  61.7748344  67.2149388  20.3499165  62.3545470  73.2635302
  20.4382511  62.1671610  74.1113512  20.7788877  61.7082900  72.8640149
  20.4261267  62.2308478  73.3307054  19.5254605  53.6429366  56.3714564
  19.7650608  53.8507350  55.5589907  19.8470446  52.8386875  56.4803508
  19.6091763  53.5543467  56.2675117  14.8344895  45.5722762  60.2174102
  15.5890863  45.9401079  59.9791152  14.6572429  45.9462316  60.9853281
  14.9199373  45.6820950  60.2958990  13.4765616  63.6274651  64.8489594
  14.1786195  63.1126640  64.9062351  13.3963099  63.9548802  65.6536470
  13.5689377  63.5988877  64.9762387  28.1279794  51.7217202  68.2621641
  27.2908215  51.7919389  68.4969235  28.0968025  51.7241697  67.3895943
  27.9998076  51.7327429  68.1681189  14.5244523  53.8650238  73.9770010
  14.6965026  53.7556133  74.8255291  15.0613880  54.5104644  73.7401202
  14.6289527  53.9442240  74.0675106  13.1901960  47.9793081  56.9152215
  13.0077533  48.1964962  56.0893207  14.0527573  48.0932094  56.9710829
  13.2906549  48.0282979  56.8006702  12.8016392  59.8181003  64.3575203
  13.6405291  60.0503936  64.4048964  12.8328161  58.9485315  64.2882238
  12.9298109  59.7237950  64.3539847  13.4269095  60.2381878  68.6588508
  13.9667319  60.0953009  69.3291880  12.7439041  60.6378629  69.0272534
  13.4061248  60.2761549  68.8122930  18.8701679  44.9819492  59.9501238
  19.5987839  44.8035447  59.5039395  18.9596572  45.8237571  60.1608417
  18.9908341  45.0803370  59.9154756  22.8509979  55.9172879  63.8533532
  23.6067494  56.3504393  63.8922441  22.9572304  55.2677649  64.4268168
  22.9780150  55.8850363  63.9431558  25.8890150  59.7446156  64.6035935
  25.4525382  59.7482899  65.3594907  25.5553066  60.4251655  64.1715513
  25.7752770  59.8458612  64.6516768  25.8087633  46.7859984  66.8465363
  26.4513542  46.8558089  67.4327279  26.0610654  46.1189207  66.3444905
  25.9409766  46.6986333  66.8592643  12.7363987  51.2567254  55.4274688
  12.0222164  50.9705433  55.8397120  13.2207955  51.5963879  56.0681075
  12.7023350  51.2648903  55.5830323  13.5804846  49.9960547  71.4589937
  12.8876643  49.5257527  71.7050669  14.1965173  49.7698852  72.0331644
  13.5689376  49.8927679  71.5799090  20.6189617  63.6964591  69.5745541
  19.8204863  63.4564091  69.8319410  21.0675629  63.7478984  70.3212589
  20.5664229  63.6686982  69.7230466  29.0234497  56.4627076  63.4955573
  29.6850931  55.9017745  63.3951481  28.3825909  55.9679107  63.8208264
  29.0263364  56.3063485  63.5287913  19.9111304  59.7597207  55.8036496
  20.3262453  59.4282231  55.1120992  19.0803234  59.5266110  55.6756633
  19.8499313  59.6768463  55.6827343   9.2399653  57.2440949  66.0934674
   9.0575226  57.2187835  65.2406966   9.9749322  57.7139886  66.1323583
   9.3213717  57.3102311  65.9732592  25.3099327  57.4792458  63.2367561
  25.5454917  57.6237657  62.4094412  25.4588891  58.2434867  63.6299075
  25.3665131  57.6131513  63.1731165  12.3045405  53.9625951  72.6016782
  13.0285377  53.9478982  73.0881677  12.4061541  54.6721307  72.1038751
  12.4263614  54.0650655  72.5995569  27.1389784  56.3194124  61.0737165
  27.4698001  56.8521765  60.4677260  27.7122872  56.3733012  61.7299116
  27.2723463  56.4063693  61.0814947  22.3521673  54.1659027  61.7560745
  22.4468528  54.9048321  62.2100371  21.7280517  53.7376503  62.1895310
  22.2730703  54.2120348  61.8868893  20.6074147  57.3445240  72.4051026
  21.1813009  56.7072484  72.5599590  20.5288951  57.3449322  71.5360684
  20.6807382  57.2510351  72.2997437   9.2070564  54.1234449  66.2433740
   9.7844066  53.9870900  66.8825986   8.5084625  53.6670233  66.4979325
   9.1891585  54.0356715  66.3756030  22.6044695  56.0107767  54.9897697
  22.5224857  56.0809954  55.8552684  23.2424415  56.5737511  54.7981438
  22.6864532  56.1046738  55.0887647  15.9637866  55.7768505  64.4572224
  15.7057110  54.9440240  64.4303523  16.0186349  56.0026118  63.6164724
  15.9337644  55.6866276  64.3292360  21.0438916  47.8796956  64.5576316
  20.3395243  47.3906141  64.7160235  21.0923890  47.8919430  63.6864761
  20.9468967  47.8086604  64.4515656  14.9372578  53.3306267  64.9437118
  14.3622169  53.4898436  65.5801079  14.5608254  52.6941676  64.4805569
  14.7975390  53.2604080  64.9691677  18.6045867  51.8029617  69.8029497
  18.2160299  51.3783834  69.1481688  17.9400565  52.0511766  70.3106523
  18.4492794  51.7768338  69.7817365  28.2469136  51.5604621  62.5777327
  27.9905701  50.7484563  62.3875210  29.0898450  51.5682188  62.3507514
  28.3335161  51.4416619  62.5162144   4.6829397  52.9746342  62.9581559
   4.7689649  52.5978210  63.7395089   5.3105194  52.6006788  62.4801517
   4.7885948  52.8631824  63.0027036  22.4272228  45.5004245  67.3153481
  22.8082740  44.8182416  67.7021355  21.6235512  45.2113847  67.1329145
  22.3648690  45.3571294  67.3457537  19.7084805  56.0328221  58.0006304
  20.5225444  56.3243114  57.8889075  19.6443946  55.3788084  57.4264597
  19.8187544  55.9793416  57.8995141  25.9294295  58.7154217  72.4135879
  25.6932932  57.8842282  72.2947940  26.5737524  58.6639825  72.9990724
  25.9888966  58.5851905  72.4821773  15.5792713  59.5049739  63.1278616
  16.2166660  59.2661486  63.6730409  16.0047785  59.7086898  62.3931776
  15.7368879  59.5000749  63.0995773  16.2195528  54.7252028  57.4653505
  16.6040681  54.5059735  58.2170050  15.9707148  55.5514974  57.5954582
  16.2397601  54.8150175  57.5954582  16.3864069  48.0058444  77.1816089
  16.0717510  48.7758006  76.9185652  16.0654001  47.4428700  76.5968316
  16.2922988  48.0368712  77.0557439  26.9530716  58.4998666  68.4764174
  26.6476533  59.2326723  68.8377490  26.2336931  58.0936596  68.1956960
  26.8018058  58.5480399  68.4877311  17.9614185  59.9822161  64.8072402
  18.0353193  59.8197333  65.6614252  18.7783691  60.1712351  64.5632884
  18.0930544  59.9858904  64.8970428  32.6532508  55.1391667  67.8032518
  32.5857008  55.1587626  66.9335105  32.6388170  55.9821994  68.0288189
  32.6411264  55.2665401  67.7084995  11.7219942  60.3280024  61.8366846
  10.8958059  60.5741761  61.7101124  11.7831933  60.2492105  62.7028904
  11.6094109  60.3524973  61.9455790  13.9395965  46.3948965  62.7962286
  13.0718391  46.4671565  62.8619895  14.2271170  47.1971044  62.9850261
  13.8535714  46.5243112  62.8337052  23.0628854  46.5426824  71.1273608
  23.8082446  46.3536635  70.7137033  22.6466159  47.0685062  70.5687464
  23.1113828  46.5928970  70.9838181  16.5018771  62.9456904  59.5385876
  16.7917069  62.5545886  58.8145102  17.2322252  63.1273609  59.9791151
  16.6525655  62.9150718  59.4968683  30.4391125  53.9136053  66.0779113
  30.9899047  53.2804122  66.3176205  30.4235240  54.4451446  66.7694617
  30.5176321  53.8985001  66.2157971  17.0913516  57.7474650  70.6239006
  16.5925210  58.4590418  70.7023894  17.9013740  58.0675317  70.5857168
  17.1369623  57.9001499  70.6295575  14.4424686  64.9224287  62.6046025
  14.2224982  64.6321641  63.3972692  14.2219208  64.2639242  62.0763938
  14.3772281  64.7823995  62.6434934  13.3541634  57.0097603  64.8701727
  13.0654882  56.3835075  65.4047454  14.2224982  56.9517891  64.9366407
  13.4401885  56.9085147  64.9592681  24.1419531  52.1532387  65.1883709
  23.7984297  51.4322722  65.5390958  24.2412574  51.9446238  64.3462067
  24.1061574  52.0156590  65.1155389  16.6092642  66.2953677  61.3876718
  17.2616700  65.7630119  61.6167744  15.9118251  65.9422329  61.7744592
  16.6023360  66.1643200  61.4788885  13.5573907  58.6492854  60.7944092
  14.3119875  59.0305893  61.0079554  12.9644520  59.1003998  61.2490788
  13.5810620  58.7721682  60.8926970  24.6032560  58.6158091  60.7307697
  25.1690593  59.2751301  60.6466240  23.9560464  58.9607789  61.2024099
  24.5911317  58.7640032  60.7880453  16.0180574  50.6055695  75.9201304
  15.2080350  50.9113474  75.8091147  16.4955261  51.3261277  76.0353888
  15.9684053  50.7570296  75.9208375  14.8772134  59.8201416  66.1684207
  14.3552887  59.9601707  66.8536072  15.2646154  59.0612080  66.3586325
  14.8575834  59.7286939  66.2985284  11.8663318  49.8707224  60.2379162
  11.5788113  49.5008495  59.5011109  12.5533786  50.3402080  59.9762867
  11.9252215  49.8854194  60.0894238  21.0739138  61.5596875  60.1544776
  20.8325814  60.8264736  59.7471841  21.2540471  62.1083732  59.5011109
  21.0646762  61.5319266  59.9974999  16.3038459  56.8505435  61.5665698
  16.1081242  57.4580169  60.9726001  16.5272805  56.1573379  61.0857372
  16.3073100  56.8382960  61.4081779  14.7016989  53.7360173  61.6846567
  15.4239641  53.9001331  61.2250373  14.2224982  54.4569837  61.5785906
  14.7380720  53.8658402  61.6012181  22.6610497  50.0723971  67.0643252
  21.8221597  50.0985250  66.8281515  22.7314864  50.7194707  67.6448598
  22.5478890  50.1720097  67.1152369  21.1079775  46.9709348  61.7970868
  21.8106128  46.7717097  61.3190826  20.8423964  46.1985291  62.1039711
  21.1726407  46.8272314  61.7716309  26.5368021  55.2791958  64.3504493
  26.4501995  55.4347384  65.2039272  26.0818500  55.9230034  63.9763898
  26.4571277  55.3967713  64.4211600   9.4391512  50.6488437  61.0864443
   9.5407649  51.4514598  61.4145419  10.2347399  50.4475773  60.7887524
   9.5719418  50.7374336  61.0899798  15.8708331  48.2344634  70.8501748
  15.6791528  48.2499768  71.7001172  16.7206927  48.4308308  70.8268403
  15.9684053  48.2658985  70.9725043  10.2555244  50.7635615  68.8285565
  10.1140736  49.9119556  68.9530073  10.5395808  50.8064276  68.0047771
  10.2763090  50.6435365  68.7253189  20.4093837  52.6002705  62.9730053
  20.1628551  52.5198456  63.8066842  20.7378960  51.8156173  62.7792580
  20.4215080  52.4728971  63.0677576  24.3041885  59.3086065  66.7616834
  24.1656245  60.0067110  67.2665577  23.5241883  59.1534721  66.4053016
  24.1685112  59.3886231  66.7843108  22.6419971  55.6082440  73.0139216
  22.6368009  54.7362257  73.0181642  23.3480964  55.8070609  72.5408672
  22.7464975  55.5086314  72.9446251  16.3690864  55.3359424  72.3853036
  16.5134240  55.9160632  71.7496146  16.7166512  55.7135721  73.0902891
  16.4418325  55.4780128  72.3952031  18.5410781  54.5349592  70.1678168
  17.7934095  54.7280607  69.7626446  18.6952306  53.7094812  69.9302289
  18.4533209  54.4414704  70.0723573  15.4418619  63.5262196  69.2514063
  15.5908183  62.9665112  68.5987467  16.2218621  63.6054197  69.6346582
  15.5792712  63.4547761  69.2111012  25.7995258  58.6664318  57.5233333
  25.4202067  57.8801456  57.5162623  25.1361504  59.2151175  57.3804978
  25.6453733  58.6309142  57.5014130  17.9671920  63.6976839  70.5298554
  17.8915591  63.0285649  71.0849342  17.8961779  64.3994627  71.0439220
  17.9452526  63.7021746  70.6875402  18.7812558  48.4300143  71.0573571
  19.2385172  49.1624117  71.1846364  18.8568887  48.0066608  71.8160827
  18.8603528  48.4757381  71.1874648  11.0245549  48.6765963  72.1463015
  10.4887739  48.0646321  72.4623782  11.0863314  49.2514099  72.7996682
  10.9541182  48.6712890  72.2898442  23.2539884  41.6090018  64.9267414
  23.3723452  42.0666481  64.1934717  23.0802060  40.8035279  64.6403632
  23.2459055  41.5583790  64.7768348  18.6242166  62.2177837  61.3622160
  19.3892058  61.9487481  61.0404824  18.5220256  61.7327848  62.0792222
  18.7223662  62.1067402  61.4201987  16.6594936  50.4202247  67.9015395
  15.8691011  50.2393707  68.2232731  17.0555559  49.6429199  67.8845690
  16.6011812  50.2789708  67.9467944  21.1460827  59.2490021  53.3422109
  21.9133812  59.3090146  52.9327961  20.6992136  58.6770463  52.8578428
  21.1934254  59.1726597  53.2099819  22.0438622  58.0544677  65.6274841
  21.3683624  57.8229909  66.1288228  22.0530999  57.4465860  65.0016946
  21.9457127  57.9303602  65.6090994  19.1732766  52.8962506  72.3838894
  19.1091908  53.7572462  72.2559031  19.3129954  52.5794499  71.5834446
  19.1848237  52.9762673  72.2467107  24.0455357  60.9109809  57.8585019
  24.1275194  61.7176796  57.5346470  24.5305099  60.9305769  58.5825793
  24.1292515  61.0330472  57.9171918  17.8551860  55.5894645  66.5255097
  17.4314109  55.7899144  65.7894116  17.6796716  54.7423493  66.6379397
  17.7662741  55.4943427  66.4328787  13.1434305  56.0846697  61.9583070
  13.2998924  56.0193500  62.8139062  13.4834898  56.8595249  61.7461749
  13.2167540  56.1895895  62.0537664  19.6813450  55.4604580  60.8276433
  20.2228995  54.9574961  61.2915053  19.9960009  55.4069775  60.0165918
  19.8077847  55.3784001  60.7760245  23.5530557  59.6707228  77.9403345
  24.3665423  59.3992377  78.1008478  23.3925524  59.3714768  77.1363541
  23.6500506  59.5862154  77.8448751  17.8499900  60.8521932  58.1116461
  17.9192720  59.9936470  58.2509461  18.6288355  61.0693813  57.7835486
  17.9752750  60.7574796  58.0833618  20.8302719  50.3540885  70.8798733
  21.0444689  49.7151799  70.3262087  20.2136618  50.7986709  70.4506595
  20.7708049  50.3251029  70.7349164  22.2407387  63.2759633  62.3252954
  21.8487179  62.9726348  61.6075820  22.3960459  64.1128723  62.1357908
  22.2060977  63.3543470  62.1909451   9.7168567  53.2681647  62.2743837
  10.0967532  53.6866192  61.6104104   9.1423932  53.8495103  62.5812680
   9.6879892  53.4159506  62.2220578  22.9941807  51.9629950  71.8182040
  22.1818489  51.6555840  71.8995213  23.4531742  51.4828950  72.3824753
  22.9422192  51.8466442  71.9136635  22.4047062  59.8409622  62.2658985
  22.0461717  60.0124265  63.0423017  21.9185773  60.3022828  61.7086983
  22.2805759  59.9348593  62.2984254  20.2217448  43.4640821  65.8686076
  19.3511006  43.4379542  65.8219386  20.4757789  43.2918013  65.0511922
  20.1311008  43.4350964  65.7406213  17.1935427  55.5208787  54.8059219
  17.4827952  56.2973670  55.0802793  17.2807226  55.0097519  55.5073719
  17.2489684  55.5600706  54.9501717  20.0895315  53.3690021  76.6010743
  20.5594946  53.9932138  76.9878617  20.1357195  52.7006997  77.1603957
  20.1663191  53.3624702  76.7410814  17.2466588  45.4747049  67.3259547
  16.7305077  44.7827240  67.4511126  16.6860517  46.1417826  67.2722145
  17.0873102  45.4710307  67.3365613  19.3158822  46.0140009  69.1552399
  18.9290575  46.0389040  69.9365929  18.8291759  45.4481688  68.7026916
  19.1871331  45.9335760  69.2040303  23.5651801  60.7313518  73.2126186
  24.2031522  60.2373714  72.8788642  22.9225893  60.6590918  72.6278413
  23.5646028  60.6472526  73.0768541  25.2908801  52.5802664  67.7792101
  24.8636409  52.4929013  67.0240201  24.6534854  52.6880439  68.3646945
  25.1338409  52.5835324  67.7537543  18.9815964  42.9006995  71.4462659
  19.6109082  43.4367295  71.1683729  19.1501826  42.8084353  72.2976225
  19.0993758  42.9668357  71.5311187  18.7829879  47.6878189  73.7189071
  19.6103308  47.4163338  73.7747685  18.8037725  48.4839031  74.0752889
  18.9082729  47.7657943  73.7804254  23.6206058  61.4233326  69.8531542
  24.4098436  61.0722391  69.9733624  23.7949656  62.2369715  69.5908176
  23.7626340  61.4919183  69.8319410  13.3599368  54.8342052  66.9059331
  12.5187375  54.7345926  67.1138225  13.5689376  55.6037532  67.2573652
  13.2664061  54.9334095  66.9886646  10.8374935  52.4561589  64.7344082
  10.4431633  52.5304601  63.9594192  10.2815052  52.8419535  65.2852444
  10.6977748  52.5243364  64.7011742  22.4739882  45.4342883  64.4147961
  22.6789475  45.3665191  65.2604958  22.1466306  46.2401704  64.3469138
  22.4555130  45.5428823  64.5307616  17.1716033  52.7623451  66.1556929
  16.8679171  52.2079439  66.7567336  16.4695454  52.9415661  65.6684963
  17.0232243  52.7068234  66.1726634  16.2282130  50.0723971  60.7201631
  16.5041865  49.3542884  60.3079198  16.8280800  50.6708891  60.5122737
  16.3575395  50.0544342  60.6282392  25.7273570  45.9874647  63.8950726
  25.1147883  46.4745049  64.2804458  25.8237745  45.3118138  64.4388378
  25.6511467  45.9592956  64.0329585  19.7292651  47.7437488  58.9948226
  20.1836397  47.9148049  59.7196070  20.2032697  47.1305599  58.5946001
  19.8660971  47.6788374  59.0421987  13.2508176  57.2285814  68.3250964
  12.6596109  57.8695312  68.2953979  14.0129200  57.6523432  68.2982264
  13.2756437  57.3861653  68.3166111  13.6468799  48.3887812  68.9918982
  14.1070281  48.4626741  69.7294106  13.6924906  49.1869066  68.6418803
  13.7219354  48.5181959  69.0491738  15.2952149  49.0554507  73.5591009
  14.9037714  48.4087854  73.9946787  15.4638011  49.6465942  74.1785264
  15.2623059  49.0468775  73.7153715  29.3698598  57.0591584  69.3228242
  29.4281721  57.5078233  70.0688219  28.7365065  57.4690397  68.8858322
  29.2849893  57.1865319  69.3680791  23.0097692  62.6795126  65.7582989
  22.8117381  63.1685940  65.0639200  22.3885404  62.8836367  66.3367122
  22.8885257  62.7811664  65.7406212  17.0705671  54.4480023  60.0993233
  17.8147716  54.8354299  60.3376183  17.2166367  53.6037448  60.2633721
  17.2016256  54.3810496  60.1587203  18.9885246  46.2430282  65.1325094
  18.1421291  46.4153089  65.0066444  18.9856379  45.4379625  65.4690923
  18.8632396  46.1491311  65.1636221  20.0583547  50.0205496  65.9987152
  19.5843501  49.4947258  66.5092463  20.4301682  49.4734969  65.4302014
  20.0433436  49.8621493  65.9902299  10.4356577  52.0177003  71.3670698
  11.2982190  51.9172712  71.2808028  10.1048360  51.4371712  70.8056270
  10.5141773  51.9168629  71.2716104  26.3220277  55.0807872  67.4093933
  26.0818500  54.2414287  67.4136359  26.8012284  55.1608038  68.1334706
  26.3572461  54.9689271  67.5168735  21.9867046  50.9142051  59.0612906
  21.4590065  50.9970795  58.3718615  22.4462754  51.6559922  59.0577551
  21.9768897  51.0362713  58.9587601  28.3225464  51.8609329  65.3623192
  28.0835234  51.8205163  64.5243976  28.4859366  52.7080481  65.4888913
  28.3115768  51.9801414  65.2576674  24.9271494  56.2459278  71.2928237
  25.6505693  55.7931805  71.1139257  24.6621457  56.5263944  70.5100565
  24.9952768  56.2210247  71.1506952  13.7958363  50.8419452  68.0281116
  13.1711433  50.8537844  67.4207069  13.4603958  51.3179627  68.6772356
  13.6543855  50.9137969  68.0337685  13.9800111  49.1844570  54.0853801
  13.6312916  49.8364295  54.5485351  13.4996557  49.1701683  53.3577672
  13.8570355  49.2787624  54.0464892  21.5404129  59.4845614  58.1922563
  22.2638328  59.9503727  58.0487136  21.1004720  59.5519224  57.4420160
  21.5819821  59.5629451  58.0607344  20.7090284  56.3443156  69.4423252
  20.0947277  55.8001207  69.7371887  21.2257569  55.8307393  68.9629068
  20.6945946  56.1879565  69.4147480  19.9486581  57.4147426  67.1767551
  19.5214189  56.7897145  66.7432986  19.9411525  57.1322348  68.0026558
  19.8845722  57.2800207  67.2347378  13.0649108  52.4512599  70.2455985
  13.2242595  51.6955924  70.6507707  12.8842002  53.0003539  70.8996722
  13.0614467  52.4206413  70.4018691  21.0069411  44.6173835  70.8006774
  20.5109972  44.8137509  70.1098341  21.7638473  45.0166503  70.6295576
  21.0456236  44.7051569  70.6726911  18.2772291  48.2916181  67.3910085
  18.3014778  47.7576293  66.7022865  18.5283764  47.7833490  68.0535675
  18.3182209  48.1377085  67.3874729  14.5573613  47.0186999  66.7715829
  14.5971985  47.5196206  67.4850536  13.7323278  47.1097393  66.5021752
  14.4413139  47.1068816  66.8366367  15.9787976  53.5347509  69.0689728
  15.1479906  53.7021327  68.8624976  15.9239494  53.1583460  69.8538613
  15.8477391  53.5037240  69.1538256  13.7871760  47.0256402  74.7046139
  14.4124463  46.4818535  74.9775571  13.3322240  46.5451320  74.1353929
  13.8120020  46.8745883  74.6607733  14.3824243  52.6770212  56.9272423
  15.0169322  53.2730637  56.8621884  14.4649853  52.3773669  57.7418293
  14.4880794  52.7211120  57.0375509  27.3606808  55.2085689  69.7958787
  27.9524649  55.8482940  69.8276985  27.7965803  54.5108726  70.0850854
  27.5125240  55.2004039  69.8439619  15.9603225  48.6084187  56.9017865
  16.2819066  48.1287270  56.2477127  16.2230169  49.4183833  56.7108676
  16.0469251  48.6574085  56.7773357  19.1900198  59.6303061  70.4216681
  18.6825289  60.1838908  70.8657311  18.8926844  59.6911351  69.6035455
  19.0705083  59.7209373  70.3665137  21.3562380  47.9956381  69.2641344
  21.7817452  47.5428907  68.6524870  20.7419374  47.4416452  69.5406131
  21.3291026  47.8470357  69.2146369  10.8877230  54.8738052  60.1961969
  11.3969460  55.4702560  60.5773274  11.3611503  54.6064026  59.5138388
  11.0320606  54.9223868  60.1516491  21.8007979  63.5466319  58.3520624
  21.0837288  63.3727181  57.8867862  22.4514716  63.3118891  57.8196110
  21.7909829  63.4862112  58.2049842  19.7956603  44.4671481  62.6731921
  19.1524921  44.3169127  63.2417059  19.4556010  44.2213826  61.9081025
  19.6501681  44.4083603  62.6434936  24.3855950  52.4230908  62.0961929
  23.7147140  52.9660610  61.9674995  25.0795700  52.8925763  61.8543624
  24.3884817  52.5729179  62.0417457  18.4342683  64.5627620  67.3273688
  18.2108338  63.8046449  67.6957714  17.9452527  64.5925641  66.6054127
  18.3286132  64.4549844  67.2750429  24.5484077  48.8786791  65.0052302
  24.9011687  48.4516514  65.6798101  23.6898879  48.7937635  65.1353379
  24.4733522  48.8031532  65.1247313  13.2467762  51.5094311  63.0635149
  12.5279751  51.9258444  63.3308013  13.6180124  52.0748550  62.5126787
  13.1959694  51.6543592  63.0217956  22.5467343  52.1422160  68.9537145
  22.5265270  51.9605455  69.8071924  22.5946544  53.0134178  68.9296728
  22.5501984  52.2438698  69.0760439  20.4913673  58.7309352  74.8785621
  20.4509528  58.0859029  74.2930777  21.3036991  58.6745969  75.1911033
  20.6056826  58.6268319  74.8382570  17.0821140  64.7828078  64.7810772
  16.6681539  64.1202208  64.3914614  17.7668515  64.9305937  64.2606466
  17.1219512  64.7068736  64.6467269  20.4486435  63.9418163  65.5334389
  20.0502718  64.0520433  64.7655209  19.8337654  64.1500229  66.1160949
  20.2985324  63.9891731  65.5065688  19.0214337  50.5492311  58.4008528
  18.4279176  50.8709307  57.8493095  19.0589614  49.7033406  58.1929635
  18.9388726  50.4716639  58.2891300  25.9808137  44.0005203  65.9336615
  25.4739002  43.2934343  65.8657792  26.7775571  43.6698392  66.0637692
  26.0235376  43.8478354  65.9435610  21.8972153  50.5071815  61.8310279
  21.6685846  50.5304517  60.9888637  22.1570229  49.6829282  61.9505289
  21.9018341  50.3887895  61.7235476  16.1791382  52.3606288  71.4335379
  15.6670285  51.7527471  71.7920410  16.0070878  53.0762881  71.9009355
  16.0781019  52.3769588  71.5551603  14.9516916  49.0448362  63.1264474
  15.4274282  49.4065441  62.4914655  14.4505515  49.7004829  63.4064617
  14.9482275  49.1942550  63.0741215  28.1828277  58.5170130  58.9177479
  28.5661883  59.2661486  59.1475576  27.3872391  58.7635949  58.6589468
  28.1222059  58.6639824  58.9135053  20.0560452  50.2830533  73.8737634
  20.6131882  50.0544343  73.2416100  19.7321517  51.0436199  73.5972847
  20.0906862  50.3614370  73.7394132  17.7743569  53.3698186  74.8389642
  18.5254896  53.6849863  75.1529196  17.9666146  53.1677357  74.0123563
  17.9134983  53.3865568  74.7633037  16.9943569  51.1889561  56.4937858
  17.3742534  51.2069191  55.7088973  16.2536165  51.6343550  56.3728706
  16.9412407  51.2571336  56.3601427  24.6228859  49.4971753  62.0813437
  24.6223086  49.3420409  62.9397713  24.4185039  50.3434740  62.0254823
  24.5928637  49.5992373  62.2001376   6.6846130  52.9211537  66.4972254
   6.5067891  52.4688146  67.2227169   6.3965152  53.7237698  66.6810731
   6.6159083  52.9734095  66.6315756  22.3469711  54.1769254  65.7349644
  22.8423377  53.4592249  65.6953664  21.5369487  53.8740052  65.6204131
  22.3013605  54.0266901  65.7123370  17.7928323  58.0267068  57.8846648
  16.9839646  57.7033741  57.8379958  18.3003232  57.3200290  57.8174897
  17.7477990  57.8748384  57.8676943   8.4218600  55.4539261  63.6094013
   7.5564120  55.4424951  63.4976784   8.5217416  55.2669484  64.4565152
   8.3092767  55.4245322  63.7182957  24.4121530  56.9272942  68.4226773
  24.8376602  56.4047364  67.8697198  24.0478450  57.5253779  67.9015396
  24.4208133  56.9383169  68.2635782  14.0475610  65.2237159  67.1824118
  14.3622169  66.0373548  67.1901900  14.4569023  64.8387378  67.8506277
  14.1543708  65.2865862  67.2828210  21.0000130  60.6407206  64.7527930
  21.4711308  61.3547469  64.9217915  21.3360308  60.0405956  65.2887800
  21.1195245  60.6578670  64.8560306  17.9169625  45.4134677  71.7086025
  18.0497530  44.6165670  72.0367000  18.3014777  45.9401080  72.2884301
  17.9925953  45.3734593  71.8429528  21.6374076  60.4325140  71.5155623
  21.0895022  59.8083024  71.2475688  22.0987105  60.6219412  70.7999702
  21.6241285  60.3684191  71.3706054  20.9901980  42.3365003  68.3067118
  20.1847944  42.2262733  68.6234956  20.8608715  42.4377459  67.4496984
  20.8522113  42.3348673  68.2275159  24.4467940  48.5010495  68.9006815
  23.8630929  49.0019701  68.4884382  24.7672234  47.9940051  68.2671138
  24.4081116  48.5002330  68.7465322  16.9862740  47.4151090  59.1765490
  17.8078434  47.5849403  58.9347185  16.5232390  47.5698351  58.4531787
  17.0393902  47.4632823  59.0337134  15.5758071  45.4093852  69.9563919
  16.1202484  45.0684979  70.5468260  15.6295007  46.2679313  70.0985203
  15.6647191  45.4849111  70.0645792  11.3888630  59.1710268  66.8302727
  11.9933488  59.1306102  66.2016547  11.1815943  60.0181420  66.8606782
  11.4477527  59.2898270  66.7418843  21.2032402  61.4376213  68.0464964
  22.0230776  61.2939179  68.3081259  20.9226480  62.0622412  68.5881402
  21.2829146  61.5086565  68.1652903  37.6746053  69.0941065  61.0107840
  37.6440057  69.9485701  61.1826110  38.2727401  68.7936357  61.5693984
  37.7583211  69.1757561  61.1182643  30.8745738  68.1816716  65.7660771
  30.0183633  68.3425214  65.8169888  30.9213391  67.3108780  65.7865832
  30.7544849  68.0767518  65.7766837  33.7197559  70.2408760  68.4092422
  34.2653519  70.9193846  68.4686392  33.6614435  70.0996221  67.5494004
  33.7913473  70.3200761  68.2904483  35.4962627  71.6693367  59.2826150
  35.3802153  72.4201053  59.7118288  36.2918514  71.4117320  59.5322237
  35.5967217  71.7428214  59.3830242  20.0336678  73.7518112  63.4213108
  19.7986862  72.9185765  63.3145377  20.1722318  74.0322778  62.6074309
  20.0192340  73.6701616  63.2855463  22.3326765  65.9203843  66.3197416
  21.7131797  65.3296490  66.1507431  22.2310629  66.5115278  65.6861739
  22.2264441  65.9207925  66.2002406  27.3792953  75.6587390  60.5695493
  27.7008794  76.1992597  59.9656801  28.0265049  75.0884161  60.7017782
  27.5219008  75.6546565  60.5002528  29.4294661  67.6603385  60.6529879
  30.1274826  67.8391512  61.1451343  29.7446993  67.1373724  60.0300269
  29.5789998  67.6097157  60.6331889  22.0595898  69.4656125  68.5640985
  21.9354595  70.0518570  69.1990804  22.7114183  68.9716320  68.8653260
  22.1369548  69.4794929  68.7026914  29.6182596  74.0473830  60.6409671
  30.0576232  73.4390930  61.0864444  29.4687259  73.6681203  59.8695136
  29.6604062  73.9012301  60.5928838  27.0854239  72.6417842  67.8428496
  27.7303242  72.1490285  67.5239445  27.3256016  72.7842628  68.6694575
  27.2164824  72.5895284  67.9178029  29.6240331  75.4872747  67.4935389
  29.9063573  74.6924153  67.2722145  30.3526491  75.9653335  67.5140450
  29.7729894  75.4407344  67.4638404  27.6021524  63.0295781  64.7351154
  27.2724854  63.4806925  64.0654853  26.9266526  62.9511945  65.2824160
  27.4531961  63.0846917  64.7174377  33.2191933  72.4001011  57.5940440
  33.1343228  73.2561978  57.7390009  33.7076316  72.1245335  58.2622599
  33.2780830  72.4858332  57.7142522  34.8097932  59.0181304  62.9800765
  34.4951373  59.7084783  63.4121187  34.2924874  58.9626087  62.2786265
  34.6862403  59.1116193  62.9397714  34.1510366  69.0185805  59.0938175
  33.6221837  69.2345439  59.7535481  34.6735386  69.7121944  59.0139144
  34.1498819  69.1528942  59.1793774  39.6058419  74.5932110  64.4671220
  38.7756122  74.8042753  64.6304636  39.5567671  73.7669164  64.1913503
  39.4765154  74.5021716  64.4508585  26.0409974  72.9149022  57.8945643
  25.4567189  73.4199053  58.3011507  25.6380069  72.6891409  57.1542235
  25.8949278  72.9557270  57.8450668  30.4987188  69.1614674  56.3714564
  30.7383192  69.3692658  55.5589907  30.8203029  68.3572183  56.4803508
  30.5824346  69.0728775  56.2675117  25.8077478  61.0908070  60.2174102
  26.5623446  61.4586387  59.9791152  25.6305013  61.4647624  60.9853281
  25.8931957  61.2006258  60.2958990  39.1012377  67.2402510  68.2621641
  38.2640798  67.3104697  68.4969235  39.0700608  67.2427005  67.3895943
  38.9730660  67.2512737  68.1681189  25.4977106  69.3835546  73.9770010
  25.6697610  69.2741441  74.8255291  26.0346464  70.0289951  73.7401202
  25.6022110  69.4627548  74.0675106  24.1634543  63.4978389  56.9152215
  23.9810116  63.7150270  56.0893207  25.0260156  63.6117402  56.9710829
  24.2639133  63.5468287  56.8006702  23.7748975  75.3366311  64.3575203
  24.6137874  75.5689244  64.4048964  23.8060744  74.4670622  64.2882238
  23.9030693  75.2423257  64.3539847  29.8434262  60.5004800  59.9501238
  30.5720423  60.3220754  59.5039395  29.9329155  61.3422879  60.1608417
  29.9640924  60.5988678  59.9154756  33.8242563  71.4358187  63.8533532
  34.5800078  71.8689701  63.8922441  33.9304887  70.7862957  64.4268168
  33.9512734  71.4035671  63.9431558  36.8622734  75.2631464  64.6035935
  36.4257966  75.2668207  65.3594907  36.5285650  75.9436963  64.1715513
  36.7485354  75.3643920  64.6516768  36.7820217  62.3045292  66.8465363
  37.4246125  62.3743397  67.4327279  37.0343238  61.6374515  66.3444905
  36.9142349  62.2171641  66.8592643  23.7096570  66.7752561  55.4274688
  22.9954747  66.4890741  55.8397120  24.1940539  67.1149187  56.0681075
  23.6755933  66.7834211  55.5830323  24.5537430  65.5145855  71.4589937
  23.8609226  65.0442835  71.7050669  25.1697757  65.2884160  72.0331644
  24.5421959  65.4112987  71.5799090  39.9967080  71.9812384  63.4955573
  40.6583514  71.4203052  63.3951481  39.3558492  71.4864415  63.8208264
  39.9995948  71.8248793  63.5287913  30.8843888  75.2782515  55.8036496
  31.2995037  74.9467539  55.1120992  30.0535818  75.0451418  55.6756633
  30.8231897  75.1953771  55.6827343  20.2132237  72.7626256  66.0934674
  20.0307810  72.7373142  65.2406966  20.9481906  73.2325194  66.1323583
  20.2946301  72.8287619  65.9732592  36.2831911  72.9977766  63.2367561
  36.5187500  73.1422965  62.4094412  36.4321475  73.7620174  63.6299075
  36.3397714  73.1316821  63.1731165  23.2777988  69.4811259  72.6016782
  24.0017961  69.4664290  73.0881677  23.3794125  70.1906615  72.1038751
  23.3996198  69.5835963  72.5995569  38.1122368  71.8379432  61.0737165
  38.4430585  72.3707072  60.4677260  38.6855456  71.8918320  61.7299116
  38.2456047  71.9249001  61.0814947  33.3254257  69.6844335  61.7560745
  33.4201111  70.4233629  62.2100371  32.7013100  69.2561811  62.1895310
  33.2463287  69.7305656  61.8868893  20.1803147  69.6419757  66.2433740
  20.7576650  69.5056208  66.8825986  19.4817209  69.1855541  66.4979325
  20.1624169  69.5542023  66.3756030  33.5777278  71.5293075  54.9897697
  33.4957441  71.5995262  55.8552684  34.2156999  72.0922819  54.7981438
  33.6597116  71.6232046  55.0887647  26.9370449  71.2953813  64.4572224
  26.6789694  70.4625548  64.4303523  26.9918932  71.5211426  63.6164724
  26.9070227  71.2051584  64.3292360  32.0171499  63.3982263  64.5576316
  31.3127826  62.9091449  64.7160235  32.0656474  63.4104738  63.6864761
  31.9201551  63.3271911  64.4515656  25.9105161  68.8491575  64.9437118
  25.3354753  69.0083744  65.5801079  25.5340838  68.2126984  64.4805569
  25.7707974  68.7789388  64.9691677  29.5778450  67.3214925  69.8029497
  29.1892883  66.8969142  69.1481688  28.9133148  67.5697074  70.3106523
  29.4225378  67.2953646  69.7817365  39.2201719  67.0789929  62.5777327
  38.9638284  66.2669871  62.3875210  40.0631033  67.0867496  62.3507514
  39.3067745  66.9601927  62.5162144  15.6561980  68.4931650  62.9581559
  15.7422232  68.1163518  63.7395089  16.2837778  68.1192096  62.4801517
  15.7618531  68.3817132  63.0027036  33.4004812  61.0189553  67.3153481
  33.7815323  60.3367724  67.7021355  32.5968096  60.7299155  67.1329145
  33.3381273  60.8756602  67.3457537  30.6817388  71.5513529  58.0006304
  31.4958027  71.8428422  57.8889075  30.6176530  70.8973391  57.4264597
  30.7920127  71.4978724  57.8995141  26.5525297  75.0235047  63.1278616
  27.1899244  74.7846794  63.6730409  26.9780368  75.2272205  62.3931776
  26.7101463  75.0186057  63.0995773  27.1928112  70.2437336  57.4653505
  27.5773264  70.0245043  58.2170050  26.9439732  71.0700282  57.5954582
  27.2130184  70.3335483  57.5954582  27.3596652  63.5243752  77.1816089
  27.0450093  64.2943314  76.9185652  27.0386585  62.9614008  76.5968316
  27.2655571  63.5554020  77.0557439  28.9346769  75.5007469  64.8072402
  29.0085777  75.3382641  65.6614252  29.7516275  75.6897659  64.5632884
  29.0663127  75.5044212  64.8970428  24.9128549  61.9134273  62.7962286
  24.0450974  61.9856873  62.8619895  25.2003753  62.7156352  62.9850261
  24.8268297  62.0428420  62.8337052  34.0361438  62.0612132  71.1273608
  34.7815030  61.8721943  70.7137033  33.6198742  62.5870370  70.5687464
  34.0846412  62.1114278  70.9838181  41.4123709  69.4321361  66.0779113
  41.9631630  68.7989430  66.3176205  41.3967824  69.9636754  66.7694617
  41.4908905  69.4170309  66.2157971  28.0646099  73.2659958  70.6239006
  27.5657793  73.9775726  70.7023894  28.8746324  73.5860625  70.5857168
  28.1102206  73.4186807  70.6295575  24.3274217  72.5282911  64.8701727
  24.0387466  71.9020382  65.4047454  25.1957565  72.4703199  64.9366407
  24.4134469  72.4270455  64.9592681  35.1152115  67.6717695  65.1883709
  34.7716881  66.9508030  65.5390958  35.2145157  67.4631546  64.3462067
  35.0794158  67.5341898  65.1155389  24.5306490  74.1678162  60.7944092
  25.2852458  74.5491201  61.0079554  23.9377103  74.6189306  61.2490788
  24.5543204  74.2906990  60.8926970  35.5765144  74.1343399  60.7307697
  36.1423177  74.7936609  60.6466240  34.9293047  74.4793097  61.2024099
  35.5643900  74.2825340  60.7880453  26.9913157  66.1241003  75.9201304
  26.1812933  66.4298782  75.8091147  27.4687844  66.8446585  76.0353888
  26.9416636  66.2755604  75.9208375  25.8504717  75.3386724  66.1684207
  25.3285471  75.4787015  66.8536072  26.2378737  74.5797388  66.3586325
  25.8308418  75.2472247  66.2985284  22.8395901  65.3892532  60.2379162
  22.5520697  65.0193803  59.5011109  23.5266369  65.8587388  59.9762867
  22.8984798  65.4039502  60.0894238  32.0471722  77.0782183  60.1544776
  31.8058398  76.3450044  59.7471841  32.2273055  77.6269040  59.5011109
  32.0379346  77.0504574  59.9974999  27.2771043  72.3690743  61.5665698
  27.0813825  72.9765477  60.9726001  27.5005388  71.6758687  61.0857372
  27.2805684  72.3568268  61.4081779  25.6749573  69.2545481  61.6846567
  26.3972225  69.4186639  61.2250373  25.1957565  69.9755145  61.5785906
  25.7113303  69.3843710  61.6012181  33.6343080  65.5909279  67.0643252
  32.7954181  65.6170558  66.8281515  33.7047448  66.2380015  67.6448598
  33.5211474  65.6905405  67.1152369  32.0812359  62.4894656  61.7970868
  32.7838711  62.2902405  61.3190826  31.8156547  61.7170599  62.1039711
  32.1458991  62.3457622  61.7716309  37.5100604  70.7977266  64.3504493
  37.4234579  70.9532692  65.2039272  37.0551084  71.4415342  63.9763898
  37.4303861  70.9153021  64.4211600  20.4124096  66.1673745  61.0864443
  20.5140232  66.9699906  61.4145419  21.2079982  65.9661081  60.7887524
  20.5452001  66.2559644  61.0899798  26.8440915  63.7529942  70.8501748
  26.6524112  63.7685076  71.7001172  27.6939511  63.9493616  70.8268403
  26.9416637  63.7844293  70.9725043  21.2287828  66.2820923  68.8285565
  21.0873320  65.4304864  68.9530073  21.5128391  66.3249584  68.0047771
  21.2495674  66.1620673  68.7253189  31.3826420  68.1188013  62.9730053
  31.1361134  68.0383764  63.8066842  31.7111543  67.3341481  62.7792580
  31.3947664  67.9914279  63.0677576  35.2774469  74.8271373  66.7616834
  35.1388828  75.5252418  67.2665577  34.4974467  74.6720029  66.4053016
  35.1417696  74.9071539  66.7843108  27.3423447  70.8544732  72.3853036
  27.4866823  71.4345940  71.7496146  27.6899096  71.2321029  73.0902891
  27.4150909  70.9965436  72.3952031  29.5143365  70.0534900  70.1678168
  28.7666679  70.2465915  69.7626446  29.6684890  69.2280120  69.9302289
  29.4265792  69.9600012  70.0723573  36.7727842  74.1849626  57.5233333
  36.3934651  73.3986764  57.5162623  36.1094087  74.7336483  57.3804978
  36.6186317  74.1494450  57.5014130  29.7545142  63.9485451  71.0573571
  30.2117756  64.6809425  71.1846364  29.8301471  63.5251916  71.8160827
  29.8336112  63.9942689  71.1874648  21.9978133  64.1951271  72.1463015
  21.4620323  63.5831629  72.4623782  22.0595898  64.7699407  72.7996682
  21.9273766  64.1898198  72.2898442  34.2272468  57.1275326  64.9267414
  34.3456036  57.5851789  64.1934717  34.0534643  56.3220587  64.6403632
  34.2191639  57.0769098  64.7768348  27.6327520  65.9387555  67.9015395
  26.8423595  65.7579015  68.2232731  28.0288143  65.1614507  67.8845690
  27.5744396  65.7975016  67.9467944  32.1193411  74.7675329  53.3422109
  32.8866396  74.8275454  52.9327961  31.6724719  74.1955771  52.8578428
  32.1666838  74.6911905  53.2099819  33.0171206  73.5729985  65.6274841
  32.3416208  73.3415217  66.1288228  33.0263582  72.9651168  65.0016946
  32.9189711  73.4488910  65.6090994  30.1465350  68.4147814  72.3838894
  30.0824491  69.2757770  72.2559031  30.2862538  68.0979807  71.5834446
  30.1580820  68.4947981  72.2467107  35.0187941  76.4295117  57.8585019
  35.1007778  77.2362104  57.5346470  35.5037683  76.4491077  58.5825793
  35.1025099  76.5515780  57.9171918  28.8284444  71.1079953  66.5255097
  28.4046693  71.3084452  65.7894116  28.6529299  70.2608801  66.6379397
  28.7395325  71.0128735  66.4328787  24.1166889  71.6032005  61.9583070
  24.2731508  71.5378808  62.8139062  24.4567482  72.3780557  61.7461749
  24.1900124  71.7081203  62.0537664  30.6546033  70.9789888  60.8276433
  31.1961579  70.4760269  61.2915053  30.9692593  70.9255083  60.0165918
  30.7810431  70.8969309  60.7760245  28.8232483  76.3707240  58.1116461
  28.8925304  75.5121778  58.2509461  29.6020938  76.5879121  57.7835486
  28.9485333  76.2760104  58.0833618  31.8035303  65.8726193  70.8798733
  32.0177272  65.2337107  70.3262087  31.1869202  66.3172017  70.4506595
  31.7440632  65.8436336  70.7349164  20.6901150  68.7866955  62.2743837
  21.0700115  69.2051500  61.6104104  20.1156515  69.3680411  62.5812680
  20.6612475  68.9344814  62.2220578  33.9674391  67.4815258  71.8182040
  33.1551073  67.1741148  71.8995213  34.4264325  67.0014258  72.3824753
  33.9154776  67.3651750  71.9136635  33.3779646  75.3594930  62.2658985
  33.0194300  75.5309573  63.0423017  32.8918356  75.8208136  61.7086983
  33.2538342  75.4533901  62.2984254  31.1950032  58.9826128  65.8686076
  30.3243589  58.9564850  65.8219386  31.4490373  58.8103321  65.0511922
  31.1043592  58.9536272  65.7406213  28.1668011  71.0394095  54.8059219
  28.4560536  71.8158978  55.0802793  28.2539810  70.5282827  55.5073719
  28.2222267  71.0786014  54.9501717  28.2199172  60.9932357  67.3259547
  27.7037661  60.3012548  67.4511126  27.6593101  61.6603134  67.2722145
  28.0605685  60.9895615  67.3365613  30.2891405  61.5325317  69.1552399
  29.9023159  61.5574348  69.9365929  29.8024343  60.9666996  68.7026916
  30.1603914  61.4521068  69.2040303  36.2641385  68.0987972  67.7792101
  35.8368993  68.0114320  67.0240201  35.6267438  68.2065747  68.3646945
  36.1070992  68.1020632  67.7537543  29.9548547  58.4192302  71.4462659
  30.5841665  58.9552602  71.1683729  30.1234410  58.3269661  72.2976225
  30.0726342  58.4853665  71.5311187  29.7562462  63.2063497  73.7189071
  30.5835891  62.9348646  73.7747685  29.7770308  64.0024339  74.0752889
  29.8815312  63.2843251  73.7804254  24.3331952  70.3527360  66.9059331
  23.4919958  70.2531234  67.1138225  24.5421960  71.1222840  67.2573652
  24.2396644  70.4519403  66.9886646  21.8107519  67.9746897  64.7344082
  21.4164217  68.0489909  63.9594192  21.2547636  68.3604843  65.2852444
  21.6710331  68.0428671  64.7011742  33.4472466  60.9528191  64.4147961
  33.6522059  60.8850499  65.2604958  33.1198890  61.7587012  64.3469138
  33.4287714  61.0614131  64.5307616  28.1448617  68.2808759  66.1556929
  27.8411754  67.7264747  66.7567336  27.4428038  68.4600969  65.6684963
  27.9964827  68.2253541  66.1726634  27.2014714  65.5909279  60.7201631
  27.4774448  64.8728191  60.3079198  27.8013383  66.1894199  60.5122737
  27.3307979  65.5729650  60.6282392  36.7006153  61.5059955  63.8950726
  36.0880467  61.9930357  64.2804458  36.7970328  60.8303446  64.4388378
  36.6244051  61.4778264  64.0329585  30.7025234  63.2622796  58.9948226
  31.1568981  63.4333357  59.7196070  31.1765280  62.6490907  58.5946001
  30.8393555  63.1973682  59.0421987  24.2240760  72.7471122  68.3250964
  23.6328693  73.3880620  68.2953979  24.9861783  73.1708739  68.2982264
  24.2489020  72.9046961  68.3166111  24.6201383  63.9073120  68.9918982
  25.0802864  63.9812049  69.7294106  24.6657489  64.7054374  68.6418803
  24.6951938  64.0367267  69.0491738  26.2684732  64.5739815  73.5591009
  25.8770297  63.9273162  73.9946787  26.4370595  65.1651250  74.1785264
  26.2355643  64.5654083  73.7153715  33.9830276  78.1980434  65.7582989
  33.7849965  78.6871248  65.0639200  33.3617987  78.4021675  66.3367122
  33.8617840  78.2996972  65.7406212  28.0438254  69.9665331  60.0993233
  28.7880299  70.3539607  60.3376183  28.1898951  69.1222756  60.2633721
  28.1748839  69.8995803  60.1587203  29.9617830  61.7615590  65.1325094
  29.1153875  61.9338397  65.0066444  29.9588962  60.9564933  65.4690923
  29.8364980  61.6676618  65.1636221  31.0316130  65.5390804  65.9987152
  30.5576084  65.0132566  66.5092463  31.4034266  64.9920277  65.4302014
  31.0166019  65.3806801  65.9902299  21.4089160  67.5362311  71.3670698
  22.2714773  67.4358020  71.2808028  21.0780943  66.9557020  70.8056270
  21.4874357  67.4353937  71.2716104  37.2952861  70.5993180  67.4093933
  37.0551084  69.7599595  67.4136359  37.7744868  70.6793346  68.1334706
  37.3305044  70.4874579  67.5168735  32.9599630  66.4327359  59.0612906
  32.4322649  66.5156103  58.3718615  33.4195338  67.1745230  59.0577551
  32.9501480  66.5548021  58.9587601  39.2958048  67.3794637  65.3623192
  39.0567818  67.3390471  64.5243976  39.4591949  68.2265789  65.4888913
  39.2848351  67.4986722  65.2576674  24.7690946  66.3604760  68.0281116
  24.1444017  66.3723152  67.4207069  24.4336541  66.8364935  68.6772356
  24.6276438  66.4323277  68.0337685  24.9532695  64.7029878  54.0853801
  24.6045499  65.3549603  54.5485351  24.4729141  64.6886991  53.3577672
  24.8302939  64.7972932  54.0464892  32.5136712  75.0030922  58.1922563
  33.2370911  75.4689035  58.0487136  32.0737303  75.0704532  57.4420160
  32.5552405  75.0814759  58.0607344  31.6822867  71.8628464  69.4423252
  31.0679861  71.3186515  69.7371887  32.1990152  71.3492701  68.9629068
  31.6678530  71.7064873  69.4147480  30.9219165  72.9332734  67.1767551
  30.4946773  72.3082453  66.7432986  30.9144109  72.6507656  68.0026558
  30.8578306  72.7985515  67.2347378  24.0381692  67.9697907  70.2455985
  24.1975178  67.2141232  70.6507707  23.8574585  68.5188847  70.8996722
  24.0347051  67.9391721  70.4018691  31.9801995  60.1359143  70.8006774
  31.4842556  60.3322817  70.1098341  32.7371057  60.5351811  70.6295576
  32.0188819  60.2236877  70.6726911  29.2504874  63.8101489  67.3910085
  29.2747361  63.2761601  66.7022865  29.5016348  63.3018798  68.0535675
  29.2914793  63.6562393  67.3874729  25.5306197  62.5372307  66.7715829
  25.5704568  63.0381514  67.4850536  24.7055861  62.6282701  66.5021752
  25.4145722  62.6254123  66.8366367  26.9520560  69.0532817  69.0689728
  26.1212490  69.2206635  68.8624976  26.8972077  68.6768768  69.8538613
  26.8209975  69.0222548  69.1538256  24.7604343  62.5441710  74.7046139
  25.3857047  62.0003843  74.9775571  24.3054823  62.0636628  74.1353929
  24.7852604  62.3931191  74.6607733  25.3256604  67.3288409  59.5979846
  25.4659565  67.8260873  60.3008487  25.8239137  66.6274703  59.7394059
  25.4197685  67.2990387  59.7231425  25.3556826  68.1955520  56.9272423
  25.9901906  68.7915945  56.8621884  25.4382437  67.8958977  57.7418293
  25.4613377  68.2396428  57.0375509  26.9335809  64.1269495  56.9017865
  27.2551650  63.6472577  56.2477127  27.1962753  64.9369141  56.7108676
  27.0201834  64.1759393  56.7773357  30.1632782  75.1488369  70.4216681
  29.6557873  75.7024216  70.8657311  29.8659428  75.2096659  69.6035455
  30.0437667  75.2394681  70.3665137  32.3294964  63.5141689  69.2641344
  32.7550036  63.0614215  68.6524870  31.7151957  62.9601760  69.5406131
  32.3023609  63.3655665  69.2146369  21.8609814  70.3923360  60.1961969
  22.3702043  70.9887868  60.5773274  22.3344086  70.1249334  59.5138388
  22.0053190  70.4409176  60.1516491  30.7689187  59.9856789  62.6731921
  30.1257505  59.8354435  63.2417059  30.4288594  59.7399134  61.9081025
  30.6234264  59.9268911  62.6434936  35.3588533  67.9416216  62.0961929
  34.6879723  68.4845918  61.9674995  36.0528284  68.4111071  61.8543624
  35.3617401  68.0914487  62.0417457  35.5216661  64.3972099  65.0052302
  35.8744271  63.9701822  65.6798101  34.6631462  64.3122943  65.1353379
  35.4466105  64.3216840  65.1247313  24.2200346  67.0279619  63.0635149
  23.5012335  67.4443751  63.3308013  24.5912708  67.5933858  62.5126787
  24.1692278  67.1728900  63.0217956  33.5199927  67.6607468  68.9537145
  33.4997854  67.4790763  69.8071924  33.5679127  68.5319486  68.9296728
  33.5234568  67.7624006  69.0760439  29.9946920  66.0677619  58.4008528
  29.4011759  66.3894615  57.8493095  30.0322198  65.2218714  58.1929635
  29.9121309  65.9901947  58.2891300  36.9540721  59.5190511  65.9336615
  36.4471586  58.8119651  65.8657792  37.7508155  59.1883700  66.0637692
  36.9967960  59.3663662  65.9435610  32.8704737  66.0257123  61.8310279
  32.6418430  66.0489825  60.9888637  33.1302813  65.2014590  61.9505289
  32.8750925  65.9073203  61.7235476  27.1523965  67.8791596  71.4335379
  26.6402868  67.2712779  71.7920410  26.9803461  68.5948189  71.9009355
  27.0513602  67.8954896  71.5551603  25.9249499  64.5633670  63.1264474
  26.4006865  64.9250749  62.4914655  25.4238099  65.2190137  63.4064617
  25.9214858  64.7127858  63.0741215  39.1560861  74.0355438  58.9177479
  39.5394467  74.7846794  59.1475576  38.3604974  74.2821257  58.6589468
  39.0954643  74.1825132  58.9135053  31.0293035  65.8015841  73.8737634
  31.5864466  65.5729650  73.2416100  30.7054101  66.5621507  73.5972847
  31.0639446  65.8799678  73.7394132  27.9676152  66.7074869  56.4937858
  28.3475117  66.7254499  55.7088973  27.2268748  67.1528858  56.3728706
  27.9144990  66.7756644  56.3601427  35.5961443  65.0157061  62.0813437
  35.5955669  64.8605717  62.9397713  35.3917623  65.8620048  62.0254823
  35.5661221  65.1177681  62.2001376  17.6578714  68.4396845  66.4972254
  17.4800475  67.9873454  67.2227169  17.3697736  69.2423006  66.6810731
  17.5891667  68.4919403  66.6315756  33.3202295  69.6954562  65.7349644
  33.8155960  68.9777557  65.6953664  32.5102071  69.3925360  65.6204131
  33.2746188  69.5452209  65.7123370  28.7660906  73.5452376  57.8846648
  27.9572229  73.2219049  57.8379958  29.2735815  72.8385598  57.8174897
  28.7210573  73.3933692  57.8676943  19.3951184  70.9724569  63.6094013
  18.5296703  70.9610259  63.4976784  19.4950000  70.7854792  64.4565152
  19.2825351  70.9430630  63.7182957  35.3854114  72.4458250  68.4226773
  35.8109185  71.9232672  67.8697198  35.0211034  73.0439087  67.9015396
  35.3940716  72.4568477  68.2635782  31.9732713  76.1592514  64.7527930
  32.4443891  76.8732777  64.9217915  32.3092892  75.5591264  65.2887800
  32.0927828  76.1763978  64.8560306  28.8902208  60.9319985  71.7086025
  29.0230114  60.1350978  72.0367000  29.2747361  61.4586388  72.2884301
  28.9658537  60.8919901  71.8429528  31.9634563  57.8550311  68.3067118
  31.1580527  57.7448040  68.6234956  31.8341299  57.9562767  67.4496984
  31.8254696  57.8533981  68.2275159  35.4200524  64.0195803  68.9006815
  34.8363513  64.5205009  68.4884382  35.7404818  63.5125359  68.2671138
  35.3813699  64.0187638  68.7465322  27.9595323  62.9336398  59.1765490
  28.7811017  63.1034710  58.9347185  27.4964974  63.0883659  58.4531787
  28.0126485  62.9818131  59.0337134  26.5490655  60.9279160  69.9563919
  27.0935068  60.5870287  70.5468260  26.6027591  61.7864621  70.0985203
  26.6379774  61.0034419  70.0645792  32.1764986  76.9561521  68.0464964
  32.9963360  76.8124487  68.3081259  31.8959064  77.5807720  68.5881402
  32.2561729  77.0271873  68.1652903  38.5754108  78.5481089  64.7351154
  38.2457438  78.9992233  64.0654853  37.8999110  78.4697253  65.2824160
  38.4264544  78.6032225  64.7174377  45.7830516  74.5366612  62.9800765
  45.4683957  75.2270091  63.4121187  45.2657457  74.4811394  62.2786265
  45.6594986  74.6301501  62.9397714  36.7810062  76.6093378  60.2174102
  37.5356030  76.9771695  59.9791152  36.6037597  76.9832932  60.9853281
  36.8664540  76.7191566  60.2958990  35.1367127  79.0163697  56.9152215
  34.9542700  79.2335578  56.0893207  35.9992740  79.1302709  56.9710829
  35.2371716  79.0653595  56.8006702  40.8166846  76.0190107  59.9501238
  41.5453006  75.8406062  59.5039395  40.9061739  76.8608187  60.1608417
  40.9373508  76.1173986  59.9154756  35.8861133  77.4319581  62.7962286
  35.0183558  77.5042180  62.8619895  36.1736337  78.2341660  62.9850261
  35.8000881  77.5613728  62.8337052  43.0544942  78.0079964  61.7970868
  43.7571295  77.8087713  61.3190826  42.7889131  77.2355907  62.1039711
  43.1191574  77.8642930  61.7716309  45.2005051  72.6460634  64.9267414
  45.3188619  73.1037097  64.1934717  45.0267227  71.8405895  64.6403632
  45.1924222  72.5954406  64.7768348  42.1682615  74.5011436  65.8686076
  41.2976173  74.4750157  65.8219386  42.4222956  74.3288629  65.0511922
  42.0776175  74.4721580  65.7406213  41.6757818  78.7808104  58.9948226
  42.1301565  78.9518665  59.7196070  42.1497864  78.1676215  58.5946001
  41.8126138  78.7158989  59.0421987  40.9350413  77.2800897  65.1325094
  40.0886458  77.4523705  65.0066444  40.9321546  76.4750241  65.4690923
  40.8097563  77.1861926  65.1636221  43.9332213  81.9512666  59.0612906
  43.4055232  82.0341410  58.3718615  44.3927922  82.6930538  59.0577551
  43.9234064  82.0733329  58.9587601  37.9068393  79.6454803  56.9017865
  38.2284234  79.1657885  56.2477127  38.1695336  80.4554449  56.7108676
  37.9934418  79.6944701  56.7773357  41.7421770  75.5042097  62.6731921
  41.0990088  75.3539743  63.2417059  41.4021177  75.2584442  61.9081025
  41.5966848  75.4454219  62.6434936  38.9327907  78.4521705  59.1765490
  39.7543601  78.6220018  58.9347185  38.4697558  78.6068966  58.4531787
  38.9859069  78.5003438  59.0337134  15.4231709  14.9948580  47.9447887
  15.3925714  15.8493217  48.1166157  16.0213058  14.6943873  48.5034031
  15.5068867  15.0765077  48.0522689   8.6231394  14.0824231  52.7000818
   7.7669290  14.2432729  52.7509934   8.6699048  13.2116295  52.7205879
   8.5030506  13.9775033  52.7106884   3.0072534  23.6186949  48.4638049
   2.2555434  23.2402487  48.2354094   3.4558546  23.6505383  47.7156859
   2.9622201  23.5672556  48.3195551  11.9325111  20.3510757  62.3061274
  12.6391878  19.8562787  62.4348208  12.1213046  20.7919838  61.5763932
  12.0653016  20.3429107  62.2170319   8.4597494  24.0412318  43.8923596
   8.1248862  24.7189240  43.4567818   8.9724364  23.6517630  43.3040468
   8.4863075  24.0836897  43.7410388   8.0001785  25.9926587  49.8334708
   8.3841165  26.5613486  49.2939483   7.9360926  25.2676097  49.3540524
   8.0475212  25.9702051  49.6828570  11.4683215  16.1416275  55.3432469
  12.0139175  16.8201362  55.4026439  11.4100092  16.0003736  54.4834051
  11.5399130  16.2208277  55.2244530   4.5857290  23.6305341  50.7300822
   4.6867653  22.8205695  51.0397949   3.9899035  23.5362288  50.1000500
   4.5129829  23.4970369  50.6827060  13.2448284  17.5700882  46.2166197
  13.1287810  18.3208568  46.6458335  14.0404171  17.3124835  46.4662284
  13.3452873  17.6435729  46.3170289   4.4258030  28.5482930  52.1315678
   5.0695485  28.9896094  52.5211836   4.7514285  27.7436356  52.0445936
   4.5689858  28.4948125  52.1761155   5.1278610  21.5594905  47.5035539
   5.4494451  22.1000112  46.8996847   5.7750706  20.9891677  47.6357829
   5.2704665  21.5554080  47.4342575   7.1780318  13.5610900  47.5869926
   7.8760482  13.7399028  48.0791389   7.4932650  13.0381239  46.9640315
   7.3275655  13.5104672  47.5671936   7.3668253  19.9481345  47.5749718
   7.8061888  19.3398446  48.0204490   7.2172916  19.5688718  46.8035183
   7.4089719  19.8019816  47.5268885   4.8339896  18.5425357  54.7768543
   5.4788899  18.0497800  54.4579492   5.0741673  18.6850144  55.6034621
   4.9650481  18.4902799  54.8518076   7.3725987  21.3880263  54.4275436
   7.6549230  20.5931669  54.2062191   8.1012148  21.8660850  54.4480497
   7.5215551  21.3414860  54.3978451  10.9677590  18.3008526  44.5280487
  10.8828885  19.1569493  44.6730056  11.4561973  18.0252850  45.1962646
  11.0266487  18.3865848  44.6482568  12.5583589   4.9188820  49.9140811
  12.2437030   5.6092298  50.3461234  12.0410531   4.8633602  49.2126312
  12.4348059   5.0123708  49.8737760  11.8996023  14.9193321  46.0278222
  11.3707494  15.1352954  46.6875528  12.4221043  15.6129459  45.9479191
  11.8984476  15.0536457  46.1133821  17.3544076  20.4939625  51.4011266
  16.5241779  20.7050269  51.5644683  17.3053328  19.6676680  51.1253550
  17.2250811  20.4029231  51.3848632   3.7895631  18.8156537  44.8285690
   3.2052846  19.3206569  45.2351554   3.3865726  18.5898924  44.0882282
   3.6434934  18.8564786  44.7790715   5.4153813  23.3243479  54.2359176
   4.8980755  22.9650894  53.6320484   6.1128204  22.8005654  54.2465242
   5.4419394  23.1941167  54.1489435   9.0717405  23.7738293  60.1975349
   9.1600751  23.5864434  61.0453559   9.5007118  23.1275723  59.7980196
   9.1479508  23.6501301  60.2647100   6.6387865  23.0569453  59.1793011
   6.0758700  22.6442063  59.7032672   7.4008888  22.9822359  59.5986154
   6.6682314  22.9846854  59.3186011   8.2472845  15.0622189  43.3054610
   8.4868849  15.2700173  42.4929954   8.5688686  14.2579698  43.4143555
   8.3310003  14.9736291  43.2015164   2.1983856  25.0467474  51.7829641
   2.9004436  24.5319463  51.8402398   2.1181340  25.3741626  52.5876516
   2.2907617  25.0181701  51.9102433  16.8498034  13.1410026  55.1961688
  16.0126455  13.2112213  55.4309282  16.8186265  13.1434521  54.3235990
  16.7216316  13.1520253  55.1021236   1.5234632  21.2373826  51.2915249
   2.3623531  21.4696759  51.3389011   1.5546401  20.3678138  51.2222285
   1.6516349  21.1430773  51.2879894   2.1487335  21.6574702  55.5928555
   2.6885560  21.5145833  56.2631927   1.4657281  22.0571452  55.9612581
   2.1279489  21.6954372  55.7462977  11.5728220  17.3365702  50.7873579
  12.3285735  17.7697217  50.8262488  11.6790544  16.6870472  51.3608215
  11.6998390  17.3043186  50.8771605  14.6108391  21.1638979  51.5375982
  14.1743623  21.1675722  52.2934954  14.2771306  21.8444478  51.1055560
  14.4971011  21.2651435  51.5856815   9.1837464  23.2047312  62.8619133
   9.9677881  23.3178160  63.2274875   8.9834059  22.3788449  63.0577818
   9.2703490  23.0994032  62.9453519  14.5305874   8.2052807  53.7805410
  15.1731782   8.2750912  54.3667325  14.7828894   7.5382030  53.2784952
  14.6628006   8.1179156  53.7932689   1.4582227  12.6760077  42.3614734
   0.7440404  12.3898256  42.7737167   1.9426196  13.0156703  43.0021122
   1.4241590  12.6841726  42.5170369   9.3407858  25.1157414  56.5085588
   8.5423104  24.8756914  56.7659457   9.7893869  25.1671807  57.2552636
   9.2882469  25.0879805  56.6570512  17.7452737  17.8819899  50.4295619
  18.4069171  17.3210568  50.3291528  17.1044149  17.3871930  50.7548311
  17.7481605  17.7256308  50.4627960   8.6329545  21.1790031  42.7376543
   9.0480693  20.8475055  42.0461038   7.8021474  20.9458933  42.6096679
   8.5717554  21.0961287  42.6167390  14.0317568  18.8985282  50.1707608
  14.2673157  19.0430481  49.3434459  14.1807131  19.6627690  50.5639122
  14.0883371  19.0324336  50.1071212  15.8608025  17.7386948  48.0077212
  16.1916242  18.2714588  47.4017307  16.4341113  17.7925835  48.6639163
  15.9941704  17.8256517  48.0154994  11.0739914  15.5851850  48.6900792
  11.1686768  16.3241144  49.1440418  10.4498757  15.1569326  49.1235357
  10.9948944  15.6313171  48.8208940   9.3292387  18.7638063  59.3391073
   9.9031249  18.1265307  59.4939637   9.2507191  18.7642145  58.4700731
   9.4025622  18.6703174  59.2337484  11.3262935  17.4300590  41.9237744
  11.2443097  17.5002777  42.7892731  11.9642655  17.9930334  41.7321485
  11.4082772  17.5239561  42.0227694   4.6856106  17.1961328  51.3912270
   4.4275350  16.3633063  51.3643570   4.7404589  17.4218941  50.5504771
   4.6555884  17.1059099  51.2632407   9.7657156   9.2989779  51.4916363
   9.0613483   8.8098964  51.6500282   9.8142131   9.3112253  50.6204808
   9.6687208   9.2279427  51.3855703   3.6590818  14.7499091  51.8777165
   3.0840410  14.9091259  52.5141126   3.2826495  14.1134500  51.4145616
   3.5193631  14.6796904  51.9031724   7.3264107  13.2222440  56.7369544
   6.9378540  12.7976658  56.0821735   6.6618805  13.4704590  57.2446570
   7.1711035  13.1961161  56.7157412  16.9687376  12.9797445  49.5117374
  16.7123941  12.1677386  49.3215256  17.8116690  12.9875012  49.2847561
  17.0553401  12.8609442  49.4502191  11.1490468   6.9197069  54.2493528
  11.5300980   6.2375240  54.6361402  10.3453753   6.6306671  54.0669192
  11.0866930   6.7764117  54.2797584   8.4303045  17.4521044  44.9346351
   9.2443684  17.7435937  44.8229122   8.3662186  16.7980907  44.3604644
   8.5405784  17.3986239  44.8335188  14.6512535  20.1347041  59.3475926
  14.4151173  19.3035105  59.2287987  15.2955764  20.0832648  59.9330770
  14.7107206  20.0044729  59.4161820   4.3010953  20.9242562  50.0618663
   4.9384900  20.6854309  50.6070456   4.7266025  21.1279721  49.3271823
   4.4587120  20.9193572  50.0335820   4.9413768  16.1444852  44.3993552
   5.3258921  15.9252558  45.1510097   4.6925389  16.9707797  44.5294628
   4.9615841  16.2342998  44.5294628  15.6748956  19.9191489  55.4104221
  15.3694773  20.6519546  55.7717536  14.9555172  19.5129419  55.1297007
  15.5236298  19.9673222  55.4217358   6.6832425  21.4014985  51.7412449
   6.7571434  21.2390156  52.5954299   7.5001932  21.5905174  51.4972931
   6.8148784  21.4051727  51.8310475  21.3750748  16.5584490  54.7372565
  21.3075248  16.5780449  53.8675152  21.3606411  17.4014817  54.9628236
  21.3629505  16.6858225  54.6425042   5.2237011  24.3649728  46.4725922
   5.5135309  23.9738709  45.7485149   5.9540492  24.5466432  46.9131198
   5.3743895  24.3343541  46.4308729  19.1609365  15.3328876  53.0119159
  19.7117287  14.6996945  53.2516251  19.1453481  15.8644269  53.7034664
  19.2394562  15.3177824  53.1498018   5.8131756  19.1667473  57.5579053
   5.3143450  19.8783241  57.6363941   6.6231981  19.4868140  57.5197215
   5.8587863  19.3194322  57.5635621   3.1642927  26.3417110  49.5386072
   2.9443222  26.0514465  50.3312739   2.9437449  25.6832065  49.0103984
   3.0990521  26.2016818  49.5774981   2.0759874  18.4290426  51.8041774
   1.7873122  17.8027898  52.3387501   2.9443222  18.3710714  51.8706454
   2.1620126  18.3277971  51.8932728  12.8637772  13.5725210  52.1223756
  12.5202538  12.8515545  52.4731005  12.9630814  13.3639061  51.2802114
  12.8279815  13.4349413  52.0495436   5.3310882  27.7146500  48.3216764
   5.9834940  27.1822942  48.5507791   4.6336491  27.3615152  48.7084638
   5.3241600  27.5836023  48.4128932   2.2792147  20.0685678  47.7284139
   3.0338115  20.4498717  47.9419601   1.6862760  20.5196821  48.1830835
   2.3028861  20.1914505  47.8267017  13.3250801  20.0350914  47.6647744
  13.8908833  20.6944124  47.5806287  12.6778704  20.3800612  48.1364146
  13.3129557  20.1832855  47.7220500   3.5990374  21.2394239  53.1024254
   3.0771127  21.3794531  53.7876119   3.9864394  20.4804903  53.2926372
   3.5794075  21.1479763  53.2325331   9.7957379  22.9789698  47.0884823
   9.5544055  22.2457559  46.6811888   9.9758712  23.5276555  46.4351156
   9.7865003  22.9512089  46.9315046   5.0256699  18.2698258  48.5005745
   4.8299482  18.8772992  47.9066048   5.2491045  17.5766202  48.0197419
   5.0291340  18.2575783  48.3421826   3.4235229  15.1552996  48.6186614
   4.1457881  15.3194154  48.1590420   2.9443222  15.8762661  48.5125953
   3.4598960  15.2851225  48.5352228  11.3828737  11.4916795  53.9983298
  10.5439838  11.5178074  53.7621562  11.4533104  12.1387530  54.5788645
  11.2697131  11.5912920  54.0492415   1.0742846  17.5611068  57.7240753
   1.5863943  17.8395322  57.0749513   0.7879189  18.3000362  58.0903566
   1.1077709  17.7113422  57.6830631   9.8298015   8.3902172  48.7310914
  10.5324368   8.1909920  48.2530873   9.5642204   7.6178114  49.0379758
   9.8944648   8.2465138  48.7056356  15.2586261  16.6984781  51.2844540
  15.1720235  16.8540207  52.1379319  14.8036741  17.3422857  50.9103945
  15.1789518  16.8160537  51.3551647   9.1312077  14.0195529  49.9070100
   8.8846791  13.9391279  50.7406889   9.4597200  13.2348996  49.7132627
   9.1433321  13.8921794  50.0017623  13.0260126  20.7278888  53.6956881
  12.8874485  21.4259934  54.2005623  12.2460124  20.5727544  53.3393063
  12.8903353  20.8079055  53.7183155  11.3638211  17.0275263  59.9479263
  11.3586249  16.1555080  59.9521689  12.0699205  17.2263432  59.4748718
  11.4683215  16.9279137  59.8786298   5.0909104  16.7552247  59.3193083
   5.2352480  17.3353455  58.6836193   5.4384753  17.1328544  60.0242937
   5.1636566  16.8972951  59.3292078   7.2629022  15.9542415  57.1018214
   6.5152336  16.1473430  56.6966492   7.4170547  15.1287635  56.8642336
   7.1751449  15.8607527  57.0063620   4.1636859  24.9455019  56.1854110
   4.3126423  24.3857935  55.5327514   4.9436861  25.0247021  56.5686628
   4.3010953  24.8740584  56.1451059  14.5213499  20.0857142  44.4573380
  14.1420307  19.2994280  44.4502670  13.8579744  20.6343999  44.3145024
  14.3671973  20.0501966  44.4354177   6.6890160  25.1169662  57.4638600
   6.6133831  24.4478472  58.0189389   6.6180019  25.8187450  57.9779267
   6.6670767  25.1214569  57.6215449   7.3460407  23.6370661  48.2962206
   8.1110298  23.3680304  47.9744871   7.2438497  23.1520671  49.0132269
   7.4441902  23.5260225  48.3542034   5.3813177  11.8395070  54.8355442
   4.5909251  11.6586530  55.1572778   5.7773799  11.0622023  54.8185737
   5.3230053  11.6982531  54.8807991   9.8679067  20.6682844  40.2762156
  10.6352052  20.7282969  39.8668008   9.4210376  20.0963286  39.7918474
   9.9152495  20.5919420  40.1439866  10.7656863  19.4737500  52.5614888
  10.0901865  19.2422733  53.0628275  10.7749239  18.8658683  51.9356993
  10.6675367  19.3496425  52.5431040   7.8951007  14.3155329  59.3178941
   7.8310148  15.1765286  59.1899078   8.0348195  13.9987322  58.5174492
   7.9066477  14.3955496  59.1807154  12.7673597  22.3302633  44.7925066
  12.8493435  23.1369619  44.4686517  13.2523340  22.3498592  45.5165840
  12.8510755  22.4523295  44.8511965   6.5770101  17.0087469  53.4595144
   6.1532350  17.2091968  52.7234162   6.4014956  16.1616317  53.5719444
   6.4880981  16.9136250  53.3668834   6.0781794  28.5237982  55.9216601
   6.5677724  27.8248771  55.7392266   5.5066026  28.2261852  56.5092659
   6.0666324  28.3764205  55.9817642   1.8652546  17.5039520  48.8923117
   2.0217165  17.4386323  49.7479109   2.2053139  18.2788073  48.6801796
   1.9385781  17.6088718  48.9877711   8.4031690  16.8797404  47.7616480
   8.9447236  16.3767785  48.2255100   8.7178249  16.8262598  46.9505965
   8.5296087  16.7976825  47.7100292  12.2748798  21.0900051  64.8743392
  13.0883663  20.8185200  65.0348524  12.1143764  20.7907591  64.0703588
  12.3718746  21.0054977  64.7788798   6.5718140  22.2714755  45.0456508
   6.6410960  21.4129294  45.1849508   7.3506595  22.4886636  44.7175532
   6.6970990  22.1767619  45.0173665   9.5520960  11.7733708  57.8138780
   9.7662929  11.1344622  57.2602134   8.9354859  12.2179532  57.3846642
   9.4926289  11.7443852  57.6689211  10.9625628  24.6952456  49.2593001
  10.5705419  24.3919172  48.5415867  11.1178700  25.5321546  49.0697955
  10.9279217  24.7736293  49.1249498  11.7160048  13.3822773  58.7522087
  10.9036729  13.0748664  58.8335260  12.1749982  12.9021773  59.3164799
  11.6640432  13.2659266  58.8476681  11.1265302  21.2602445  49.1999032
  10.7679957  21.4317088  49.9763064  10.6404013  21.7215651  48.6427030
  11.0023999  21.3541416  49.2324301   5.9153668  16.9401611  41.7399266
   6.2046193  17.7166493  42.0142840   6.0025467  16.4290342  42.4413765
   5.9707924  16.9793529  41.8841764  12.2870042  22.1506341  60.1466232
  12.9249762  21.6566537  59.8128689  11.6444133  22.0783742  59.5618459
  12.2864268  22.0665350  60.0108587  14.0127042  13.9995487  54.7132148
  13.5854650  13.9121836  53.9580248  13.3753095  14.1073263  55.2986992
  13.8556649  14.0028147  54.6877590  12.3424298  22.8426150  56.7871589
  13.1316676  22.4915214  56.9073671  12.5167896  23.6562538  56.5248223
  12.4844580  22.9112007  56.7659457   2.0817609  16.2534875  53.8399378
   1.2405615  16.1538749  54.0478272   2.2907617  17.0230356  54.1913699
   1.9882301  16.3526919  53.9226693  11.1958122   6.8535706  51.3488008
  11.4007716   6.7858014  52.1945005  10.8684546   7.6594527  51.2809185
  11.1773370   6.9621647  51.4647663   5.8934274  14.1816274  53.0896976
   5.5897411  13.6272263  53.6907383   5.1913694  14.3608484  52.6025010
   5.7450483  14.1261057  53.1066681   4.9500371  11.4916794  47.6541677
   5.2260105  10.7735707  47.2419245   5.5499040  12.0901714  47.4462784
   5.0793635  11.4737165  47.5622439   3.9552625  21.3965995  57.7969073
   3.8472980  21.4068057  58.6631131   4.1648406  22.2220776  57.6074027
   3.9702736  21.5207070  57.8973165  14.4491810   7.4067470  50.8290773
  13.8366124   7.8937873  51.2144505  14.5455985   6.7310961  51.3728424
  14.3729708   7.3785779  50.9669631   8.4510891   9.1630312  45.9288272
   8.9054638   9.3340872  46.6536117   8.9250937   8.5498422  45.5286048
   8.5879211   9.0981197  45.9762034   1.9726417  18.6478638  55.2591011
   1.3814350  19.2888136  55.2294026   2.7347440  19.0716255  55.2322310
   1.9974677  18.8054476  55.2506158  18.0916838  18.4784407  56.2568289
  18.1499962  18.9271056  57.0028266  17.4583306  18.8883220  55.8198369
  18.0068133  18.6058142  56.3020838  11.7315933  24.0987949  52.6923035
  11.5335621  24.5878764  51.9979247  11.1103644  24.3029191  53.2707169
  11.6103497  24.2004487  52.6746259   5.7923911  15.8672846  47.0333280
   6.5365956  16.2547122  47.2716230   5.9384607  15.0230271  47.1973768
   5.9234496  15.8003319  47.0927249   8.7801787  11.4398319  52.9327199
   8.3061741  10.9140081  53.4432510   9.1519923  10.8927792  52.3642061
   8.7651676  11.2814316  52.9242346  15.0438518  16.5000695  54.3433980
  14.8036740  15.6607110  54.3476406  15.5230525  16.5800862  55.0674753
  15.0790701  16.3882095  54.4508782  10.7085287  12.3334874  45.9952953
  10.1808305  12.4163618  45.3058662  11.1680995  13.0752745  45.9917598
  10.6987137  12.4555536  45.8927648  17.0443705  13.2802152  52.2963239
  16.8053475  13.2397986  51.4584023  17.2077606  14.1273304  52.4228960
  17.0334008  13.3994237  52.1916721  13.6489735  17.6652101  58.2268284
  14.3723934  17.2124628  58.0479304  13.3839697  17.9456767  57.4440612
  13.7171008  17.6403070  58.0846999   2.5176603  12.2612275  54.9621163
   1.8929673  12.2730667  54.3547116   2.1822198  12.7372450  55.6112403
   2.3762095  12.3330792  54.9677732  10.2622369  20.9038437  45.1262610
  10.9856568  21.3696550  44.9827183   9.8222960  20.9712047  44.3760207
  10.3038061  20.9822274  44.9947391   9.4308524  17.7635980  56.3763299
   8.8165517  17.2194030  56.6711934   9.9475809  17.2500216  55.8969115
   9.4164187  17.6072389  56.3487527   8.6704821  18.8340250  54.1107598
   8.2432429  18.2089968  53.6773033   8.6629766  18.5515172  54.9366605
   8.6063963  18.6993030  54.1687425   6.9990531   9.7109004  54.3250132
   7.0233018   9.1769117  53.6362912   7.2502005   9.2026313  54.9875722
   7.0400450   9.5569908  54.3214776   4.7006217  14.9540332  56.0029775
   3.8698146  15.1214150  55.7965023   4.6457734  14.5776283  56.7878660
   4.5695632  14.9230064  56.0878303   3.0742261  13.2295924  46.5319893
   3.2145222  13.7268388  47.2348534   3.5724793  12.5282218  46.6734106
   3.1683341  13.1997903  46.6571472   3.1042483  14.0963035  43.8612469
   3.7387562  14.6923460  43.7961931   3.1868094  13.7966493  44.6758340
   3.2099034  14.1403943  43.9715556  16.0825049  16.6278512  56.7298834
  16.6742889  17.2675763  56.7617032  16.5184043  15.9301549  57.0190900
  16.2343480  16.6196863  56.7779666   4.6821466  10.0277010  43.8357911
   5.0037307   9.5480093  43.1817174   4.9448410  10.8376656  43.6448723
   4.7687491  10.0766908  43.7113403   7.9118439  21.0495885  57.3556727
   7.4043530  21.6031731  57.7997358   7.6145085  21.1104175  56.5375502
   7.7923324  21.1402196  57.3005184  10.0780621   9.4149204  56.1981390
  10.5035692   8.9621731  55.5864917   9.4637614   8.8609275  56.4746178
  10.0509266   9.2663180  56.1486416  10.5226219  24.9659142  45.2860671
   9.8055529  24.7920005  44.8207908  11.1732956  24.7311715  44.7536157
  10.5128069  24.9054935  45.1389889  13.1074190  13.8423731  49.0301976
  12.4365380  14.3853433  48.9015042  13.8013940  14.3118586  48.7883671
  13.1103058  13.9922002  48.9757504   7.1560924  25.9820443  54.2613734
   6.9326578  25.2239272  54.6297761   6.6670767  26.0118464  53.5394174
   7.0504373  25.8742667  54.2090475  13.2702318  10.2979614  51.9392349
  13.6229928   9.8709337  52.6138148  12.4117119  10.2130458  52.0693426
  13.1951762  10.2224355  52.0587360   1.9686003  12.9287134  49.9975196
   1.2497992  13.3451267  50.2648059   2.3398365  13.4941373  49.4466834
   1.9177934  13.0736416  49.9558003  11.2685583  13.5614983  55.8877192
  11.2483511  13.3798278  56.7411970  11.3164784  14.4327002  55.8636775
  11.2720224  13.6631521  56.0100486   9.2131913  20.1502175  61.8125668
   9.1727768  19.5051852  61.2270824  10.0255231  20.0938792  62.1251080
   9.3275067  20.0461142  61.7722617   5.8039381  26.2020901  51.7150819
   5.3899779  25.5395031  51.3254661   6.4886755  26.3498760  51.1946513
   5.8437752  26.1261559  51.5807316   9.1704675  25.3610986  52.4674436
   8.7720958  25.4713257  51.6995256   8.5555894  25.5693053  53.0500995
   9.0203564  25.4084554  52.4405735   7.7432577  11.9685134  45.3348575
   7.1497416  12.2902131  44.7833142   7.7807855  11.1226230  45.1269681
   7.6606966  11.8909462  45.2231347  14.7026378   5.4198026  52.8676662
  14.1957242   4.7127166  52.7997839  15.4993811   5.0891215  52.9977738
  14.7453617   5.2671178  52.8775657  10.6190394  11.9264639  48.7650326
  10.3904087  11.9497340  47.9228684  10.8788470  11.1022106  48.8845336
  10.6236582  11.8080719  48.6575523   3.6735156  10.4641185  50.0604521
   4.1492522  10.8258265  49.4254702   3.1723756  11.1197652  50.3404664
   3.6700515  10.6135374  50.0081262  16.9046518  19.9362953  45.8517526
  17.2880123  20.6854309  46.0815623  16.1090631  20.1828773  45.5929515
  16.8440300  20.0832647  45.8475100   5.7161809  12.6082385  43.4277905
   6.0960774  12.6262014  42.6429020   4.9754405  13.0536374  43.3068752
   5.6630647  12.6764159  43.2941473  13.3447100  10.9164576  49.0153484
  13.3441326  10.7613232  49.8737760  13.1403280  11.7627563  48.9594869
  13.3146878  11.0185197  49.1341423  11.0687952  15.5962078  52.6689691
  11.5641617  14.8785073  52.6293711  10.2587727  15.2932875  52.5544178
  11.0231845  15.4459724  52.6463417   6.5146563  19.4459891  44.8186695
   5.7057886  19.1226564  44.7720005   7.0221472  18.7393113  44.7514944
   6.4696230  19.2941207  44.8016990  13.1339771  18.3465765  55.3566819
  13.5594842  17.8240187  54.8037245  12.7696690  18.9446603  54.8355442
  13.1426373  18.3575992  55.1975829   2.7693850  26.6429983  54.1164165
   3.0840409  27.4566371  54.1241947   3.1787264  26.2580201  54.7846324
   2.8761948  26.7058685  54.2168257   9.7218370  22.0600029  51.6867977
  10.1929548  22.7740292  51.8557962  10.0578549  21.4598780  52.2227846
   9.8413485  22.0771494  51.7900353  11.8095355  23.6701343  63.8660049
  11.9192320  22.8809903  64.2216796  12.1386251  23.5807279  63.0634387
  11.8747760  23.5407196  63.8002440  10.3592316  21.8517964  58.4495670
   9.8113262  21.2275847  58.1815735  10.8205345  22.0412236  57.7339749
  10.3459526  21.7877014  58.3046101  13.1686181   9.9203318  55.8346862
  12.5849170  10.4212525  55.4224429  13.4890475   9.4132874  55.2011185
  13.1299356   9.9195153  55.6805369   5.7080980   8.8343913  46.1105537
   6.5296674   9.0042226  45.8687232   5.2450631   8.9891174  45.3871834
   5.7612142   8.8825646  45.9677181   9.9250643  22.8569036  54.9805011
  10.7449016  22.7132002  55.2421306   9.6444720  23.4815235  55.5221449
  10.0047386  22.9279388  55.0992950  26.3964293  30.5133888  47.9447887
  26.3658297  31.3678525  48.1166157  26.9945642  30.2129181  48.5034031
  26.4801451  30.5950385  48.0522689  19.5963978  29.6009539  52.7000818
  18.7401873  29.7618037  52.7509934  19.6431632  28.7301603  52.7205879
  19.4763089  29.4960341  52.7106884  13.9805118  39.1372257  48.4638049
  13.2288017  38.7587795  48.2354094  14.4291129  39.1690691  47.7156859
  13.9354784  39.0857864  48.3195551  22.9057694  35.8696065  62.3061274
  23.6124462  35.3748095  62.4348208  23.0945630  36.3105146  61.5763932
  23.0385600  35.8614415  62.2170319  19.4330077  39.5597626  43.8923596
  19.0981446  40.2374548  43.4567818  19.9456948  39.1702938  43.3040468
  19.4595659  39.6022205  43.7410388  18.9734369  41.5111895  49.8334708
  19.3573748  42.0798794  49.2939483  18.9093510  40.7861405  49.3540524
  19.0207796  41.4887358  49.6828570  22.4415799  31.6601583  55.3432469
  22.9871759  32.3386670  55.4026439  22.3832675  31.5189044  54.4834051
  22.5131713  31.7393585  55.2244530  15.5589874  39.1490649  50.7300822
  15.6600237  38.3391003  51.0397949  14.9631619  39.0547595  50.1000500
  15.4862412  39.0155677  50.6827060  24.2180868  33.0886190  46.2166197
  24.1020393  33.8393876  46.6458335  25.0136754  32.8310143  46.4662284
  24.3185457  33.1621037  46.3170289  15.3990613  44.0668238  52.1315678
  16.0428069  44.5081402  52.5211836  15.7246869  43.2621664  52.0445936
  15.5422442  44.0133433  52.1761155   8.7554918  35.1710936  50.3553155
   8.5205103  34.3378588  50.2485424   8.8940559  35.4515601  49.5414356
   8.7410581  35.0894439  50.2195510  11.0545006  27.3396666  53.2537463
  10.4350037  26.7489313  53.0847478  10.9528869  27.9308101  52.6201786
  10.9482681  27.3400749  53.1342453  16.1011193  37.0780213  47.5035539
  16.4227034  37.6185420  46.8996847  16.7483290  36.5076984  47.6357829
  16.2437248  37.0739388  47.4342575  18.1512901  29.0796208  47.5869926
  18.8493066  29.2584336  48.0791389  18.4665234  28.5566547  46.9640315
  18.3008238  29.0289980  47.5671936  10.7814139  30.8848948  55.4981032
  10.6572835  31.4711393  56.1330851  11.4332423  30.3909144  55.7993307
  10.8587788  30.8987752  55.6366961  18.3400837  35.4666653  47.5749718
  18.7794472  34.8583754  48.0204490  18.1905499  35.0874026  46.8035183
  18.3822302  35.3205124  47.5268885  15.8072480  34.0610665  54.7768543
  16.4521482  33.5683108  54.4579492  16.0474257  34.2035451  55.6034621
  15.9383065  34.0088107  54.8518076  18.3458571  36.9065571  54.4275436
  18.6281814  36.1116976  54.2062191  19.0744731  37.3846158  54.4480497
  18.4948135  36.8600168  54.3978451  16.3239765  24.4488605  51.6691201
  15.9943095  24.8999748  50.9994899  15.6484767  24.3704768  52.2164207
  16.1750201  24.5039740  51.6514424  21.9410173  33.8193834  44.5280487
  21.8561468  34.6754801  44.6730056  22.4294556  33.5438158  45.1962646
  21.9999070  33.9051156  44.6482568  23.5316173  20.4374128  49.9140811
  23.2169614  21.1277606  50.3461234  23.0143114  20.3818910  49.2126312
  23.4080643  20.5309016  49.8737760  22.8728606  30.4378629  46.0278222
  22.3440078  30.6538262  46.6875528  23.3953626  31.1314767  45.9479191
  22.8717059  30.5721765  46.1133821  14.7628214  34.3341845  44.8285690
  14.1785429  34.8391877  45.2351554  14.3598309  34.1084232  44.0882282
  14.6167518  34.3750094  44.7790715  10.3172243  40.0496606  51.6309361
   9.8339821  40.7747096  51.6068945  11.1295561  40.3472736  51.7419519
  10.3662990  40.1998960  51.6436641  16.3886397  38.8428787  54.2359176
  15.8713338  38.4836202  53.6320484  17.0860788  38.3190962  54.2465242
  16.4151978  38.7126475  54.1489435  20.0449989  39.2923601  60.1975349
  20.1333335  39.1049742  61.0453559  20.4739701  38.6461031  59.7980196
  20.1212091  39.1686609  60.2647100  17.6120449  38.5754761  59.1793011
  17.0491283  38.1627371  59.7032672  18.3741472  38.5007667  59.5986154
  17.6414897  38.5032162  59.3186011  19.2205429  30.5807497  43.3054610
  19.4601432  30.7885481  42.4929954  19.5421270  29.7765006  43.4143555
  19.3042586  30.4921599  43.2015164  14.5295719  22.5100893  47.1514148
  15.2841687  22.8779210  46.9131199  14.3523253  22.8840447  47.9193328
  14.6150197  22.6199081  47.2299037  13.1716440  40.5652782  51.7829641
  13.8737019  40.0504771  51.8402398  13.0913923  40.8926934  52.5876516
  13.2640200  40.5367009  51.9102433  14.2195347  30.8028369  60.9110056
  14.3915850  30.6934264  61.7595338  14.7564704  31.4482775  60.6741249
  14.3240351  30.8820371  61.0015153  12.8852783  24.9171212  43.8492261
  12.7028357  25.1343093  43.0233254  13.7478396  25.0310225  43.9050876
  12.9857373  24.9661110  43.7346748  12.4967215  36.7559134  51.2915249
  13.3356115  36.9882067  51.3389011  12.5278985  35.8863446  51.2222285
  12.6248933  36.6616081  51.2879894  13.1219918  37.1760009  55.5928555
  13.6618143  37.0331141  56.2631927  12.4389865  37.5756760  55.9612581
  13.1012072  37.2139680  55.7462977  18.5652503  21.9197623  46.8841285
  19.2938663  21.7413578  46.4379442  18.6547396  22.7615703  47.0948463
  18.6859165  22.0181501  46.8494803  22.5460803  32.8551010  50.7873579
  23.3018318  33.2882524  50.8262488  22.6523128  32.2055780  51.3608215
  22.6730974  32.8228494  50.8771605  25.5840974  36.6824287  51.5375982
  25.1476206  36.6861030  52.2934954  25.2503890  37.3629786  51.1055560
  25.4703594  36.7836743  51.5856815  20.1570048  38.7232620  62.8619133
  20.9410465  38.8363468  63.2274875  19.9566643  37.8973757  63.0577818
  20.2436073  38.6179340  62.9453519   8.5257064  33.3960300  55.7462976
   8.2595479  32.5799417  55.9053967   8.5395628  33.4413456  54.8758492
   8.4881786  33.2817205  55.6416458  25.5038457  23.7238115  53.7805410
  26.1464366  23.7936220  54.3667325  25.7561478  23.0567338  53.2784952
  25.6360589  23.6364464  53.7932689  12.4314810  28.1945385  42.3614734
  11.7172988  27.9083564  42.7737167  12.9158779  28.5342011  43.0021122
  12.3974174  28.2027034  42.5170369  13.2755670  26.9338679  58.3929984
  12.5827467  26.4635658  58.6390716  13.8915997  26.7076983  58.9671691
  13.2640200  26.8305810  58.5139137  20.3140441  40.6342722  56.5085588
  19.5155687  40.3942222  56.7659457  20.7626453  40.6857115  57.2552636
  20.2615053  40.6065113  56.6570512  19.6062128  36.6975339  42.7376543
  20.0213277  36.3660363  42.0461038  18.7754058  36.4644241  42.6096679
  19.5450137  36.6146595  42.6167390   8.9350477  34.1819080  53.0274721
   8.7526050  34.1565966  52.1747013   9.6700146  34.6518018  53.0663629
   9.0164541  34.2480442  52.9072639  25.0050151  34.4170590  50.1707608
  25.2405741  34.5615789  49.3434459  25.1539715  35.1812998  50.5639122
  25.0615955  34.5509644  50.1071212  11.9996229  30.9004083  59.5356829
  12.7236201  30.8857113  60.0221724  12.1012365  31.6099438  59.0378798
  12.1214438  31.0028786  59.5335616  26.8340608  33.2572256  48.0077212
  27.1648825  33.7899896  47.4017307  27.4073696  33.3111143  48.6639163
  26.9674287  33.3441824  48.0154994  19.3741178  34.3803167  64.4005776
  18.5814159  34.6946679  64.5858396  19.4890105  34.5954636  63.5626561
  19.2736589  34.4587004  64.3044111  22.0472497  31.1037158  48.6900792
  22.1419352  31.8426452  49.1440418  21.4231341  30.6754634  49.1235357
  21.9681527  31.1498479  48.8208940  20.3024971  34.2823371  59.3391073
  20.8763833  33.6450615  59.4939637  20.2239775  34.2827453  58.4700731
  20.3758206  34.1888482  59.2337484   8.9021388  31.0612580  53.1773787
   9.4794890  30.9249031  53.8166033   8.2035449  30.6048365  53.4319372
   8.8842409  30.9734847  53.3096077  22.2995519  32.9485898  41.9237744
  22.2175681  33.0188085  42.7892731  22.9375239  33.5115642  41.7321485
  22.3815356  33.0424869  42.0227694  15.6588690  32.7146636  51.3912270
  15.4007934  31.8818371  51.3643570  15.7137173  32.9404249  50.5504771
  15.6288468  32.6244407  51.2632407  20.7389740  24.8175087  51.4916363
  20.0346067  24.3284272  51.6500282  20.7874714  24.8297561  50.6204808
  20.6419791  24.7464735  51.3855703  14.6323402  30.2684398  51.8777165
  14.0572993  30.4276567  52.5141126  14.2559078  29.6319808  51.4145616
  14.4926214  30.1982211  51.9031724  18.2996690  28.7407748  56.7369544
  17.9111123  28.3161966  56.0821735  17.6351389  28.9889897  57.2446570
  18.1443618  28.7146469  56.7157412  27.9419960  28.4982752  49.5117374
  27.6856524  27.6862694  49.3215256  28.7849274  28.5060320  49.2847561
  28.0285985  28.3794750  49.4502191   4.3780221  29.9124473  49.8921606
   4.4640473  29.5356342  50.6735136   5.0056018  29.5384919  49.4141564
   4.4836772  29.8009955  49.9367083  22.1223052  22.4382377  54.2493528
  22.5033564  21.7560548  54.6361402  21.3186336  22.1491979  54.0669192
  22.0599514  22.2949425  54.2797584  19.4035629  32.9706352  44.9346351
  20.2176268  33.2621245  44.8229122  19.3394770  32.3166215  44.3604644
  19.5138368  32.9171547  44.8335188  25.6245119  35.6532349  59.3475926
  25.3883756  34.8220413  59.2287987  26.2688348  35.6017956  59.9330770
  25.6839790  35.5230036  59.4161820  15.2743537  36.4427870  50.0618663
  15.9117484  36.2039617  50.6070456  15.6998609  36.6465029  49.3271823
  15.4319703  36.4378880  50.0335820   9.9656179  38.6816206  53.9452966
  10.0060325  38.9531057  53.1172746  10.5250703  39.2058114  54.3610754
  10.0539525  38.7991961  53.8844855  15.9146352  31.6630160  44.3993552
  16.2991505  31.4437866  45.1510097  15.6657972  32.4893105  44.5294628
  15.9348425  31.7528306  44.5294628  16.0814892  24.9436575  64.1156136
  15.7668333  25.7136138  63.8525699  15.7604825  24.3806831  63.5308363
  15.9873812  24.9746843  63.9897486  17.6565009  36.9200292  51.7412449
  17.7304017  36.7575464  52.5954299  18.4734515  37.1090482  51.4972931
  17.7881368  36.9237035  51.8310475  11.4170766  37.2658155  48.7706892
  10.5908883  37.5119892  48.6441171  11.4782757  37.1870236  49.6368951
  11.3044933  37.2903104  48.8795837  13.6346789  23.3327096  49.7302333
  12.7669215  23.4049696  49.7959942  13.9221994  24.1349175  49.9190308
  13.5486537  23.4621243  49.7677099  22.7579678  23.4804956  58.0613654
  23.5033270  23.2914766  57.6477080  22.3416983  24.0063194  57.5027511
  22.8064652  23.5307101  57.9178228  16.1969595  39.8835036  46.4725922
  16.4867893  39.4924017  45.7485149  16.9273076  40.0651740  46.9131198
  16.3476479  39.8528849  46.4308729  16.7864340  34.6852781  57.5579053
  16.2876034  35.3968549  57.6363941  17.5964564  35.0053448  57.5197215
  16.8320447  34.8379630  57.5635621  14.1375510  41.8602418  49.5386072
  13.9175806  41.5699773  50.3312739  13.9170032  41.2017373  49.0103984
  14.0723104  41.7202126  49.5774981  13.0492457  33.9475734  51.8041774
  12.7605706  33.3213206  52.3387501  13.9175806  33.8896022  51.8706454
  13.1352709  33.8463279  51.8932728  23.8370355  29.0910518  52.1223756
  23.4935121  28.3700853  52.4731005  23.9363398  28.8824369  51.2802114
  23.8012398  28.9534721  52.0495436  16.3043466  43.2331808  48.3216764
  16.9567524  42.7008250  48.5507791  15.6069075  42.8800460  48.7084638
  16.2974184  43.1021331  48.4128932  13.2524731  35.5870985  47.7284139
  14.0070699  35.9684025  47.9419601  12.6595343  36.0382129  48.1830835
  13.2761444  35.7099813  47.8267017  24.2983384  35.5536222  47.6647744
  24.8641417  36.2129432  47.5806287  23.6511288  35.8985920  48.1364146
  24.2862141  35.7018163  47.7220500  15.7131398  27.5433826  62.8541351
  14.9031174  27.8491606  62.7431193  16.1906085  28.2639408  62.9693935
  15.6634877  27.6948427  62.8548422  14.5722957  36.7579547  53.1024254
  14.0503711  36.8979839  53.7876119  14.9596978  35.9990211  53.2926372
  14.5526658  36.6665071  53.2325331  11.5614141  26.8085356  47.1719209
  11.2738937  26.4386626  46.4351156  12.2484610  27.2780211  46.9102914
  11.6203039  26.8232325  47.0234285  20.7689962  38.4975006  47.0884823
  20.5276638  37.7642867  46.6811888  20.9491295  39.0461863  46.4351156
  20.7597586  38.4697397  46.9315046  15.9989283  33.7883566  48.5005745
  15.8032066  34.3958300  47.9066048  16.2223629  33.0951510  48.0197419
  16.0023924  33.7761091  48.3421826  14.3967813  30.6738304  48.6186614
  15.1190465  30.8379462  48.1590420  13.9175806  31.3947969  48.5125953
  14.4331544  30.8036533  48.5352228  22.3561321  27.0102103  53.9983298
  21.5172421  27.0363381  53.7621562  22.4265688  27.6572838  54.5788645
  22.2429714  27.1098228  54.0492415  12.0475430  33.0796376  57.7240753
  12.5596527  33.3580629  57.0749513  11.7611772  33.8185670  58.0903566
  12.0810293  33.2298730  57.6830631  20.8030599  23.9087480  48.7310914
  21.5056952  23.7095228  48.2530873  20.5374788  23.1363422  49.0379758
  20.8677231  23.7650446  48.7056356   9.1342336  27.5866568  48.0204490
   9.2358473  28.3892729  48.3485465   9.9298223  27.3853904  47.7227570
   9.2670242  27.6752467  48.0239845  15.5659155  25.1722765  57.7841795
  15.3742352  25.1877899  58.6341219  16.4157751  25.3686439  57.7608450
  15.6634877  25.2037116  57.9065090   9.9506068  27.7013746  55.7625611
   9.8091560  26.8497687  55.8870119  10.2346632  27.7442407  54.9387817
   9.9713914  27.5813496  55.6593236  20.1044661  29.5380836  49.9070100
  19.8579375  29.4576587  50.7406889  20.4329784  28.7534304  49.7132627
  20.1165904  29.4107102  50.0017623  23.9992709  36.2464196  53.6956881
  23.8607069  36.9445242  54.2005623  23.2192707  36.0912852  53.3393063
  23.8635936  36.3264362  53.7183155  22.3370795  32.5460571  59.9479263
  22.3318833  31.6740388  59.9521689  23.0431788  32.7448740  59.4748718
  22.4415798  32.4464445  59.8786298  16.0641688  32.2737555  59.3193083
  16.2085064  32.8538763  58.6836193  16.4117336  32.6513852  60.0242937
  16.1369149  32.4158259  59.3292078  18.2361605  31.4727723  57.1018214
  17.4884919  31.6658738  56.6966492  18.3903130  30.6472943  56.8642336
  18.1484033  31.3792835  57.0063620  15.1369443  40.4640327  56.1854110
  15.2859007  39.9043243  55.5327514  15.9169445  40.5432329  56.5686628
  15.2743536  40.3925892  56.1451059  25.4946082  35.6042450  44.4573380
  25.1152891  34.8179587  44.4502670  24.8312328  36.1529307  44.3145024
  25.3404557  35.5687274  44.4354177  17.6622743  40.6354970  57.4638600
  17.5866415  39.9663780  58.0189389  17.5912603  41.3372758  57.9779267
  17.6403350  40.6399877  57.6215449  18.4763382  25.3678274  57.9913618
  18.9335996  26.1002248  58.1186410  18.5519711  24.9444739  58.7500874
  18.5554352  25.4135512  58.1214695  10.7196373  25.6144094  59.0803062
  10.1838563  25.0024452  59.3963829  10.7814138  26.1892230  59.7336728
  10.6492006  25.6091022  59.2238489  22.9490708  18.5468149  51.8607461
  23.0674276  19.0044613  51.1274764  22.7752884  17.7413411  51.5743679
  22.9409879  18.4961921  51.7108395  18.3192990  39.1555969  48.2962206
  19.0842881  38.8865612  47.9744871  18.2171080  38.6705979  49.0132269
  18.4174486  39.0445533  48.3542034  16.3545760  27.3580378  54.8355442
  15.5641835  27.1771838  55.1572778  16.7506383  26.5807331  54.8185737
  16.2962636  27.2167839  54.8807991  21.7389446  34.9922808  52.5614888
  21.0634448  34.7608040  53.0628275  21.7481823  34.3843991  51.9356993
  21.6407951  34.8681733  52.5431040  18.8683590  29.8340637  59.3178941
  18.8042732  30.6950594  59.1899078  19.0080778  29.5172630  58.5174492
  18.8799060  29.9140804  59.1807154  23.7406181  37.8487941  44.7925066
  23.8226018  38.6554927  44.4686517  24.2255923  37.8683900  45.5165840
  23.8243339  37.9708603  44.8511965  17.5502684  32.5272777  53.4595144
  17.1264933  32.7277276  52.7234162  17.3747539  31.6801624  53.5719444
  17.4613565  32.4321558  53.3668834  17.0514378  44.0423289  55.9216601
  17.5410308  43.3434079  55.7392266  16.4798610  43.7447159  56.5092659
  17.0398908  43.8949513  55.9817642  12.8385129  33.0224828  48.8923117
  12.9949748  32.9571631  49.7479109  13.1785722  33.7973381  48.6801796
  12.9118364  33.1274026  48.9877711  19.3764274  32.3982712  47.7616480
  19.9179819  31.8953093  48.2255100  19.6910833  32.3447906  46.9505965
  19.5028671  32.3162132  47.7100292  23.2481381  36.6085359  64.8743392
  24.0616247  36.3370508  65.0348524  23.0876348  36.3092899  64.0703588
  23.3451330  36.5240285  64.7788798  17.5450724  37.7900063  45.0456508
  17.6143544  36.9314602  45.1849508  18.3239179  38.0071944  44.7175532
  17.6703574  37.6952927  45.0173665  20.5253543  27.2919016  57.8138780
  20.7395513  26.6529930  57.2602134  19.9087442  27.7364840  57.3846642
  20.4658872  27.2629160  57.6689211  21.9358211  40.2137764  49.2593001
  21.5438003  39.9104480  48.5415867  22.0911283  41.0506854  49.0697955
  21.9011801  40.2921601  49.1249498   9.4119391  30.2059778  49.2083884
   9.7918356  30.6244323  48.5444151   8.8374756  30.7873234  49.5152727
   9.3830716  30.3537637  49.1560625  22.6892631  28.9008081  58.7522087
  21.8769313  28.5933972  58.8335260  23.1482566  28.4207081  59.3164799
  22.6373016  28.7844574  58.8476681  22.0997886  36.7787753  49.1999032
  21.7412541  36.9502396  49.9763064  21.6136597  37.2400959  48.6427030
  21.9756583  36.8726724  49.2324301  19.9168272  20.4018952  52.8026123
  19.0461830  20.3757673  52.7559432  20.1708613  20.2296144  51.9851969
  19.8261832  20.3729095  52.6746260  16.8886251  32.4586919  41.7399266
  17.1778776  33.2351801  42.0142840  16.9758050  31.9475650  42.4413765
  16.9440508  32.4978837  41.8841764  19.7846139  30.3068153  63.5350790
  20.2545770  30.9310269  63.9218664  19.8308019  29.6385128  64.0944004
  19.8614015  30.3002833  63.6750861  16.9417412  22.4125180  54.2599593
  16.4255901  21.7205372  54.3851172  16.3811341  23.0795957  54.2062192
  16.7823926  22.4088438  54.2705659  19.0109646  22.9518140  56.0892446
  18.6241399  22.9767172  56.8705976  18.5242583  22.3859819  55.6366963
  18.8822155  22.8713891  56.1380350  23.2602625  37.6691649  60.1466232
  23.8982346  37.1751845  59.8128689  22.6176717  37.5969050  59.5618459
  23.2596852  37.5850658  60.0108587  24.9859625  29.5180795  54.7132148
  24.5587233  29.4307144  53.9580248  24.3485678  29.6258571  55.2986992
  24.8289233  29.5213455  54.6877590  18.6766788  19.8385126  58.3802706
  19.3059906  20.3745426  58.1023776  18.8452650  19.7462485  59.2316272
  18.7944582  19.9046488  58.4651234  18.4780702  24.6256320  60.6529117
  19.3054132  24.3541469  60.7087732  18.4988549  25.4217162  61.0092936
  18.6033553  24.7036075  60.7144300  23.3156882  38.3611457  56.7871589
  24.1049260  38.0100522  56.9073671  23.4900480  39.1747846  56.5248223
  23.4577164  38.4297315  56.7659457  13.0550192  31.7720183  53.8399378
  12.2138199  31.6724057  54.0478272  13.2640200  32.5415663  54.1913699
  12.9614885  31.8712227  53.9226693  10.5325759  29.3939720  51.6684129
  10.1382457  29.4682732  50.8934238   9.9765876  29.7797666  52.2192491
  10.3928572  29.4621495  51.6351789  22.1690706  22.3721014  51.3488008
  22.3740299  22.3043322  52.1945005  21.8417130  23.1779835  51.2809185
  22.1505954  22.4806955  51.4647663  16.8666857  29.7001582  53.0896976
  16.5629995  29.1457571  53.6907383  16.1646278  29.8793792  52.6025010
  16.7183067  29.6446365  53.1066681  15.9232954  27.0102102  47.6541677
  16.1992689  26.2921015  47.2419245  16.5231624  27.6087022  47.4462784
  16.0526219  26.9922473  47.5622439  14.9285208  36.9151303  57.7969073
  14.8205563  36.9253365  58.6631131  15.1380990  37.7406083  57.6074027
  14.9435319  37.0392378  57.8973165  25.4224394  22.9252778  50.8290773
  24.8098707  23.4123181  51.2144505  25.5188569  22.2496269  51.3728424
  25.3462291  22.8971087  50.9669631  19.4243475  24.6815620  45.9288272
  19.8787221  24.8526180  46.6536117  19.8983520  24.0683730  45.5286048
  19.5611795  24.6166505  45.9762034  12.9459000  34.1663945  55.2591011
  12.3546933  34.8073444  55.2294026  13.7080024  34.5901563  55.2322310
  12.9707261  34.3239784  55.2506158  13.3419623  25.3265943  55.9259029
  13.8021105  25.4004873  56.6634152  13.3875730  26.1247197  55.5758850
  13.4170178  25.4560090  55.9831785  14.9902973  25.9932638  60.4931056
  14.5988538  25.3465985  60.9286833  15.1588835  26.5844073  61.1125311
  14.9573883  25.9846906  60.6493762  22.7048516  39.6173257  52.6923035
  22.5068205  40.1064072  51.9979247  22.0836227  39.8214499  53.2707169
  22.5836081  39.7189795  52.6746259  16.7656495  31.3858154  47.0333280
  17.5098540  31.7732430  47.2716230  16.9117191  30.5415579  47.1973768
  16.8967080  31.3188627  47.0927249  18.6836070  23.1808413  52.0665141
  17.8372115  23.3531221  51.9406491  18.6807203  22.3757757  52.4030969
  18.5583220  23.0869442  52.0976268  19.7534371  26.9583627  52.9327199
  19.2794325  26.4325389  53.4432510  20.1252506  26.4113100  52.3642061
  19.7384260  26.7999624  52.9242346  10.1307401  28.9555134  58.3010745
  10.9933014  28.8550843  58.2148075   9.7999184  28.3749843  57.7396317
  10.2092597  28.8546761  58.2056151  21.6817870  27.8520182  45.9952953
  21.1540889  27.9348926  45.3058662  22.1413578  28.5938053  45.9917598
  21.6719721  27.9740844  45.8927648  28.0176288  28.7987460  52.2963239
  27.7786058  28.7583294  51.4584023  28.1810189  29.6458612  52.4228960
  28.0066592  28.9179545  52.1916721  24.6222318  33.1837409  58.2268284
  25.3456517  32.7309936  58.0479304  24.3572281  33.4642075  57.4440612
  24.6903592  33.1588378  58.0846999  13.4909187  27.7797583  54.9621163
  12.8662257  27.7915975  54.3547116  13.1554782  28.2557758  55.6112403
  13.3494679  27.8516100  54.9677732  13.6750935  26.1222701  41.0193848
  13.3263740  26.7742427  41.4825397  13.1947381  26.1079814  40.2917719
  13.5521179  26.2165755  40.9804939  10.2034862  35.8398043  56.4024927
   9.6734787  35.1490482  56.4519902  10.4759956  35.8308228  55.5737636
  10.1659585  35.7365175  56.2872343  21.2354953  36.4223745  45.1262610
  21.9589152  36.8881858  44.9827183  20.7955544  36.4897355  44.3760207
  21.2770645  36.5007582  44.9947391  20.4041108  33.2821288  56.3763299
  19.7898101  32.7379338  56.6711934  20.9208393  32.7685524  55.8969115
  20.3896770  33.1257697  56.3487527  19.6437405  34.3525558  54.1107598
  19.2165013  33.7275276  53.6773033  19.6362349  34.0700480  54.9366605
  19.5796546  34.2178338  54.1687425  12.7599932  29.3890731  57.1796032
  12.9193419  28.6334055  57.5847753  12.5792826  29.9381670  57.8336769
  12.7565291  29.3584544  57.3358737  20.7020235  21.5551966  57.7346821
  20.2060796  21.7515640  57.0438388  21.4589297  21.9544635  57.5635623
  20.7407060  21.6429700  57.6066958  17.9723115  25.2294312  54.3250132
  17.9965602  24.6954424  53.6362912  18.2234588  24.7211621  54.9875722
  18.0133033  25.0755216  54.3214776   5.4830705  32.5125807  53.7593276
   5.3774154  32.4672651  52.8945360   4.7330924  32.8579588  54.0407560
   5.3566307  32.5566715  53.6730605  14.2524437  23.9565130  53.7055876
  14.2922809  24.4574337  54.4190583  13.4274102  24.0475524  53.4361799
  14.1363963  24.0446947  53.7706414  16.4354050  33.5225870  61.8076170
  15.5849680  33.6597585  61.9433815  16.5982178  32.7889649  62.2523872
  16.3337913  33.4339972  61.8931770  15.6738800  30.4725640  56.0029775
  14.8430730  30.6399458  55.7965023  15.6190317  30.0961591  56.7878660
  15.5428215  30.4415372  56.0878303  13.4822584  23.9634533  61.6386186
  14.1075287  23.4196666  61.9115618  13.0273063  23.4829451  61.0693976
  13.5070844  23.8124014  61.5947779  14.0474844  28.7481232  46.5319893
  14.1877805  29.2453696  47.2348534  14.5457377  28.0467526  46.6734106
  14.1415925  28.7183211  46.6571472  14.0775067  29.6148343  43.8612469
  14.7120146  30.2108768  43.7961931  14.1600677  29.3151800  44.6758340
  14.1831617  29.6589251  43.9715556  27.0557632  32.1463820  56.7298834
  27.6475473  32.7861071  56.7617032  27.4916627  31.4486857  57.0190900
  27.2076064  32.1382171  56.7779666  15.6554049  25.5462318  43.8357911
  15.9769890  25.0665401  43.1817174  15.9180993  26.3561964  43.6448723
  15.7420075  25.5952216  43.7113403  18.8851022  36.5681193  57.3556727
  18.3776113  37.1217039  57.7997358  18.5877668  36.6289482  56.5375502
  18.7655907  36.6587504  57.3005184  21.0513204  24.9334512  56.1981390
  21.4768276  24.4807039  55.5864917  20.4370197  24.3794583  56.4746178
  21.0241850  24.7848488  56.1486416  10.5828054  31.8116184  47.1302015
  11.0920284  32.4080691  47.5113321  11.0562327  31.5442157  46.4478435
  10.7271430  31.8601999  47.0856538  21.4958802  40.4844450  45.2860671
  20.7788112  40.3105313  44.8207908  22.1465540  40.2497023  44.7536157
  21.4860653  40.4240243  45.1389889  19.4907427  21.4049612  49.6071967
  18.8475745  21.2547258  50.1757106  19.1506834  21.1591957  48.8421072
  19.3452505  21.3461734  49.5774983  24.0806774  29.3609039  49.0301976
  23.4097964  29.9038741  48.9015042  24.7746524  29.8303894  48.7883671
  24.0835641  29.5107310  48.9757504  18.1293507  41.5005751  54.2613734
  17.9059162  40.7424580  54.6297761  17.6403351  41.5303772  53.5394174
  18.0236956  41.3927975  54.2090475  24.2434901  25.8164922  51.9392349
  24.5962511  25.3894645  52.6138148  23.3849703  25.7315766  52.0693426
  24.1684346  25.7409663  52.0587360  12.9418586  28.4472442  49.9975196
  12.2230575  28.8636575  50.2648059  13.3130948  29.0126681  49.4466834
  12.8910518  28.5921724  49.9558003  22.2418167  29.0800291  55.8877192
  22.2216094  28.8983586  56.7411970  22.2897368  29.9512310  55.8636775
  22.2452808  29.1816829  56.0100486  20.1864497  35.6687483  61.8125668
  20.1460352  35.0237160  61.2270824  20.9987815  35.6124100  62.1251080
  20.3007650  35.5646450  61.7722617  16.7771964  41.7206209  51.7150819
  16.3632363  41.0580339  51.3254661  17.4619339  41.8684068  51.1946513
  16.8170336  41.6446867  51.5807316  20.1437258  40.8796294  52.4674436
  19.7453542  40.9898565  51.6995256  19.5288478  41.0878361  53.0500995
  19.9936148  40.9269862  52.4405735  18.7165161  27.4870442  45.3348575
  18.1230000  27.8087439  44.7833142  18.7540438  26.6411537  45.1269681
  18.6339550  27.4094770  45.2231347  25.6758961  20.9383334  52.8676662
  25.1689826  20.2312474  52.7997839  26.4726395  20.6076523  52.9977738
  25.7186200  20.7856486  52.8775657  21.5922977  27.4449947  48.7650326
  21.3636670  27.4682648  47.9228684  21.8521053  26.6207414  48.8845336
  21.5969165  27.3266026  48.6575523  15.8742206  29.2984420  58.3675426
  15.3621109  28.6905603  58.7260457  15.7021702  30.0141012  58.8349401
  15.7731843  29.3147719  58.4891649  10.7207920  27.7421995  61.0177788
  10.5510511  28.4023370  60.4725994  10.2773870  27.9528556  61.7390277
  10.6307254  27.8707977  61.0439417  14.6467740  25.9826493  50.0604521
  15.1225106  26.3443573  49.4254702  14.1456339  26.6382960  50.3404664
  14.6433099  26.1320682  50.0081262  27.8779101  35.4548261  45.8517526
  28.2612707  36.2039617  46.0815623  27.0823214  35.7014081  45.5929515
  27.8172883  35.6017955  45.8475100  19.7511276  27.2208664  60.8077681
  20.3082706  26.9922474  60.1756147  19.4272341  27.9814330  60.5312894
  19.7857686  27.2992501  60.6734178   7.6209985  30.6468860  56.2766277
   7.0736704  29.9769506  56.3947146   8.4102363  30.2798708  56.3409745
   7.6562168  30.4933847  56.3034978  17.4694393  30.3076318  61.7729688
  18.2205720  30.6227994  62.0869243  17.6616970  30.1055488  60.9463610
  17.6085807  30.3243699  61.6973084  16.6894393  28.1267693  43.4277905
  17.0693358  28.1447322  42.6429020  15.9486989  28.5721681  43.3068752
  16.6363231  28.1949467  43.2941473  24.3179683  26.4349884  49.0153484
  24.3173910  26.2798540  49.8737760  24.1135863  27.2812871  48.9594869
  24.2879461  26.5370505  49.1341423   6.3796954  29.8589668  53.4312300
   6.2018715  29.4066277  54.1567216   6.0915976  30.6615830  53.6150778
   6.3109907  29.9112226  53.5655803  22.0420535  31.1147386  52.6689691
  22.5374201  30.3970381  52.6293711  21.2320311  30.8118183  52.5544178
  21.9964429  30.9645032  52.6463417  17.4879147  34.9645199  44.8186695
  16.6790470  34.6411872  44.7720005  17.9954056  34.2578421  44.7514944
  17.4428814  34.8126515  44.8016990   8.1169424  32.3917392  50.5434059
   7.2514944  32.3803082  50.4316831   8.2168240  32.2047615  51.3905199
   8.0043591  32.3623453  50.6523004  24.1072354  33.8651073  55.3566819
  24.5327426  33.3425495  54.8037245  23.7429274  34.4631911  54.8355442
  24.1158957  33.8761300  55.1975829  13.7426434  42.1615291  54.1164165
  14.0572993  42.9751679  54.1241947  14.1519847  41.7765509  54.7846324
  13.8494532  42.2243993  54.2168257  20.6950954  37.5785337  51.6867977
  21.1662132  38.2925600  51.8557962  21.0311132  36.9784088  52.2227846
  20.8146069  37.5956802  51.7900353  22.7827938  39.1886651  63.8660049
  22.8924904  38.3995211  64.2216796  23.1118835  39.0992587  63.0634387
  22.8480344  39.0592504  63.8002440  17.6120449  22.3512808  58.6426072
  17.7448354  21.5543801  58.9707047  17.9965601  22.8779211  59.2224347
  17.6876777  22.3112725  58.7769575  21.3324900  37.3703272  58.4495670
  20.7845846  36.7461155  58.1815735  21.7937929  37.5597544  57.7339749
  21.3192109  37.3062322  58.3046101  20.6852804  19.2743134  55.2407165
  19.8798767  19.1640864  55.5575003  20.5559539  19.3755590  54.3837031
  20.5472937  19.2726804  55.1615205  24.1418764  25.4388626  55.8346862
  23.5581753  25.9397832  55.4224429  24.4623058  24.9318182  55.2011185
  24.1031940  25.4380461  55.6805369  16.6813563  24.3529221  46.1105537
  17.5029258  24.5227534  45.8687232  16.2183214  24.5076482  45.3871834
  16.7344726  24.4010954  45.9677181  15.2708895  22.3471983  56.8903965
  15.8153308  22.0063110  57.4808307  15.3245831  23.2057445  57.0325250
  15.3598015  22.4227242  56.9985839  11.0839454  36.1088399  53.7642773
  11.6884311  36.0684233  53.1356594  10.8766767  36.9559551  53.7946829
  11.1428351  36.2276402  53.6758890  20.8983226  38.3754344  54.9805011
  21.7181600  38.2317310  55.2421306  20.6177304  39.0000543  55.5221449
  20.9779970  38.4464696  55.0992950   6.3190736  35.0923017  53.6341697
   6.2215014  34.2819288  53.9431753   7.1019606  35.0714810  53.2487965
   6.4206873  34.9690107  53.6228559  30.5696561  45.1194847  52.7000818
  29.7134457  45.2803345  52.7509934  30.6164215  44.2486911  52.7205879
  30.4495673  45.0145649  52.7106884  24.9537701  54.6557565  48.4638049
  24.2020601  54.2773103  48.2354094  25.4023713  54.6875998  47.7156859
  24.9087368  54.6043172  48.3195551  33.8790278  51.3881373  62.3061274
  34.5857045  50.8933403  62.4348208  34.0678213  51.8290454  61.5763932
  34.0118184  51.3799723  62.2170319  30.4062661  55.0782934  43.8923596
  30.0714030  55.7559856  43.4567818  30.9189532  54.6888246  43.3040468
  30.4328242  55.1207513  43.7410388  29.9466952  57.0297203  49.8334708
  30.3306332  57.5984102  49.2939483  29.8826094  56.3046713  49.3540524
  29.9940380  57.0072666  49.6828570  33.4148383  47.1786891  55.3432469
  33.9604343  47.8571977  55.4026439  33.3565259  47.0374352  54.4834051
  33.4864297  47.2578893  55.2244530  26.5322457  54.6675957  50.7300822
  26.6332820  53.8576311  51.0397949  25.9364203  54.5732903  50.1000500
  26.4594996  54.5340985  50.6827060  26.3723197  59.5853546  52.1315678
  27.0160652  60.0266710  52.5211836  26.6979452  58.7806972  52.0445936
  26.5155026  59.5318741  52.1761155  19.7287502  50.6896244  50.3553155
  19.4937686  49.8563896  50.2485424  19.8673142  50.9700909  49.5414356
  19.7143164  50.6079747  50.2195510  22.0277589  42.8581974  53.2537463
  21.4082621  42.2674621  53.0847478  21.9261453  43.4493409  52.6201786
  21.9215265  42.8586057  53.1342453  27.0743777  52.5965521  47.5035539
  27.3959618  53.1370728  46.8996847  27.7215873  52.0262292  47.6357829
  27.2169832  52.5924696  47.4342575  21.7546722  46.4034256  55.4981032
  21.6305419  46.9896701  56.1330851  22.4065007  45.9094452  55.7993307
  21.8320371  46.4173060  55.6366961  29.3133420  50.9851961  47.5749718
  29.7527056  50.3769061  48.0204490  29.1638083  50.6059334  46.8035183
  29.3554886  50.8390432  47.5268885  26.7805063  49.5795973  54.7768543
  27.4254066  49.0868416  54.4579492  27.0206840  49.7220759  55.6034621
  26.9115648  49.5273415  54.8518076  29.3191154  52.4250879  54.4275436
  29.6014397  51.6302284  54.2062191  30.0477315  52.9031466  54.4480497
  29.4680718  52.3785476  54.3978451  32.9142757  49.3379142  44.5280487
  32.8294052  50.1940109  44.6730056  33.4027140  49.0623466  45.1962646
  32.9731654  49.4236464  44.6482568  25.7360798  49.8527153  44.8285690
  25.1518013  50.3577185  45.2351554  25.3330893  49.6269540  44.0882282
  25.5900102  49.8935401  44.7790715  21.2904826  55.5681914  51.6309361
  20.8072405  56.2932404  51.6068945  22.1028145  55.8658044  51.7419519
  21.3395574  55.7184268  51.6436641  27.3618980  54.3614095  54.2359176
  26.8445922  54.0021510  53.6320484  28.0593372  53.8376269  54.2465242
  27.3884562  54.2311783  54.1489435  31.0182572  54.8108909  60.1975349
  31.1065918  54.6235050  61.0453559  31.4472285  54.1646339  59.7980196
  31.0944675  54.6871917  60.2647100  28.5853032  54.0940069  59.1793011
  28.0223867  53.6812679  59.7032672  29.3474056  54.0192975  59.5986154
  28.6147481  54.0217470  59.3186011  24.1449024  56.0838090  51.7829641
  24.8469603  55.5690079  51.8402398  24.0646507  56.4112242  52.5876516
  24.2372784  56.0552316  51.9102433  25.1927930  46.3213677  60.9110056
  25.3648434  46.2119572  61.7595338  25.7297288  46.9668083  60.6741249
  25.2972934  46.4005679  61.0015153  23.4699799  52.2744442  51.2915249
  24.3088698  52.5067375  51.3389011  23.5011568  51.4048754  51.2222285
  23.5981517  52.1801389  51.2879894  24.0952502  52.6945317  55.5928555
  24.6350727  52.5516448  56.2631927  23.4122448  53.0942068  55.9612581
  24.0744656  52.7324988  55.7462977  33.5193387  48.3736318  50.7873579
  34.2750902  48.8067832  50.8262488  33.6255711  47.7241088  51.3608215
  33.6463558  48.3413802  50.8771605  36.5573558  52.2009595  51.5375982
  36.1208790  52.2046338  52.2934954  36.2236473  52.8815094  51.1055560
  36.4436178  52.3022051  51.5856815  31.1302632  54.2417928  62.8619133
  31.9143048  54.3548776  63.2274875  30.9299226  53.4159065  63.0577818
  31.2168657  54.1364648  62.9453519  19.4989647  48.9145608  55.7462976
  19.2328062  48.0984725  55.9053967  19.5128211  48.9598764  54.8758492
  19.4614369  48.8002513  55.6416458  24.2488253  42.4523986  58.3929984
  23.5560050  41.9820966  58.6390716  24.8648581  42.2262291  58.9671691
  24.2372783  42.3491118  58.5139137  31.2873025  56.1528030  56.5085588
  30.4888271  55.9127530  56.7659457  31.7359036  56.2042423  57.2552636
  31.2347636  56.1250421  56.6570512  30.5794712  52.2160647  42.7376543
  30.9945860  51.8845670  42.0461038  29.7486642  51.9829549  42.6096679
  30.5182721  52.1331903  42.6167390  19.9083061  49.7004388  53.0274721
  19.7258634  49.6751274  52.1747013  20.6432730  50.1703325  53.0663629
  19.9897125  49.7665750  52.9072639  22.9728812  46.4189390  59.5356829
  23.6968785  46.4042421  60.0221724  23.0744949  47.1284746  59.0378798
  23.0947021  46.5214094  59.5335616  30.3473762  49.8988475  64.4005776
  29.5546743  50.2131987  64.5858396  30.4622689  50.1139944  63.5626561
  30.2469172  49.9772312  64.3044111  31.2757555  49.8008679  59.3391073
  31.8496416  49.1635923  59.4939637  31.1972358  49.8012761  58.4700731
  31.3490790  49.7073790  59.2337484  19.8753971  46.5797888  53.1773787
  20.4527474  46.4434339  53.8166033  19.1768033  46.1233672  53.4319372
  19.8574992  46.4920154  53.3096077  26.6321273  48.2331944  51.3912270
  26.3740518  47.4003679  51.3643570  26.6869756  48.4589557  50.5504771
  26.6021051  48.1429715  51.2632407  25.6055985  45.7869706  51.8777165
  25.0305577  45.9461875  52.5141126  25.2291662  45.1505116  51.4145616
  25.4658798  45.7167519  51.9031724  29.2729274  44.2593056  56.7369544
  28.8843707  43.8347273  56.0821735  28.6083972  44.5075205  57.2446570
  29.1176202  44.2331777  56.7157412  15.3512804  45.4309781  49.8921606
  15.4373056  45.0541650  50.6735136  15.9788602  45.0570227  49.4141564
  15.4569355  45.3195263  49.9367083  30.3768212  48.4891660  44.9346351
  31.1908851  48.7806553  44.8229122  30.3127354  47.8351523  44.3604644
  30.4870951  48.4356855  44.8335188  36.5977702  51.1717656  59.3475926
  36.3616340  50.3405721  59.2287987  37.2420931  51.1203264  59.9330770
  36.6572373  51.0415344  59.4161820  26.2476121  51.9613178  50.0618663
  26.8850068  51.7224925  50.6070456  26.6731192  52.1650337  49.3271823
  26.4052287  51.9564188  50.0335820  20.9388763  54.2001514  53.9452966
  20.9792908  54.4716365  53.1172746  21.4983287  54.7243422  54.3610754
  21.0272109  54.3177269  53.8844855  27.0547476  40.4621883  64.1156136
  26.7400917  41.2321445  63.8525699  26.7337409  39.8992139  63.5308363
  26.9606395  40.4932151  63.9897486  37.6214123  50.9562105  55.4104221
  37.3159940  51.6890162  55.7717536  36.9020339  50.5500035  55.1297007
  37.4701465  51.0043838  55.4217358  28.6297593  52.4385600  51.7412449
  28.7036601  52.2760772  52.5954299  29.4467099  52.6275790  51.4972931
  28.7613951  52.4422343  51.8310475  22.3903349  52.7843463  48.7706892
  21.5641467  53.0305200  48.6441171  22.4515340  52.7055544  49.6368951
  22.2777516  52.8088412  48.8795837  24.6079373  38.8512404  49.7302333
  23.7401798  38.9235004  49.7959942  24.8954577  39.6534483  49.9190308
  24.5219121  38.9806551  49.7677099  33.7312262  38.9990264  58.0613654
  34.4765854  38.8100074  57.6477080  33.3149566  39.5248502  57.5027511
  33.7797236  39.0492409  57.9178228  27.1702178  55.4020343  46.4725922
  27.4600477  55.0109325  45.7485149  27.9005659  55.5837048  46.9131198
  27.3209062  55.3714157  46.4308729  27.7596923  50.2038089  57.5579053
  27.2608617  50.9153857  57.6363941  28.5697148  50.5238756  57.5197215
  27.8053030  50.3564938  57.5635621  25.1108094  57.3787726  49.5386072
  24.8908389  57.0885081  50.3312739  24.8902616  56.7202681  49.0103984
  25.0455688  57.2387434  49.5774981  24.0225041  49.4661042  51.8041774
  23.7338290  48.8398514  52.3387501  24.8908389  49.4081330  51.8706454
  24.1085293  49.3648587  51.8932728  27.2776050  58.7517116  48.3216764
  27.9300108  58.2193558  48.5507791  26.5801658  58.3985768  48.7084638
  27.2706768  58.6206639  48.4128932  24.2257314  51.1056293  47.7284139
  24.9803282  51.4869332  47.9419601  23.6327927  51.5567437  48.1830835
  24.2494028  51.2285121  47.8267017  35.2715968  51.0721530  47.6647744
  35.8374001  51.7314740  47.5806287  34.6243871  51.4171228  48.1364146
  35.2594724  51.2203471  47.7220500  26.6863981  43.0619134  62.8541351
  25.8763757  43.3676913  62.7431193  27.1638668  43.7824716  62.9693935
  26.6367460  43.2133735  62.8548422  25.5455541  52.2764855  53.1024254
  25.0236295  52.4165146  53.7876119  25.9329561  51.5175519  53.2926372
  25.5259242  52.1850379  53.2325331  22.5346725  42.3270663  47.1719209
  22.2471521  41.9571934  46.4351156  23.2217193  42.7965519  46.9102914
  22.5935622  42.3417633  47.0234285  31.7422546  54.0160314  47.0884823
  31.5009222  53.2828175  46.6811888  31.9223879  54.5647171  46.4351156
  31.7330170  53.9882705  46.9315046  26.9721867  49.3068874  48.5005745
  26.7764649  49.9143608  47.9066048  27.1956212  48.6136818  48.0197419
  26.9756508  49.2946399  48.3421826  25.3700397  46.1923612  48.6186614
  26.0923049  46.3564770  48.1590420  24.8908389  46.9133277  48.5125953
  25.4064127  46.3221841  48.5352228  33.3293904  42.5287411  53.9983298
  32.4905005  42.5548689  53.7621562  33.3998272  43.1758146  54.5788645
  33.2162298  42.6283536  54.0492415  23.0208013  48.5981684  57.7240753
  23.5329110  48.8765937  57.0749513  22.7344356  49.3370978  58.0903566
  23.0542876  48.7484038  57.6830631  20.1074920  43.1051876  48.0204490
  20.2091056  43.9078037  48.3485465  20.9030806  42.9039212  47.7227570
  20.2402825  43.1937775  48.0239845  26.5391739  40.6908073  57.7841795
  26.3474936  40.7063207  58.6341219  27.3890335  40.8871747  57.7608450
  26.6367461  40.7222424  57.9065090  20.9238652  43.2199054  55.7625611
  20.7824144  42.3682995  55.8870119  21.2079215  43.2627715  54.9387817
  20.9446498  43.0998804  55.6593236  34.9725293  51.7649504  53.6956881
  34.8339652  52.4630550  54.2005623  34.1925291  51.6098160  53.3393063
  34.8368520  51.8449670  53.7183155  33.3103378  48.0645879  59.9479263
  33.3051417  47.1925696  59.9521689  34.0164372  48.2634048  59.4748718
  33.4148382  47.9649753  59.8786298  27.0374271  47.7922863  59.3193083
  27.1817647  48.3724071  58.6836193  27.3849920  48.1699160  60.0242937
  27.1101733  47.9343567  59.3292078  29.2094189  46.9913031  57.1018214
  28.4617503  47.1844046  56.6966492  29.3635714  46.1658251  56.8642336
  29.1216616  46.8978143  57.0063620  26.1102026  55.9825635  56.1854110
  26.2591590  55.4228551  55.5327514  26.8902028  56.0617636  56.5686628
  26.2476120  55.9111200  56.1451059  28.6355327  56.1540278  57.4638600
  28.5598998  55.4849088  58.0189389  28.5645186  56.8558066  57.9779267
  28.6135934  56.1585185  57.6215449  29.4495966  40.8863582  57.9913618
  29.9068580  41.6187556  58.1186410  29.5252295  40.4630047  58.7500874
  29.5286936  40.9320820  58.1214695  29.2925574  54.6741277  48.2962206
  30.0575465  54.4050920  47.9744871  29.1903664  54.1891287  49.0132269
  29.3907069  54.5630841  48.3542034  27.3278344  42.8765686  54.8355442
  26.5374418  42.6957146  55.1572778  27.7238967  42.0992639  54.8185737
  27.2695220  42.7353147  54.8807991  32.7122030  50.5108116  52.5614888
  32.0367032  50.2793348  53.0628275  32.7214406  49.9029299  51.9356993
  32.6140535  50.3867041  52.5431040  29.8416174  45.3525945  59.3178941
  29.7775315  46.2135902  59.1899078  29.9813362  45.0357938  58.5174492
  29.8531644  45.4326112  59.1807154  34.7138765  53.3673249  44.7925066
  34.7958602  54.1740235  44.4686517  35.1988507  53.3869208  45.5165840
  34.7975922  53.4893911  44.8511965  28.5235268  48.0458084  53.4595144
  28.0997517  48.2462583  52.7234162  28.3480123  47.1986932  53.5719444
  28.4346148  47.9506866  53.3668834  28.0246961  59.5608597  55.9216601
  28.5142892  58.8619387  55.7392266  27.4531194  59.2632467  56.5092659
  28.0131491  59.4134821  55.9817642  23.8117713  48.5410136  48.8923117
  23.9682332  48.4756939  49.7479109  24.1518306  49.3158688  48.6801796
  23.8850948  48.6459334  48.9877711  30.3496857  47.9168019  47.7616480
  30.8912403  47.4138401  48.2255100  30.6643416  47.8633214  46.9505965
  30.4761255  47.8347440  47.7100292  34.2213965  52.1270667  64.8743392
  35.0348830  51.8555816  65.0348524  34.0608931  51.8278207  64.0703588
  34.3183913  52.0425593  64.7788798  28.5183307  53.3085371  45.0456508
  28.5876127  52.4499909  45.1849508  29.2971762  53.5257252  44.7175532
  28.6436157  53.2138235  45.0173665  31.4986127  42.8104324  57.8138780
  31.7128096  42.1715238  57.2602134  30.8820026  43.2550148  57.3846642
  31.4391456  42.7814468  57.6689211  32.9090795  55.7323072  49.2593001
  32.5170586  55.4289787  48.5415867  33.0643867  56.5692162  49.0697955
  32.8744385  55.8106909  49.1249498  20.3851974  45.7245086  49.2083884
  20.7650939  46.1429631  48.5444151  19.8107339  46.3058542  49.5152727
  20.3563299  45.8722945  49.1560625  33.6625215  44.4193389  58.7522087
  32.8501897  44.1119280  58.8335260  34.1215149  43.9392389  59.3164799
  33.6105600  44.3029882  58.8476681  33.0730469  52.2973061  49.1999032
  32.7145124  52.4687704  49.9763064  32.5869180  52.7586267  48.6427030
  32.9489166  52.3912032  49.2324301  30.7578722  45.8253461  63.5350790
  31.2278353  46.4495577  63.9218664  30.8040603  45.1570436  64.0944004
  30.8346598  45.8188141  63.6750861  29.9842229  38.4703448  56.0892446
  29.5973983  38.4952480  56.8705976  29.4975167  37.9045127  55.6366963
  29.8554738  38.3899199  56.1380350  34.2335209  53.1876957  60.1466232
  34.8714929  52.6937153  59.8128689  33.5909300  53.1154358  59.5618459
  34.2329435  53.1035966  60.0108587  29.6499371  35.3570434  58.3802706
  30.2792489  35.8930734  58.1023776  29.8185234  35.2647793  59.2316272
  29.7677166  35.4231796  58.4651234  29.4513286  40.1441628  60.6529117
  30.2786715  39.8726777  60.7087732  29.4721132  40.9402470  61.0092936
  29.5766136  40.2221383  60.7144300  34.2889465  53.8796765  56.7871589
  35.0781844  53.5285830  56.9073671  34.4633063  54.6933154  56.5248223
  34.4309747  53.9482622  56.7659457  24.0282776  47.2905491  53.8399378
  23.1870782  47.1909365  54.0478272  24.2372784  48.0600971  54.1913699
  23.9347468  47.3897534  53.9226693  21.5058343  44.9125028  51.6684129
  21.1115041  44.9868040  50.8934238  20.9498460  45.2982974  52.2192491
  21.3661155  44.9806803  51.6351789  27.8399441  45.2186890  53.0896976
  27.5362578  44.6642879  53.6907383  27.1378861  45.3979100  52.6025010
  27.6915651  45.1631673  53.1066681  25.9017792  52.4336611  57.7969073
  25.7938147  52.4438673  58.6631131  26.1113573  53.2591391  57.6074027
  25.9167903  52.5577686  57.8973165  23.9191584  49.6849253  55.2591011
  23.3279517  50.3258752  55.2294026  24.6812607  50.1086871  55.2322310
  23.9439844  49.8425092  55.2506158  24.3152207  40.8451251  55.9259029
  24.7753688  40.9190181  56.6634152  24.3608313  41.6432505  55.5758850
  24.3902762  40.9745398  55.9831785  25.9635556  41.5117946  60.4931056
  25.5721121  40.8651293  60.9286833  26.1321419  42.1029381  61.1125311
  25.9306467  41.5032214  60.6493762  33.6781100  55.1358565  52.6923035
  33.4800789  55.6249379  51.9979247  33.0568811  55.3399806  53.2707169
  33.5568664  55.2375103  52.6746259  27.7389078  46.9043462  47.0333280
  28.4831123  47.2917738  47.2716230  27.8849774  46.0600887  47.1973768
  27.8699663  46.8373935  47.0927249  21.1039984  44.4740442  58.3010745
  21.9665597  44.3736151  58.2148075  20.7731767  43.8935151  57.7396317
  21.1825181  44.3732069  58.2056151  35.5954902  48.7022717  58.2268284
  36.3189101  48.2495244  58.0479304  35.3304864  48.9827383  57.4440612
  35.6636175  48.6773686  58.0846999  24.4641770  43.2982891  54.9621163
  23.8394840  43.3101283  54.3547116  24.1287365  43.7743066  55.6112403
  24.3227262  43.3701408  54.9677732  21.1767446  51.3583351  56.4024927
  20.6467370  50.6675790  56.4519902  21.4492539  51.3493536  55.5737636
  21.1392168  51.2550483  56.2872343  32.2087536  51.9409053  45.1262610
  32.9321735  52.4067166  44.9827183  31.7688127  52.0082663  44.3760207
  32.2503229  52.0192890  44.9947391  31.3773691  48.8006596  56.3763299
  30.7630685  48.2564646  56.6711934  31.8940976  48.2870832  55.8969115
  31.3629354  48.6443005  56.3487527  30.6169989  49.8710866  54.1107598
  30.1897597  49.2460584  53.6773033  30.6094933  49.5885787  54.9366605
  30.5529130  49.7363646  54.1687425  23.7332516  44.9076039  57.1796032
  23.8926002  44.1519363  57.5847753  23.5525409  45.4566978  57.8336769
  23.7297875  44.8769852  57.3358737  31.6752819  37.0737274  57.7346821
  31.1793380  37.2700948  57.0438388  32.4321881  37.4729942  57.5635623
  31.7139643  37.1615008  57.6066958  28.9455698  40.7479620  54.3250132
  28.9698185  40.2139732  53.6362912  29.1967172  40.2396929  54.9875722
  28.9865617  40.5940524  54.3214776  16.4563288  48.0311115  53.7593276
  16.3506737  47.9857959  52.8945360  15.7063508  48.3764896  54.0407560
  16.3298891  48.0752023  53.6730605  25.2257020  39.4750438  53.7055876
  25.2655392  39.9759645  54.4190583  24.4006685  39.5660832  53.4361799
  25.1096546  39.5632255  53.7706414  27.4086633  49.0411178  61.8076170
  26.5582264  49.1782893  61.9433815  27.5714761  48.3074957  62.2523872
  27.3070497  48.9525280  61.8931770  26.6471384  45.9910948  56.0029775
  25.8163314  46.1584766  55.7965023  26.5922901  45.6146899  56.7878660
  26.5160799  45.9600679  56.0878303  24.4555167  39.4819841  61.6386186
  25.0807871  38.9381974  61.9115618  24.0005647  39.0014759  61.0693976
  24.4803428  39.3309322  61.5947779  29.8583606  52.0866500  57.3556727
  29.3508697  52.6402347  57.7997358  29.5610252  52.1474790  56.5375502
  29.7388491  52.1772812  57.3005184  32.0245788  40.4519820  56.1981390
  32.4500859  39.9992347  55.5864917  31.4102781  39.8979891  56.4746178
  31.9974433  40.3033796  56.1486416  21.5560638  47.3301491  47.1302015
  22.0652867  47.9265999  47.5113321  22.0294910  47.0627465  46.4478435
  21.7004014  47.3787307  47.0856538  32.4691386  56.0029758  45.2860671
  31.7520696  55.8290620  44.8207908  33.1198124  55.7682330  44.7536157
  32.4593237  55.9425551  45.1389889  29.1026091  57.0191059  54.2613734
  28.8791745  56.2609888  54.6297761  28.6135934  57.0489080  53.5394174
  28.9969540  56.9113283  54.2090475  23.9151170  43.9657750  49.9975196
  23.1963159  44.3821883  50.2648059  24.2863532  44.5311989  49.4466834
  23.8643101  44.1107031  49.9558003  33.2150751  44.5985599  55.8877192
  33.1948678  44.4168894  56.7411970  33.2629951  45.4697617  55.8636775
  33.2185392  44.7002137  56.0100486  31.1597080  51.1872791  61.8125668
  31.1192935  50.5422468  61.2270824  31.9720399  51.1309408  62.1251080
  31.2740234  51.0831758  61.7722617  27.7504548  57.2391517  51.7150819
  27.3364947  56.5765647  51.3254661  28.4351922  57.3869376  51.1946513
  27.7902920  57.1632175  51.5807316  31.1169842  56.3981602  52.4674436
  30.7186125  56.5083872  51.6995256  30.5021062  56.6063668  53.0500995
  30.9668731  56.4455170  52.4405735  26.8474789  44.8169727  58.3675426
  26.3353692  44.2090910  58.7260457  26.6754285  45.5326320  58.8349401
  26.7464426  44.8333027  58.4891649  21.6940504  43.2607303  61.0177788
  21.5243094  43.9208678  60.4725994  21.2506454  43.4713864  61.7390277
  21.6039837  43.3893285  61.0439417  30.7243859  42.7393972  60.8077681
  31.2815290  42.5107782  60.1756147  30.4004924  43.4999638  60.5312894
  30.7590270  42.8177809  60.6734178  18.5942568  46.1654168  56.2766277
  18.0469288  45.4954814  56.3947146  19.3834946  45.7984016  56.3409745
  18.6294752  46.0119155  56.3034978  28.4426977  45.8261625  61.7729688
  29.1938304  46.1413302  62.0869243  28.6349553  45.6240796  60.9463610
  28.5818391  45.8429007  61.6973084  17.3529538  45.3774976  53.4312300
  17.1751299  44.9251585  54.1567216  17.0648560  46.1801138  53.6150778
  17.2842491  45.4297534  53.5655803  33.0153119  46.6332694  52.6689691
  33.5106784  45.9155689  52.6293711  32.2052895  46.3303491  52.5544178
  32.9697012  46.4830340  52.6463417  28.4611730  50.4830507  44.8186695
  27.6523053  50.1597180  44.7720005  28.9686639  49.7763729  44.7514944
  28.4161397  50.3311823  44.8016990  19.0902008  47.9102700  50.5434059
  18.2247527  47.8988390  50.4316831  19.1900824  47.7232923  51.3905199
  18.9776175  47.8808761  50.6523004  35.0804938  49.3836381  55.3566819
  35.5060009  48.8610803  54.8037245  34.7161858  49.9817218  54.8355442
  35.0891540  49.3946608  55.1975829  24.7159018  57.6800599  54.1164165
  25.0305577  58.4936987  54.1241947  25.1252431  57.2950817  54.7846324
  24.8227116  57.7429301  54.2168257  31.6683537  53.0970645  51.6867977
  32.1394715  53.8110908  51.8557962  32.0043716  52.4969395  52.2227846
  31.7878652  53.1142110  51.7900353  33.7560522  54.7071959  63.8660049
  33.8657487  53.9180519  64.2216796  34.0851418  54.6177895  63.0634387
  33.8212928  54.5777812  63.8002440  28.5853032  37.8698116  58.6426072
  28.7180938  37.0729109  58.9707047  28.9698185  38.3964519  59.2224347
  28.6609361  37.8298033  58.7769575  32.3057484  52.8888579  58.4495670
  31.7578430  52.2646463  58.1815735  32.7670512  53.0782851  57.7339749
  32.2924693  52.8247630  58.3046101  35.1151348  40.9573934  55.8346862
  34.5314337  41.4583140  55.4224429  35.4355642  40.4503490  55.2011185
  35.0764523  40.9565769  55.6805369  26.2441479  37.8657291  56.8903965
  26.7885892  37.5248418  57.4808307  26.2978415  38.7242753  57.0325250
  26.3330598  37.9412550  56.9985839  22.0572038  51.6273707  53.7642773
  22.6616895  51.5869541  53.1356594  21.8499350  52.4744859  53.7946829
  22.1160935  51.7461710  53.6758890  31.8715810  53.8939652  54.9805011
  32.6914184  53.7502618  55.2421306  31.5909887  54.5185851  55.5221449
  31.9512553  53.9650004  55.0992950  17.2923320  50.6108325  53.6341697
  17.1947598  49.8004596  53.9431753  18.0752190  50.5900118  53.2487965
  17.3939456  50.4875415  53.6228559  48.3429460  61.5504504  47.9447887
  48.3123465  62.4049141  48.1166157  48.9410809  61.2499796  48.5034031
  48.4266618  61.6321000  48.0522689  41.5429145  60.6380155  52.7000818
  40.6867041  60.7988653  52.7509934  41.5896799  59.7672219  52.7205879
  41.4228257  60.5330957  52.7106884  35.9270285  70.1742873  48.4638049
  35.1753184  69.7958411  48.2354094  36.3756296  70.2061306  47.7156859
  35.8819952  70.1228480  48.3195551  44.8522862  66.9066681  62.3061274
  45.5589629  66.4118711  62.4348208  45.0410797  67.3475762  61.5763932
  44.9850767  66.8985031  62.2170319  41.3795245  70.5968242  43.8923596
  41.0446613  71.2745164  43.4567818  41.8922115  70.2073554  43.3040468
  41.4060826  70.6392820  43.7410388  40.9199536  72.5482511  49.8334708
  41.3038915  73.1169410  49.2939483  40.8558677  71.8232021  49.3540524
  40.9672963  72.5257974  49.6828570  44.3880966  62.6972199  55.3432469
  44.9336926  63.3757285  55.4026439  44.3297842  62.5559660  54.4834051
  44.4596880  62.7764200  55.2244530  37.5055041  70.1861265  50.7300822
  37.6065404  69.3761619  51.0397949  36.9096786  70.0918211  50.1000500
  37.4327580  70.0526293  50.6827060  46.1646035  64.1256806  46.2166197
  46.0485561  64.8764492  46.6458335  46.9601921  63.8680759  46.4662284
  46.2650624  64.1991653  46.3170289  37.3455781  75.1038854  52.1315678
  37.9893236  75.5452018  52.5211836  37.6712036  74.2992280  52.0445936
  37.4887609  75.0504049  52.1761155  30.7020085  66.2081551  50.3553155
  30.4670270  65.3749204  50.2485424  30.8405726  66.4886217  49.5414356
  30.6875748  66.1265055  50.2195510  33.0010173  58.3767282  53.2537463
  32.3815204  57.7859929  53.0847478  32.8994036  58.9678717  52.6201786
  32.8947848  58.3771365  53.1342453  38.0476360  68.1150829  47.5035539
  38.3692201  68.6556036  46.8996847  38.6948457  67.5447600  47.6357829
  38.1902415  68.1110004  47.4342575  40.0978068  60.1166824  47.5869926
  40.7958233  60.2954951  48.0791389  40.4130401  59.5937163  46.9640315
  40.2473406  60.0660596  47.5671936  32.7279306  61.9219564  55.4981032
  32.6038003  62.5082009  56.1330851  33.3797590  61.4279759  55.7993307
  32.8052955  61.9358368  55.6366961  40.2866004  66.5037269  47.5749718
  40.7259639  65.8954369  48.0204490  40.1370667  66.1244642  46.8035183
  40.3287469  66.3575740  47.5268885  37.7537647  65.0981281  54.7768543
  38.3986649  64.6053724  54.4579492  37.9939424  65.2406067  55.6034621
  37.8848232  65.0458723  54.8518076  40.2923738  67.9436187  54.4275436
  40.5746981  67.1487592  54.2062191  41.0209898  68.4216774  54.4480497
  40.4413302  67.8970783  54.3978451  38.2704932  55.4859221  51.6691201
  37.9408262  55.9370364  50.9994899  37.5949934  55.4075384  52.2164207
  38.1215368  55.5410356  51.6514424  43.8875340  64.8564450  44.5280487
  43.8026635  65.7125417  44.6730056  44.3759723  64.5808774  45.1962646
  43.9464238  64.9421772  44.6482568  44.8193773  61.4749244  46.0278222
  44.2905245  61.6908878  46.6875528  45.3418793  62.1685383  45.9479191
  44.8182226  61.6092381  46.1133821  50.2741826  67.0495549  51.4011266
  49.4439530  67.2606192  51.5644683  50.2251079  66.2232603  51.1253550
  50.1448562  66.9585155  51.3848632  36.7093381  65.3712461  44.8285690
  36.1250597  65.8762493  45.2351554  36.3063476  65.1454848  44.0882282
  36.5632685  65.4120709  44.7790715  32.2637410  71.0867222  51.6309361
  31.7804988  71.8117712  51.6068945  33.0760728  71.3843352  51.7419519
  32.3128158  71.2369576  51.6436641  38.3351564  69.8799403  54.2359176
  37.8178506  69.5206818  53.6320484  39.0325955  69.3561577  54.2465242
  38.3617145  69.7497091  54.1489435  41.9915156  70.3294217  60.1975349
  42.0798502  70.1420357  61.0453559  42.4204868  69.6831647  59.7980196
  42.0677258  70.2057225  60.2647100  39.5585616  69.6125377  59.1793011
  38.9956451  69.1997987  59.7032672  40.3206639  69.5378283  59.5986154
  39.5880064  69.5402778  59.3186011  41.1670596  61.6178113  43.3054610
  41.4066599  61.8256097  42.4929954  41.4886437  60.8135622  43.4143555
  41.2507754  61.5292214  43.2015164  36.4760886  53.5471509  47.1514148
  37.2306854  53.9149826  46.9131199  36.2988421  53.9211063  47.9193328
  36.5615364  53.6569697  47.2299037  35.1181607  71.6023398  51.7829641
  35.8202186  71.0875387  51.8402398  35.0379090  71.9297550  52.5876516
  35.2105368  71.5737624  51.9102433  49.7695785  59.6965949  55.1961688
  48.9324206  59.7668137  55.4309282  49.7384016  59.6990444  54.3235990
  49.6414067  59.7076176  55.1021236  36.1660514  61.8398985  60.9110056
  36.3381017  61.7304880  61.7595338  36.7029871  62.4853391  60.6741249
  36.2705518  61.9190987  61.0015153  34.8317951  55.9541828  43.8492261
  34.6493524  56.1713709  43.0233254  35.6943564  56.0680841  43.9050876
  34.9322540  56.0031726  43.7346748  34.4432383  67.7929750  51.2915249
  35.2821282  68.0252683  51.3389011  34.4744152  66.9234062  51.2222285
  34.5714100  67.6986697  51.2879894  35.0685086  68.2130625  55.5928555
  35.6083311  68.0701756  56.2631927  34.3855032  68.6127376  55.9612581
  35.0477239  68.2510296  55.7462977  44.4925970  63.8921626  50.7873579
  45.2483486  64.3253140  50.8262488  44.5988295  63.2426396  51.3608215
  44.6196141  63.8599110  50.8771605  47.5306142  67.7194903  51.5375982
  47.0941373  67.7231646  52.2934954  47.1969057  68.4000402  51.1055560
  47.4168762  67.8207359  51.5856815  42.1035215  69.7603236  62.8619133
  42.8875632  69.8734084  63.2274875  41.9031810  68.9344373  63.0577818
  42.1901241  69.6549955  62.9453519  30.4722231  64.4330916  55.7462976
  30.2060646  63.6170033  55.9053967  30.4860795  64.4784072  54.8758492
  30.4346953  64.3187821  55.6416458  47.4503625  54.7608731  53.7805410
  48.0929533  54.8306836  54.3667325  47.7026645  54.0937954  53.2784952
  47.5825757  54.6735080  53.7932689  34.3779978  59.2316001  42.3614734
  33.6638155  58.9454180  42.7737167  34.8623946  59.5712626  43.0021122
  34.3439341  59.2397650  42.5170369  35.2220837  57.9709294  58.3929984
  34.5292634  57.5006274  58.6390716  35.8381164  57.7447599  58.9671691
  35.2105367  57.8676426  58.5139137  42.2605609  71.6713338  56.5085588
  41.4620854  71.4312838  56.7659457  42.7091620  71.7227731  57.2552636
  42.2080220  71.6435729  56.6570512  50.6650488  64.4375823  50.4295619
  51.3266922  63.8766492  50.3291528  50.0241900  63.9427854  50.7548311
  50.6679355  64.2812232  50.4627960  41.5527296  67.7345955  42.7376543
  41.9678444  67.4030978  42.0461038  40.7219225  67.5014857  42.6096679
  41.4915304  67.6517210  42.6167390  30.8815644  65.2189696  53.0274721
  30.6991218  65.1936582  52.1747013  31.6165313  65.6888633  53.0663629
  30.9629708  65.2851058  52.9072639  46.9515319  65.4541206  50.1707608
  47.1870908  65.5986404  49.3434459  47.1004882  66.2183614  50.5639122
  47.0081122  65.5880260  50.1071212  48.7805775  64.2942871  48.0077212
  49.1113992  64.8270512  47.4017307  49.3538863  64.3481759  48.6639163
  48.9139454  64.3812440  48.0154994  41.3206345  65.4173783  64.4005776
  40.5279326  65.7317295  64.5858396  41.4355273  65.6325251  63.5626561
  41.2201756  65.4957620  64.3044111  43.9937664  62.1407774  48.6900792
  44.0884519  62.8797068  49.1440418  43.3696508  61.7125250  49.1235357
  43.9146694  62.1869095  48.8208940  42.2490138  65.3193987  59.3391073
  42.8229000  64.6821231  59.4939637  42.1704942  65.3198069  58.4700731
  42.3223373  65.2259098  59.2337484  30.8486555  62.0983196  53.1773787
  31.4260057  61.9619647  53.8166033  30.1500616  61.6418980  53.4319372
  30.8307576  62.0105462  53.3096077  44.2460686  63.9856514  41.9237744
  44.1640848  64.0558701  42.7892731  44.8840406  64.5486258  41.7321485
  44.3280523  64.0795485  42.0227694  37.6053857  63.7517252  51.3912270
  37.3473101  62.9188987  51.3643570  37.6602340  63.9774865  50.5504771
  37.5753635  63.6615023  51.2632407  36.5788569  61.3055014  51.8777165
  36.0038160  61.4647183  52.5141126  36.2024245  60.6690423  51.4145616
  36.4391381  61.2352827  51.9031724  40.2461858  59.7778364  56.7369544
  39.8576290  59.3532581  56.0821735  39.5816556  60.0260513  57.2446570
  40.0908785  59.7517085  56.7157412  49.8885127  59.5353368  49.5117374
  49.6321692  58.7233310  49.3215256  50.7314441  59.5430935  49.2847561
  49.9751152  59.4165366  49.4502191  26.3245388  60.9495089  49.8921606
  26.4105640  60.5726957  50.6735136  26.9521185  60.5755535  49.4141564
  26.4301939  60.8380571  49.9367083  44.0688219  53.4752992  54.2493528
  44.4498731  52.7931163  54.6361402  43.2651503  53.1862594  54.0669192
  44.0064681  53.3320041  54.2797584  41.3500796  64.0076968  44.9346351
  42.1641435  64.2991861  44.8229122  41.2859937  63.3536831  44.3604644
  41.4603535  63.9542163  44.8335188  47.5710286  66.6902964  59.3475926
  47.3348923  65.8591029  59.2287987  48.2153515  66.6388572  59.9330770
  47.6304957  66.5600652  59.4161820  37.2208704  67.4798486  50.0618663
  37.8582651  67.2410233  50.6070456  37.6463776  67.6835645  49.3271823
  37.3784870  67.4749496  50.0335820  31.9121347  69.7186822  53.9452966
  31.9525492  69.9901673  53.1172746  32.4715871  70.2428730  54.3610754
  32.0004692  69.8362577  53.8844855  37.8611519  62.7000775  44.3993552
  38.2456672  62.4808482  45.1510097  37.6123140  63.5263721  44.5294628
  37.8813592  62.7898922  44.5294628  38.0280060  55.9807191  64.1156136
  37.7133501  56.7506753  63.8525699  37.7069992  55.4177447  63.5308363
  37.9338979  56.0117459  63.9897486  48.5946707  66.4747413  55.4104221
  48.2892524  67.2075470  55.7717536  47.8752922  66.0685343  55.1297007
  48.4434049  66.5229146  55.4217358  39.6030176  67.9570908  51.7412449
  39.6769184  67.7946080  52.5954299  40.4199682  68.1461098  51.4972931
  39.7346535  67.9607651  51.8310475  54.2948499  63.1140414  54.7372565
  54.2272999  63.1336373  53.8675152  54.2804161  63.9570741  54.9628236
  54.2827255  63.2414148  54.6425042  33.3635933  68.3028771  48.7706892
  32.5374050  68.5490508  48.6441171  33.4247924  68.2240852  49.6368951
  33.2510100  68.3273720  48.8795837  35.5811957  54.3697712  49.7302333
  34.7134382  54.4420312  49.7959942  35.8687161  55.1719791  49.9190308
  35.4951705  54.4991859  49.7677099  44.7044845  54.5175572  58.0613654
  45.4498437  54.3285382  57.6477080  44.2882150  55.0433809  57.5027511
  44.7529820  54.5677717  57.9178228  38.1434762  70.9205651  46.4725922
  38.4333060  70.5294633  45.7485149  38.8738243  71.1022356  46.9131198
  38.2941646  70.8899465  46.4308729  52.0807116  61.8884800  53.0119159
  52.6315038  61.2552869  53.2516251  52.0651232  62.4200193  53.7034664
  52.1592313  61.8733748  53.1498018  38.7329507  65.7223397  57.5579053
  38.2341201  66.4339165  57.6363941  39.5429731  66.0424064  57.5197215
  38.7785614  65.8750246  57.5635621  36.0840677  72.8973034  49.5386072
  35.8640973  72.6070388  50.3312739  35.8635199  72.2387989  49.0103984
  36.0188272  72.7572742  49.5774981  34.9957625  64.9846350  51.8041774
  34.7070873  64.3583822  52.3387501  35.8640973  64.9266638  51.8706454
  35.0817877  64.8833895  51.8932728  45.7835522  60.1281134  52.1223756
  45.4400288  59.4071469  52.4731005  45.8828565  59.9194985  51.2802114
  45.7477565  59.9905337  52.0495436  38.2508633  74.2702424  48.3216764
  38.9032691  73.7378866  48.5507791  37.5534242  73.9171076  48.7084638
  38.2439351  74.1391947  48.4128932  35.1989898  66.6241601  47.7284139
  35.9535866  67.0054640  47.9419601  34.6060511  67.0752745  48.1830835
  35.2226612  66.7470429  47.8267017  46.2448551  66.5906838  47.6647744
  46.8106584  67.2500048  47.5806287  45.5976455  66.9356536  48.1364146
  46.2327308  66.7388779  47.7220500  37.6596565  58.5804442  62.8541351
  36.8496341  58.8862221  62.7431193  38.1371252  59.3010024  62.9693935
  37.6100044  58.7319043  62.8548422  36.5188125  67.7950163  53.1024254
  35.9968878  67.9350454  53.7876119  36.9062145  67.0360827  53.2926372
  36.4991825  67.7035687  53.2325331  33.5079309  57.8455971  47.1719209
  33.2204104  57.4757242  46.4351156  34.1949777  58.3150827  46.9102914
  33.5668206  57.8602941  47.0234285  42.7155130  69.5345622  47.0884823
  42.4741805  68.8013483  46.6811888  42.8956462  70.0832479  46.4351156
  42.7062754  69.5068013  46.9315046  37.9454450  64.8254182  48.5005745
  37.7497233  65.4328916  47.9066048  38.1688796  64.1322126  48.0197419
  37.9489091  64.8131707  48.3421826  36.3432980  61.7108920  48.6186614
  37.0655632  61.8750078  48.1590420  35.8640973  62.4318584  48.5125953
  36.3796711  61.8407149  48.5352228  44.3026488  58.0472718  53.9983298
  43.4637588  58.0733997  53.7621562  44.3730855  58.6943454  54.5788645
  44.1894881  58.1468844  54.0492415  33.9940597  64.1166992  57.7240753
  34.5061694  64.3951245  57.0749513  33.7076940  64.8556286  58.0903566
  34.0275460  64.2669346  57.6830631  48.1784012  63.2540705  51.2844540
  48.0917986  63.4096131  52.1379319  47.7234492  63.8978781  50.9103945
  48.0987268  63.3716460  51.3551647  31.0807503  58.6237184  48.0204490
  31.1823640  59.4263345  48.3485465  31.8763390  58.4224520  47.7227570
  31.2135409  58.7123083  48.0239845  37.5124322  56.2093381  57.7841795
  37.3207519  56.2248515  58.6341219  38.3622918  56.4057055  57.7608450
  37.6100044  56.2407732  57.9065090  31.8971235  58.7384362  55.7625611
  31.7556727  57.8868303  55.8870119  32.1811799  58.7813023  54.9387817
  31.9179081  58.6184112  55.6593236  42.0509828  60.5751452  49.9070100
  41.8044542  60.4947203  50.7406889  42.3794951  59.7904920  49.7132627
  42.0631071  60.4477718  50.0017623  45.9457876  67.2834812  53.6956881
  45.8072236  67.9815857  54.2005623  45.1657874  67.1283468  53.3393063
  45.8101103  67.3634978  53.7183155  44.2835962  63.5831187  59.9479263
  44.2784000  62.7111004  59.9521689  44.9896955  63.7819356  59.4748718
  44.3880966  63.4835061  59.8786298  38.0106855  63.3108171  59.3193083
  38.1550231  63.8909379  58.6836193  38.3582504  63.6884468  60.0242937
  38.0834316  63.4528875  59.3292078  40.1826772  62.5098339  57.1018214
  39.4350086  62.7029354  56.6966492  40.3368298  61.6843559  56.8642336
  40.0949200  62.4163451  57.0063620  37.0834610  71.5010943  56.1854110
  37.2324174  70.9413859  55.5327514  37.8634612  71.5802944  56.5686628
  37.2208704  71.4296508  56.1451059  47.4411249  66.6413065  44.4573380
  47.0618058  65.8550203  44.4502670  46.7777495  67.1899922  44.3145024
  47.2869724  66.6057889  44.4354177  39.6087911  71.6725586  57.4638600
  39.5331582  71.0034396  58.0189389  39.5377770  72.3743374  57.9779267
  39.5868517  71.6770493  57.6215449  40.4228549  56.4048890  57.9913618
  40.8801163  57.1372864  58.1186410  40.4984878  55.9815355  58.7500874
  40.5019519  56.4506128  58.1214695  32.6661541  56.6514710  59.0803062
  32.1303730  56.0395068  59.3963829  32.7279305  57.2262846  59.7336728
  32.5957173  56.6461637  59.2238489  40.2658158  70.1926584  48.2962206
  41.0308049  69.9236228  47.9744871  40.1636247  69.7076595  49.0132269
  40.3639653  70.0816149  48.3542034  38.3010927  58.3950994  54.8355442
  37.5107002  58.2142454  55.1572778  38.6971550  57.6177946  54.8185737
  38.2427803  58.2538455  54.8807991  42.7876818  67.2238768  40.2762156
  43.5549803  67.2838893  39.8668008  42.3408127  66.6519210  39.7918474
  42.8350245  67.1475344  40.1439866  43.6854614  66.0293424  52.5614888
  43.0099615  65.7978656  53.0628275  43.6946990  65.4214607  51.9356993
  43.5873118  65.9052349  52.5431040  40.8148758  60.8711253  59.3178941
  40.7507899  61.7321209  59.1899078  40.9545945  60.5543246  58.5174492
  40.8264228  60.9511420  59.1807154  45.6871348  68.8858556  44.7925066
  45.7691186  69.6925543  44.4686517  46.1721090  68.9054516  45.5165840
  45.7708506  69.0079219  44.8511965  39.4967851  63.5643392  53.4595144
  39.0730101  63.7647891  52.7234162  39.3212707  62.7172240  53.5719444
  39.4078732  63.4692174  53.3668834  38.9979545  75.0793905  55.9216601
  39.4875475  74.3804695  55.7392266  38.4263777  74.7817775  56.5092659
  38.9864075  74.9320129  55.9817642  34.7850296  64.0595444  48.8923117
  34.9414916  63.9942247  49.7479109  35.1250890  64.8343996  48.6801796
  34.8583531  64.1644642  48.9877711  41.3229441  63.4353327  47.7616480
  41.8644986  62.9323708  48.2255100  41.6376000  63.3818522  46.9505965
  41.4493838  63.3532748  47.7100292  45.1946548  67.6455975  64.8743392
  46.0081414  67.3741124  65.0348524  45.0341515  67.3463515  64.0703588
  45.2916497  67.5610901  64.7788798  39.4915891  68.8270679  45.0456508
  39.5608711  67.9685217  45.1849508  40.2704346  69.0442560  44.7175532
  39.6168741  68.7323543  45.0173665  42.4718710  58.3289632  57.8138780
  42.6860680  57.6900546  57.2602134  41.8552610  58.7735456  57.3846642
  42.4124040  58.2999776  57.6689211  43.8823378  71.2508380  49.2593001
  43.4903170  70.9475095  48.5415867  44.0376451  72.0877470  49.0697955
  43.8476968  71.3292217  49.1249498  31.3584558  61.2430394  49.2083884
  31.7383523  61.6614939  48.5444151  30.7839923  61.8243850  49.5152727
  31.3295883  61.3908253  49.1560625  44.6357798  59.9378697  58.7522087
  43.8234480  59.6304587  58.8335260  45.0947733  59.4577697  59.3164799
  44.5838183  59.8215189  58.8476681  44.0463053  67.8158369  49.1999032
  43.6877708  67.9873012  49.9763064  43.5601764  68.2771575  48.6427030
  43.9221750  67.9097340  49.2324301  38.8351418  63.4957534  41.7399266
  39.1243943  64.2722417  42.0142840  38.9223217  62.9846266  42.4413765
  38.8905675  63.5349453  41.8841764  41.7311306  61.3438769  63.5350790
  42.2010937  61.9680885  63.9218664  41.7773186  60.6755744  64.0944004
  41.8079182  61.3373449  63.6750861  40.9574813  53.9888756  56.0892446
  40.5706566  54.0137788  56.8705976  40.4707750  53.4230435  55.6366963
  40.8287322  53.9084507  56.1380350  45.2067792  68.7062265  60.1466232
  45.8447513  68.2122461  59.8128689  44.5641884  68.6339665  59.5618459
  45.2062019  68.6221274  60.0108587  46.9324793  60.5551411  54.7132148
  46.5052401  60.4677760  53.9580248  46.2950845  60.6629186  55.2986992
  46.7754400  60.5584071  54.6877590  40.6231955  50.8755742  58.3802706
  41.2525073  51.4116042  58.1023776  40.7917817  50.7833100  59.2316272
  40.7409749  50.9417104  58.4651234  40.4245870  55.6626936  60.6529117
  41.2519299  55.3912085  60.7087732  40.4453716  56.4587778  61.0092936
  40.5498720  55.7406690  60.7144300  45.2622049  69.3982073  56.7871589
  46.0514427  69.0471138  56.9073671  45.4365647  70.2118462  56.5248223
  45.4042331  69.4667930  56.7659457  35.0015359  62.8090799  53.8399378
  34.1603366  62.7094673  54.0478272  35.2105367  63.5786279  54.1913699
  34.9080052  62.9082842  53.9226693  32.4790926  60.4310336  51.6684129
  32.0847624  60.5053348  50.8934238  31.9231043  60.8168282  52.2192491
  32.3393739  60.4992111  51.6351789  38.8132024  60.7372198  53.0896976
  38.5095162  60.1828186  53.6907383  38.1111445  60.9164408  52.6025010
  38.6648234  60.6816981  53.1066681  37.8698121  58.0472718  47.6541677
  38.1457856  57.3291631  47.2419245  38.4696791  58.6457638  47.4462784
  37.9991386  58.0293089  47.5622439  36.8750375  67.9521919  57.7969073
  36.7670730  67.9623981  58.6631131  37.0846157  68.7776699  57.6074027
  36.8900486  68.0762994  57.8973165  41.3708642  55.7186235  45.9288272
  41.8252388  55.8896796  46.6536117  41.8448688  55.1054346  45.5286048
  41.5076962  55.6537121  45.9762034  34.8924167  65.2034561  55.2591011
  34.3012101  65.8444060  55.2294026  35.6545191  65.6272179  55.2322310
  34.9172428  65.3610400  55.2506158  35.2884790  56.3636559  55.9259029
  35.7486272  56.4375489  56.6634152  35.3340897  57.1617813  55.5758850
  35.3635345  56.4930706  55.9831785  36.9368140  57.0303254  60.4931056
  36.5453705  56.3836601  60.9286833  37.1054003  57.6214689  61.1125311
  36.9039050  57.0217522  60.6493762  51.0114589  65.0340331  56.2568289
  51.0697713  65.4826980  57.0028266  50.3781056  65.4439144  55.8198369
  50.9265884  65.1614066  56.3020838  44.6513684  70.6543873  52.6923035
  44.4533372  71.1434687  51.9979247  44.0301395  70.8585114  53.2707169
  44.5301248  70.7560411  52.6746259  38.7121662  62.4228770  47.0333280
  39.4563707  62.8103046  47.2716230  38.8582358  61.5786195  47.1973768
  38.8432247  62.3559243  47.0927249  41.6999538  57.9954243  52.9327199
  41.2259492  57.4696005  53.4432510  42.0717674  57.4483716  52.3642061
  41.6849427  57.8370240  52.9242346  32.0772568  59.9925750  58.3010745
  32.9398181  59.8921459  58.2148075  31.7464351  59.4120459  57.7396317
  32.1557764  59.8917376  58.2056151  47.9636268  63.0556619  54.3433980
  47.7234491  62.2163034  54.3476406  48.4428276  63.1356785  55.0674753
  47.9988452  62.9438018  54.4508782  43.6283037  58.8890798  45.9952953
  43.1006056  58.9719542  45.3058662  44.0878746  59.6308669  45.9917598
  43.6184888  59.0111460  45.8927648  49.9641455  59.8358076  52.2963239
  49.7251225  59.7953910  51.4584023  50.1275357  60.6829228  52.4228960
  49.9531759  59.9550161  52.1916721  46.5687485  64.2208025  58.2268284
  47.2921684  63.7680552  58.0479304  46.3037448  64.5012691  57.4440612
  46.6368759  64.1958994  58.0846999  35.4374354  58.8168199  54.9621163
  34.8127424  58.8286591  54.3547116  35.1019949  59.2928374  55.6112403
  35.2959846  58.8886716  54.9677732  35.6216103  57.1593317  41.0193848
  35.2728907  57.8113042  41.4825397  35.1412548  57.1450430  40.2917719
  35.4986346  57.2536371  40.9804939  32.1500029  66.8768659  56.4024927
  31.6199954  66.1861098  56.4519902  32.4225123  66.8678844  55.5737636
  32.1124752  66.7735791  56.2872343  43.1820120  67.4594361  45.1262610
  43.9054319  67.9252474  44.9827183  42.7420711  67.5267971  44.3760207
  43.2235812  67.5378198  44.9947391  42.3506275  64.3191903  56.3763299
  41.7363268  63.7749954  56.6711934  42.8673560  63.8056140  55.8969115
  42.3361937  64.1628313  56.3487527  41.5902572  65.3896173  54.1107598
  41.1630180  64.7645892  53.6773033  41.5827517  65.1071095  54.9366605
  41.5261713  65.2548954  54.1687425  34.7065099  60.4261347  57.1796032
  34.8658586  59.6704671  57.5847753  34.5257993  60.9752286  57.8336769
  34.7030458  60.3955160  57.3358737  42.6485402  52.5922582  57.7346821
  42.1525963  52.7886256  57.0438388  43.4054464  52.9915250  57.5635623
  42.6872227  52.6800316  57.6066958  39.9188282  56.2664928  54.3250132
  39.9430769  55.7325040  53.6362912  40.1699755  55.7582237  54.9875722
  39.9598201  56.1125832  54.3214776  27.4295872  63.5496423  53.7593276
  27.3239321  63.5043267  52.8945360  26.6796092  63.8950204  54.0407560
  27.3031475  63.5937331  53.6730605  36.1989604  54.9935746  53.7055876
  36.2387976  55.4944953  54.4190583  35.3739269  55.0846140  53.4361799
  36.0829130  55.0817563  53.7706414  38.3819217  64.5596486  61.8076170
  37.5314847  64.6968201  61.9433815  38.5447345  63.8260264  62.2523872
  38.2803080  64.4710587  61.8931770  37.6203967  61.5096256  56.0029775
  36.7895897  61.6770074  55.7965023  37.5655485  61.1332207  56.7878660
  37.4893382  61.4785987  56.0878303  35.4287751  55.0005149  61.6386186
  36.0540454  54.4567282  61.9115618  34.9738231  54.5200067  61.0693976
  35.4536011  54.8494630  61.5947779  35.9940011  59.7851848  46.5319893
  36.1342972  60.2824312  47.2348534  36.4922544  59.0838142  46.6734106
  36.0881092  59.7553826  46.6571472  36.0240234  60.6518959  43.8612469
  36.6585313  61.2479384  43.7961931  36.1065844  60.3522416  44.6758340
  36.1296785  60.6959867  43.9715556  49.0022799  63.1834436  56.7298834
  49.5940640  63.8231687  56.7617032  49.4381794  62.4857473  57.0190900
  49.1541231  63.1752786  56.7779666  37.6019217  56.5832934  43.8357911
  37.9235058  56.1036017  43.1817174  37.8646160  57.3932580  43.6448723
  37.6885242  56.6322832  43.7113403  40.8316189  67.6051808  57.3556727
  40.3241280  68.1587655  57.7997358  40.5342835  67.6660098  56.5375502
  40.7121074  67.6958120  57.3005184  42.9978372  55.9705128  56.1981390
  43.4233443  55.5177654  55.5864917  42.3835365  55.4165199  56.4746178
  42.9707017  55.8219104  56.1486416  32.5293222  62.8486799  47.1302015
  33.0385451  63.4451307  47.5113321  33.0027494  62.5812773  46.4478435
  32.6736597  62.8972615  47.0856538  43.4423970  71.5215066  45.2860671
  42.7253279  71.3475928  44.8207908  44.0930707  71.2867638  44.7536157
  43.4325820  71.4610859  45.1389889  46.0271941  60.3979655  49.0301976
  45.3563131  60.9409357  48.9015042  46.7211691  60.8674510  48.7883671
  46.0300808  60.5477926  48.9757504  40.0758675  72.5376367  54.2613734
  39.8524329  71.7795196  54.6297761  39.5868518  72.5674388  53.5394174
  39.9702124  72.4298591  54.2090475  46.1900068  56.8535538  51.9392349
  46.5427678  56.4265261  52.6138148  45.3314870  56.7686382  52.0693426
  46.1149513  56.7780279  52.0587360  34.8883753  59.4843058  49.9975196
  34.1695742  59.9007191  50.2648059  35.2596116  60.0497297  49.4466834
  34.8375685  59.6292339  49.9558003  44.1883334  60.1170907  55.8877192
  44.1681261  59.9354202  56.7411970  44.2362535  60.9882925  55.8636775
  44.1917975  60.2187445  56.0100486  42.1329664  66.7058099  61.8125668
  42.0925519  66.0607776  61.2270824  42.9452982  66.6494716  62.1251080
  42.2472817  66.6017066  61.7722617  38.7237132  72.7576825  51.7150819
  38.3097530  72.0950955  51.3254661  39.4084506  72.9054684  51.1946513
  38.7635503  72.6817483  51.5807316  42.0902426  71.9166910  52.4674436
  41.6918709  72.0269180  51.6995256  41.4753645  72.1248976  53.0500995
  41.9401315  71.9640478  52.4405735  40.6630328  58.5241058  45.3348575
  40.0695167  58.8458054  44.7833142  40.7005605  57.6782153  45.1269681
  40.5804717  58.4465386  45.2231347  43.5388144  58.4820562  48.7650326
  43.3101837  58.5053264  47.9228684  43.7986220  57.6578029  48.8845336
  43.5434332  58.3636642  48.6575523  37.8207373  60.3355035  58.3675426
  37.3086276  59.7276218  58.7260457  37.6486869  61.0511628  58.8349401
  37.7197010  60.3518335  58.4891649  32.6673087  58.7792611  61.0177788
  32.4975678  59.4393986  60.4725994  32.2239037  58.9899172  61.7390277
  32.5772421  58.9078593  61.0439417  36.5932907  57.0197109  50.0604521
  37.0690273  57.3814189  49.4254702  36.0921506  57.6753576  50.3404664
  36.5898266  57.1691297  50.0081262  49.8244268  66.4918877  45.8517526
  50.2077874  67.2410233  46.0815623  49.0288382  66.7384696  45.5929515
  49.7638051  66.6388571  45.8475100  41.6976443  58.2579280  60.8077681
  42.2547873  58.0293090  60.1756147  41.3737508  59.0184946  60.5312894
  41.7322853  58.3363117  60.6734178  29.5675152  61.6839476  56.2766277
  29.0201871  61.0140122  56.3947146  30.3567530  61.3169324  56.3409745
  29.6027336  61.5304463  56.3034978  39.4159560  61.3446933  61.7729688
  40.1670887  61.6598610  62.0869243  39.6082137  61.1426104  60.9463610
  39.5550974  61.3614315  61.6973084  38.6359560  59.1638308  43.4277905
  39.0158525  59.1817938  42.6429020  37.8952156  59.6092297  43.3068752
  38.5828398  59.2320083  43.2941473  46.2644850  57.4720500  49.0153484
  46.2639077  57.3169156  49.8737760  46.0601030  58.3183487  48.9594869
  46.2344628  57.5741120  49.1341423  28.3262121  60.8960284  53.4312300
  28.1483882  60.4436893  54.1567216  28.0381144  61.6986446  53.6150778
  28.2575075  60.9482842  53.5655803  43.9885702  62.1518001  52.6689691
  44.4839368  61.4340997  52.6293711  43.1785478  61.8488799  52.5544178
  43.9429596  62.0015648  52.6463417  39.4344314  66.0015815  44.8186695
  38.6255637  65.6782488  44.7720005  39.9419223  65.2949037  44.7514944
  39.3893981  65.8497131  44.8016990  30.0634591  63.4288008  50.5434059
  29.1980111  63.4173698  50.4316831  30.1633407  63.2418231  51.3905199
  29.9508758  63.3994069  50.6523004  46.0537521  64.9021689  55.3566819
  46.4792593  64.3796111  54.8037245  45.6894441  65.5002526  54.8355442
  46.0624124  64.9131916  55.1975829  35.6891601  73.1985906  54.1164165
  36.0038160  74.0122295  54.1241947  36.0985014  72.8136125  54.7846324
  35.7959699  73.2614609  54.2168257  42.6416121  68.6155953  51.6867977
  43.1127299  69.3296216  51.8557962  42.9776299  68.0154703  52.2227846
  42.7611236  68.6327418  51.7900353  44.7293105  70.2257267  63.8660049
  44.8390071  69.4365827  64.2216796  45.0584002  70.1363203  63.0634387
  44.7945511  70.0963120  63.8002440  39.5585616  53.3883424  58.6426072
  39.6913521  52.5914417  58.9707047  39.9430768  53.9149827  59.2224347
  39.6341945  53.3483341  58.7769575  43.2790067  68.4073887  58.4495670
  42.7311013  67.7831771  58.1815735  43.7403096  68.5968159  57.7339749
  43.2657277  68.3432938  58.3046101  46.0883931  56.4759242  55.8346862
  45.5046920  56.9768448  55.4224429  46.4088226  55.9688798  55.2011185
  46.0497107  56.4751077  55.6805369  38.6278731  55.3899837  46.1105537
  39.4494425  55.5598150  45.8687232  38.1648382  55.5447098  45.3871834
  38.6809893  55.4381570  45.9677181  37.2174062  53.3842599  56.8903965
  37.7618475  53.0433726  57.4808307  37.2710998  54.2428060  57.0325250
  37.3063182  53.4597858  56.9985839  33.0304621  67.1459015  53.7642773
  33.6349479  67.1054849  53.1356594  32.8231934  67.9930167  53.7946829
  33.0893519  67.2647017  53.6758890  42.8448393  69.4124960  54.9805011
  43.6646767  69.2687926  55.2421306  42.5642471  70.0371159  55.5221449
  42.9245137  69.4835312  55.0992950  28.2655904  66.1293632  53.6341697
  28.1680182  65.3189904  53.9431753  29.0484773  66.1085426  53.2487965
  28.3672040  66.0060723  53.6228559  59.3162044  77.0689812  47.9447887
  59.2856048  77.9234448  48.1166157  59.9143393  76.7685104  48.5034031
  59.3999202  77.1506308  48.0522689  52.5161729  76.1565463  52.7000818
  51.6599624  76.3173961  52.7509934  52.5629382  75.2857527  52.7205879
  52.3960840  76.0516265  52.7106884  55.3613550  78.2157507  55.3432469
  55.9069510  78.8942593  55.4026439  55.3030426  78.0744968  54.4834051
  55.4329464  78.2949508  55.2244530  57.1378618  79.6442114  46.2166197
  57.0218144  80.3949800  46.6458335  57.9334505  79.3866067  46.4662284
  57.2383208  79.7176961  46.3170289  43.9742756  73.8952590  53.2537463
  43.3547788  73.3045237  53.0847478  43.8726620  74.4864025  52.6201786
  43.8680432  73.8956672  53.1342453  49.0208944  83.6336137  47.5035539
  49.3424785  84.1741344  46.8996847  49.6681040  83.0632908  47.6357829
  49.1634999  83.6295312  47.4342575  51.0710652  75.6352132  47.5869926
  51.7690817  75.8140259  48.0791389  51.3862984  75.1122471  46.9640315
  51.2205989  75.5845904  47.5671936  43.7011889  77.4404872  55.4981032
  43.5770586  78.0267317  56.1330851  44.3530174  76.9465067  55.7993307
  43.7785539  77.4543676  55.6366961  51.2598587  82.0222577  47.5749718
  51.6992223  81.4139677  48.0204490  51.1103250  81.6429950  46.8035183
  51.3020053  81.8761048  47.5268885  48.7270230  80.6166589  54.7768543
  49.3719233  80.1239032  54.4579492  48.9672007  80.7591375  55.6034621
  48.8580815  80.5644031  54.8518076  51.2656322  83.4621494  54.4275436
  51.5479564  82.6672900  54.2062191  51.9942482  83.9402082  54.4480497
  51.4145885  83.4156091  54.3978451  49.2437515  71.0044528  51.6691201
  48.9140846  71.4555672  50.9994899  48.5682517  70.9260692  52.2164207
  49.0947952  71.0595664  51.6514424  54.8607924  80.3749758  44.5280487
  54.7759219  81.2310725  44.6730056  55.3492307  80.0994082  45.1962646
  54.9196821  80.4607080  44.6482568  56.4513923  66.9930051  49.9140811
  56.1367364  67.6833530  50.3461234  55.9340865  66.9374834  49.2126312
  56.3278394  67.0864940  49.8737760  55.7926357  76.9934552  46.0278222
  55.2637829  77.2094186  46.6875528  56.3151377  77.6870691  45.9479191
  55.7914810  77.1277689  46.1133821  47.6825965  80.8897769  44.8285690
  47.0983180  81.3947800  45.2351554  47.2796060  80.6640156  44.0882282
  47.5365269  80.9306017  44.7790715  52.1403179  77.1363421  43.3054610
  52.3799183  77.3441405  42.4929954  52.4619020  76.3320930  43.4143555
  52.2240337  77.0477522  43.2015164  47.4493470  69.0656817  47.1514148
  48.2039438  69.4335134  46.9131199  47.2721004  69.4396371  47.9193328
  47.5347948  69.1755005  47.2299037  60.7428368  75.2151257  55.1961688
  59.9056789  75.2853444  55.4309282  60.7116599  75.2175752  54.3235990
  60.6146651  75.2261484  55.1021236  47.1393097  77.3584293  60.9110056
  47.3113601  77.2490188  61.7595338  47.6762455  78.0038698  60.6741249
  47.2438101  77.4376295  61.0015153  45.8050534  71.4727136  43.8492261
  45.6226107  71.6899017  43.0233254  46.6676147  71.5866149  43.9050876
  45.9055124  71.5217034  43.7346748  51.4850253  68.4753547  46.8841285
  52.2136414  68.2969501  46.4379442  51.5745146  69.3171626  47.0948463
  51.6056915  68.5737425  46.8494803  55.4658554  79.4106934  50.7873579
  56.2216069  79.8438448  50.8262488  55.5720879  78.7611704  51.3608215
  55.5928725  79.3784418  50.8771605  41.4454814  79.9516224  55.7462976
  41.1793229  79.1355341  55.9053967  41.4593378  79.9969380  54.8758492
  41.4079537  79.8373129  55.6416458  58.4236208  70.2794039  53.7805410
  59.0662117  70.3492144  54.3667325  58.6759229  69.6123262  53.2784952
  58.5558340  70.1920388  53.7932689  45.3512561  74.7501308  42.3614734
  44.6370738  74.4639488  42.7737167  45.8356530  75.0897934  43.0021122
  45.3171925  74.7582958  42.5170369  46.1953421  73.4894602  58.3929984
  45.5025217  73.0191582  58.6390716  46.8113748  73.2632907  58.9671691
  46.1837951  73.3861734  58.5139137  52.5259879  83.2531262  42.7376543
  52.9411028  82.9216286  42.0461038  51.6951809  83.0200165  42.6096679
  52.4647888  83.1702518  42.6167390  41.8548228  80.7375003  53.0274721
  41.6723801  80.7121889  52.1747013  42.5897897  81.2073941  53.0663629
  41.9362292  80.8036366  52.9072639  57.9247902  80.9726513  50.1707608
  58.1603491  81.1171712  49.3434459  58.0737466  81.7368921  50.5639122
  57.9813705  81.1065568  50.1071212  44.9193980  77.4560006  59.5356829
  45.6433952  77.4413037  60.0221724  45.0210116  78.1655362  59.0378798
  45.0412189  77.5584710  59.5335616  59.7538359  79.8128179  48.0077212
  60.0846576  80.3455820  47.4017307  60.3271447  79.8667067  48.6639163
  59.8872038  79.8997748  48.0154994  54.9670248  77.6593082  48.6900792
  55.0617102  78.3982376  49.1440418  54.3429091  77.2310558  49.1235357
  54.8879278  77.7054403  48.8208940  41.8219138  77.6168504  53.1773787
  42.3992641  77.4804955  53.8166033  41.1233200  77.1604288  53.4319372
  41.8040160  77.5290770  53.3096077  55.2193269  79.5041822  41.9237744
  55.1373432  79.5744009  42.7892731  55.8572990  80.0671566  41.7321485
  55.3013107  79.5980793  42.0227694  48.5786440  79.2702560  51.3912270
  48.3205685  78.4374295  51.3643570  48.6334923  79.4960173  50.5504771
  48.5486218  79.1800331  51.2632407  53.6587491  71.3731011  51.4916363
  52.9543817  70.8840196  51.6500282  53.7072465  71.3853485  50.6204808
  53.5617542  71.3020658  51.3855703  47.5521153  76.8240322  51.8777165
  46.9770744  76.9832491  52.5141126  47.1756829  76.1875731  51.4145616
  47.4123965  76.7538135  51.9031724  51.2194441  75.2963672  56.7369544
  50.8308874  74.8717889  56.0821735  50.5549140  75.5445821  57.2446570
  51.0641369  75.2702393  56.7157412  60.8617710  75.0538676  49.5117374
  60.6054275  74.2418618  49.3215256  61.7047024  75.0616243  49.2847561
  60.9483736  74.9350674  49.4502191  37.2977971  76.4680397  49.8921606
  37.3838223  76.0912265  50.6735136  37.9253769  76.0940843  49.4141564
  37.4034522  76.3565879  49.9367083  55.0420803  68.9938300  54.2493528
  55.4231315  68.3116471  54.6361402  54.2384087  68.7047902  54.0669192
  54.9797264  68.8505349  54.2797584  52.3233379  79.5262276  44.9346351
  53.1374018  79.8177169  44.8229122  52.2592521  78.8722139  44.3604644
  52.4336118  79.4727471  44.8335188  48.1941288  82.9983794  50.0618663
  48.8315235  82.7595541  50.6070456  48.6196359  83.2020953  49.3271823
  48.3517454  82.9934804  50.0335820  48.8344103  78.2186083  44.3993552
  49.2189255  77.9993790  45.1510097  48.5855723  79.0449029  44.5294628
  48.8546175  78.3084230  44.5294628  49.0012643  71.4992499  64.1156136
  48.6866084  72.2692061  63.8525699  48.6802576  70.9362755  63.5308363
  48.9071562  71.5302767  63.9897486  50.5762760  83.4756216  51.7412449
  50.6501768  83.3131388  52.5954299  51.3932266  83.6646406  51.4972931
  50.7079118  83.4792959  51.8310475  46.5544540  69.8883020  49.7302333
  45.6866966  69.9605620  49.7959942  46.8419744  70.6905099  49.9190308
  46.4684288  70.0177167  49.7677099  55.6777429  70.0360879  58.0613654
  56.4231021  69.8470690  57.6477080  55.2614733  70.5619117  57.5027511
  55.7262403  70.0863025  57.9178228  63.0539700  77.4070108  53.0119159
  63.6047621  76.7738177  53.2516251  63.0383815  77.9385501  53.7034664
  63.1324896  77.3919056  53.1498018  49.7062091  81.2408705  57.5579053
  49.2073784  81.9524473  57.6363941  50.5162315  81.5609372  57.5197215
  49.7518197  81.3935554  57.5635621  45.9690208  80.5031658  51.8041774
  45.6803457  79.8769129  52.3387501  46.8373556  80.4451946  51.8706454
  46.0550460  80.4019202  51.8932728  56.7568106  75.6466442  52.1223756
  56.4132872  74.9256777  52.4731005  56.8561149  75.4380293  51.2802114
  56.7210149  75.5090645  52.0495436  46.1722482  82.1426909  47.7284139
  46.9268450  82.5239948  47.9419601  45.5793094  82.5938053  48.1830835
  46.1959195  82.2655737  47.8267017  48.6329149  74.0989750  62.8541351
  47.8228924  74.4047529  62.7431193  49.1103835  74.8195332  62.9693935
  48.5832627  74.2504351  62.8548422  47.4920708  83.3135471  53.1024254
  46.9701462  83.4535762  53.7876119  47.8794728  82.5546135  53.2926372
  47.4724409  83.2220994  53.2325331  44.4811892  73.3641279  47.1719209
  44.1936688  72.9942550  46.4351156  45.1682360  73.8336135  46.9102914
  44.5400789  73.3788249  47.0234285  47.3165564  77.2294228  48.6186614
  48.0388216  77.3935386  48.1590420  46.8373557  77.9503892  48.5125953
  47.3529294  77.3592457  48.5352228  55.2759071  73.5658026  53.9983298
  54.4370172  73.5919305  53.7621562  55.3463439  74.2128762  54.5788645
  55.1627465  73.6654152  54.0492415  44.9673180  79.6352300  57.7240753
  45.4794277  79.9136553  57.0749513  44.6809523  80.3741594  58.0903566
  45.0008044  79.7854654  57.6830631  53.7228350  70.4643403  48.7310914
  54.4254702  70.2651152  48.2530873  53.4572538  69.6919346  49.0379758
  53.7874982  70.3206369  48.7056356  59.1516595  78.7726013  51.2844540
  59.0650570  78.9281439  52.1379319  58.6967075  79.4164089  50.9103945
  59.0719852  78.8901768  51.3551647  42.0540087  74.1422492  48.0204490
  42.1556223  74.9448653  48.3485465  42.8495974  73.9409828  47.7227570
  42.1867992  74.2308391  48.0239845  48.4856906  71.7278689  57.7841795
  48.2940103  71.7433823  58.6341219  49.3355502  71.9242363  57.7608450
  48.5832628  71.7593040  57.9065090  42.8703819  74.2569670  55.7625611
  42.7289311  73.4053611  55.8870119  43.1544382  74.2998331  54.9387817
  42.8911665  74.1369420  55.6593236  53.0242411  76.0936760  49.9070100
  52.7777126  76.0132511  50.7406889  53.3527534  75.3090228  49.7132627
  53.0363655  75.9663026  50.0017623  48.9839439  78.8293479  59.3193083
  49.1282814  79.4094687  58.6836193  49.3315087  79.2069776  60.0242937
  49.0566900  78.9714183  59.3292078  51.1559356  78.0283647  57.1018214
  50.4082670  78.2214662  56.6966492  51.3100881  77.2028867  56.8642336
  51.0681783  77.9348759  57.0063620  51.3961133  71.9234198  57.9913618
  51.8533747  72.6558172  58.1186410  51.4717462  71.5000663  58.7500874
  51.4752103  71.9691436  58.1214695  43.6394124  72.1700018  59.0803062
  43.1036314  71.5580376  59.3963829  43.7011889  72.7448154  59.7336728
  43.5689757  72.1646945  59.2238489  55.8688459  65.1024073  51.8607461
  55.9872027  65.5600536  51.1274764  55.6950635  64.2969334  51.5743679
  55.8607630  65.0517845  51.7108395  49.2743511  73.9136302  54.8355442
  48.4839586  73.7327762  55.1572778  49.6704134  73.1363254  54.8185737
  49.2160387  73.7723763  54.8807991  53.7609402  82.7424076  40.2762156
  54.5282387  82.8024201  39.8668008  53.3140711  82.1704518  39.7918474
  53.8082829  82.6660652  40.1439866  54.6587197  81.5478732  52.5614888
  53.9832199  81.3163964  53.0628275  54.6679573  80.9399915  51.9356993
  54.5605702  81.4237657  52.5431040  51.7881341  76.3896561  59.3178941
  51.7240482  77.2506517  59.1899078  51.9278529  76.0728554  58.5174492
  51.7996811  76.4696728  59.1807154  50.4700435  79.0828700  53.4595144
  50.0462684  79.2833199  52.7234162  50.2945290  78.2357548  53.5719444
  50.3811316  78.9877482  53.3668834  45.7582880  79.5780752  48.8923117
  45.9147499  79.5127555  49.7479109  46.0983473  80.3529304  48.6801796
  45.8316115  79.6829950  48.9877711  52.2962025  78.9538635  47.7616480
  52.8377570  78.4509016  48.2255100  52.6108584  78.9003830  46.9505965
  52.4226422  78.8718056  47.7100292  50.4648474  84.3455987  45.0456508
  50.5341295  83.4870525  45.1849508  51.2436929  84.5627868  44.7175532
  50.5901324  84.2508851  45.0173665  53.4451294  73.8474940  57.8138780
  53.6593264  73.2085854  57.2602134  52.8285193  74.2920764  57.3846642
  53.3856623  73.8185084  57.6689211  42.3317141  76.7615702  49.2083884
  42.7116106  77.1800247  48.5444151  41.7572506  77.3429158  49.5152727
  42.3028466  76.9093561  49.1560625  55.6090382  75.4564005  58.7522087
  54.7967064  75.1489895  58.8335260  56.0680317  74.9763005  59.3164799
  55.5570767  75.3400497  58.8476681  55.0195637  83.3343677  49.1999032
  54.6610291  83.5058320  49.9763064  54.5334347  83.7956883  48.6427030
  54.8954334  83.4282648  49.2324301  52.8366023  66.9574876  52.8026123
  51.9659581  66.9313597  52.7559432  53.0906364  66.7852068  51.9851969
  52.7459583  66.9285019  52.6746260  49.8084002  79.0142842  41.7399266
  50.0976527  79.7907725  42.0142840  49.8955801  78.5031574  42.4413765
  49.8638258  79.0534761  41.8841764  49.8615163  68.9681104  54.2599593
  49.3453652  68.2761295  54.3851172  49.3009092  69.6351881  54.2062192
  49.7021676  68.9644362  54.2705659  51.9307397  69.5074064  56.0892446
  51.5439150  69.5323095  56.8705976  51.4440334  68.9415743  55.6366963
  51.8019905  69.4269815  56.1380350  57.9057376  76.0736719  54.7132148
  57.4784984  75.9863067  53.9580248  57.2683429  76.1814494  55.2986992
  57.7486983  76.0769379  54.6877590  51.5964538  66.3941049  58.3802706
  52.2257656  66.9301350  58.1023776  51.7650401  66.3018408  59.2316272
  51.7142333  66.4602412  58.4651234  51.3978453  71.1812244  60.6529117
  52.2251883  70.9097393  60.7087732  51.4186299  71.9773086  61.0092936
  51.5231303  71.2591998  60.7144300  45.9747943  78.3276107  53.8399378
  45.1335950  78.2279981  54.0478272  46.1837951  79.0971587  54.1913699
  45.8812636  78.4268150  53.9226693  43.4523510  75.9495644  51.6684129
  43.0580208  76.0238656  50.8934238  42.8963627  76.3353590  52.2192491
  43.3126322  76.0177419  51.6351789  55.0888457  68.9276938  51.3488008
  55.2938050  68.8599246  52.1945005  54.7614881  69.7335759  51.2809185
  55.0703705  69.0362878  51.4647663  49.7864608  76.2557506  53.0896976
  49.4827745  75.7013494  53.6907383  49.0844029  76.4349716  52.6025010
  49.6380818  76.2002288  53.1066681  48.8430705  73.5658026  47.6541677
  49.1190439  72.8476938  47.2419245  49.4429374  74.1642946  47.4462784
  48.9723970  73.5478397  47.5622439  58.3422144  69.4808702  50.8290773
  57.7296458  69.9679104  51.2144505  58.4386319  68.8052193  51.3728424
  58.2660042  69.4527011  50.9669631  52.3441225  71.2371543  45.9288272
  52.7984972  71.4082104  46.6536117  52.8181271  70.6239654  45.5286048
  52.4809546  71.1722429  45.9762034  45.8656751  80.7219869  55.2591011
  45.2744684  81.3629367  55.2294026  46.6277774  81.1457487  55.2322310
  45.8905012  80.8795708  55.2506158  46.2617374  71.8821867  55.9259029
  46.7218855  71.9560796  56.6634152  46.3073480  72.6803121  55.5758850
  46.3367929  72.0116014  55.9831785  47.9100723  72.5488562  60.4931056
  47.5186289  71.9021909  60.9286833  48.0786586  73.1399997  61.1125311
  47.8771634  72.5402830  60.6493762  49.6854245  77.9414078  47.0333280
  50.4296290  78.3288354  47.2716230  49.8314942  77.0971503  47.1973768
  49.8164831  77.8744550  47.0927249  51.6033821  69.7364337  52.0665141
  50.7569866  69.9087144  51.9406491  51.6004953  68.9313680  52.4030969
  51.4780971  69.6425366  52.0976268  52.6732121  73.5139551  52.9327199
  52.1992076  72.9881313  53.4432510  53.0450257  72.9669024  52.3642061
  52.6582010  73.3555548  52.9242346  43.0505151  75.5111058  58.3010745
  43.9130765  75.4106767  58.2148075  42.7196934  74.9305767  57.7396317
  43.1290348  75.4102684  58.2056151  58.9368852  78.5741927  54.3433980
  58.6967075  77.7348342  54.3476406  59.4160859  78.6542093  55.0674753
  58.9721036  78.4623326  54.4508782  54.6015621  74.4076106  45.9952953
  54.0738640  74.4904850  45.3058662  55.0611329  75.1493977  45.9917598
  54.5917471  74.5296768  45.8927648  60.9374039  75.3543384  52.2963239
  60.6983809  75.3139218  51.4584023  61.1007940  76.2014536  52.4228960
  60.9264342  75.4735469  52.1916721  46.4106937  74.3353507  54.9621163
  45.7860008  74.3471899  54.3547116  46.0752532  74.8113682  55.6112403
  46.2692429  74.4072024  54.9677732  46.5948686  72.6778625  41.0193848
  46.2461490  73.3298350  41.4825397  46.1145132  72.6635738  40.2917719
  46.4718930  72.7721679  40.9804939  54.1552703  82.9779669  45.1262610
  54.8786902  83.4437782  44.9827183  53.7153295  83.0453279  44.3760207
  54.1968396  83.0563506  44.9947391  53.3238859  79.8377211  56.3763299
  52.7095852  79.2935262  56.6711934  53.8406144  79.3241448  55.8969115
  53.3094521  79.6813620  56.3487527  52.5635156  80.9081481  54.1107598
  52.1362764  80.2831200  53.6773033  52.5560100  80.6256403  54.9366605
  52.4994297  80.7734262  54.1687425  45.6797683  75.9446654  57.1796032
  45.8391170  75.1889979  57.5847753  45.4990576  76.4937594  57.8336769
  45.6763042  75.9140468  57.3358737  53.6217986  68.1107890  57.7346821
  53.1258547  68.3071564  57.0438388  54.3787048  68.5100558  57.5635623
  53.6604811  68.1985624  57.6066958  50.8920865  71.7850236  54.3250132
  50.9163353  71.2510348  53.6362912  51.1432339  71.2767545  54.9875722
  50.9330784  71.6311140  54.3214776  38.4028455  79.0681731  53.7593276
  38.2971904  79.0228575  52.8945360  37.6528675  79.4135511  54.0407560
  38.2764058  79.1122639  53.6730605  47.1722188  70.5121054  53.7055876
  47.2120559  71.0130261  54.4190583  46.3471852  70.6031448  53.4361799
  47.0561714  70.6002871  53.7706414  48.5936551  77.0281564  56.0029775
  47.7628481  77.1955382  55.7965023  48.5388068  76.6517515  56.7878660
  48.4625966  76.9971295  56.0878303  46.4020334  70.5190457  61.6386186
  47.0273038  69.9752590  61.9115618  45.9470814  70.0385375  61.0693976
  46.4268595  70.3679938  61.5947779  46.9672595  75.3037156  46.5319893
  47.1075556  75.8009620  47.2348534  47.4655128  74.6023450  46.6734106
  47.0613676  75.2739134  46.6571472  46.9972817  76.1704267  43.8612469
  47.6317897  76.7664692  43.7961931  47.0798428  75.8707724  44.6758340
  47.1029368  76.2145175  43.9715556  48.5751800  72.1018242  43.8357911
  48.8967641  71.6221325  43.1817174  48.8378744  72.9117888  43.6448723
  48.6617826  72.1508140  43.7113403  53.9710955  71.4890436  56.1981390
  54.3966027  71.0362962  55.5864917  53.3567948  70.9350507  56.4746178
  53.9439600  71.3404412  56.1486416  43.5025805  78.3672107  47.1302015
  44.0118034  78.9636615  47.5113321  43.9760077  78.0998081  46.4478435
  43.6469181  78.4157923  47.0856538  52.4105178  67.9605536  49.6071967
  51.7673496  67.8103182  50.1757106  52.0704585  67.7147881  48.8421072
  52.2650255  67.9017658  49.5774983  57.0004524  75.9164963  49.0301976
  56.3295714  76.4594665  48.9015042  57.6944275  76.3859818  48.7883671
  57.0033392  76.0663234  48.9757504  57.1632652  72.3720846  51.9392349
  57.5160262  71.9450569  52.6138148  56.3047453  72.2871690  52.0693426
  57.0882097  72.2965587  52.0587360  45.8616337  75.0028366  49.9975196
  45.1428326  75.4192498  50.2648059  46.2328699  75.5682605  49.4466834
  45.8108269  75.1477647  49.9558003  55.1615918  75.6356215  55.8877192
  55.1413845  75.4539510  56.7411970  55.2095118  76.5068233  55.8636775
  55.1650559  75.7372753  56.0100486  51.6362911  74.0426366  45.3348575
  51.0427751  74.3643362  44.7833142  51.6738189  73.1967461  45.1269681
  51.5537300  73.9650694  45.2231347  58.5956712  67.4939258  52.8676662
  58.0887577  66.7868398  52.7997839  59.3924146  67.1632447  52.9977738
  58.6383951  67.3412409  52.8775657  54.5120728  74.0005870  48.7650326
  54.2834421  74.0238572  47.9228684  54.7718804  73.1763337  48.8845336
  54.5166916  73.8821950  48.6575523  48.7939956  75.8540343  58.3675426
  48.2818859  75.2461526  58.7260457  48.6219452  76.5696936  58.8349401
  48.6929593  75.8703643  58.4891649  43.6405671  74.2977919  61.0177788
  43.4708261  74.9579293  60.4725994  43.1971621  74.5084480  61.7390277
  43.5505005  74.4263901  61.0439417  47.5665490  72.5382417  50.0604521
  48.0422857  72.8999496  49.4254702  47.0654090  73.1938884  50.3404664
  47.5630849  72.6876605  50.0081262  52.6709027  73.7764588  60.8077681
  53.2280457  73.5478398  60.1756147  52.3470092  74.5370254  60.5312894
  52.7055437  73.8548425  60.6734178  40.5407735  77.2024784  56.2766277
  39.9934455  76.5325430  56.3947146  41.3300114  76.8354632  56.3409745
  40.5759919  77.0489771  56.3034978  49.6092143  74.6823616  43.4277905
  49.9891108  74.7003246  42.6429020  48.8684740  75.1277605  43.3068752
  49.5560981  74.7505391  43.2941473  57.2377434  72.9905808  49.0153484
  57.2371660  72.8354464  49.8737760  57.0333614  73.8368795  48.9594869
  57.2077212  73.0926428  49.1341423  39.2994705  76.4145592  53.4312300
  39.1216466  75.9622201  54.1567216  39.0113727  77.2171753  53.6150778
  39.2307658  76.4668150  53.5655803  54.9618286  77.6703309  52.6689691
  55.4571951  76.9526304  52.6293711  54.1518062  77.3674107  52.5544178
  54.9162179  77.5200956  52.6463417  50.4076898  81.5201123  44.8186695
  49.5988220  81.1967796  44.7720005  50.9151806  80.8134345  44.7514944
  50.3626564  81.3682439  44.8016990  41.0367175  78.9473316  50.5434059
  40.1712694  78.9359006  50.4316831  41.1365991  78.7603539  51.3905199
  40.9241342  78.9179377  50.6523004  57.0270105  80.4206997  55.3566819
  57.4525176  79.8981419  54.8037245  56.6627025  81.0187834  54.8355442
  57.0356707  80.4317224  55.1975829  53.6148704  84.1341261  51.6867977
  54.0859883  84.8481524  51.8557962  53.9508883  83.5340011  52.2227846
  53.7343819  84.1512725  51.7900353  50.5318199  68.9068732  58.6426072
  50.6646105  68.1099725  58.9707047  50.9163352  69.4335135  59.2224347
  50.6074528  68.8668648  58.7769575  53.6050554  65.8299058  55.2407165
  52.7996518  65.7196788  55.5575003  53.4757290  65.9311514  54.3837031
  53.4670687  65.8282728  55.1615205  57.0616515  71.9944550  55.8346862
  56.4779504  72.4953756  55.4224429  57.3820809  71.4874106  55.2011185
  57.0229690  71.9936385  55.6805369  49.6011314  70.9085145  46.1105537
  50.4227009  71.0783457  45.8687232  49.1380965  71.0632406  45.3871834
  49.6542476  70.9566878  45.9677181  48.1906646  68.9027907  56.8903965
  48.7351059  68.5619034  57.4808307  48.2443582  69.7613368  57.0325250
  48.2795765  68.9783166  56.9985839  26.0915117   7.4512019  34.8787934
  26.0609121   8.3056656  35.0506203  26.6896466   7.1507312  35.4374078
  26.1752275   7.5328516  34.9862736  19.2914802   6.5387670  39.6340864
  18.4352697   6.6996168  39.6849981  19.3382456   5.6679734  39.6545925
  19.1713913   6.4338472  39.6446930  13.6755942  16.0750388  35.3978096
  12.9238841  15.6965926  35.1694141  14.1241953  16.1068822  34.6496906
  13.6305608  16.0235995  35.2535598  22.6008518  12.8074196  49.2401320
  23.3075286  12.3126227  49.3688255  22.7896454  13.2483277  48.5103978
  22.7336424  12.7992546  49.1510366  19.1280901  16.4975758  30.8263643
  18.7932270  17.1752679  30.3907865  19.6407772  16.1081069  30.2380515
  19.1546483  16.5400336  30.6750435  22.1366623   8.5979714  42.2772516
  22.6822583   9.2764801  42.3366486  22.0783499   8.4567175  41.4174098
  22.2082537   8.6771716  42.1584577  15.2540698  16.0868780  37.6640868
  15.3551061  15.2769134  37.9737996  14.6582443  15.9925727  37.0340547
  15.1813236  15.9533808  37.6167107  23.9131692  10.0264321  33.1506244
  23.7971217  10.7772007  33.5798382  24.7087578   9.7688275  33.4002331
  24.0136281  10.0999168  33.2510335  15.0941437  21.0046369  39.0655724
  15.7378893  21.4459533  39.4551883  15.4197693  20.1999796  38.9785983
  15.2373266  20.9511564  39.1101202   8.4505742  12.1089067  37.2893202
   8.2155926  11.2756719  37.1825471   8.5891383  12.3893732  36.4754403
   8.4361404  12.0272570  37.1535557  15.7962017  14.0158344  34.4375586
  16.1177858  14.5563552  33.8336894  16.4434114  13.4455116  34.5697876
  15.9388072  14.0117519  34.3682622  17.8463725   6.0174339  34.5209973
  18.5443890   6.1962467  35.0131436  18.1616058   5.4944679  33.8980362
  17.9959062   5.9668111  34.5011983  10.4764962   7.8227079  42.4321079
  10.3523659   8.4089525  43.0670898  11.1283247   7.3287275  42.7333354
  10.5538612   7.8365884  42.5707008  18.0351660  12.4044784  34.5089764
  18.4745296  11.7961885  34.9544537  17.8856323  12.0252158  33.7375229
  18.0773126  12.2583255  34.4608932  15.5023303  10.9988796  41.7108590
  16.1472306  10.5061239  41.3919538  15.7425081  11.1413583  42.5374668
  15.6333889  10.9466238  41.7858123  18.0409395  13.8443702  41.3615482
  18.3232638  13.0495108  41.1402238  18.7695555  14.3224289  41.3820543
  18.1898959  13.7978299  41.3318498  21.6360997  10.7571965  31.4620534
  21.5512292  11.6132932  31.6070102  22.1245380  10.4816290  32.1302693
  21.6949894  10.8429287  31.5822615  23.2266996  -2.6247741  36.8480858
  22.9120437  -1.9344263  37.2801281  22.7093938  -2.6802959  36.1466359
  23.1031467  -2.5312853  36.8077807  22.5679430   7.3756760  32.9618269
  22.0390902   7.5916393  33.6215575  23.0904450   8.0692898  32.8819238
  22.5667883   7.5099897  33.0473868  14.4579038  11.2719976  31.7625737
  13.8736253  11.7770008  32.1691601  14.0549133  11.0462363  31.0222329
  14.3118342  11.3128225  31.7130762  10.0123067  16.9874738  38.5649408
   9.5290645  17.7125227  38.5408992  10.8246385  17.2850868  38.6759566
  10.0613814  17.1377091  38.5776687  16.0837221  15.7806918  41.1699223
  15.5664162  15.4214333  40.5660531  16.7811612  15.2569093  41.1805289
  16.1102802  15.6504606  41.0829481  19.7400813  16.2301732  47.1315396
  19.8284159  16.0427873  47.9793606  20.1690525  15.5839162  46.7320243
  19.8162915  16.1064740  47.1987147  17.3071272  15.5132892  46.1133058
  16.7442107  15.1005502  46.6372719  18.0692296  15.4385798  46.5326201
  17.3365721  15.4410293  46.2526058  18.9156252   7.5185629  30.2394657
  19.1552256   7.7263612  29.4270000  19.2372093   6.7143137  30.3483602
  18.9993410   7.4299730  30.1355210  12.8667264  17.5030913  38.7169688
  13.5687843  16.9882903  38.7742445  12.7864747  17.8305065  39.5216563
  12.9591024  17.4745140  38.8442480  27.5181441   5.5973465  42.1301735
  26.6809863   5.6675652  42.3649329  27.4869672   5.5997960  41.2576037
  27.3899724   5.6083692  42.0361283  13.9146171   7.7406500  47.8450103
  14.0866674   7.6312395  48.6935385  14.4515528   8.3860906  47.6081295
  14.0191174   7.8198502  47.9355200  12.1918039  13.6937265  38.2255296
  13.0306939  13.9260198  38.2729058  12.2229809  12.8241577  38.1562332
  12.3199757  13.5994212  38.2219941  12.8170742  14.1138141  42.5268602
  13.3568967  13.9709272  43.1971974  12.1340689  14.5134891  42.8952628
  12.7962896  14.1517812  42.6803023  22.2411627   9.7929141  37.7213626
  22.9969142  10.2260656  37.7602535  22.3473952   9.1433911  38.2948262
  22.3681798   9.7606625  37.8111652  19.8520872  15.6610751  49.7959179
  20.6361289  15.7741599  50.1614921  19.6517467  14.8351888  49.9917865
  19.9386897  15.5557471  49.8793565   8.2207887  10.3338431  42.6803023
   7.9546303   9.5177548  42.8394013   8.2346452  10.3791587  41.8098539
   8.1832610  10.2195336  42.5756505  25.1989281   0.6616246  40.7145457
  25.8415190   0.7314351  41.3007372  25.4512302  -0.0054531  40.2124999
  25.3311413   0.5742595  40.7272736  12.1265634   5.1323516  29.2954781
  11.4123812   4.8461695  29.7077214  12.6109603   5.4720142  29.9361169
  12.0924998   5.1405166  29.4510416  20.0091265  17.5720853  43.4425635
  19.2106511  17.3320353  43.6999504  20.4577277  17.6235246  44.1892683
  19.9565877  17.5443245  43.5910559  28.4136145  10.3383338  37.3635666
  29.0752579   9.7774007  37.2631575  27.7727557   9.8435369  37.6888357
  28.4165012  10.1819747  37.3968006  19.3012952  13.6353470  29.6716589
  19.7164101  13.3038494  28.9801085  18.4704882  13.4022372  29.5436726
  19.2400961  13.5524726  29.5507437   8.6301301  11.1197211  39.9614767
   8.4476874  11.0944097  39.1087060   9.3650970  11.5896149  40.0003676
   8.7115365  11.1858573  39.8412686  24.7000975  11.3548721  37.1047655
  24.9356564  11.4993920  36.2774506  24.8490539  12.1191129  37.4979169
  24.7566779  11.4887775  37.0411259  11.6947053   7.8382214  46.4696876
  12.4187025   7.8235244  46.9561771  11.7963189   8.5477569  45.9718844
  11.8165262   7.9406917  46.4675663  26.5291432  10.1950387  34.9417259
  26.8599649  10.7278027  34.3357354  27.1024520  10.2489275  35.5979210
  26.6625111  10.2819956  34.9495041  19.0692002  11.3181298  51.3345823
  18.2764983  11.6324810  51.5198443  19.1840929  11.5332767  50.4966608
  18.9687413  11.3965135  51.2384158  21.7423321   8.0415289  35.6240839
  21.8370176   8.7804584  36.0780464  21.1182165   7.6132765  36.0575403
  21.6632351   8.0876610  35.7548986  19.9975795  11.2201502  46.2731120
  20.5714657  10.5828746  46.4279684  19.9190599  11.2205585  45.4040777
  20.0709030  11.1266613  46.1677531   8.5972211   7.9990712  40.1113834
   9.1745714   7.8627162  40.7506079   7.8986273   7.5426496  40.3659418
   8.5793233   7.9112978  40.2436124  21.9946342   9.8864029  28.8577791
  21.9126505   9.9566216  29.7232778  22.6326063  10.4493773  28.6661532
  22.0766180   9.9803000  28.9567740  20.4340564   1.7553218  38.4256410
  19.7296890   1.2662403  38.5840329  20.4825538   1.7675692  37.5544854
  20.3370615   1.6842866  38.3195750  14.3274226   7.2062530  38.8117212
  13.7523817   7.3654698  39.4481173  13.9509902   6.5697939  38.3485663
  14.1877038   7.1360343  38.8371770  17.9947514   5.6785879  43.6709590
  17.6061947   5.2540097  43.0161782  17.3302213   5.9268029  44.1786617
  17.8394442   5.6524600  43.6497458  27.6370784   5.4360884  36.4457420
  27.3807348   4.6240825  36.2555303  28.4800098   5.4438451  36.2187608
  27.7236809   5.3172881  36.3842238  21.8173876  -0.6239492  41.1833575
  22.1984388  -1.3061321  41.5701449  21.0137160  -0.9129890  41.0009239
  21.7550338  -0.7672444  41.2137631  19.0986453   9.9084484  31.8686397
  19.9127091  10.1999376  31.7569169  19.0345594   9.2544346  31.2944690
  19.2089192   9.8549678  31.7675235  25.3195943  12.5910480  46.2815973
  25.0834580  11.7598544  46.1628034  25.9639172  12.5396087  46.8670817
  25.3790614  12.4608168  46.3501867  14.9694361  13.3806001  36.9958709
  15.6068308  13.1417749  37.5410503  15.3949433  13.5843160  36.2611870
  15.1270527  13.3757011  36.9675867   9.6607003  15.6194338  40.8793013
   9.7011149  15.8909189  40.0512793  10.2201527  16.1436246  41.2950801
   9.7490349  15.7370093  40.8184901  15.6097176   8.6008291  31.3333599
  15.9942329   8.3815998  32.0850144  15.3608796   9.4271236  31.4634675
  15.6299249   8.6906437  31.4634675  26.3432363  12.3754928  42.3444268
  26.0378181  13.1082985  42.7057583  25.6238579  11.9692858  42.0637054
  26.1919706  12.4236661  42.3557405  17.3515833  13.8578424  38.6752496
  17.4254841  13.6953595  39.5294346  18.1685339  14.0468613  38.4312977
  17.4832192  13.8615166  38.7650521  32.0434156   9.0147929  41.6712612
  31.9758656   9.0343888  40.8015198  32.0289818   9.8578256  41.8968282
  32.0312912   9.1421664  41.5765089  11.1121590  14.2036286  35.7046939
  10.2859707  14.4498024  35.5781218  11.1733581  14.1248367  36.5708997
  10.9995757  14.2281235  35.8135884  22.4530502   0.4183087  44.9953701
  23.1984094   0.2292897  44.5817127  22.0367807   0.9441325  44.4367558
  22.5015476   0.4685232  44.8518274  15.8920419  16.8213167  33.4065969
  16.1818717  16.4302148  32.6825196  16.6223899  17.0029872  33.8471244
  16.0427303  16.7906980  33.3648776  29.8292773   7.7892315  39.9459206
  30.3800694   7.1560384  40.1856298  29.8136888   8.3207708  40.6374710
  29.9077969   7.7741263  40.0838064  16.4815164  11.6230913  44.4919100
  15.9826857  12.3346680  44.5703988  17.2915388  11.9431579  44.4537262
  16.5271271  11.7757761  44.4975668  13.8326334  18.7980549  36.4726119
  13.6126630  18.5077904  37.2652786  13.6120856  18.1395504  35.9444031
  13.7673928  18.6580257  36.5115028  12.7443281  10.8853866  38.7381821
  12.4556530  10.2591337  39.2727548  13.6126629  10.8274153  38.8046501
  12.8303533  10.7841410  38.8272775  23.5321179   6.0288649  39.0563802
  23.1885945   5.3078984  39.4071052  23.6314222   5.8202500  38.2142161
  23.4963222   5.8912852  38.9835482  15.9994290  20.1709939  35.2556811
  16.6518348  19.6386381  35.4847837  15.3019899  19.8178591  35.6424685
  15.9925008  20.0399462  35.3468979  12.9475555  12.5249117  34.6624186
  13.7021523  12.9062156  34.8759648  12.3546167  12.9760260  35.1170882
  12.9712268  12.6477944  34.7607064  23.9934208  12.4914353  34.5987791
  24.5592241  13.1507563  34.5146333  23.3462112  12.8364051  35.0704193
  23.9812965  12.6396294  34.6560547  15.4082222   4.4811957  49.7881398
  14.5981998   4.7869737  49.6771240  15.8856908   5.2017539  49.9033982
  15.3585701   4.6326558  49.7888469  14.2673781  13.6957678  40.0364301
  13.7454535  13.8357970  40.7216166  14.6547802  12.9368342  40.2266418
  14.2477482  13.6043202  40.1665377  20.4640786  15.4353137  34.0224870
  20.2227462  14.7020998  33.6151935  20.6442119  15.9839994  33.3691203
  20.4548410  15.4075528  33.8655093  15.6940107  10.7261697  35.4345792
  15.4982890  11.3336432  34.8406095  15.9174453  10.0329641  34.9537466
  15.6974748  10.7139223  35.2761873  14.0918637   7.6116435  35.5526660
  14.8141289   7.7757593  35.0930466  13.6126630   8.3326100  35.4466000
  14.1282368   7.7414665  35.4692274  22.0512145   3.9480234  40.9323345
  21.2123245   3.9741513  40.6961609  22.1216512   4.5950969  41.5128692
  21.9380538   4.0476360  40.9832462  11.7426254  10.0174507  44.6580800
  12.2547351  10.2958761  44.0089560  11.4562596  10.7563801  45.0243613
  11.7761117  10.1676861  44.6170678  20.4981423   0.8465611  35.6650961
  21.2007776   0.6473359  35.1870919  20.2325612   0.0741553  35.9719805
  20.5628055   0.7028577  35.6396403  25.9269668   9.1548221  38.2184587
  25.8403643   9.3103647  39.0719366  25.4720148   9.7986296  37.8443992
  25.8472925   9.2723976  38.2891694  15.2609979   2.1100896  44.7181842
  15.0693176   2.1256030  45.5681265  16.1108575   2.3064570  44.6948497
  15.3585701   2.1415247  44.8405137  19.7995484   6.4758968  36.8410147
  19.5530199   6.3954719  37.6746935  20.1280608   5.6912435  36.6472674
  19.8116728   6.3485233  36.9357670  23.6943533  13.1842327  40.6296928
  23.5557893  13.8823373  41.1345670  22.9143531  13.0290983  40.2733110
  23.5586760  13.2642494  40.6523202  22.0321618   9.4838702  46.8819309
  22.0269657   8.6118519  46.8861736  22.7382612   9.6826871  46.4088765
  22.1366622   9.3842577  46.8126345  15.7592512   9.2115686  46.2533130
  15.9035887   9.7916894  45.6176240  16.1068160   9.5891983  46.9582984
  15.8319973   9.3536390  46.2632125  17.9312429   8.4105855  44.0358261
  17.1835743   8.6036869  43.6306539  18.0853954   7.5851074  43.7982383
  17.8434857   8.3170966  43.9403667  14.8320267  17.4018458  43.1194156
  14.9809830  16.8421374  42.4667561  15.6120269  17.4810460  43.5026675
  14.9694360  17.3304024  43.0791106  17.3573567  17.5733101  44.3978647
  17.2817238  16.9041911  44.9529436  17.2863427  18.2750889  44.9119314
  17.3354174  17.5778008  44.5555495  18.1714206   2.3056405  44.9253665
  18.6286820   3.0380380  45.0526457  18.2470535   1.8822871  45.6840921
  18.2505176   2.3513643  45.0554741  18.0143814  16.0934100  35.2302253
  18.7793705  15.8243744  34.9084918  17.9121904  15.6084110  35.9472316
  18.1125310  15.9823664  35.2882081  16.0496584   4.2958509  41.7695489
  15.2592659   4.1149969  42.0912825  16.4457207   3.5185462  41.7525783
  15.9913460   4.1545970  41.8148037  20.5362475  13.1246284  27.2102203
  21.3035460  13.1846409  26.8008054  20.0893784  12.5526725  26.7258521
  20.5835902  13.0482859  27.0779913  21.4340270  11.9300939  39.4954935
  20.7585272  11.6986172  39.9968322  21.4432646  11.3222122  38.8697040
  21.3358775  11.8059865  39.4771087  18.5634414   6.7718768  46.2518988
  18.4993556   7.6328725  46.1239125  18.7031602   6.4550762  45.4514539
  18.5749884   6.8518935  46.1147201  23.4357005  14.7866072  31.7265113
  23.5176842  15.5933058  31.4026564  23.9206747  14.8062031  32.4505886
  23.5194163  14.9086734  31.7852011  17.2453508   9.4650908  40.3935191
  16.8215757   9.6655407  39.6574209  17.0698363   8.6179756  40.5059491
  17.1564389   9.3699689  40.3008881  16.7465202  20.9801421  42.8556648
  17.2361132  20.2812210  42.6732313  16.1749434  20.6825291  43.4432705
  16.7349732  20.8327644  42.9157689  12.5335953   9.9602959  35.8263163
  12.6900572   9.8949762  36.6819155  12.8736546  10.7351512  35.6141843
  12.6069188  10.0652157  35.9217757  19.0715098   9.3360843  34.6956527
  19.6130643   8.8331224  35.1595147  19.3861657   9.2826037  33.8846012
  19.1979495   9.2540264  34.6440339  22.9432205  13.5463490  51.8083439
  23.7567071  13.2748639  51.9688571  22.7827172  13.2471030  51.0043635
  23.0402154  13.4618416  51.7128845  17.2401548  14.7278194  31.9796555
  17.3094368  13.8692733  32.1189555  18.0190003  14.9450075  31.6515579
  17.3654398  14.6331058  31.9513712  20.2204367   4.2297147  44.7478827
  20.4346337   3.5908061  44.1942181  19.6038266   4.6742971  44.3186689
  20.1609696   4.2007291  44.6029258  21.6309035  17.1515896  36.1933048
  21.2388827  16.8482611  35.4755914  21.7862107  17.9884985  36.0038002
  21.5962625  17.2299732  36.0589545   9.1070215   7.1437910  36.1423931
   9.4869180   7.5622455  35.4784198   8.5325579   7.7251365  36.4492774
   9.0781540   7.2915768  36.0900671  22.3843455   5.8386212  45.6862134
  21.5720137   5.5312103  45.7675307  22.8433390   5.3585213  46.2504846
  22.3323840   5.7222705  45.7816728  21.7948710  13.7165884  36.1339078
  21.4363365  13.8880527  36.9103111  21.3087421  14.1779090  35.5767077
  21.6707407  13.8104855  36.1664348  16.5837075   9.3965050  28.6739313
  16.8729600  10.1729932  28.9482887  16.6708874   8.8853781  29.3753812
  16.6391332   9.4356968  28.8181811  19.4796963   7.2446284  50.4690836
  19.9496594   7.8688400  50.8558711  19.5258843   6.5763259  51.0284051
  19.5564839   7.2380964  50.6090908  22.9553449  14.6069780  47.0806279
  23.5933170  14.1129976  46.7468735  22.3127541  14.5347181  46.4958506
  22.9547676  14.5228789  46.9448634  24.6810449   6.4558926  41.6472195
  24.2538057   6.3685275  40.8920294  24.0436502   6.5636702  42.2327039
  24.5240057   6.4591586  41.6217636  18.1731526   1.5634452  47.5869164
  19.0004956   1.2919600  47.6427779  18.1939372   2.3595293  47.9432982
  18.2984376   1.6414206  47.6484347  23.0107706  15.2989589  43.7211636
  23.8000084  14.9478653  43.8413718  23.1851304  16.1125977  43.4588270
  23.1527987  15.3675446  43.6999504  12.7501016   8.7098314  40.7739425
  11.9089023   8.6102189  40.9818319  12.9591024   9.4793795  41.1253746
  12.6565709   8.8090358  40.8566740  10.2276583   6.3317851  38.6024176
   9.8333281   6.4060863  37.8274285   9.6716700   6.7175798  39.1532537
  10.0879396   6.3999626  38.5691835  21.8641530  -0.6900855  38.2828055
  22.0691123  -0.7578547  39.1285052  21.5367954   0.1157967  38.2149232
  21.8456778  -0.5814914  38.3987710  16.5617681   6.6379714  40.0237022
  16.2580819   6.0835702  40.6247430  15.8597102   6.8171924  39.5365057
  16.4133891   6.5824496  40.0406728  15.6183778   3.9480233  34.5881724
  15.8943513   3.2299146  34.1759292  16.2182448   4.5465153  34.3802830
  15.7477043   3.9300604  34.4962485  14.6236032  13.8529434  44.7309120
  14.5156387  13.8631496  45.5971178  14.8331814  14.6784215  44.5414074
  14.6386143  13.9770509  44.8313212  25.1175218  -0.1369090  37.7630820
  24.5049531   0.3501312  38.1484552  25.2139393  -0.8125600  38.3068471
  25.0413115  -0.1650782  37.9009678  19.1194299   1.6193751  32.8628319
  19.5738045   1.7904311  33.5876164  19.5934344   1.0061861  32.4626095
  19.2562619   1.5544636  32.9102081  12.6409824  11.1042077  42.1931058
  12.0497757  11.7451575  42.1634073  13.4030848  11.5279694  42.1662357
  12.6658085  11.2617915  42.1846205  22.3999340  16.5551388  39.6263082
  22.2019029  17.0442203  38.9319294  21.7787051  16.7592630  40.2047216
  22.2786905  16.6567926  39.6086306  16.4607319   8.3236285  33.9673327
  17.2049364   8.7110561  34.2056276  16.6068015   7.4793710  34.1313814
  16.5917904   8.2566758  34.0267296  19.4485195   3.8961758  39.8667246
  18.9745149   3.3703520  40.3772557  19.8203330   3.3491231  39.2982107
  19.4335083   3.7377755  39.8582393  25.7121925   8.9564134  41.2774026
  25.4720148   8.1170549  41.2816453  26.1913932   9.0364301  42.0014800
  25.7474109   8.8445534  41.3848829  21.3768694   4.7898313  32.9293000
  20.8491713   4.8727057  32.2398709  21.8364402   5.5316184  32.9257644
  21.3670545   4.9118975  32.8267695  27.7127112   5.7365591  39.2303285
  27.4736882   5.6961425  38.3924070  27.8761013   6.5836743  39.3569007
  27.7017416   5.8557676  39.1256767  24.3173142  10.1215541  45.1608331
  25.0407341   9.6688067  44.9819351  24.0523105  10.4020206  44.3780659
  24.3854416  10.0966509  45.0187046  13.1860011   4.7175714  41.8961210
  12.5613081   4.7294106  41.2887163  12.8505606   5.1935889  42.5452450
  13.0445503   4.7894231  41.9017778   9.8985686  12.7776174  43.3364974
   9.3685611  12.0868613  43.3859949  10.1710780  12.7686359  42.5077683
   9.8610409  12.6743306  43.2212390  20.9305777  13.3601877  32.0602657
  21.6539976  13.8259990  31.9167230  20.4906368  13.4275486  31.3100254
  20.9721469  13.4385713  31.9287438  20.0991932  10.2199419  43.3103346
  19.4848925   9.6757469  43.6051981  20.6159217   9.7063655  42.8309162
  20.0847594  10.0635828  43.2827574  19.3388229  11.2903689  41.0447644
  18.9115837  10.6653407  40.6113080  19.3313173  11.0078611  41.8706652
  19.2747370  11.1556469  41.1027472  12.4550756   6.3268862  44.1136078
  12.6144243   5.5712186  44.5187800  12.2743650   6.8759801  44.7676816
  12.4516115   6.2962676  44.2698784  20.3971059  -1.5069903  44.6686868
  19.9011620  -1.3106228  43.9778435  21.1540121  -1.1077234  44.4975669
  20.4357884  -1.4192169  44.5407005  17.6673939   2.1672443  41.2590178
  17.6916426   1.6332556  40.5702958  17.9185412   1.6589752  41.9215769
  17.7083857   2.0133347  41.2554823   5.1781528   9.4503938  40.6933322
   5.0724978   9.4050783  39.8285406   4.4281748   9.7957719  40.9747607
   5.0517131   9.4944846  40.6070652  16.1304874  10.4604002  48.7416217
  15.2800504  10.5975716  48.8773862  16.2933001   9.7267780  49.1863919
  16.0288737  10.3718103  48.8271816  15.3689624   7.4103771  42.9369822
  14.5381554   7.5777589  42.7305070  15.3141141   7.0339722  43.7218707
  15.2379039   7.3793503  43.0218350  13.7425668   5.6859363  33.4659939
  13.8828629   6.1831827  34.1688581  14.2408201   4.9845657  33.6074153
  13.8366749   5.6561342  33.5911518  13.7725890   6.5526474  30.7952516
  14.4070970   7.1486899  30.7301978  13.8551501   6.2529932  31.6098386
  13.8782441   6.5967382  30.9055603  26.7508456   9.0841951  43.6638880
  27.3426297   9.7239202  43.6957078  27.1867451   8.3864988  43.9530947
  26.9026887   9.0760302  43.7119713  15.3504873   2.4840449  30.7697958
  15.6720714   2.0043532  30.1157221  15.6131817   3.2940095  30.5788770
  15.4370899   2.5330347  30.6453450  18.5801846  13.5059324  44.2896774
  18.0726937  14.0595171  44.7337405  18.2828492  13.5667614  43.4715549
  18.4606731  13.5965635  44.2345231  20.7464028   1.8712643  43.1321437
  21.1719100   1.4185170  42.5204964  20.1321021   1.3172714  43.4086225
  20.7192674   1.7226620  43.0826463  10.2778878   8.7494315  34.0642062
  10.7871108   9.3458822  34.4453368  10.7513151   8.4820288  33.3818482
  10.4222254   8.7980130  34.0196585  21.1909626  17.4222581  32.2200718
  20.4738936  17.2483444  31.7547955  21.8416364  17.1875154  31.6876204
  21.1811477  17.3618374  32.0729936  23.7757598   6.2987170  35.9642023
  23.1048787   6.8416872  35.8355088  24.4697348   6.7682025  35.7223718
  23.7786465   6.4485441  35.9097551  17.8244331  18.4383882  41.1953781
  17.6009986  17.6802711  41.5637808  17.3354175  18.4681903  40.4734221
  17.7187780  18.3306106  41.1430522  23.9385725   2.7543054  38.8732396
  24.2913335   2.3272777  39.5478195  23.0800527   2.6693897  39.0033472
  23.8635170   2.6787794  38.9927407  12.6369410   5.3850573  36.9315243
  11.9181399   5.8014706  37.1988106  13.0081772   5.9504812  36.3806881
  12.5861342   5.5299855  36.8898050  21.9368991   6.0178422  42.8217238
  21.9166918   5.8361717  43.6752017  21.9848192   6.8890441  42.7976822
  21.9403632   6.1194960  42.9440533  19.8815321  12.6065614  48.7465715
  19.8411176  11.9615291  48.1610871  20.6938639  12.5502232  49.0591127
  19.9958474  12.5024581  48.7062664  16.4722788  18.6584340  38.6490866
  16.0583187  17.9958470  38.2594707  17.1570163  18.8062199  38.1286560
  16.5121160  18.5824998  38.5147363  19.8388082  17.8174425  39.4014482
  19.4404366  17.9276696  38.6335303  19.2239302  18.0256492  39.9841042
  19.6886972  17.8647993  39.3745782  18.4115984   4.4248573  32.2688622
  17.8180824   4.7465570  31.7173189  18.4491262   3.5789669  32.0609728
  18.3290374   4.3472901  32.1571393  25.3709785  -2.1238535  39.8016709
  24.8640650  -2.8309395  39.7337886  26.1677219  -2.4545346  39.9317785
  25.4137024  -2.2765383  39.8115704  21.2873801   4.3828078  35.6990372
  21.0587494   4.4060779  34.8568731  21.5471877   3.5585545  35.8185383
  21.2919989   4.2644158  35.5915570  15.5693029   6.2362551  45.3015473
  15.0571933   5.6283734  45.6600504  15.3972526   6.9519143  45.7689448
  15.4682666   6.2525850  45.4231696  14.3418564   2.9204624  36.9944568
  14.8175930   3.2821704  36.3594749  13.8407163   3.5761092  37.2744711
  14.3383923   3.0698813  36.9421309  19.4462100   4.1586795  47.7417728
  20.0033530   3.9300605  47.1096194  19.1223165   4.9192461  47.4652940
  19.4808510   4.2370632  47.6074225  17.1645217   7.2454449  48.7069735
  17.9156544   7.5606126  49.0209289  17.3567794   7.0433620  47.8803657
  17.3036631   7.2621830  48.6313131  16.3845217   5.0645824  30.3617952
  16.7644182   5.0825453  29.5769067  15.6437813   5.5099813  30.2408799
  16.3314054   5.1327598  30.2281520  24.0130507   3.3728015  35.9493531
  24.0124734   3.2176672  36.8077807  23.8086687   4.2191002  35.8934916
  23.9830285   3.4748636  36.0681470  21.7371359   8.0525517  39.6029738
  22.2325025   7.3348512  39.5633758  20.9271135   7.7496314  39.4884224
  21.6915253   7.9023163  39.5803463  17.1829971  11.9023330  31.7526742
  16.3741293  11.5790004  31.7060051  17.6904880  11.1956552  31.6854991
  17.1379638  11.7504646  31.7357036   7.8120248   9.3295523  37.4774106
   6.9465768   9.3181214  37.3656877   7.9119064   9.1425746  38.3245246
   7.6994415   9.3001584  37.5863051  23.8023178  10.8029204  42.2906866
  24.2278250  10.2803626  41.7377291  23.4380098  11.4010042  41.7695489
  23.8109781  10.8139431  42.1315876  20.3901778  14.5163469  38.6208024
  20.8612956  15.2303731  38.7898009  20.7261956  13.9162219  39.1567893
  20.5096893  14.5334933  38.7240400  22.4778762  16.1264782  50.8000096
  22.5875728  15.3373343  51.1556843  22.8069659  16.0370718  49.9974434
  22.5431168  15.9970635  50.7342487  21.0275724  14.3081403  45.3835716
  20.4796670  13.6839286  45.1155782  21.4888753  14.4975675  44.6679796
  21.0142933  14.2440453  45.2386147  23.8369588   2.3766757  42.7686909
  23.2532577   2.8775964  42.3564476  24.1573882   1.8696313  42.1351232
  23.7982764   2.3758592  42.6145416  16.3764387   1.2907352  33.0445583
  17.1980082   1.4605665  32.8027278  15.9134038   1.4454613  32.3211881
  16.4295550   1.3389085  32.9017228  10.7790278  13.0466530  40.6982820
  11.3835135  13.0062364  40.0696641  10.5717591  13.8937682  40.7286876
  10.8379175  13.1654533  40.6098937  20.5934050  15.3132475  41.9145058
  21.4132424  15.1695441  42.1761353  20.3128128  15.9378674  42.4561495
  20.6730794  15.3842827  42.0332997   6.0141560  12.0301148  40.5681743
   5.9165838  11.2197419  40.8771800   6.7970430  12.0092941  40.1828011
   6.1157697  11.9068238  40.5568606  19.4238326  27.6274375  37.2893202
  19.1888510  26.7942027  37.1825471  19.5623966  27.9079040  36.4754403
  19.4093988  27.5457878  37.1535557  21.7228413  19.7960105  40.1877510
  21.1033445  19.2052753  40.0187525  21.6212277  20.3871541  39.5541833
  21.6166089  19.7964188  40.0682499  21.4497546  23.3412387  42.4321079
  21.3256243  23.9274833  43.0670898  22.1015831  22.8472583  42.7333354
  21.5271195  23.3551191  42.5707008  34.1999580  12.8937567  36.8480858
  33.8853021  13.5841045  37.2801281  33.6826522  12.8382349  36.1466359
  34.0764050  12.9872455  36.8077807  28.2803856  31.0318200  46.1133058
  27.7174691  30.6190810  46.6372719  29.0424880  30.9571106  46.5326201
  28.3098305  30.9595601  46.2526058  29.8888836  23.0370936  30.2394657
  30.1284840  23.2448920  29.4270000  30.2104677  22.2328445  30.3483602
  29.9725994  22.9485038  30.1355210  24.8878754  23.2591808  47.8450103
  25.0599258  23.1497703  48.6935385  25.4248112  23.9046214  47.6081295
  24.9923758  23.3383810  47.9355200  23.5536191  17.3734651  30.7832308
  23.3711764  17.5906532  29.9573301  24.4161804  17.4873664  30.8390923
  23.6540780  17.4224549  30.6686795  19.1940471  25.8523739  42.6803023
  18.9278886  25.0362856  42.8394013  19.2079035  25.8976895  41.8098539
  19.1565193  25.7380644  42.5756505  36.1721865  16.1801554  40.7145457
  36.8147773  16.2499659  41.3007372  36.4244886  15.5130777  40.2124999
  36.3043997  16.0927903  40.7272736  23.9439077  19.3902118  45.3270031
  23.2510874  18.9199097  45.5730762  24.5599405  19.1640422  45.9011738
  23.9323607  19.2869250  45.4479183  19.6033885  26.6382519  39.9614767
  19.4209458  26.6129405  39.1087060  20.3383554  27.1081457  40.0003676
  19.6847949  26.7043881  39.8412686  22.6679636  23.3567522  46.4696876
  23.3919609  23.3420552  46.9561771  22.7695773  24.0662877  45.9718844
  22.7897845  23.4592225  46.4675663  30.0424586  26.8366606  51.3345823
  29.2497567  27.1510118  51.5198443  30.1573513  27.0518075  50.4966608
  29.9419996  26.9150443  51.2384158  19.5704795  23.5176019  40.1113834
  20.1478298  23.3812470  40.7506079  18.8718857  23.0611804  40.3659418
  19.5525816  23.4298286  40.2436124  15.0463628  22.3687912  36.8261653
  15.1323880  21.9919781  37.6075183  15.6739426  21.9948358  36.3481611
  15.1520179  22.2573395  36.8707130  20.6339587  31.1379645  40.8793013
  20.6743732  31.4094497  40.0512793  21.1934111  31.6621554  41.2950801
  20.7222933  31.2555401  40.8184901  26.7498300  17.4000014  51.0496183
  26.4351741  18.1699577  50.7865746  26.4288233  16.8370270  50.4648410
  26.6557219  17.4310283  50.9237533  33.4263086  15.9368395  44.9953701
  34.1716678  15.7478205  44.5817127  33.0100390  16.4626633  44.4367558
  33.4748060  15.9870540  44.8518274  23.7175865  26.4039174  38.7381821
  23.4289114  25.7776645  39.2727548  24.5859213  26.3459461  38.8046501
  23.8036117  26.3026718  38.8272775  26.3814805  19.9997265  49.7881398
  25.5714581  20.3055045  49.6771240  26.8589492  20.7202847  49.9033982
  26.3318284  20.1511866  49.7888469  22.7158837  25.5359815  44.6580800
  23.2279934  25.8144069  44.0089560  22.4295180  26.2749109  45.0243613
  22.7493700  25.6862169  44.6170678  19.8025744  20.0430007  34.9544537
  19.9041880  20.8456169  35.2825512  20.5981630  19.8417343  34.6567617
  19.9353649  20.1315906  34.9579892  20.6189476  20.1577185  42.6965658
  20.4774967  19.3061126  42.8210166  20.9030039  20.2005846  41.8727864
  20.6397322  20.0376935  42.5933282  25.8052850  32.9203766  43.1194156
  25.9542414  32.3606682  42.4667561  26.5852852  32.9995768  43.5026675
  25.9426944  32.8489331  43.0791106  28.3306151  33.0918409  44.3978647
  28.2549822  32.4227219  44.9529436  28.2596010  33.7936197  44.9119314
  28.3086758  33.0963316  44.5555495  21.3879781  18.0707533  46.0143109
  20.8521970  17.4587891  46.3303876  21.4497546  18.6455669  46.6676775
  21.3175414  18.0654461  46.1578535  33.6174116  11.0031588  38.7947508
  33.7357684  11.4608052  38.0614811  33.4436291  10.1976850  38.5083726
  33.6093287  10.9525361  38.6448442  23.5068537  25.4788267  35.8263163
  23.6633156  25.4135070  36.6819155  23.8469130  26.2536820  35.6141843
  23.5801772  25.5837465  35.9217757  20.0802798  22.6623218  36.1423931
  20.4601763  23.0807762  35.4784198  19.5058163  23.2436673  36.4492774
  20.0514123  22.8101076  36.0900671  30.4529546  22.7631592  50.4690836
  30.9229177  23.3873708  50.8558711  30.4991426  22.0948567  51.0284051
  30.5297422  22.7566272  50.6090908  29.3450195  12.2948565  45.3142753
  29.9743313  12.8308865  45.0363823  29.5136058  12.2025924  46.1656318
  29.4627990  12.3609927  45.3991281  29.1464110  17.0819759  47.5869164
  29.9737539  16.8104908  47.6427779  29.1671956  17.8780601  47.9432982
  29.2716960  17.1599514  47.6484347  23.7233600  24.2283622  40.7739425
  22.8821606  24.1287496  40.9818319  23.9323608  24.9979103  41.1253746
  23.6298292  24.3275666  40.8566740  21.2009167  21.8503159  38.6024176
  20.8065864  21.9246171  37.8274285  20.6449284  22.2361106  39.1532537
  21.0611979  21.9184934  38.5691835  25.5968616  29.3714742  44.7309120
  25.4888971  29.3816804  45.5971178  25.8064397  30.1969523  44.5414074
  25.6118727  29.4955817  44.8313212  36.0907801  15.3816218  37.7630820
  35.4782115  15.8686620  38.1484552  36.1871976  14.7059708  38.3068471
  36.0145699  15.3534526  37.9009678  23.6142408  26.6227385  42.1931058
  23.0230341  27.2636883  42.1634073  24.3763431  27.0465002  42.1662357
  23.6390668  26.7803223  42.1846205  24.0103030  17.7829382  42.8599075
  24.4704512  17.8568312  43.5974199  24.0559137  18.5810636  42.5098897
  24.0853586  17.9123529  42.9171832  25.6586380  18.4496077  47.4271103
  25.2671945  17.8029424  47.8626880  25.8272243  19.0407512  48.0465358
  25.6257291  18.4410345  47.5833809  20.7990808  21.4118573  45.2350792
  21.6616421  21.3114282  45.1488121  20.4682591  20.8313282  44.6736364
  20.8776005  21.3110200  45.1396198  24.3434343  18.5786140  27.9533895
  23.9947147  19.2305866  28.4165444  23.8630789  18.5643254  27.2257766
  24.2204587  18.6729194  27.9144986  20.8718270  28.2961482  43.3364974
  20.3418194  27.6053921  43.3859949  21.1443363  28.2871667  42.5077683
  20.8342992  28.1928614  43.2212390  23.4283340  21.8454170  44.1136078
  23.5876826  21.0897494  44.5187800  23.2476233  22.3945109  44.7676816
  23.4248699  21.8147984  44.2698784  16.1514112  24.9689246  40.6933322
  16.0457561  24.9236091  39.8285406  15.4014332  25.3143027  40.9747607
  16.0249715  25.0130154  40.6070652  27.1037457  25.9789309  48.7416217
  26.2533088  26.1161024  48.8773862  27.2665585  25.2453088  49.1863919
  27.0021321  25.8903411  48.8271816  24.1505991  16.4197972  48.5726232
  24.7758694  15.8760105  48.8455665  23.6956471  15.9392890  48.0034023
  24.1754252  16.2687454  48.5287826  21.2511462  24.2679623  34.0642062
  21.7603691  24.8644130  34.4453368  21.7245734  24.0005596  33.3818482
  21.3954838  24.3165438  34.0196585  36.3442369  13.3946773  39.8016709
  35.8373233  12.6875913  39.7337886  37.1409802  13.0639962  39.9317785
  36.3869608  13.2419925  39.8115704  21.3891328  20.1985434  47.9517834
  21.2193918  20.8586809  47.4066041  20.9457278  20.4091995  48.6730323
  21.2990661  20.3271416  47.9779464  30.4194683  19.6772103  47.7417728
  30.9766114  19.4485913  47.1096194  30.0955748  20.4377769  47.4652940
  30.4541094  19.7555940  47.6074225  18.2893392  23.1032300  43.2106324
  17.7420112  22.4332945  43.3287192  19.0785770  22.7362147  43.2749791
  18.3245576  22.9497286  43.2375025  28.1377801  22.7639757  48.7069735
  28.8889128  23.0791433  49.0209289  28.3300377  22.5618928  47.8803657
  28.2769215  22.7807138  48.6313131  17.0480362  22.3153107  40.3652347
  16.8702123  21.8629716  41.0907263  16.7599384  23.1179269  40.5490825
  16.9793315  22.3675665  40.4995850  18.7852832  24.8480831  37.4774106
  17.9198351  24.8366522  37.3656877  18.8851647  24.6611054  38.3245246
  18.6726999  24.8186892  37.5863051  24.4109841  34.6178730  41.0504212
  24.7256400  35.4315118  41.0581994  24.8203255  34.2328948  41.7186371
  24.5177939  34.6807432  41.1508303  28.2803856  14.8076247  45.5766119
  28.4131762  14.0107240  45.9047094  28.6649009  15.3342650  46.1564394
  28.3560185  14.7676164  45.7109621  25.9392303  14.8035422  43.8244012
  26.4836716  14.4626549  44.4148354  25.9929239  15.6620884  43.9665297
  26.0281422  14.8790681  43.9325886  21.7522862  28.5651838  40.6982820
  22.3567719  28.5247672  40.0696641  21.5450174  29.4122990  40.7286876
  21.8111759  28.6839841  40.6098937  16.9874144  27.5486456  40.5681743
  16.8898422  26.7382727  40.8771800  17.7703014  27.5278249  40.1828011
  17.0890280  27.4253546  40.5568606  55.5206269  59.3630120  49.2401320
  56.2273036  58.8682150  49.3688255  55.7094205  59.8039201  48.5103978
  55.6534175  59.3548470  49.1510366  51.5882943  65.0045950  36.7674755
  51.9722323  65.5732849  36.2279530  51.5242085  64.2795460  36.2880571
  51.6356371  64.9821413  36.6168617  48.0139188  67.5602293  39.0655724
  48.6576644  68.0015457  39.4551883  48.3395444  66.7555719  38.9785983
  48.1571017  67.5067488  39.1101202  50.9607146  60.3999626  41.3615482
  51.2430388  59.6051031  41.1402238  51.6893306  60.8780213  41.3820543
  51.1096709  60.3534223  41.3318498  60.9425234  59.5058988  38.3351313
  60.1122937  59.7169632  38.4984730  60.8934486  58.6796042  38.0593597
  60.8131969  59.4148594  38.3188679  42.9320817  63.5430661  38.5649408
  42.4488396  64.2681151  38.5408992  43.7444136  63.8406791  38.6759566
  42.9811565  63.6933015  38.5776687  49.0034971  62.3362842  41.1699223
  48.4861913  61.9770257  40.5660531  49.7009363  61.8125016  41.1805289
  49.0300553  62.2060530  41.0829481  52.6598563  62.7857656  47.1315396
  52.7481909  62.5983797  47.9793606  53.0888276  62.1395086  46.7320243
  52.7360666  62.6620664  47.1987147  50.2269023  62.0688816  46.1133058
  49.6639858  61.6561426  46.6372719  50.9890047  61.9941722  46.5326201
  50.2563472  61.9966217  46.2526058  45.7865015  64.0586837  38.7169688
  46.4885594  63.5438826  38.7742445  45.7062498  64.3860989  39.5216563
  45.8788775  64.0301063  38.8442480  45.7368493  60.6694064  42.5268602
  46.2766718  60.5265195  43.1971974  45.0538439  61.0690815  42.8952628
  45.7160647  60.7073735  42.6803023  58.1989549  60.1758342  38.4716029
  57.7624781  60.1795085  39.2275000  57.8652465  60.8563841  38.0395606
  58.0852169  60.2770798  38.5196862  52.7718623  62.2166675  49.7959179
  53.5559039  62.3297523  50.1614921  52.5715217  61.3907812  49.9917865
  52.8584648  62.1113395  49.8793565  52.9289016  64.1276777  43.4425635
  52.1304262  63.8876277  43.6999504  53.3775028  64.1791170  44.1892683
  52.8763627  64.0999168  43.5910559  59.4489183  56.7506311  34.9417259
  59.7797400  57.2833951  34.3357354  60.0222271  56.8045198  35.5979210
  59.5822862  56.8375879  34.9495041  51.9889753  57.8737222  51.3345823
  51.1962734  58.1880734  51.5198443  52.1038680  58.0888691  50.4966608
  51.8885163  57.9521059  51.2384158  52.9173546  57.7757426  46.2731120
  53.4912407  57.1384670  46.4279684  52.8388349  57.7761508  45.4040777
  52.9906781  57.6822537  46.1677531  58.2393694  59.1466403  46.2815973
  58.0032331  58.3154468  46.1628034  58.8836923  59.0952011  46.8670817
  58.2988364  59.0164091  46.3501867  59.2630114  58.9310852  42.3444268
  58.9575931  59.6638909  42.7057583  58.5436330  58.5248782  42.0637054
  59.1117456  58.9792585  42.3557405  64.9631906  55.5703853  41.6712612
  64.8956407  55.5899812  40.8015198  64.9487569  56.4134180  41.8968282
  64.9510663  55.6977588  41.5765089  48.8118169  63.3769090  33.4065969
  49.1016468  62.9858072  32.6825196  49.5421650  63.5585795  33.8471244
  48.9625054  63.3462904  33.3648776  46.7524085  65.3536473  36.4726119
  46.5324380  65.0633828  37.2652786  46.5318607  64.6951428  35.9444031
  46.6871679  65.2136181  36.5115028  48.9192041  66.7265863  35.2556811
  49.5716099  66.1942305  35.4847837  48.2217649  66.3734515  35.6424685
  48.9122759  66.5955386  35.3468979  56.9131959  59.0470277  34.5987791
  57.4789992  59.7063487  34.5146333  56.2659862  59.3919975  35.0704193
  56.9010715  59.1952218  34.6560547  53.3838537  61.9909061  34.0224870
  53.1425213  61.2576922  33.6151935  53.5639870  62.5395918  33.3691203
  53.3746161  61.9631452  33.8655093  56.6141284  59.7398251  40.6296928
  56.4755643  60.4379297  41.1345670  55.8341282  59.5846907  40.2733110
  56.4784511  59.8198417  40.6523202  54.9519369  56.0394626  46.8819309
  54.9467408  55.1674443  46.8861736  55.6580363  56.2382795  46.4088765
  55.0564373  55.9398500  46.8126345  47.7518017  63.9574382  43.1194156
  47.9007581  63.3977298  42.4667561  48.5318020  64.0366384  43.5026675
  47.8892111  63.8859947  43.0791106  58.1094657  59.0976505  31.3913427
  57.7301466  58.3113642  31.3842716  57.4460902  59.6463362  31.2485071
  57.9553132  59.0621329  31.3694224  50.2771318  64.1289025  44.3978647
  50.2014989  63.4597835  44.9529436  50.2061177  64.8306813  44.9119314
  50.2551925  64.1333932  44.5555495  50.9341565  62.6490024  35.2302253
  51.6991456  62.3799667  34.9084918  50.8319655  62.1640034  35.9472316
  51.0323060  62.5379588  35.2882081  56.3554756  61.3421996  31.7265113
  56.4374593  62.1488982  31.4026564  56.8404498  61.3617955  32.4505886
  56.4391914  61.4642658  31.7852011  49.6662952  67.5357344  42.8556648
  50.1558883  66.8368134  42.6732313  49.0947185  67.2381214  43.4432705
  49.6547482  67.3883568  42.9157689  55.8629956  60.1019414  51.8083439
  56.6764821  59.8304563  51.9688571  55.7024922  59.8026954  51.0043635
  55.9599904  60.0174340  51.7128845  54.5506786  63.7071819  36.1933048
  54.1586578  63.4038534  35.4755914  54.7059858  64.5440909  36.0038002
  54.5160376  63.7855656  36.0589545  54.7146461  60.2721808  36.1339078
  54.3561115  60.4436451  36.9103111  54.2285171  60.7335014  35.5767077
  54.5905158  60.3660779  36.1664348  55.8751200  61.1625704  47.0806279
  56.5130920  60.6685900  46.7468735  55.2325292  61.0903105  46.4958506
  55.8745426  61.0784713  46.9448634  55.9305457  61.8545512  43.7211636
  56.7197835  61.5034577  43.8413718  56.1049054  62.6681901  43.4588270
  56.0725738  61.9231370  43.6999504  47.5433783  60.4085358  44.7309120
  47.4354138  60.4187420  45.5971178  47.7529564  61.2340138  44.5414074
  47.5583894  60.5326433  44.8313212  55.3197091  63.1107312  39.6263082
  55.1216780  63.5998126  38.9319294  54.6984802  63.3148554  40.2047216
  55.1984656  63.2123850  39.6086306  57.2370893  56.6771464  45.1608331
  57.9605092  56.2243991  44.9819351  56.9720855  56.9576130  44.3780659
  57.3052166  56.6522433  45.0187046  53.8503527  59.9157800  32.0602657
  54.5737726  60.3815913  31.9167230  53.4104118  59.9831410  31.3100254
  53.8919220  59.9941637  31.9287438  38.0979279  56.0059862  40.6933322
  37.9922728  55.9606706  39.8285406  37.3479499  56.3513643  40.9747607
  37.9714882  56.0500770  40.6070652  51.4999597  60.0615248  44.2896774
  50.9924688  60.6151094  44.7337405  51.2026243  60.1223537  43.4715549
  51.3804482  60.1521559  44.2345231  54.1107377  63.9778505  32.2200718
  53.3936687  63.8039367  31.7547955  54.7614115  63.7431078  31.6876204
  54.1009228  63.9174298  32.0729936  50.7442082  64.9939806  41.1953781
  50.5207737  64.2358635  41.5637808  50.2551925  65.0237827  40.4734221
  50.6385531  64.8862030  41.1430522  52.8013071  59.1621538  48.7465715
  52.7608926  58.5171215  48.1610871  53.6136390  59.1058155  49.0591127
  52.9156225  59.0580505  48.7062664  49.3920539  65.2140264  38.6490866
  48.9780938  64.5514394  38.2594707  50.0767913  65.3618123  38.1286560
  49.4318911  65.1380922  38.5147363  52.7585833  64.3730349  39.4014482
  52.3602116  64.4832619  38.6335303  52.1437053  64.5812415  39.9841042
  52.6084722  64.4203917  39.3745782  60.4927676  58.9482316  32.7857573
  60.8761282  59.6973672  33.0155670  59.6971789  59.1948136  32.5269562
  60.4321458  59.0952010  32.7815147  46.3575009  65.6549346  41.0504212
  46.6721568  66.4685734  41.0581994  46.7668422  65.2699564  41.7186371
  46.4643107  65.7178048  41.1508303  53.3099528  61.0719392  38.6208024
  53.7810706  61.7859655  38.7898009  53.6459707  60.4718142  39.1567893
  53.4294643  61.0890857  38.7240400  55.3976513  62.6820706  50.8000096
  55.5073478  61.8929266  51.1556843  55.7267409  62.5926642  49.9974434
  55.4628919  62.5526559  50.7342487  53.9473475  60.8637327  45.3835716
  53.3994421  60.2395210  45.1155782  54.4086503  61.0531599  44.6679796
  53.9340684  60.7996377  45.2386147  53.5131801  61.8688399  41.9145058
  54.3330175  61.7251365  42.1761353  53.2325879  62.4934598  42.4561495
  53.5928544  61.9398751  42.0332997  38.9339311  58.5857072  40.5681743
  38.8363589  57.7753343  40.8771800  39.7168181  58.5648865  40.1828011
  39.0355448  58.4624162  40.5568606  69.9845451  69.5253251  34.8787934
  69.9539456  70.3797888  35.0506203  70.5826800  69.2248543  35.4374078
  70.0682609  69.6069747  34.9862736  63.1845136  68.6128902  39.6340864
  62.3283032  68.7737400  39.6849981  63.2312790  67.7420966  39.6545925
  63.0644248  68.5079704  39.6446930  57.5686276  78.1491620  35.3978096
  56.8169175  77.7707158  35.1694141  58.0172288  78.1810053  34.6496906
  57.5235943  78.0977227  35.2535598  66.4938853  74.8815428  49.2401320
  67.2005620  74.3867458  49.3688255  66.6826788  75.3224509  48.5103978
  66.6266758  74.8733778  49.1510366  66.0296957  70.6720946  42.2772516
  66.5752917  71.3506032  42.3366486  65.9713833  70.5308407  41.4174098
  66.1012872  70.7512948  42.1584577  59.1471032  78.1610012  37.6640868
  59.2481395  77.3510366  37.9737996  58.5512777  78.0666958  37.0340547
  59.0743571  78.0275040  37.6167107  67.8062026  72.1005553  33.1506244
  67.6901552  72.8513239  33.5798382  68.6017913  71.8429506  33.4002331
  67.9066615  72.1740400  33.2510335  52.3436076  74.1830298  37.2893202
  52.1086261  73.3497951  37.1825471  52.4821717  74.4634964  36.4754403
  52.3291739  74.1013802  37.1535557  54.6426164  66.3516029  40.1877510
  54.0231195  65.7608676  40.0187525  54.5410027  66.9427464  39.5541833
  54.5363839  66.3520112  40.0682499  59.6892351  76.0899576  34.4375586
  60.0108192  76.6304783  33.8336894  60.3364448  75.5196347  34.5697876
  59.8318407  76.0858751  34.3682622  61.7394059  68.0915571  34.5209973
  62.4374224  68.2703698  35.0131436  62.0546392  67.5685910  33.8980362
  61.8889397  68.0409343  34.5011983  54.3695297  69.8968311  42.4321079
  54.2453994  70.4830756  43.0670898  55.0213581  69.4028507  42.7333354
  54.4468946  69.9107115  42.5707008  61.9281995  74.4786016  34.5089764
  62.3675630  73.8703116  34.9544537  61.7786658  74.0993389  33.7375229
  61.9703460  74.3324487  34.4608932  59.3953638  73.0730028  41.7108590
  60.0402640  72.5802471  41.3919538  59.6355415  73.2154814  42.5374668
  59.5264223  73.0207470  41.7858123  61.9339729  75.9184934  41.3615482
  62.2162972  75.1236339  41.1402238  62.6625890  76.3965521  41.3820543
  62.0829293  75.8719531  41.3318498  59.9120923  63.4607968  38.6031248
  59.5824253  63.9119111  37.9334946  59.2365925  63.3824131  39.1504254
  59.7631359  63.5159103  38.5854471  65.5291331  72.8313197  31.4620534
  65.4442626  73.6874164  31.6070102  66.0175715  72.5557521  32.1302693
  65.5880229  72.9170519  31.5822615  67.1197331  59.4493490  36.8480858
  66.8050772  60.1396969  37.2801281  66.6024272  59.3938273  36.1466359
  66.9961801  59.5428379  36.8077807  66.4609765  69.4497991  32.9618269
  65.9321236  69.6657625  33.6215575  66.9834785  70.1434130  32.8819238
  66.4598218  69.5841128  33.0473868  58.3509372  73.3461208  31.7625737
  57.7666588  73.8511240  32.1691601  57.9479468  73.1203595  31.0222329
  58.2048676  73.3869456  31.7130762  53.9053401  79.0615969  38.5649408
  53.4220979  79.7866459  38.5408992  54.7176719  79.3592099  38.6759566
  53.9544149  79.2118323  38.5776687  59.9767555  77.8548150  41.1699223
  59.4594497  77.4955565  40.5660531  60.6741946  77.3310324  41.1805289
  60.0033136  77.7245838  41.0829481  61.2001607  77.5874124  46.1133058
  60.6372442  77.1746734  46.6372719  61.9622630  77.5127030  46.5326201
  61.2296055  77.5151525  46.2526058  62.8086587  69.5926860  30.2394657
  63.0482590  69.8004844  29.4270000  63.1302428  68.7884369  30.3483602
  62.8923745  69.5040961  30.1355210  58.1176877  61.5220256  34.0854195
  58.8722845  61.8898573  33.8471245  57.9404412  61.8959810  34.8533375
  58.2031355  61.6318444  34.1639084  56.7597598  79.5772145  38.7169688
  57.4618178  79.0624134  38.7742445  56.6795081  79.9046297  39.5216563
  56.8521359  79.5486371  38.8442480  71.4111776  67.6714696  42.1301735
  70.5740197  67.7416884  42.3649329  71.3800007  67.6739191  41.2576037
  71.2830058  67.6824924  42.0361283  57.8076505  69.8147732  47.8450103
  57.9797009  69.7053627  48.6935385  58.3445862  70.4602138  47.6081295
  57.9121509  69.8939734  47.9355200  56.4733942  63.9290575  30.7832308
  56.2909515  64.1462456  29.9573301  57.3359555  64.0429588  30.8390923
  56.5738531  63.9780473  30.6686795  56.0848374  75.7678497  38.2255296
  56.9237273  76.0001430  38.2729058  56.1160143  74.8982809  38.1562332
  56.2130091  75.6735444  38.2219941  56.7101077  76.1879372  42.5268602
  57.2499302  76.0450503  43.1971974  56.0271023  76.5876123  42.8952628
  56.6893231  76.2259043  42.6803023  62.1533661  60.9316986  33.8181332
  62.8819821  60.7532941  33.3719488  62.2428554  61.7735065  34.0288510
  62.2740323  61.0300864  33.7834850  66.1341962  71.8670373  37.7213626
  66.8899477  72.3001887  37.7602535  66.2404286  71.2175143  38.2948262
  66.2612132  71.8347857  37.8111652  52.1138222  72.4079663  42.6803023
  51.8476637  71.5918780  42.8394013  52.1276786  72.4532819  41.8098539
  52.0762944  72.2936568  42.5756505  69.0919616  62.7357478  40.7145457
  69.7345524  62.8055583  41.3007372  69.3442636  62.0686701  40.2124999
  69.2241748  62.6483827  40.7272736  56.0195969  67.2064748  29.2954781
  55.3054146  66.9202927  29.7077214  56.5039937  67.5461373  29.9361169
  55.9855332  67.2146397  29.4510416  56.8636828  65.9458041  45.3270031
  56.1708625  65.4755021  45.5730762  57.4797155  65.7196346  45.9011738
  56.8521358  65.8425173  45.4479183  63.1943287  75.7094702  29.6716589
  63.6094435  75.3779725  28.9801085  62.3635216  75.4763604  29.5436726
  63.1331295  75.6265958  29.5507437  52.5231635  73.1938443  39.9614767
  52.3407209  73.1685329  39.1087060  53.2581304  73.6637380  40.0003676
  52.6045699  73.2599805  39.8412686  68.5931310  73.4289953  37.1047655
  68.8286899  73.5735151  36.2774506  68.7420873  74.1932361  37.4979169
  68.6497113  73.5629007  37.0411259  55.5877387  69.9123445  46.4696876
  56.3117359  69.8976476  46.9561771  55.6893524  70.6218801  45.9718844
  55.7095596  70.0148149  46.4675663  70.4221766  72.2691618  34.9417259
  70.7529983  72.8019259  34.3357354  70.9954854  72.3230506  35.5979210
  70.5555445  72.3561187  34.9495041  62.9622337  73.3922530  51.3345823
  62.1695317  73.7066042  51.5198443  63.0771264  73.6073998  50.4966608
  62.8617747  73.4706367  51.2384158  65.6353655  70.1156521  35.6240839
  65.7300510  70.8545815  36.0780464  65.0112499  69.6873997  36.0575403
  65.5562686  70.1617842  35.7548986  63.8906129  73.2942734  46.2731120
  64.4644991  72.6569978  46.4279684  63.8120933  73.2946816  45.4040777
  63.9639364  73.2007845  46.1677531  52.4902546  70.0731943  40.1113834
  53.0676048  69.9368394  40.7506079  51.7916607  69.6167727  40.3659418
  52.4723567  69.9854209  40.2436124  65.8876677  71.9605261  28.8577791
  65.8056839  72.0307448  29.7232778  66.5256397  72.5235005  28.6661532
  65.9696514  72.0544232  28.9567740  59.2469848  71.7265999  38.3252317
  58.9889092  70.8937734  38.2983617  59.3018331  71.9523612  37.4844818
  59.2169626  71.6363770  38.1972454  64.3270898  63.8294450  38.4256410
  63.6227225  63.3403635  38.5840329  64.3755872  63.8416924  37.5544854
  64.2300950  63.7584098  38.3195750  58.2204560  69.2803761  38.8117212
  57.6454151  69.4395930  39.4481173  57.8440236  68.6439171  38.3485663
  58.0807372  69.2101574  38.8371770  61.8877849  67.7527111  43.6709590
  61.4992281  67.3281328  43.0161782  61.2232547  68.0009260  44.1786617
  61.7324777  67.7265832  43.6497458  71.5301118  67.5102115  36.4457420
  71.2737683  66.6982057  36.2555303  72.3730432  67.5179683  36.2187608
  71.6167143  67.3914113  36.3842238  47.9661379  68.9243836  36.8261653
  48.0521631  68.5475704  37.6075183  48.5937176  68.5504282  36.3481611
  48.0717930  68.8129318  36.8707130  65.7104210  61.4501739  41.1833575
  66.0914722  60.7679911  41.5701449  64.9067495  61.1611342  41.0009239
  65.6480672  61.3068788  41.2137631  62.9916787  71.9825715  31.8686397
  63.8057426  72.2740608  31.7569169  62.9275928  71.3285578  31.2944690
  63.1019526  71.9290910  31.7675235  58.8624695  75.4547233  36.9958709
  59.4998642  75.2158980  37.5410503  59.2879767  75.6584392  36.2611870
  59.0200861  75.4498243  36.9675867  53.5537338  77.6935569  40.8793013
  53.5941483  77.9650420  40.0512793  54.1131862  78.2177477  41.2950801
  53.6420684  77.8111324  40.8184901  59.5027510  70.6749522  31.3333599
  59.8872663  70.4557229  32.0850144  59.2539131  71.5012468  31.4634675
  59.5229583  70.7647669  31.4634675  59.6696051  63.9555938  51.0496183
  59.3549492  64.7255500  50.7865746  59.3485983  63.3926194  50.4648410
  59.5754970  63.9866206  50.9237533  61.2446167  75.9319655  38.6752496
  61.3185175  75.7694827  39.5294346  62.0615674  76.1209845  38.4312977
  61.3762526  75.9356398  38.7650521  55.0051924  76.2777518  35.7046939
  54.1790042  76.5239255  35.5781218  55.0663915  76.1989599  36.5708997
  54.8926091  76.3022467  35.8135884  57.2227948  62.3446459  36.6642379
  56.3550373  62.4169059  36.7299989  57.5103152  63.1468538  36.8530354
  57.1367696  62.4740606  36.7017146  66.3460836  62.4924319  44.9953701
  67.0914428  62.3034129  44.5817127  65.9298141  63.0182556  44.4367558
  66.3945811  62.5426464  44.8518274  59.7850753  78.8954398  33.4065969
  60.0749051  78.5043380  32.6825196  60.5154234  79.0771103  33.8471244
  59.9357637  78.8648212  33.3648776  73.7223107  69.8633547  39.9459206
  74.2731029  69.2301616  40.1856298  73.7067223  70.3948940  40.6374710
  73.8008304  69.8482495  40.0838064  60.3745498  73.6972144  44.4919100
  59.8757192  74.4087912  44.5703988  61.1845722  74.0172811  44.4537262
  60.4201605  73.8498993  44.4975668  57.7256669  80.8721781  36.4726119
  57.5056964  80.5819136  37.2652786  57.5051191  80.2136736  35.9444031
  57.6604263  80.7321489  36.5115028  56.6373616  72.9595097  38.7381821
  56.3486864  72.3332569  39.2727548  57.5056964  72.9015385  38.8046501
  56.7233868  72.8582642  38.8272775  67.4251513  68.1029881  39.0563802
  67.0816279  67.3820216  39.4071052  67.5244556  67.8943732  38.2142161
  67.3893556  67.9654084  38.9835482  56.8405889  74.5990348  34.6624186
  57.5951857  74.9803387  34.8759648  56.2476502  75.0501492  35.1170882
  56.8642603  74.7219176  34.7607064  59.3012556  66.5553189  49.7881398
  58.4912332  66.8610968  49.6771240  59.7787243  67.2758771  49.9033982
  59.2516035  66.7067790  49.7888469  58.1604116  75.7698910  40.0364301
  57.6384869  75.9099201  40.7216166  58.5478136  75.0109574  40.2266418
  58.1407817  75.6784434  40.1665377  55.1495300  65.8204718  34.1059256
  54.8620095  65.4505989  33.3691203  55.8365768  66.2899574  33.8442961
  55.2084197  65.8351688  33.9574331  59.5870441  72.8002929  35.4345792
  59.3913224  73.4077663  34.8406095  59.8104787  72.1070873  34.9537466
  59.5905082  72.7880454  35.2761873  57.9848971  69.6857667  35.5526660
  58.7071623  69.8498825  35.0930466  57.5056964  70.4067331  35.4466000
  58.0212702  69.8155896  35.4692274  65.9442479  66.0221465  40.9323345
  65.1053580  66.0482744  40.6961609  66.0146846  66.6692201  41.5128692
  65.8310872  66.1217591  40.9832462  55.6356588  72.0915739  44.6580800
  56.1477685  72.3699992  44.0089560  55.3492931  72.8305033  45.0243613
  55.6691451  72.2418093  44.6170678  64.3911757  62.9206842  35.6650961
  65.0938110  62.7214591  35.1870919  64.1255946  62.1482785  35.9719805
  64.4558389  62.7769809  35.6396403  69.8200003  71.2289452  38.2184587
  69.7333977  71.3844878  39.0719366  69.3650483  71.8727528  37.8443992
  69.7403259  71.3465207  38.2891694  52.7223494  66.5985931  34.9544537
  52.8239631  67.4012092  35.2825512  53.5179381  66.3973267  34.6567617
  52.8551400  66.6871830  34.9579892  59.1540313  64.1842128  44.7181842
  58.9623510  64.1997262  45.5681265  60.0038909  64.3805802  44.6948497
  59.2516035  64.2156479  44.8405137  53.5387226  66.7133109  42.6965658
  53.3972718  65.8617050  42.8210166  53.8227790  66.7561770  41.8727864
  53.5595072  66.5932859  42.5933282  63.6925819  68.5500199  36.8410147
  63.4460533  68.4695950  37.6746935  64.0210942  67.7653667  36.6472674
  63.7047062  68.4226465  36.9357670  65.9251953  71.5579934  46.8819309
  65.9199991  70.6859751  46.8861736  66.6312947  71.7568103  46.4088765
  66.0296957  71.4583808  46.8126345  59.6522846  71.2856918  46.2533130
  59.7966222  71.8658126  45.6176240  59.9998495  71.6633215  46.9582984
  59.7250307  71.4277622  46.2632125  61.8242763  70.4847086  44.0358261
  61.0766077  70.6778101  43.6306539  61.9784289  69.6592306  43.7982383
  61.7365191  70.3912198  43.9403667  58.7250601  79.4759690  43.1194156
  58.8740165  78.9162606  42.4667561  59.5050603  79.5551691  43.5026675
  58.8624695  79.4045255  43.0791106  62.0644540  64.3797637  44.9253665
  62.5217155  65.1121611  45.0526457  62.1400869  63.9564102  45.6840921
  62.1435510  64.4254875  45.0554741  54.3077532  64.6263457  46.0143109
  53.7719721  64.0143815  46.3303876  54.3695296  65.2011593  46.6676775
  54.2373164  64.6210384  46.1578535  66.5371866  57.5587512  38.7947508
  66.6555434  58.0163976  38.0614811  66.3634042  56.7532773  38.5083726
  66.5291037  57.5081284  38.6448442  61.9074149  78.1675331  35.2302253
  62.6724040  77.8984975  34.9084918  61.8052239  77.6825342  35.9472316
  62.0055644  78.0564896  35.2882081  59.9426918  66.3699741  41.7695489
  59.1522993  66.1891201  42.0912825  60.3387541  65.5926694  41.7525783
  59.8843795  66.2287202  41.8148037  64.4292809  75.1987515  27.2102203
  65.1965794  75.2587640  26.8008054  63.9824118  74.6267957  26.7258521
  64.4766236  75.1224091  27.0779913  65.3270605  74.0042171  39.4954935
  64.6515606  73.7727403  39.9968322  65.3362981  73.3963354  38.8697040
  65.2289109  73.8801096  39.4771087  62.4564749  68.8460000  46.2518988
  62.3923890  69.7069957  46.1239125  62.5961936  68.5291993  45.4514539
  62.4680219  68.9260167  46.1147201  61.1383843  71.5392139  40.3935191
  60.7146092  71.7396638  39.6574209  60.9628698  70.6920987  40.5059491
  61.0494723  71.4440921  40.3008881  56.4266288  72.0344191  35.8263163
  56.5830907  71.9690994  36.6819155  56.7666881  72.8092743  35.6141843
  56.4999522  72.1393389  35.9217757  62.9645432  71.4102074  34.6956527
  63.5060978  70.9072456  35.1595147  63.2791991  71.3567269  33.8846012
  63.0909829  71.3281495  34.6440339  61.1331882  76.8019426  31.9796555
  61.2024702  75.9433964  32.1189555  61.9120337  77.0191307  31.6515579
  61.2584732  76.7072290  31.9513712  64.1134702  66.3038379  44.7478827
  64.3276671  65.6649293  44.1942181  63.4968601  66.7484203  44.3186689
  64.0540031  66.2748523  44.6029258  53.0000549  69.2179141  36.1423931
  53.3799514  69.6363686  35.4784198  52.4255914  69.7992597  36.4492774
  52.9711874  69.3657000  36.0900671  66.2773790  67.9127444  45.6862134
  65.4650471  67.6053334  45.7675307  66.7363724  67.4326444  46.2504846
  66.2254174  67.7963936  45.7816728  65.6879044  75.7907116  36.1339078
  65.3293699  75.9621759  36.9103111  65.2017755  76.2520322  35.5767077
  65.5637741  75.8846087  36.1664348  60.4767410  71.4706281  28.6739313
  60.7659934  72.2471164  28.9482887  60.5639208  70.9595013  29.3753812
  60.5321666  71.5098200  28.8181811  63.3727297  69.3187516  50.4690836
  63.8426928  69.9429632  50.8558711  63.4189177  68.6504491  51.0284051
  63.4495173  69.3122196  50.6090908  60.5298571  61.4244543  41.1939640
  60.0137059  60.7324734  41.3191219  59.9692500  62.0915320  41.1402239
  60.3705084  61.4207801  41.2045706  62.5990804  61.9637503  43.0232493
  62.2122557  61.9886535  43.8046023  62.1123741  61.3979182  42.5707009
  62.4703313  61.8833254  43.0720396  68.5740784  68.5300158  41.6472195
  68.1468392  68.4426507  40.8920294  67.9366837  68.6377934  42.2327039
  68.4170391  68.5332818  41.6217636  62.2647946  58.8504489  45.3142753
  62.8941064  59.3864789  45.0363823  62.4333809  58.7581847  46.1656318
  62.3825740  58.9165851  45.3991281  62.0661861  63.6375683  47.5869164
  62.8935290  63.3660832  47.6427779  62.0869707  64.4336525  47.9432982
  62.1914711  63.7155438  47.6484347  56.6431351  70.7839546  40.7739425
  55.8019357  70.6843420  40.9818319  56.8521358  71.5535026  41.1253746
  56.5496043  70.8831589  40.8566740  54.1206917  68.4059083  38.6024176
  53.7263615  68.4802095  37.8274285  53.5647034  68.7917029  39.1532537
  53.9809730  68.4740858  38.5691835  65.7571864  61.3840377  38.2828055
  65.9621458  61.3162685  39.1285052  65.4298288  62.1899198  38.2149232
  65.7387112  61.4926317  38.3987710  60.4548015  68.7120945  40.0237022
  60.1511153  68.1576934  40.6247430  59.7527436  68.8913155  39.5365057
  60.3064225  68.6565728  40.0406728  59.5114113  66.0221465  34.5881724
  59.7873847  65.3040378  34.1759292  60.1112782  66.6206385  34.3802830
  59.6407377  66.0041836  34.4962485  58.5166366  75.9270666  44.7309120
  58.4086721  75.9372728  45.5971178  58.7262148  76.7525446  44.5414074
  58.5316477  76.0511741  44.8313212  69.0105552  61.9372141  37.7630820
  68.3979866  62.4242543  38.1484552  69.1069727  61.2615632  38.3068471
  68.9343450  61.9090450  37.9009678  63.0124633  63.6934982  32.8628319
  63.4668380  63.8645543  33.5876164  63.4864679  63.0803093  32.4626095
  63.1492953  63.6285868  32.9102081  56.5340158  73.1783308  42.1931058
  55.9428092  73.8192807  42.1634073  57.2961182  73.6020926  42.1662357
  56.5588419  73.3359147  42.1846205  56.9300781  64.3385306  42.8599075
  57.3902263  64.4124236  43.5974199  56.9756888  65.1366560  42.5098897
  57.0051337  64.4679453  42.9171832  58.5784131  65.0052001  47.4271103
  58.1869696  64.3585348  47.8626880  58.7469994  65.5963436  48.0465358
  58.5455041  64.9966269  47.5833809  60.3537653  70.3977517  33.9673327
  61.0979698  70.7851793  34.2056276  60.4998349  69.5534942  34.1313814
  60.4848238  70.3307990  34.0267296  62.2717228  62.1927776  39.0005188
  61.4253274  62.3650583  38.8746538  62.2688361  61.3877119  39.3371016
  62.1464378  62.0988805  39.0316315  63.3415529  65.9702990  39.8667246
  62.8675483  65.4444752  40.3772557  63.7133665  65.4232463  39.2982107
  63.3265418  65.8118987  39.8582393  53.7188559  67.9674497  45.2350792
  54.5814172  67.8670206  45.1488121  53.3880342  67.3869206  44.6736364
  53.7973755  67.8666124  45.1396198  69.6052259  71.0305366  41.2774026
  69.3650482  70.1911781  41.2816453  70.0844267  71.1105532  42.0014800
  69.6404443  70.9186765  41.3848829  65.2699029  66.8639545  32.9293000
  64.7422047  66.9468289  32.2398709  65.7294737  67.6057416  32.9257644
  65.2600879  66.9860207  32.8267695  71.6057446  67.8106823  39.2303285
  71.3667216  67.7702657  38.3924070  71.7691348  68.6577975  39.3569007
  71.5947750  67.9298908  39.1256767  68.2103477  72.1956772  45.1608331
  68.9337675  71.7429299  44.9819351  67.9453439  72.4761438  44.3780659
  68.2784750  72.1707741  45.0187046  57.0790345  66.7916946  41.8961210
  56.4543415  66.8035338  41.2887163  56.7435940  67.2677121  42.5452450
  56.9375837  66.8635463  41.9017778  57.2632094  65.1342064  27.9533895
  56.9144898  65.7861790  28.4165444  56.7828539  65.1199177  27.2257766
  57.1402338  65.2285118  27.9144986  53.7916021  74.8517406  43.3364974
  53.2615945  74.1609845  43.3859949  54.0641114  74.8427591  42.5077683
  53.7540743  74.7484538  43.2212390  64.8236111  75.4343108  32.0602657
  65.5470310  75.9001221  31.9167230  64.3836702  75.5016718  31.3100254
  64.8651803  75.5126945  31.9287438  63.9922266  72.2940650  43.3103346
  63.3779259  71.7498701  43.6051981  64.5089551  71.7804887  42.8309162
  63.9777929  72.1377060  43.2827574  63.2318563  73.3644921  41.0447644
  62.8046171  72.7394639  40.6113080  63.2243508  73.0819842  41.8706652
  63.1677704  73.2297701  41.1027472  56.3481090  68.4010094  44.1136078
  56.5074577  67.6453418  44.5187800  56.1673984  68.9501033  44.7676816
  56.3446449  68.3703907  44.2698784  64.2901393  60.5671329  44.6686868
  63.7941955  60.7635003  43.9778435  65.0470455  60.9663997  44.4975669
  64.3288218  60.6549063  44.5407005  61.5604273  64.2413675  41.2590178
  61.5846760  63.7073787  40.5702958  61.8115747  63.7330984  41.9215769
  61.6014192  64.0874579  41.2554823  49.0711863  71.5245170  40.6933322
  48.9655312  71.4792014  39.8285406  48.3212083  71.8698951  40.9747607
  48.9447466  71.5686078  40.6070652  57.8405595  62.9684493  40.6395923
  57.8803967  63.4693700  41.3530630  57.0155260  63.0594887  40.3701846
  57.7245121  63.0566310  40.7046461  60.0235208  72.5345233  48.7416217
  59.1730839  72.6716948  48.8773862  60.1863336  71.8009012  49.1863919
  59.9219072  72.4459334  48.8271816  59.2619959  69.4845003  42.9369822
  58.4311888  69.6518821  42.7305070  59.2071476  69.1080954  43.7218707
  59.1309373  69.4534734  43.0218350  57.0703742  62.9753896  48.5726232
  57.6956445  62.4316029  48.8455665  56.6154222  62.4948814  48.0034023
  57.0952002  62.8243377  48.5287826  57.6356002  67.7600595  33.4659939
  57.7758963  68.2573059  34.1688581  58.1338535  67.0586889  33.6074153
  57.7297083  67.7302573  33.5911518  57.6656225  68.6267706  30.7952516
  58.3001304  69.2228131  30.7301978  57.7481836  68.3271163  31.6098386
  57.7712776  68.6708614  30.9055603  70.6438791  71.1583183  43.6638880
  71.2356631  71.7980434  43.6957078  71.0797785  70.4606220  43.9530947
  70.7957222  71.1501533  43.7119713  59.2435208  64.5581681  30.7697958
  59.5651049  64.0784764  30.1157221  59.5062151  65.3681327  30.5788770
  59.3301233  64.6071579  30.6453450  62.4732180  75.5800555  44.2896774
  61.9657271  76.1336402  44.7337405  62.1758827  75.6408845  43.4715549
  62.3537065  75.6706867  44.2345231  64.6394363  63.9453875  43.1321437
  65.0649434  63.4926401  42.5204964  64.0251356  63.3913946  43.4086225
  64.6123008  63.7967851  43.0826463  54.1709213  70.8235546  34.0642062
  54.6801442  71.4200054  34.4453368  54.6443485  70.5561520  33.3818482
  54.3152588  70.8721362  34.0196585  63.0788585  60.4168975  36.5412014
  62.4356903  60.2666621  37.1097153  62.7387992  60.1711320  35.7761119
  62.9333663  60.3581097  36.5115029  67.6687932  68.3728402  35.9642023
  66.9979122  68.9158104  35.8355088  68.3627682  68.8423257  35.7223718
  67.6716799  68.5226673  35.9097551  67.8316059  64.8284285  38.8732396
  68.1843669  64.4014008  39.5478195  66.9730861  64.7435129  39.0033472
  67.7565504  64.7529026  38.9927407  56.5299744  67.4591805  36.9315243
  55.8111734  67.8755938  37.1988106  56.9012107  68.0246044  36.3806881
  56.4791676  67.6041086  36.8898050  65.8299325  68.0919654  42.8217238
  65.8097253  67.9102949  43.6752017  65.8778526  68.9631672  42.7976822
  65.8333966  68.1936192  42.9440533  63.7745655  74.6806846  48.7465715
  63.7341510  74.0356523  48.1610871  64.5868973  74.6243463  49.0591127
  63.8888809  74.5765813  48.7062664  62.3046319  66.4989805  32.2688622
  61.7111158  66.8206801  31.7173189  62.3421596  65.6530900  32.0609728
  62.2220708  66.4214133  32.1571393  69.2640119  59.9502697  39.8016709
  68.7570984  59.2431837  39.7337886  70.0607553  59.6195886  39.9317785
  69.3067359  59.7975849  39.8115704  65.1804135  66.4569309  35.6990372
  64.9517828  66.4802011  34.8568731  65.4402212  65.6326776  35.8185383
  65.1850323  66.3385389  35.5915570  59.4623364  68.3103782  45.3015473
  58.9502267  67.7024965  45.6600504  59.2902860  69.0260375  45.7689448
  59.3613001  68.3267082  45.4231696  54.3089078  66.7541358  47.9517834
  54.1391669  67.4142733  47.4066041  53.8655028  66.9647919  48.6730323
  54.2188412  66.8827340  47.9779464  58.2348898  64.9945856  36.9944568
  58.7106264  65.3562936  36.3594749  57.7337497  65.6502323  37.2744711
  58.2314257  65.1440044  36.9421309  63.3392434  66.2328027  47.7417728
  63.8963864  66.0041837  47.1096194  63.0153499  66.9933693  47.4652940
  63.3738844  66.3111864  47.6074225  51.2091143  69.6588223  43.2106324
  50.6617862  68.9888869  43.3287192  51.9983521  69.2918071  43.2749791
  51.2443327  69.5053210  43.2375025  61.0575551  69.3195680  48.7069735
  61.8086878  69.6347357  49.0209289  61.2498128  69.1174851  47.8803657
  61.1966966  69.3363062  48.6313131  60.2775551  67.1387056  30.3617952
  60.6574516  67.1566685  29.5769067  59.5368147  67.5841044  30.2408799
  60.2244389  67.2068830  30.2281520  67.9060842  65.4469247  35.9493531
  67.9055068  65.2917903  36.8077807  67.7017022  66.2932234  35.8934916
  67.8760619  65.5489867  36.0681470  49.9678112  68.8709031  40.3652347
  49.7899874  68.4185640  41.0907263  49.6797135  69.6735193  40.5490825
  49.8991066  68.9231589  40.4995850  65.6301694  70.1266748  39.6029738
  66.1255359  69.4089744  39.5633758  64.8201469  69.8237546  39.4884224
  65.5845587  69.9764395  39.5803463  61.0760305  73.9764562  31.7526742
  60.2671628  73.6531235  31.7060051  61.5835214  73.2697784  31.6854991
  61.0309972  73.8245878  31.7357036  51.7050582  71.4036755  37.4774106
  50.8396102  71.3922445  37.3656877  51.8049398  71.2166978  38.3245246
  51.5924749  71.3742816  37.5863051  67.6953512  72.8770436  42.2906866
  68.1208584  72.3544858  41.7377291  67.3310432  73.4751273  41.7695489
  67.7040115  72.8880663  42.1315876  57.3307592  81.1734654  41.0504212
  57.6454151  81.9871042  41.0581994  57.7401006  80.7884872  41.7186371
  57.4375690  81.2363356  41.1508303  64.2832112  76.5904700  38.6208024
  64.7543290  77.3044963  38.7898009  64.6192290  75.9903450  39.1567893
  64.4027227  76.6076165  38.7240400  64.9206058  76.3822634  45.3835716
  64.3727004  75.7580518  45.1155782  65.3819087  76.5716906  44.6679796
  64.9073268  76.3181685  45.2386147  64.2733962  58.2862497  42.1747212
  63.4679926  58.1760227  42.4915050  64.1440697  58.3874953  41.3177078
  64.1354095  58.2846167  42.0955252  67.7299923  64.4507989  42.7686909
  67.1462911  64.9517195  42.3564476  68.0504217  63.9437545  42.1351232
  67.6913098  64.4499824  42.6145416  60.2694722  63.3648584  33.0445583
  61.0910416  63.5346897  32.8027278  59.8064373  63.5195845  32.3211881
  60.3225884  63.4130317  32.9017228  58.8590054  61.3591346  43.8244012
  59.4034467  61.0182473  44.4148354  58.9126989  62.2176807  43.9665297
  58.9479173  61.4346605  43.9325886  54.6720612  75.1207762  40.6982820
  55.2765470  75.0803596  40.0696641  54.4647925  75.9678914  40.7286876
  54.7309510  75.2395764  40.6098937  49.9071895  74.1042380  40.5681743
  49.8096173  73.2938651  40.8771800  50.6900764  74.0834173  40.1828011
  50.0088031  73.9809470  40.5568606  36.7598525  -0.0924542  21.8127981
  36.7292529   0.7620095  21.9846250  37.3579873  -0.3929249  22.3714124
  36.8435682  -0.0108045  21.9202783  29.9598209  -1.0048891  26.5680911
  29.1036105  -0.8440392  26.6190028  30.0065863  -1.8756827  26.5885972
  29.8397321  -1.1098089  26.5786977  24.3439349   8.5313827  22.3318143
  23.5922249   8.1529366  22.1034188  24.7925361   8.5632261  21.5836953
  24.2989016   8.4799434  22.1875645  33.2691926   5.2637635  36.1741367
  33.9758693   4.7689666  36.3028302  33.4579861   5.7046716  35.4444025
  33.4019832   5.2555985  36.0850413  29.7964309   8.9539197  17.7603690
  29.4615677   9.6316118  17.3247912  30.3091179   8.5644508  17.1720561
  29.8229890   8.9963775  17.6090481  29.3368600  10.9053465  23.7014801
  29.7207980  11.4740364  23.1619577  29.2727741  10.1802976  23.2220617
  29.3842027  10.8828929  23.5508664  32.8050030   1.0543153  29.2112563
  33.3505990   1.7328240  29.2706532  32.7466907   0.9130614  28.3514144
  32.8765945   1.1335155  29.0924623  25.9224105   8.5432219  24.5980915
  26.0234468   7.7332573  24.9078043  25.3265851   8.4489166  23.9680594
  25.8496644   8.4097247  24.5507154  34.5815099   2.4827760  20.0846291
  34.4654625   3.2335446  20.5138429  35.3770986   2.2251714  20.3342378
  34.6819688   2.5562607  20.1850382  25.7624845  13.4609808  25.9995771
  26.4062300  13.9022973  26.3891930  26.0881100  12.6563235  25.9126030
  25.9056674  13.4075003  26.0441249  19.1189150   4.5652506  24.2233249
  18.8839334   3.7320158  24.1165518  19.2574790   4.8457172  23.4094450
  19.1044812   4.4836009  24.0875604  26.4645425   6.4721783  21.3715633
  26.7861266   7.0126991  20.7676941  27.1117521   5.9018555  21.5037923
  26.6071480   6.4680958  21.3022668  28.5147133  -1.5262222  21.4550020
  29.2127297  -1.3474094  21.9471483  28.8299465  -2.0491882  20.8320409
  28.6642470  -1.5768450  21.4352030  21.1448370   0.2790518  29.3661126
  21.0207067   0.8652964  30.0010944  21.7966655  -0.2149286  29.6673401
  21.2222019   0.2929323  29.5047055  28.7035068   4.8608223  21.4429811
  29.1428704   4.2525324  21.8884584  28.5539731   4.4815597  20.6715276
  28.7456534   4.7146694  21.3948979  26.1706711   3.4552235  28.6448637
  26.8155714   2.9624678  28.3259585  26.4108488   3.5977022  29.4714715
  26.3017296   3.4029677  28.7198170  28.7092802   6.3007141  28.2955529
  28.9916045   5.5058547  28.0742285  29.4378963   6.7787728  28.3160590
  28.8582366   6.2541738  28.2658544  32.3044405   3.2135405  18.3960580
  32.2195700   4.0696371  18.5410149  32.7928788   2.9379729  19.0642740
  32.3633302   3.2992726  18.5162662  33.2362838  -0.1679801  19.8958316
  32.7074309   0.0479832  20.5555622  33.7587858   0.5256337  19.8159285
  33.2351291  -0.0336664  19.9813915  38.6910891   5.4066503  25.2691360
  37.8608594   5.6177147  25.4324777  38.6420143   4.5803558  24.9933644
  38.5617626   5.3156110  25.2528725  20.6806474   9.4438177  25.4989455
  20.1974052  10.1688666  25.4749039  21.4929792   9.7414307  25.6099613
  20.7297222   9.5940530  25.5116734  26.7520628   8.2370357  28.1039270
  26.2347570   7.8777772  27.5000578  27.4495020   7.7132532  28.1145336
  26.7786209   8.1068045  28.0169528  30.4084220   8.6865171  34.0655443
  30.4967566   8.4991312  34.9133653  30.8373933   8.0402601  33.6660289
  30.4846323   8.5628179  34.1327194  27.9754680   7.9696331  33.0473105
  27.4125515   7.5568941  33.5712766  28.7375704   7.8949237  33.4666248
  28.0049129   7.8973732  33.1866105  38.1864849  -1.9463096  29.0641781
  37.3493270  -1.8760909  29.2989376  38.1553080  -1.9438601  28.1916084
  38.0583131  -1.9352869  28.9701329  24.5829578   0.1969940  34.7790150
  24.7550082   0.0875834  35.6275431  25.1198936   0.8424345  34.5421342
  24.6874582   0.2761941  34.8695247  22.8601447   6.1500705  25.1595343
  23.6990346   6.3823637  25.2069105  22.8913216   5.2805016  25.0902378
  22.9883164   6.0557651  25.1559988  23.4854150   6.5701580  29.4608648
  24.0252375   6.4272711  30.1312021  22.8024096   6.9698331  29.8292675
  23.4646304   6.6081251  29.6143070  32.9095035   2.2492580  24.6553673
  33.6652550   2.6824095  24.6942582  33.0157359   1.5997350  25.2288309
  33.0365205   2.2170064  24.7451698  35.9475206   6.0765858  25.4056076
  35.5110438   6.0802600  26.1615047  35.6138121   6.7571357  24.9735653
  35.8337826   6.1778313  25.4536908  30.5204280   8.1174190  36.7299226
  31.3044696   8.2305038  37.0954968  30.3200874   7.2915328  36.9257912
  30.6070305   8.0120910  36.8133612  18.8891295   2.7901871  29.6143070
  18.6229710   1.9740987  29.7734060  18.9029859   2.8355026  28.7438586
  18.8516017   2.6758775  29.5096552  30.6774673  10.0284293  30.3765682
  29.8789919   9.7883793  30.6339550  31.1260684  10.0798685  31.1232729
  30.6249284  10.0006684  30.5250606  39.0819552   2.7946778  24.2975713
  39.7435986   2.2337446  24.1971622  38.4410964   2.2998808  24.6228404
  39.0848420   2.6383187  24.3308053  29.9696360   6.0916909  16.6056636
  30.3847508   5.7601933  15.9141132  29.1388289   5.8585811  16.4776773
  29.9084369   6.0088165  16.4847484  19.2984709   3.5760650  26.8954814
  19.1160282   3.5507536  26.0427106  20.0334378   4.0459588  26.9343723
  19.3798773   3.6422012  26.7752733  35.3684383   3.8112160  24.0387702
  35.6039972   3.9557359  23.2114552  35.5173946   4.5754568  24.4319215
  35.4250186   3.9451214  23.9751306  22.3630460   0.2945653  33.4036923
  23.0870433   0.2798683  33.8901818  22.4646597   1.0041008  32.9058891
  22.4848669   0.3970356  33.4015710  37.1974840   2.6513826  21.8757306
  37.5283057   3.1841466  21.2697400  37.7707928   2.7052714  22.5319257
  37.3308519   2.7383395  21.8835087  29.7375410   3.7744737  38.2685870
  28.9448391   4.0888249  38.4538490  29.8524337   3.9896206  37.4306655
  29.6370820   3.8528574  38.1724205  32.4106729   0.4978729  22.5580886
  32.5053583   1.2368023  23.0120511  31.7865572   0.0696204  22.9915450
  32.3315759   0.5440049  22.6889033  30.6659203   3.6764941  33.2071167
  31.2398064   3.0392185  33.3619731  30.5874006   3.6769024  32.3380824
  30.7392437   3.5830053  33.1017578  19.2655619   0.4554151  27.0453881
  19.8429122   0.3190601  27.6846126  18.5669681  -0.0010065  27.2999465
  19.2476640   0.3676417  27.1776171  26.0222921   2.1088206  25.2592364
  25.7642165   1.2759941  25.2323664  26.0771404   2.3345819  24.4184864
  25.9922699   2.0185978  25.1312501  24.9957633  -0.3374031  25.7457259
  24.4207225  -0.1781863  26.3821220  24.6193310  -0.9738622  25.2825709
  24.8560446  -0.4076218  25.7711817  28.6630922  -1.8650682  30.6049637
  28.2745355  -2.2896464  29.9501828  27.9985620  -1.6168532  31.1126664
  28.5077850  -1.8911961  30.5837505  29.7669860   2.3647923  18.8026444
  30.5810499   2.6562815  18.6909216  29.7029001   1.7107785  18.2284737
  29.8772599   2.3113117  18.7015282  35.9879350   5.0473919  33.2156020
  35.7517988   4.2161984  33.0968080  36.6322579   4.9959526  33.8010864
  36.0474021   4.9171607  33.2841913  25.6377768   5.8369440  23.9298756
  26.2751715   5.5981188  24.4750550  26.0632840   6.0406599  23.1951917
  25.7953935   5.8320450  23.9015914  20.3290411   8.0757777  27.8133060
  20.3694556   8.3472628  26.9852840  20.8884935   8.5999685  28.2290848
  20.4173757   8.1933532  27.7524948  37.0115771   4.8318368  29.2784314
  36.7061588   5.5646424  29.6397630  36.2921987   4.4256297  28.9977100
  36.8603113   4.8800101  29.2897451  28.0199240   6.3141863  25.6092543
  28.0938249   6.1517035  26.4634392  28.8368747   6.5032052  25.3653024
  28.1515599   6.3178605  25.6990568  42.7117563   1.4711368  28.6052659
  42.6442063   1.4907327  27.7355245  42.6973226   2.3141695  28.8308329
  42.6996320   1.5985103  28.5105135  21.7804997   6.6599726  22.6386986
  20.9543115   6.9061463  22.5121265  21.8416988   6.5811806  23.5049044
  21.6679164   6.6844675  22.7475930  26.5603826   9.2776606  20.3406016
  26.8502125   8.8865587  19.6165243  27.2907307   9.4593311  20.7811291
  26.7110710   9.2470420  20.2988823  40.4976180   0.2455754  26.8799253
  41.0484102  -0.3876177  27.1196345  40.4820296   0.7771147  27.5714757
  40.5761377   0.2304703  27.0178111  27.1498571   4.0794352  31.4259146
  26.6510265   4.7910119  31.5044035  27.9598796   4.3995018  31.3877309
  27.1954678   4.2321200  31.4315715  24.5009742  11.2543988  23.4066166
  24.2810037  10.9641343  24.1992833  24.2804264  10.5958943  22.8784078
  24.4357336  11.1143697  23.4455074  23.4126689   3.3417305  25.6721867
  23.1239938   2.7154776  26.2067595  24.2810037   3.2837592  25.7386548
  23.4986941   3.2404849  25.7612822  34.2004587  -1.5147912  25.9903849
  33.8569353  -2.2357577  26.3411099  34.2997629  -1.7234061  25.1482207
  34.1646630  -1.6523709  25.9175529  26.6677697  12.6273378  22.1896858
  27.3201755  12.0949820  22.4187884  25.9703306  12.2742030  22.5764732
  26.6608415  12.4962901  22.2809026  23.6158962   4.9812556  21.5964232
  24.3704930   5.3625595  21.8099695  23.0229575   5.4323699  22.0510929
  23.6395676   5.1041383  21.6947111  34.6617616   4.9477792  21.5327837
  35.2275648   5.6071002  21.4486380  34.0145519   5.2927490  22.0044239
  34.6496372   5.0959733  21.5900594  26.0765629  -3.0624604  36.7221445
  25.2665405  -2.7566824  36.6111287  26.5540316  -2.3419022  36.8374029
  26.0269108  -2.9110003  36.7228516  24.9357189   6.1521117  26.9704348
  24.4137942   6.2921409  27.6556212  25.3231209   5.3931781  27.1606465
  24.9160890   6.0606641  27.1005424  31.1324194   7.8916576  20.9564917
  30.8910870   7.1584437  20.5491982  31.3125527   8.4403433  20.3031250
  31.1231818   7.8638968  20.7995139  26.3623514   3.1825136  22.3685839
  26.1666297   3.7899871  21.7746142  26.5857860   2.4893080  21.8877513
  26.3658156   3.1702662  22.2101920  24.7602045   0.0679874  22.4866707
  25.4824696   0.2321032  22.0270513  24.2810037   0.7889539  22.3806047
  24.7965775   0.1978104  22.4032321  32.7195552  -3.5956327  27.8663392
  31.8806653  -3.5695048  27.6301655  32.7899919  -2.9485592  28.4468739
  32.6063946  -3.4960201  27.9172509  22.4109661   2.4737946  31.5920847
  22.9230758   2.7522200  30.9429607  22.1246004   3.2127241  31.9583660
  22.4444524   2.6240300  31.5510725  36.5953076   1.6111660  25.1524634
  36.5087050   1.7667086  26.0059413  36.1403556   2.2549735  24.7784039
  36.5156333   1.7287415  25.2231741  25.9293387  -5.4335665  31.6521889
  25.7376584  -5.4180531  32.5021312  26.7791983  -5.2371991  31.6288543
  26.0269109  -5.4021314  31.7745183  30.4678892  -1.0677593  23.7750193
  30.2213606  -1.1481842  24.6086982  30.7964015  -1.8524125  23.5812721
  30.4800136  -1.1951328  23.8697716  34.3626941   5.6405766  27.5636975
  34.2241300   6.3386812  28.0685717  33.5826939   5.4854423  27.2073156
  34.2270168   5.7205933  27.5863249  32.7005026   1.9402141  33.8159356
  32.6953064   1.0681958  33.8201783  33.4066020   2.1390311  33.3428812
  32.8050030   1.8406016  33.7466392  26.4275919   1.6679125  33.1873176
  26.5719295   2.2480333  32.5516286  26.7751568   2.0455422  33.8923031
  26.5003381   1.8099829  33.1972171  28.5995837   0.8669294  30.9698308
  27.8519151   1.0600308  30.5646586  28.7537362   0.0414513  30.7322429
  28.5118264   0.7734405  30.8743714  25.5003674   9.8581897  30.0534203
  25.6493238   9.2984813  29.4007608  26.2803676   9.9373899  30.4366722
  25.6377768   9.7867463  30.0131152  35.8580314   4.9984020  18.3253474
  35.4787122   4.2121158  18.3182763  35.1946559   5.5470877  18.1825118
  35.7038788   4.9628844  18.3034271  28.0256975  10.0296540  31.3318694
  27.9500646   9.3605351  31.8869482  27.9546834  10.7314328  31.8459360
  28.0037582  10.0341447  31.4895542  28.8397614  -5.2380156  31.8593712
  29.2970228  -4.5056181  31.9866504  28.9153942  -5.6613690  32.6180968
  28.9188584  -5.1922918  31.9894788  28.6827222   8.5497539  22.1642300
  29.4477113   8.2807183  21.8424964  28.5805312   8.0647549  22.8812363
  28.7808717   8.4387104  22.2222128  26.7179992  -3.2478052  28.7035536
  25.9276066  -3.4286592  29.0252872  27.1140614  -4.0251099  28.6865830
  26.6596868  -3.3890591  28.7488084  32.1023678   4.3864379  26.4294982
  31.4268680   4.1549611  26.9308369  32.1116054   3.7785561  25.8037087
  32.0042182   4.2623304  26.4111134  29.2317822  -0.7717793  33.1859035
  29.1676963   0.0892164  33.0579171  29.3715010  -1.0885799  32.3854586
  29.2433292  -0.6917626  33.0487248  34.1040412   7.2429511  18.6605160
  34.1860250   8.0496497  18.3366611  34.5890155   7.2625470  19.3845933
  34.1877570   7.3650173  18.7192058  27.9136916   1.9214347  27.3275238
  27.4899165   2.1218846  26.5914256  27.7381771   1.0743195  27.4399537
  27.8247796   1.8263128  27.2348928  23.2019361   2.4166398  22.7603210
  23.3583980   2.3513201  23.6159202  23.5419954   3.1914951  22.5481890
  23.2752596   2.5215596  22.8557804  29.7398505   1.7924282  21.6296573
  30.2814051   1.2894663  22.0935194  30.0545064   1.7389476  20.8186059
  29.8662902   1.7103703  21.5780385  33.6115613   6.0026929  38.7423486
  34.4250478   5.7312078  38.9028618  33.4510579   5.7034469  37.9383681
  33.7085561   5.9181855  38.6468891  27.9084955   7.1841633  18.9136601
  27.9777775   6.3256172  19.0529602  28.6873410   7.4013514  18.5855626
  28.0337805   7.0894497  18.8853759  30.8887775  -3.3139414  31.6818874
  31.1029744  -3.9528499  31.1282228  30.2721674  -2.8693590  31.2526736
  30.8293104  -3.3429270  31.5369305  32.2992443   9.6079335  23.1273095
  31.9072234   9.3046050  22.4095961  32.4545515  10.4448425  22.9378048
  32.2646032   9.6863171  22.9929592  33.0526863  -1.7050348  32.6202181
  32.2403544  -2.0124458  32.7015354  33.5116797  -2.1851348  33.1844893
  33.0007247  -1.8213856  32.7156775  32.4632117   6.1729323  23.0679125
  32.1046772   6.3443966  23.8443158  31.9770828   6.6342529  22.5107124
  32.3390814   6.2668295  23.1004394  30.1480370  -0.2990277  37.4030883
  30.6180001   0.3251839  37.7898757  30.1942250  -0.9673302  37.9624098
  30.2248246  -0.3055597  37.5430955  33.6236857   7.0633219  34.0146326
  34.2616577   6.5693415  33.6808782  32.9810948   6.9910620  33.4298553
  33.6231083   6.9792228  33.8788681  35.3493857  -1.0877635  28.5812242
  34.9221465  -1.1751286  27.8260341  34.7119910  -0.9799859  29.1667086
  35.1923464  -1.0844975  28.5557683  33.6791113   7.7553028  30.6551683
  34.4683491   7.4042092  30.7753765  33.8534711   8.5689416  30.3928317
  33.8211395   7.8238885  30.6339551  23.4184424   1.1661753  27.7079472
  22.5772430   1.0665628  27.9158366  23.6274432   1.9357234  28.0593792
  23.3249116   1.2653797  27.7906787  20.8959991  -1.2118710  25.5364222
  20.5016688  -1.1375698  24.7614332  20.3400108  -0.8260763  26.0872584
  20.7562803  -1.1436935  25.5031882  27.2301089  -0.9056847  26.9577069
  26.9264226  -1.4600859  27.5587477  26.5280509  -0.7264637  26.4705103
  27.0817298  -0.9612065  26.9746775  25.2919440   6.3092873  31.6649167
  25.1839795   6.3194935  32.5311225  25.5015221   7.1347654  31.4754121
  25.3069551   6.4333948  31.7653259  23.3093232   3.5605516  29.1271105
  22.7181165   4.2015014  29.0974120  24.0714255   3.9843133  29.1002404
  23.3341492   3.7181354  29.1186252  39.4283653   3.3911285  30.1248383
  39.4866777   3.8397934  30.8708359  38.7950121   3.8010098  29.6878463
  39.3434948   3.5185020  30.1700931  33.0682748   9.0114827  26.5603129
  32.8702437   9.5005642  25.8659340  32.4470459   9.2156069  27.1387262
  32.9470312   9.1131366  26.5426352  27.1290726   0.7799724  20.9013373
  27.8732771   1.1674000  21.1396323  27.2751422  -0.0642850  21.0653861
  27.2601311   0.7130197  20.9607343  30.1168602  -3.6474803  26.8007293
  29.6428556  -4.1733040  27.3112604  30.4886738  -4.1945330  26.2322154
  30.1018491  -3.8058806  26.7922440  36.3805333   1.4127573  28.2114073
  36.1403556   0.5733988  28.2156500  36.8597340   1.4927740  28.9354847
  36.4157516   1.3008973  28.3188876  38.3810520  -1.8070970  26.1643332
  38.1420290  -1.8475136  25.3264117  38.5444421  -0.9599818  26.2909053
  38.3700823  -1.6878885  26.0596814  34.9856550   2.5778980  32.0948377
  35.7090749   2.1251506  31.9159397  34.7206512   2.8583645  31.3120705
  35.0537823   2.5529948  31.9527093  23.8543418  -2.8260847  28.8301257
  23.2296488  -2.8142455  28.2227209  23.5189013  -2.3500672  29.4792497
  23.7128910  -2.7542330  28.8357825  20.5669094   5.2339613  30.2705021
  20.0369018   4.5432052  30.3199996  20.8394187   5.2249799  29.4417729
  20.5293816   5.1306745  30.1552437  31.5989184   5.8165316  18.9942704
  32.3223383   6.2823429  18.8507277  31.1589775   5.8838925  18.2440301
  31.6404876   5.8949152  18.8627485  30.7675339   2.6762858  30.2443393
  30.1532332   2.1320908  30.5392028  31.2842624   2.1627094  29.7649209
  30.7531002   2.5199267  30.2167621  30.0071636   3.7467128  27.9787691
  29.5799245   3.1216847  27.5453127  29.9996581   3.4642050  28.8046698
  29.9430778   3.6119909  28.0367519  23.1234164  -1.2167699  31.0476125
  23.2827650  -1.9724375  31.4527847  22.9427057  -0.6676759  31.7016863
  23.1199523  -1.2473885  31.2038831  28.3357346  -5.3764118  28.1930225
  28.3599833  -5.9104005  27.5043005  28.5868820  -5.8846809  28.8555816
  28.3767265  -5.5303214  28.1894870  15.8464936   1.9067377  27.6273369
  15.7408385   1.8614222  26.7625453  15.0965156   2.2521158  27.9087654
  15.7200539   1.9508286  27.5410699  26.7988281   2.9167441  35.6756264
  25.9483912   3.0539155  35.8113909  26.9616409   2.1831219  36.1203966
  26.6972145   2.8281542  35.7611863  26.0373032  -0.1332789  29.8709868
  25.2064961   0.0341028  29.6645117  25.9824549  -0.5096839  30.6558754
  25.9062447  -0.1643058  29.9558397  37.4191864   1.5405390  30.5978927
  38.0109704   2.1802641  30.6297125  37.8550858   0.8428427  30.8870994
  37.5710295   1.5323741  30.6459760  29.2485254   5.9622763  31.2236821
  28.7410345   6.5158610  31.6677452  28.9511900   6.0231053  30.4055596
  29.1290139   6.0529074  31.1685278  31.8593034   9.8786021  19.1540765
  31.1422344   9.7046883  18.6888002  32.5099772   9.6438593  18.6216251
  31.8494884   9.8181813  19.0069983  34.4441005  -1.2449391  22.8982070
  33.7732195  -0.7019689  22.7695135  35.1380755  -0.7754536  22.6563765
  34.4469873  -1.0951120  22.8437597  28.4927739  10.8947321  28.1293828
  28.2693393  10.1366150  28.4977854  28.0037582  10.9245342  27.4074268
  28.3871188  10.7869546  28.0770569  23.3052818  -2.1585988  23.8655289
  22.5864807  -1.7421855  24.1328153  23.6765180  -1.5931749  23.3146928
  23.2544749  -2.0136706  23.8238096  32.6052398  -1.5258139  29.7557285
  32.5850326  -1.7074844  30.6092064  32.6531599  -0.6546120  29.7316869
  32.6087039  -1.4241600  29.8780580  30.5498728   5.0629053  35.6805762
  30.5094583   4.4178730  35.0950918  31.3622047   5.0065671  35.9931174
  30.6641882   4.9588020  35.6402711  27.1406196  11.1147779  25.5830913
  26.7266594  10.4521909  25.1934754  27.8253570  11.2625638  25.0626607
  27.1804568  11.0388437  25.4487410  30.5071490  10.2737864  26.3354529
  30.1087773  10.3840135  25.5675349  29.8922710  10.4819931  26.9181089
  30.3570379  10.3211432  26.3085829  31.9557209  -3.1608483  22.6330419
  31.7270902  -3.1375782  21.7908777  32.2155285  -3.9851016  22.7525430
  31.9603397  -3.2792403  22.5255617  26.2376437  -1.3074010  32.2355519
  25.7255340  -1.9152827  32.5940551  26.0655933  -0.5917418  32.7029495
  26.1366074  -1.2910711  32.3571743  25.0101971  -4.6231937  23.9284615
  25.4859337  -4.2614857  23.2934796  24.5090571  -3.9675469  24.2084758
  25.0067330  -4.4737748  23.8761356  38.2413333   4.8489831  19.7197620
  38.6246938   5.5981187  19.9495717  37.4457446   5.0955651  19.4609609
  38.1807115   4.9959525  19.7155193  30.1145507  -3.3849766  34.6757775
  30.6716937  -3.6135956  34.0436240  29.7906572  -2.6244100  34.3992987
  30.1491917  -3.3065929  34.5414272  27.8328625  -0.2982112  35.6409782
  28.5839952   0.0169565  35.9549336  28.0251201  -0.5002941  34.8143704
  27.9720039  -0.2814730  35.5653178  32.4054767   0.5088956  26.5369784
  32.9008432  -0.2088049  26.4973805  31.5954543   0.2059754  26.4224271
  32.3598660   0.3586602  26.5143510  27.8513378   4.3586769  18.6866789
  27.0424701   4.0353443  18.6400098  28.3588287   3.6519991  18.6195037
  27.8063045   4.2068086  18.6697083  18.4803656   1.7858962  24.4114153
  17.6149175   1.7744653  24.2996924  18.5802471   1.5989185  25.2585292
  18.3677823   1.7565024  24.5203098  34.4706586   3.2592643  29.2246913
  34.8961657   2.7367065  28.6717338  34.1063505   3.8573481  28.7035536
  34.4793188   3.2702870  29.0655923  24.1060665  11.5556861  27.9844259
  24.4207224  12.3693249  27.9922040  24.5154079  11.1707080  28.6526418
  24.2128763  11.6185563  28.0848350  31.0585185   6.9726908  25.5548071
  31.5296363   7.6867170  25.7238056  31.3945364   6.3725658  26.0907940
  31.1780300   6.9898372  25.6580446  33.1462170   8.5828221  37.7340143
  33.2559135   7.7936782  38.0896890  33.4753066   8.4934157  36.9314481
  33.2114575   8.4534074  37.6682533  31.6959131   6.7644842  32.3175763
  31.1480077   6.1402725  32.0495828  32.1572160   6.9539114  31.6019843
  31.6826341   6.7003892  32.1726194  21.4473686   5.5029969  27.6322867
  22.0518543   5.4625803  27.0036688  21.2400998   6.3501121  27.6626923
  21.5062583   5.6217972  27.5438984  31.2617458   7.7695915  28.8485104
  32.0815832   7.6258881  29.1101400  30.9811535   8.3942113  29.3901542
  31.3414201   7.8406267  28.9673044  16.6824968   4.4864587  27.5021790
  16.5849246   3.6760858  27.8111847  17.4653838   4.4656380  27.1168058
  16.7841104   4.3631677  27.4908653  47.7331108  15.4260766  21.8127981
  47.7025112  16.2805403  21.9846250  48.3312457  15.1256059  22.3714124
  47.8168266  15.5077263  21.9202783  40.9330793  14.5136417  26.5680911
  40.0768688  14.6744915  26.6190028  40.9798447  13.6428481  26.5885972
  40.8129904  14.4087219  26.5786977  40.7696893  24.4724505  17.7603690
  40.4348261  25.1501426  17.3247912  41.2823763  24.0829816  17.1720561
  40.7962474  24.5149083  17.6090481  43.7782614  16.5728461  29.2112563
  44.3238574  17.2513548  29.2706532  43.7199490  16.4315922  28.3514144
  43.8498528  16.6520463  29.0924623  45.5547683  18.0013068  20.0846291
  45.4387209  18.7520754  20.5138429  46.3503569  17.7437022  20.3342378
  45.6552272  18.0747915  20.1850382  30.0921733  20.0837814  24.2233249
  29.8571918  19.2505466  24.1165518  30.2307374  20.3642480  23.4094450
  30.0777396  20.0021317  24.0875604  32.3911821  12.2523544  27.1217557
  31.7716852  11.6616192  26.9527571  32.2895684  12.8434980  26.4881880
  32.2849496  12.2527627  27.0022546  37.4378008  21.9907091  21.3715633
  37.7593849  22.5312299  20.7676941  38.0850105  21.4203863  21.5037923
  37.5804063  21.9866266  21.3022668  39.4879716  13.9923086  21.4550020
  40.1859881  14.1711214  21.9471483  39.8032049  13.4693426  20.8320409
  39.6375053  13.9416858  21.4352030  32.1180954  15.7975826  29.3661126
  31.9939650  16.3838272  30.0010944  32.7699238  15.3036022  29.6673401
  32.1954603  15.8114631  29.5047055  39.6767652  20.3793531  21.4429811
  40.1161287  19.7710632  21.8884584  39.5272314  20.0000905  20.6715276
  39.7189117  20.2332002  21.3948979  37.1439295  18.9737543  28.6448637
  37.7888297  18.4809986  28.3259585  37.3841072  19.1162330  29.4714715
  37.2749880  18.9214985  28.7198170  39.6825386  21.8192449  28.2955529
  39.9648629  21.0243855  28.0742285  40.4111546  22.2973036  28.3160590
  39.8314950  21.7727046  28.2658544  37.6606580   9.3615483  25.5371294
  37.3309910   9.8126626  24.8674993  36.9851582   9.2831646  26.0844301
  37.5117016   9.4166618  25.5194518  43.2776988  18.7320713  18.3960580
  43.1928283  19.5881679  18.5410149  43.7661371  18.4565037  19.0642740
  43.3365885  18.8178034  18.5162662  44.8682988   5.3501006  23.7820905
  44.5536429   6.0404484  24.2141327  44.3509929   5.2945788  23.0806406
  44.7447458   5.4435894  23.7417854  44.2095421  15.3505507  19.8958316
  43.6806893  15.5665140  20.5555622  44.7320441  16.0441645  19.8159285
  44.2083874  15.4848644  19.9813915  49.6643474  20.9251811  25.2691360
  48.8341177  21.1362455  25.4324777  49.6152727  20.0988866  24.9933644
  49.5350210  20.8341417  25.2528725  36.0995029  19.2468723  18.6965784
  35.5152244  19.7518755  19.1031647  35.6965124  19.0211110  17.9562375
  35.9534333  19.2876972  18.6470809  31.6539058  24.9623485  25.4989455
  31.1706636  25.6873974  25.4749039  32.4662376  25.2599615  25.6099613
  31.7029806  25.1125838  25.5116734  40.5572244  15.4934376  17.1734704
  40.7968247  15.7012359  16.3610047  40.8788085  14.6891884  17.2823649
  40.6409401  15.4048477  17.0695257  35.8662534   7.4227771  21.0194242
  36.6208502   7.7906088  20.7811292  35.6890068   7.7967326  21.7873422
  35.9517012   7.5325959  21.0979131  49.1597433  13.5722212  29.0641781
  48.3225854  13.6424399  29.2989376  49.1285664  13.5746707  28.1916084
  49.0315715  13.5832439  28.9701329  35.5562162  15.7155247  34.7790150
  35.7282665  15.6061142  35.6275431  36.0931519  16.3609653  34.5421342
  35.6607166  15.7947249  34.8695247  34.2219598   9.8298090  17.7172355
  34.0395172  10.0469971  16.8913348  35.0845212   9.9437103  17.7730969
  34.3224188   9.8787988  17.6026842  33.8334030  21.6686013  25.1595343
  34.6722930  21.9008945  25.2069105  33.8645800  20.7990324  25.0902378
  33.9615748  21.5742959  25.1559988  39.9019318   6.8324501  20.7521379
  40.6305478   6.6540456  20.3059535  39.9914211   7.6742581  20.9628557
  40.0225980   6.9308379  20.7174897  43.8827618  17.7677888  24.6553673
  44.6385133  18.2009403  24.6942582  43.9889943  17.1182658  25.2288309
  44.0097789  17.7355372  24.7451698  46.9207789  21.5951166  25.4056076
  46.4843021  21.5987908  26.1615047  46.5870705  22.2756665  24.9735653
  46.8070409  21.6963621  25.4536908  29.8623879  18.3087178  29.6143070
  29.5962294  17.4926295  29.7734060  29.8762443  18.3540334  28.7438586
  29.8248601  18.1944083  29.5096552  46.8405272   8.6364993  27.6485504
  47.4831181   8.7063098  28.2347419  47.0928293   7.9694216  27.1465046
  46.9727405   8.5491342  27.6612783  33.7681626  13.1072263  16.2294828
  33.0539803  12.8210442  16.6417261  34.2525594  13.4468889  16.8701216
  33.7340989  13.1153913  16.3850463  34.6122485  11.8465557  32.2610078
  33.9194282  11.3762536  32.5070809  35.2282812  11.6203861  32.8351785
  34.6007015  11.7432689  32.3819230  50.0552136  18.3132085  24.2975713
  50.7168570  17.7522754  24.1971622  49.4143548  17.8184116  24.6228404
  50.0581003  18.1568495  24.3308053  40.9428943  21.6102217  16.6056636
  41.3580092  21.2787241  15.9141132  40.1120873  21.3771119  16.4776773
  40.8816952  21.5273473  16.4847484  30.2717292  19.0945958  26.8954814
  30.0892865  19.0692844  26.0427106  31.0066961  19.5644896  26.9343723
  30.3531356  19.1607320  26.7752733  46.3416966  19.3297468  24.0387702
  46.5772556  19.4742667  23.2114552  46.4906530  20.0939876  24.4319215
  46.3982770  19.4636522  23.9751306  48.1707423  18.1699134  21.8757306
  48.5015640  18.7026774  21.2697400  48.7440511  18.2238022  22.5319257
  48.3041102  18.2568703  21.8835087  43.3839312  16.0164037  22.5580886
  43.4786167  16.7553331  23.0120511  42.7598156  15.5881512  22.9915450
  43.3048342  16.0625357  22.6889033  41.6391786  19.1950249  33.2071167
  42.2130648  18.5577493  33.3619731  41.5606590  19.1954332  32.3380824
  41.7125021  19.1015361  33.1017578  30.2388203  15.9739459  27.0453881
  30.8161705  15.8375909  27.6846126  29.5402264  15.5175243  27.2999465
  30.2209224  15.8861725  27.1776171  43.6362334  17.8612776  15.7917838
  43.5542496  17.9314963  16.6572825  44.2742054  18.4242520  15.6001578
  43.7182171  17.9551747  15.8907787  36.9955505  17.6273514  25.2592364
  36.7374749  16.7945249  25.2323664  37.0503988  17.8531127  24.4184864
  36.9655283  17.5371286  25.1312501  42.0756555   9.7301965  25.3596457
  41.3712882   9.2411150  25.5180376  42.1241529   9.7424439  24.4884901
  41.9786606   9.6591613  25.2535797  35.9690217  15.1811277  25.7457259
  35.3939808  15.3403445  26.3821220  35.5925893  14.5446686  25.2825709
  35.8293029  15.1109090  25.7711817  39.6363506  13.6534626  30.6049637
  39.2477938  13.2288844  29.9501828  38.9718204  13.9016776  31.1126664
  39.4810433  13.6273347  30.5837505  49.2786775  13.4109631  23.3797467
  49.0223339  12.5989572  23.1895350  50.1216089  13.4187198  23.1527655
  49.3652800  13.2921628  23.3182284  25.7147036  14.8251351  23.7601699
  25.8007288  14.4483220  24.5415229  26.3422833  14.4511797  23.2821658
  25.8203587  14.7136834  23.8047177  43.4589867   7.3509255  28.1173621
  43.8400379   6.6687426  28.5041496  42.6553151   7.0618857  27.9349286
  43.3966329   7.2076303  28.1477677  40.7402444  17.8833231  18.8026444
  41.5543083  18.1748123  18.6909216  40.6761585  17.2293093  18.2284737
  40.8505183  17.8298425  18.7015282  46.9611934  20.5659227  33.2156020
  46.7250571  19.7347292  33.0968080  47.6055163  20.5144834  33.8010864
  47.0206605  20.4356915  33.2841913  36.6110352  21.3554748  23.9298756
  37.2484299  21.1166496  24.4750550  37.0365424  21.5591907  23.1951917
  36.7686518  21.3505758  23.9015914  31.3022994  23.5943085  27.8133060
  31.3427140  23.8657936  26.9852840  31.8617518  24.1184993  28.2290848
  31.3906340  23.7118840  27.7524948  37.2513167  16.5757038  18.2673646
  37.6358320  16.3564745  19.0190191  37.0024787  17.4019983  18.3974722
  37.2715240  16.6655184  18.3974722  37.4181707   9.8563453  37.9836230
  37.1035149  10.6263016  37.7205793  37.0971640   9.2933709  37.3988457
  37.3240627   9.8873722  37.8577580  47.9848355  20.3503675  29.2784314
  47.6794172  21.0831732  29.6397630  47.2654570  19.9441605  28.9977100
  47.8335697  20.3985408  29.2897451  38.9931824  21.8327171  25.6092543
  39.0670832  21.6702343  26.4634392  39.8101330  22.0217360  25.3653024
  39.1248183  21.8363913  25.6990568  53.6850147  16.9896676  28.6052659
  53.6174647  17.0092635  27.7355245  53.6705809  17.8327003  28.8308329
  53.6728903  17.1170411  28.5105135  34.9713604   8.2453974  23.5982426
  34.1036030   8.3176574  23.6640035  35.2588809   9.0476053  23.7870401
  34.8853353   8.3748122  23.6357193  44.0946493   8.3931834  31.9293748
  44.8400085   8.2041644  31.5157173  43.6783798   8.9190072  31.3707604
  44.1431467   8.4433979  31.7858321  37.5336410  24.7961914  20.3406016
  37.8234708  24.4050895  19.6165243  38.2639891  24.9778619  20.7811291
  37.6843294  24.7655727  20.2988823  51.4708764  15.7641062  26.8799253
  52.0216686  15.1309131  27.1196345  51.4552879  16.2956455  27.5714757
  51.5493960  15.7490011  27.0178111  38.1231155  19.5979660  31.4259146
  37.6242849  20.3095427  31.5044035  38.9331379  19.9180326  31.3877309
  38.1687262  19.7506508  31.4315715  34.3859273  18.8602613  25.6721867
  34.0972521  18.2340084  26.2067595  35.2542621  18.8022900  25.7386548
  34.4719524  18.7590157  25.7612822  45.1737170  14.0037396  25.9903849
  44.8301936  13.2827731  26.3411099  45.2730213  13.7951247  25.1482207
  45.1379213  13.8661599  25.9175529  34.5891546  20.4997864  21.5964232
  35.3437514  20.8810903  21.8099695  33.9962159  20.9509007  22.0510929
  34.6128259  20.6226691  21.6947111  45.6350199  20.4663100  21.5327837
  46.2008232  21.1256310  21.4486380  44.9878103  20.8112798  22.0044239
  45.6228956  20.6145041  21.5900594  37.0498213  12.4560704  36.7221445
  36.2397989  12.7618484  36.6111287  37.5272900  13.1766286  36.8374029
  37.0001692  12.6075305  36.7228516  35.9089772  21.6706425  26.9704348
  35.3870526  21.8106717  27.6556212  36.2963793  20.9117089  27.1606465
  35.8893473  21.5791949  27.1005424  32.8980957  11.7212234  21.0399302
  32.6105752  11.3513504  20.3031250  33.5851425  12.1907089  20.7783007
  32.9569854  11.7359203  20.8914378  42.1056777  23.4101884  20.9564917
  41.8643453  22.6769745  20.5491982  42.2858110  23.9588741  20.3031250
  42.0964401  23.3824275  20.7995139  37.3356098  18.7010444  22.3685839
  37.1398881  19.3085179  21.7746142  37.5590444  18.0078388  21.8877513
  37.3390739  18.6887970  22.2101920  35.7334628  15.5865182  22.4866707
  36.4557280  15.7506340  22.0270513  35.2542621  16.3074847  22.3806047
  35.7698359  15.7163412  22.4032321  43.6928136  11.9228981  27.8663392
  42.8539236  11.9490260  27.6301655  43.7632503  12.5699716  28.4468739
  43.5796529  12.0225107  27.9172509  42.1397414   8.8214358  22.5991008
  42.8423767   8.6222106  22.1210966  41.8741603   8.0490300  22.9059851
  42.2044046   8.6777324  22.5736450  47.5685660  17.1296968  25.1524634
  47.4819634  17.2852394  26.0059413  47.1136139  17.7735043  24.7784039
  47.4888916  17.2472723  25.2231741  30.4709151  12.4993446  21.8884584
  30.5725288  13.3019608  22.2165559  31.2665038  12.2980782  21.5907664
  30.6037057  12.5879345  21.8919939  36.9025970  10.0849643  31.6521889
  36.7109167  10.1004777  32.5021312  37.7524566  10.2813317  31.6288543
  37.0001692  10.1163994  31.7745183  31.2872883  12.6140624  29.6305705
  31.1458375  11.7624565  29.7550213  31.5713447  12.6569285  28.8067911
  31.3080729  12.4940374  29.5273329  41.4411476  14.4507715  23.7750193
  41.1946190  14.3703466  24.6086982  41.7696599  13.6661183  23.5812721
  41.4532719  14.3233980  23.8697716  45.3359524  21.1591074  27.5636975
  45.1973884  21.8572120  28.0685717  44.5559522  21.0039730  27.2073156
  45.2002751  21.2391241  27.5863249  43.6737610  17.4587449  33.8159356
  43.6685648  16.5867266  33.8201783  44.3798603  17.6575619  33.3428812
  43.7782614  17.3591324  33.7466392  37.4008503  17.1864433  33.1873176
  37.5451879  17.7665641  32.5516286  37.7484151  17.5640730  33.8923031
  37.4735964  17.3285137  33.1972171  39.5728420  16.3854602  30.9698308
  38.8251734  16.5785616  30.5646586  39.7269945  15.5599821  30.7322429
  39.4850848  16.2919713  30.8743714  46.8312897  20.5169328  18.3253474
  46.4519706  19.7306466  18.3182763  46.1679143  21.0656185  18.1825118
  46.6771372  20.4814152  18.3034271  39.8130197  10.2805152  31.8593712
  40.2702811  11.0129127  31.9866504  39.8886526   9.8571618  32.6180968
  39.8921167  10.3262390  31.9894788  32.0563188  10.5270972  32.9483155
  31.5205378   9.9151330  33.2643923  32.1180953  11.1019108  33.6016822
  31.9858821  10.5217900  33.0918582  44.2857523   3.4595028  25.7287555
  44.4041091   3.9171491  24.9954857  44.1119699   2.6540289  25.4423772
  44.2776694   3.4088800  25.5788488  39.6559805  24.0682847  22.1642300
  40.4209697  23.7992491  21.8424964  39.5537895  23.5832857  22.8812363
  39.7541301  23.9572411  22.2222128  37.6912575  12.2707256  28.7035536
  36.9008650  12.0898716  29.0252872  38.0873198  11.4934209  28.6865830
  37.6329451  12.1294717  28.7488084  42.1778466  21.0995031  14.1442249
  42.9451451  21.1595156  13.7348101  41.7309775  20.5275472  13.6598568
  42.2251893  21.0231606  14.0119960  43.0756261  19.9049686  26.4294982
  42.4001263  19.6734919  26.9308369  43.0848638  19.2970869  25.8037087
  42.9774766  19.7808612  26.4111134  40.2050405  14.7467515  33.1859035
  40.1409547  15.6077472  33.0579171  40.3447593  14.4299509  32.3854586
  40.2165875  14.8267682  33.0487248  38.8869499  17.4399655  27.3275238
  38.4631748  17.6404154  26.5914256  38.7114355  16.5928503  27.4399537
  38.7980380  17.3448436  27.2348928  34.1751944  17.9351706  22.7603210
  34.3316563  17.8698509  23.6159202  34.5152537  18.7100259  22.5481890
  34.2485179  18.0400904  22.8557804  40.7131089  17.3109590  21.6296573
  41.2546634  16.8079971  22.0935194  41.0277648  17.2574784  20.8186059
  40.8395486  17.2289011  21.5780385  38.8817539  22.7026941  18.9136601
  38.9510359  21.8441480  19.0529602  39.6605994  22.9198822  18.5855626
  39.0070389  22.6079805  18.8853759  41.8620358  12.2045894  31.6818874
  42.0762328  11.5656808  31.1282228  41.2454257  12.6491718  31.2526736
  41.8025688  12.1756038  31.5369305  43.2725026  25.1264643  23.1273095
  42.8804818  24.8231358  22.4095961  43.4278098  25.9633733  22.9378048
  43.2378616  25.2048479  22.9929592  30.7486206  15.1186657  23.0763977
  31.1285171  15.5371202  22.4124245  30.1741571  15.7000112  23.3832821
  30.7197531  15.2664515  23.0240718  44.0259446  13.8134959  32.6202181
  43.2136128  13.5060850  32.7015354  44.4849381  13.3333960  33.1844893
  43.9739831  13.6971452  32.7156775  43.4364701  21.6914631  23.0679125
  43.0779356  21.8629274  23.8443158  42.9503412  22.1527837  22.5107124
  43.3123398  21.7853602  23.1004394  41.2535087   5.3145830  26.6706217
  40.3828645   5.2884551  26.6239526  41.5075428   5.1423022  25.8532062
  41.1628647   5.2855974  26.5426353  38.2253066  17.3713797  15.6079360
  38.5145591  18.1478679  15.8822934  38.3124865  16.8602528  16.3093859
  38.2807323  17.4105715  15.7521857  41.1212954  15.2195031  37.4030883
  41.5912585  15.8437147  37.7898757  41.1674834  14.5512006  37.9624098
  41.1980830  15.2129711  37.5430955  38.2784227   7.3252058  28.1279687
  37.7622716   6.6332250  28.2531266  37.7178156   7.9922835  28.0742286
  38.1190741   7.3215316  28.1385753  40.3476461   7.8645018  29.9572540
  39.9608214   7.8894050  30.7386069  39.8609398   7.2986697  29.5047056
  40.2188970   7.7840769  30.0060443  46.3226440  14.4307673  28.5812242
  45.8954048  14.3434022  27.8260341  45.6852493  14.5385449  29.1667086
  46.1656048  14.4340333  28.5557683  40.0133603   4.7512004  32.2482799
  40.6426721   5.2872304  31.9703870  40.1819465   4.6589363  33.0996365
  40.1311397   4.8173366  32.3331328  39.8147517   9.5383199  34.5209211
  40.6420947   9.2668347  34.5767826  39.8355364  10.3344040  34.8773029
  39.9400368   9.6162953  34.5824394  44.6523697  23.2738336  30.6551683
  45.4416075  22.9227400  30.7753765  44.8267295  24.0874724  30.3928317
  44.7943979  23.3424193  30.6339551  34.3917007  16.6847061  27.7079472
  33.5505014  16.5850936  27.9158366  34.6007015  17.4542542  28.0593792
  34.2981700  16.7839105  27.7906787  31.8692574  14.3066598  25.5364222
  31.4749272  14.3809610  24.7614332  31.3132691  14.6924545  26.0872584
  31.7295387  14.3748373  25.5031882  43.5057521   7.2847892  25.2168101
  43.7107114   7.2170200  26.0625098  43.1783945   8.0906714  25.1489279
  43.4872769   7.3933833  25.3327756  38.2033672  14.6128461  26.9577069
  37.8996810  14.0584449  27.5587477  37.5013093  14.7920671  26.4705103
  38.0549882  14.5573243  26.9746775  37.2599769  11.9228980  21.5221771
  37.5359504  11.2047893  21.1099339  37.8598439  12.5213900  21.3142877
  37.3893034  11.9049351  21.4302532  46.7591209   7.8379657  24.6970867
  46.1465522   8.3250059  25.0824599  46.8555384   7.1623147  25.2408518
  46.6829106   7.8097965  24.8349725  40.7610290   9.5942498  19.7968366
  41.2154036   9.7653058  20.5216211  41.2350336   8.9810608  19.3966142
  40.8978610   9.5293383  19.8442128  34.2825815  19.0790824  29.1271105
  33.6913748  19.7200322  29.0974120  35.0446839  19.5028441  29.1002404
  34.3074076  19.2366662  29.1186252  34.6786438  10.2392821  29.7939122
  35.1387920  10.3131751  30.5314246  34.7242545  11.0374075  29.4438944
  34.7536993  10.3686968  29.8511879  36.3269788  10.9059516  34.3611149
  35.9355353  10.2592863  34.7966927  36.4955650  11.4970952  34.9805405
  36.2940698  10.8973784  34.5173855  50.4016237  18.9096593  30.1248383
  50.4599360  19.3583242  30.8708359  49.7682704  19.3195406  29.6878463
  50.3167532  19.0370328  30.1700931  44.0415331  24.5300135  26.5603129
  43.8435020  25.0190950  25.8659340  43.4203042  24.7341377  27.1387262
  43.9202896  24.6316674  26.5426352  38.1023310  16.2985032  20.9013373
  38.8465355  16.6859308  21.1396323  38.2484006  15.4542457  21.0653861
  38.2333895  16.2315505  20.9607343  40.0202885   8.0935291  25.9345235
  39.1738930   8.2658099  25.8086585  40.0174018   7.2884635  26.2711063
  39.8950035   7.9996320  25.9656362  41.0901186  11.8710505  26.8007293
  40.6161140  11.3452267  27.3112604  41.4619321  11.3239978  26.2322154
  41.0751075  11.7126502  26.7922440  47.3537916  16.9312881  28.2114073
  47.1136139  16.0919296  28.2156500  47.8329923  17.0113048  28.9354847
  47.3890100  16.8194281  28.3188876  43.0184685  12.7647060  19.8633046
  42.4907704  12.8475804  19.1738755  43.4780393  13.5064931  19.8597691
  43.0086536  12.8867722  19.7607742  49.3543103  13.7114338  26.1643332
  49.1152873  13.6710172  25.3264117  49.5177004  14.5585490  26.2909053
  49.3433407  13.8306423  26.0596814  45.9589133  18.0964288  32.0948377
  46.6823332  17.6436814  31.9159397  45.6939096  18.3768953  31.3120705
  46.0270407  18.0715256  31.9527093  34.8276002  12.6924461  28.8301257
  34.2029072  12.7042853  28.2227209  34.4921597  13.1684636  29.4792497
  34.6861494  12.7642978  28.8357825  35.0117750  11.0349580  14.8873942
  34.6630555  11.6869305  15.3505491  34.5314196  11.0206693  14.1597813
  34.8887994  11.1292633  14.8485033  42.5721768  21.3350624  18.9942704
  43.2955967  21.8008737  18.8507277  42.1322359  21.4024233  18.2440301
  42.6137460  21.4134460  18.8627485  41.7407923  18.1948166  30.2443393
  41.1264916  17.6506216  30.5392028  42.2575208  17.6812402  29.7649209
  41.7263585  18.0384575  30.2167621  40.9804220  19.2652436  27.9787691
  40.5531828  18.6402154  27.5453127  40.9729164  18.9827358  28.8046698
  40.9163361  19.1305216  28.0367519  34.0966747  14.3017609  31.0476125
  34.2560234  13.5460933  31.4527847  33.9159641  14.8508548  31.7016863
  34.0932106  14.2711423  31.2038831  42.0387050   6.4678844  31.6026915
  41.5427611   6.6642519  30.9118481  42.7956112   6.8671513  31.4315716
  42.0773875   6.5556578  31.4747051  39.3089930  10.1421190  28.1930225
  39.3332417   9.6081303  27.5043005  39.5601403   9.6338499  28.8555816
  39.3499848   9.9882094  28.1894870  26.8197520  17.4252685  27.6273369
  26.7140969  17.3799530  26.7625453  26.0697740  17.7706466  27.9087654
  26.6933122  17.4693594  27.5410699  35.5891252   8.8692009  27.5735969
  35.6289624   9.3701215  28.2870677  34.7640917   8.9602402  27.3041893
  35.4730778   8.9573825  27.6386508  37.7720865  18.4352749  35.6756264
  36.9216495  18.5724463  35.8113909  37.9348993  17.7016527  36.1203966
  37.6704728  18.3466850  35.7611863  37.0105615  15.3852518  29.8709868
  36.1797545  15.5526336  29.6645117  36.9557133  15.0088469  30.6558754
  36.8795030  15.3542250  29.9558397  34.8189399   8.8761411  35.5066279
  35.4442102   8.3323544  35.7795711  34.3639879   8.3956329  34.9374070
  34.8437659   8.7250893  35.4627873  35.3841659  13.6608110  20.3999986
  35.5244620  14.1580574  21.1028628  35.8824192  12.9594404  20.5414200
  35.4782740  13.6310089  20.5251565  35.4141882  14.5275221  17.7292563
  36.0486961  15.1235646  17.6642025  35.4967492  14.2278679  18.5438433
  35.5198433  14.5716129  17.8395650  48.3924447  17.0590698  30.5978927
  48.9842288  17.6987949  30.6297125  48.8283442  16.3613735  30.8870994
  48.5442879  17.0509049  30.6459760  36.9920864  10.4589196  17.7038005
  37.3136705   9.9792279  17.0497267  37.2547808  11.2688842  17.5128817
  37.0786890  10.5079094  17.5793497  42.3880019   9.8461390  30.0661484
  42.8135091   9.3933917  29.4545011  41.7737013   9.2921461  30.3426272
  42.3608665   9.6975367  30.0166509  42.8325618  25.3971328  19.1540765
  42.1154927  25.2232191  18.6888002  43.4832355  25.1623901  18.6216251
  42.8227468  25.3367121  19.0069983  40.8274242   6.3176490  23.4752061
  40.1842560   6.1674137  24.0437200  40.4873649   6.0718835  22.7101166
  40.6819320   6.2588613  23.4455076  45.4173589  14.2735917  22.8982070
  44.7464779  14.8165619  22.7695135  46.1113339  14.7430772  22.6563765
  45.4202456  14.4234188  22.8437597  45.5801716  10.7291801  25.8072443
  45.9329326  10.3021524  26.4818242  44.7216518  10.6442644  25.9373519
  45.5051161  10.6536541  25.9267453  34.2785401  13.3599320  23.8655289
  33.5597390  13.7763453  24.1328153  34.6497763  13.9253559  23.3146928
  34.2277333  13.5048602  23.8238096  43.5784982  13.9927169  29.7557285
  43.5582909  13.8110464  30.6092064  43.6264183  14.8639188  29.7316869
  43.5819623  14.0943707  29.8780580  41.4804074  25.7923172  26.3354529
  41.0820357  25.9025443  25.5675349  40.8655293  26.0005239  26.9181089
  41.3302963  25.8396740  26.3085829  40.0531976  12.3997320  19.2028669
  39.4596815  12.7214317  18.6513236  40.0907253  11.5538416  18.9949775
  39.9706365  12.3221648  19.0911440  47.0125776   5.8510212  26.7356755
  46.5056641   5.1439352  26.6677933  47.8093210   5.5203401  26.8657832
  47.0553015   5.6983364  26.7455750  42.9289792  12.3576825  22.6330419
  42.7003485  12.3809526  21.7908777  43.1887868  11.5334292  22.7525430
  42.9335980  12.2392905  22.5255617  37.2109021  14.2111298  32.2355519
  36.6987924  13.6032481  32.5940551  37.0388517  14.9267890  32.7029495
  37.1098658  14.2274597  32.3571743  32.0574735  12.6548873  34.8857881
  31.8877326  13.3150248  34.3406088  31.6140685  12.8655434  35.6070370
  31.9674069  12.7834855  34.9119511  35.9834555  10.8953371  23.9284615
  36.4591921  11.2570451  23.2934796  35.4823154  11.5509839  24.2084758
  35.9799914  11.0447560  23.8761356  49.2145916  20.3675139  19.7197620
  49.5979522  21.1166495  19.9495717  48.4190030  20.6140959  19.4609609
  49.1539698  20.5144833  19.7155193  41.0878091  12.1335542  34.6757775
  41.6449521  11.9049352  34.0436240  40.7639156  12.8941208  34.3992987
  41.1224501  12.2119379  34.5414272  38.8061208  15.2203196  35.6409782
  39.5572535  15.5354873  35.9549336  38.9983785  15.0182367  34.8143704
  38.9452622  15.2370578  35.5653178  38.0261208  13.0394571  17.2957999
  38.4060173  13.0574200  16.5109114  37.2853804  13.4848560  17.1748846
  37.9730046  13.1076345  17.1621567  45.6546498  11.3476762  22.8833577
  45.6540725  11.1925419  23.7417854  45.4502678  12.1939749  22.8274963
  45.6246276  11.4497383  23.0021517  27.7163769  14.7716546  27.2992394
  27.5385530  14.3193155  28.0247310  27.4282791  15.5742708  27.4830872
  27.6476722  14.8239104  27.4335897  43.3787350  16.0274264  26.5369784
  43.8741016  15.3097259  26.4973805  42.5687126  15.7245061  26.4224271
  43.3331244  15.8771910  26.5143510  38.8245962  19.8772077  18.6866789
  38.0157285  19.5538751  18.6400098  39.3320871  19.1705299  18.6195037
  38.7795629  19.7253393  18.6697083  29.4536239  17.3044270  24.4114153
  28.5881759  17.2929961  24.2996924  29.5535055  17.1174493  25.2585292
  29.3410406  17.2750331  24.5203098  45.4439169  18.7777951  29.2246913
  45.8694241  18.2552373  28.6717338  45.0796089  19.3758789  28.7035536
  45.4525772  18.7888178  29.0655923  42.0317769  22.4912216  25.5548071
  42.5028947  23.2052478  25.7238056  42.3677947  21.8910966  26.0907940
  42.1512884  22.5083680  25.6580446  38.9487264   7.2639686  32.5106165
  39.0815169   6.4670680  32.8387141  39.3332416   7.7906089  33.0904441
  39.0243592   7.2239603  32.6449668  42.0219619   4.1870012  29.1087259
  41.2165582   4.0767742  29.4255097  41.8926354   4.2882468  28.2517124
  41.8839752   4.1853682  29.0295299  45.4785579  10.3515504  29.7026955
  44.8948568  10.8524711  29.2904523  45.7989873   9.8445060  29.0691279
  45.4398755  10.3507339  29.5485463  38.0180378   9.2656099  19.9785630
  38.8396073   9.4354412  19.7367325  37.5550029   9.4203360  19.2551928
  38.0711541   9.3137832  19.8357275  36.6075710   7.2598861  30.7584059
  37.1520123   6.9189988  31.3488401  36.6612646   8.1184323  30.9005344
  36.6964830   7.3354121  30.8665932  32.4206269  21.0215277  27.6322867
  33.0251127  20.9811111  27.0036688  32.2133582  21.8686429  27.6626923
  32.4795166  21.1403280  27.5438984  42.2350041  23.2881222  28.8485104
  43.0548415  23.1444188  29.1101400  41.9544119  23.9127421  29.3901542
  42.3146785  23.3591574  28.9673044  27.6557551  20.0049895  27.5021790
  27.5581829  19.1946166  27.8111847  28.4386421  19.9841688  27.1168058
  27.7573688  19.8816985  27.4908653  58.7063692  30.9446074  21.8127981
  58.6757696  31.7990711  21.9846250  59.3045040  30.6441367  22.3714124
  58.7900850  31.0262571  21.9202783  51.9063377  30.0321725  26.5680911
  51.0501272  30.1930223  26.6190028  51.9531030  29.1613789  26.5885972
  51.7862488  29.9272527  26.5786977  51.7429476  39.9909813  17.7603690
  51.4080845  40.6686734  17.3247912  52.2556347  39.6015124  17.1720561
  51.7695057  40.0334391  17.6090481  54.7515198  32.0913769  29.2112563
  55.2971158  32.7698856  29.2706532  54.6932074  31.9501230  28.3514144
  54.8231112  32.1705771  29.0924623  56.5280266  33.5198376  20.0846291
  56.4119792  34.2706062  20.5138429  57.3236153  33.2622329  20.3342378
  56.6284856  33.5933223  20.1850382  41.0654317  35.6023122  24.2233249
  40.8304501  34.7690774  24.1165518  41.2039957  35.8827787  23.4094450
  41.0509979  35.5206625  24.0875604  43.3644404  27.7708852  27.1217557
  42.7449436  27.1801500  26.9527571  43.2628268  28.3620288  26.4881880
  43.2582080  27.7712935  27.0022546  48.4110592  37.5092399  21.3715633
  48.7326433  38.0497607  20.7676941  49.0582688  36.9389171  21.5037923
  48.5536647  37.5051574  21.3022668  50.4612300  29.5108394  21.4550020
  51.1592464  29.6896522  21.9471483  50.7764632  28.9878733  20.8320409
  50.6107637  29.4602166  21.4352030  50.6500235  35.8978839  21.4429811
  51.0893871  35.2895940  21.8884584  50.5004898  35.5186212  20.6715276
  50.6921701  35.7517310  21.3948979  48.6339163  24.8800791  25.5371294
  48.3042493  25.3311934  24.8674993  47.9584165  24.8016954  26.0844301
  48.4849600  24.9351926  25.5194518  54.2509572  34.2506020  18.3960580
  54.1660867  35.1066987  18.5410149  54.7393955  33.9750345  19.0642740
  54.3098469  34.3363342  18.5162662  55.8415571  20.8686314  23.7820905
  55.5269012  21.5589792  24.2141327  55.3242513  20.8131096  23.0806406
  55.7180042  20.9621202  23.7417854  55.1828005  30.8690815  19.8958316
  54.6539476  31.0850448  20.5555622  55.7053025  31.5626953  19.8159285
  55.1816458  31.0033952  19.9813915  47.0727613  34.7654031  18.6965784
  46.4884828  35.2704063  19.1031647  46.6697708  34.5396418  17.9562375
  46.9266917  34.8062280  18.6470809  51.5304827  31.0119683  17.1734704
  51.7700831  31.2197667  16.3610047  51.8520668  30.2077192  17.2823649
  51.6141985  30.9233785  17.0695257  46.8395117  22.9413079  21.0194242
  47.5941085  23.3091396  20.7811292  46.6622652  23.3152634  21.7873422
  46.9249596  23.0511267  21.0979131  60.1330016  29.0907520  29.0641781
  59.2958437  29.1609707  29.2989376  60.1018247  29.0932015  28.1916084
  60.0048299  29.1017747  28.9701329  45.1952182  25.3483398  17.7172355
  45.0127755  25.5655279  16.8913348  46.0577795  25.4622411  17.7730969
  45.2956772  25.3973296  17.6026842  50.8751901  22.3509809  20.7521379
  51.6038062  22.1725764  20.3059535  50.9646794  23.1927889  20.9628557
  50.9958563  22.4493687  20.7174897  54.8560202  33.2863196  24.6553673
  55.6117717  33.7194711  24.6942582  54.9622526  32.6367966  25.2288309
  54.9830373  33.2540680  24.7451698  57.8940373  37.1136474  25.4056076
  57.4575605  37.1173216  26.1615047  57.5603289  37.7941972  24.9735653
  57.7802993  37.2148929  25.4536908  57.8137856  24.1550301  27.6485504
  58.4563764  24.2248406  28.2347419  58.0660877  23.4879524  27.1465046
  57.9459988  24.0676650  27.6612783  44.7414209  28.6257571  16.2294828
  44.0272386  28.3395750  16.6417261  45.2258178  28.9654197  16.8701216
  44.7073572  28.6339221  16.3850463  61.0284719  33.8317393  24.2975713
  61.6901153  33.2708062  24.1971622  60.3876131  33.3369424  24.6228404
  61.0313587  33.6753802  24.3308053  51.9161527  37.1287525  16.6056636
  52.3312676  36.7972549  15.9141132  51.0853457  36.8956427  16.4776773
  51.8549536  37.0458781  16.4847484  57.3149550  34.8482776  24.0387702
  57.5505139  34.9927975  23.2114552  57.4639114  35.6125184  24.4319215
  57.3715353  34.9821830  23.9751306  59.1440007  33.6884442  21.8757306
  59.4748224  34.2212082  21.2697400  59.7173095  33.7423330  22.5319257
  59.2773686  33.7754011  21.8835087  54.3571896  31.5349344  22.5580886
  54.4518750  32.2738639  23.0120511  53.7330739  31.1066820  22.9915450
  54.2780926  31.5810665  22.6889033  54.6094917  33.3798084  15.7917838
  54.5275080  33.4500271  16.6572825  55.2474638  33.9427828  15.6001578
  54.6914755  33.4737055  15.8907787  53.0489138  25.2487273  25.3596457
  52.3445465  24.7596458  25.5180376  53.0974113  25.2609747  24.4884901
  52.9519190  25.1776921  25.2535797  46.9422800  30.6996585  25.7457259
  46.3672392  30.8588753  26.3821220  46.5658477  30.0631994  25.2825709
  46.8025613  30.6294398  25.7711817  60.2519358  28.9294939  23.3797467
  59.9955923  28.1174880  23.1895350  61.0948672  28.9372506  23.1527655
  60.3385384  28.8106936  23.3182284  54.4322451  22.8694563  28.1173621
  54.8132962  22.1872734  28.5041496  53.6285735  22.5804165  27.9349286
  54.3698912  22.7261611  28.1477677  51.7135027  33.4018539  18.8026444
  52.5275666  33.6933431  18.6909216  51.6494169  32.7478401  18.2284737
  51.8237766  33.3483733  18.7015282  47.5842936  36.8740056  23.9298756
  48.2216883  36.6351803  24.4750550  48.0098007  37.0777215  23.1951917
  47.7419102  36.8691066  23.9015914  48.2245751  32.0942346  18.2673646
  48.6090903  31.8750052  19.0190191  47.9757371  32.9205291  18.3974722
  48.2447823  32.1840492  18.3974722  58.9580938  35.8688983  29.2784314
  58.6526755  36.6017040  29.6397630  58.2387154  35.4626913  28.9977100
  58.8068280  35.9170716  29.2897451  64.6582730  32.5081984  28.6052659
  64.5907231  32.5277943  27.7355245  64.6438393  33.3512311  28.8308329
  64.6461487  32.6355719  28.5105135  45.9446188  23.7639282  23.5982426
  45.0768613  23.8361882  23.6640035  46.2321392  24.5661361  23.7870401
  45.8585936  23.8933430  23.6357193  55.0679077  23.9117142  31.9293748
  55.8132669  23.7226952  31.5157173  54.6516381  24.4375380  31.3707604
  55.1164051  23.9619287  31.7858321  48.5068993  40.3147222  20.3406016
  48.7967292  39.9236203  19.6165243  49.2372474  40.4963927  20.7811291
  48.6575877  40.2841035  20.2988823  62.4441348  31.2826370  26.8799253
  62.9949269  30.6494439  27.1196345  62.4285463  31.8141763  27.5714757
  62.5226544  31.2675318  27.0178111  56.1469754  29.5222704  25.9903849
  55.8034520  28.8013039  26.3411099  56.2462796  29.3136555  25.1482207
  56.1111797  29.3846907  25.9175529  45.5624129  36.0183172  21.5964232
  46.3170097  36.3996211  21.8099695  44.9694742  36.4694315  22.0510929
  45.5860843  36.1411999  21.6947111  56.6082783  35.9848408  21.5327837
  57.1740816  36.6441618  21.4486380  55.9610686  36.3298106  22.0044239
  56.5961539  36.1330349  21.5900594  43.8713540  27.2397542  21.0399302
  43.5838336  26.8698812  20.3031250  44.5584008  27.7092397  20.7783007
  43.9302437  27.2544511  20.8914378  53.0789361  38.9287192  20.9564917
  52.8376037  38.1955053  20.5491982  53.2590694  39.4774049  20.3031250
  53.0696985  38.9009583  20.7995139  48.3088682  34.2195752  22.3685839
  48.1131464  34.8270487  21.7746142  48.5323027  33.5263696  21.8877513
  48.3123323  34.2073278  22.2101920  46.7067212  31.1050490  22.4866707
  47.4289864  31.2691648  22.0270513  46.2275204  31.8260155  22.3806047
  46.7430942  31.2348719  22.4032321  54.6660719  27.4414289  27.8663392
  53.8271820  27.4675568  27.6301655  54.7365087  28.0885024  28.4468739
  54.5529113  27.5410415  27.9172509  53.1129998  24.3399666  22.5991008
  53.8156350  24.1407414  22.1210966  52.8474186  23.5675608  22.9059851
  53.1776630  24.1962632  22.5736450  58.5418243  32.6482275  25.1524634
  58.4552218  32.8037702  26.0059413  58.0868723  33.2920351  24.7784039
  58.4621500  32.7658031  25.2231741  41.4441735  28.0178754  21.8884584
  41.5457871  28.8204916  22.2165559  42.2397621  27.8166090  21.5907664
  41.5769640  28.1064653  21.8919939  52.4144059  29.9693023  23.7750193
  52.1678773  29.8888774  24.6086982  52.7429182  29.1846490  23.5812721
  52.4265303  29.8419288  23.8697716  56.3092108  36.6776382  27.5636975
  56.1706467  37.3757428  28.0685717  55.5292106  36.5225038  27.2073156
  56.1735335  36.7576549  27.5863249  50.5461004  31.9039910  30.9698308
  49.7984318  32.0970924  30.5646586  50.7002529  31.0785129  30.7322429
  50.4583431  31.8105021  30.8743714  57.8045481  36.0354636  18.3253474
  57.4252290  35.2491774  18.3182763  57.1411726  36.5841493  18.1825118
  57.6503956  35.9999460  18.3034271  55.2590107  18.9780335  25.7287555
  55.3773675  19.4356799  24.9954857  55.0852282  18.1725597  25.4423772
  55.2509278  18.9274108  25.5788488  50.6292389  39.5868155  22.1642300
  51.3942280  39.3177798  21.8424964  50.5270479  39.1018165  22.8812363
  50.7273884  39.4757719  22.2222128  48.6645159  27.7892564  28.7035536
  47.8741233  27.6084024  29.0252872  49.0605782  27.0119517  28.6865830
  48.6062035  27.6480025  28.7488084  53.1511050  36.6180339  14.1442249
  53.9184035  36.6780463  13.7348101  52.7042358  36.0460780  13.6598568
  53.1984477  36.5416914  14.0119960  54.0488845  35.4234994  26.4294982
  53.3733847  35.1920227  26.9308369  54.0581221  34.8156177  25.8037087
  53.9507350  35.2993920  26.4111134  56.0505580  38.2800127  18.6605160
  56.1325417  39.0867113  18.3366611  56.5355322  38.2996086  19.3845933
  56.1342737  38.4020789  18.7192058  45.1484528  33.4537014  22.7603210
  45.3049147  33.3883817  23.6159202  45.4885121  34.2285567  22.5481890
  45.2217763  33.5586212  22.8557804  51.6863672  32.8294898  21.6296573
  52.2279218  32.3265279  22.0935194  52.0010232  32.7760092  20.8186059
  51.8128070  32.7474319  21.5780385  49.8550122  38.2212249  18.9136601
  49.9242942  37.3626788  19.0529602  50.6338577  38.4384130  18.5855626
  49.9802972  38.1265113  18.8853759  54.2457610  40.6449950  23.1273095
  53.8537401  40.3416666  22.4095961  54.4010682  41.4819040  22.9378048
  54.2111200  40.7233787  22.9929592  54.9992030  29.3320267  32.6202181
  54.1868712  29.0246158  32.7015354  55.4581964  28.8519268  33.1844893
  54.9472415  29.2156760  32.7156775  54.4097285  37.2099939  23.0679125
  54.0511939  37.3814582  23.8443158  53.9235995  37.6713145  22.5107124
  54.2855981  37.3038910  23.1004394  52.2267671  20.8331138  26.6706217
  51.3561228  20.8069859  26.6239526  52.4808012  20.6608330  25.8532062
  52.1361231  20.8041282  26.5426353  49.1985650  32.8899105  15.6079360
  49.4878175  33.6663987  15.8822934  49.2857449  32.3787836  16.3093859
  49.2539906  32.9291023  15.7521857  49.2516811  22.8437366  28.1279687
  48.7355300  22.1517558  28.2531266  48.6910740  23.5108143  28.0742286
  49.0923324  22.8400624  28.1385753  51.3209044  23.3830326  29.9572540
  50.9340798  23.4079358  30.7386069  50.8341982  22.8172005  29.5047056
  51.1921553  23.3026077  30.0060443  57.2959024  29.9492981  28.5812242
  56.8686632  29.8619330  27.8260341  56.6585077  30.0570757  29.1667086
  57.1388631  29.9525641  28.5557683  50.9866186  20.2697312  32.2482799
  51.6159304  20.8057612  31.9703870  51.1552049  20.1774671  33.0996365
  51.1043981  20.3358674  32.3331328  42.8425158  29.8251906  25.5364222
  42.4481856  29.8994918  24.7614332  42.2865275  30.2109853  26.0872584
  42.7027970  29.8933681  25.5031882  54.4790105  22.8033200  25.2168101
  54.6839698  22.7355508  26.0625098  54.1516529  23.6092022  25.1489279
  54.4605353  22.9119141  25.3327756  49.1766256  30.1313769  26.9577069
  48.8729393  29.5769757  27.5587477  48.4745677  30.3105978  26.4705103
  49.0282466  30.0758551  26.9746775  48.2332353  27.4414288  21.5221771
  48.5092087  26.7233201  21.1099339  48.8331022  28.0399208  21.3142877
  48.3625617  27.4234659  21.4302532  57.7323792  23.3564965  24.6970867
  57.1198106  23.8435367  25.0824599  57.8287967  22.6808455  25.2408518
  57.6561690  23.3283273  24.8349725  51.7342873  25.1127806  19.7968366
  52.1886620  25.2838366  20.5216211  52.2082919  24.4995916  19.3966142
  51.8711193  25.0478691  19.8442128  45.6519022  25.7578129  29.7939122
  46.1120503  25.8317059  30.5314246  45.6975128  26.5559383  29.4438944
  45.7269577  25.8872276  29.8511879  61.3748820  34.4281901  30.1248383
  61.4331944  34.8768550  30.8708359  60.7415288  34.8380714  29.6878463
  61.2900115  34.5555636  30.1700931  55.0147915  40.0485443  26.5603129
  54.8167604  40.5376258  25.8659340  54.3935626  40.2526685  27.1387262
  54.8935479  40.1501981  26.5426352  49.0755893  31.8170340  20.9013373
  49.8197938  32.2044616  21.1396323  49.2216590  30.9727765  21.0653861
  49.2066478  31.7500813  20.9607343  50.9935469  23.6120599  25.9345235
  50.1471514  23.7843407  25.8086585  50.9906601  22.8069943  26.2711063
  50.8682619  23.5181628  25.9656362  52.0633769  27.3895813  26.8007293
  51.5893723  26.8637575  27.3112604  52.4351905  26.8425286  26.2322154
  52.0483658  27.2311810  26.7922440  58.3270500  32.4498189  28.2114073
  58.0868723  31.6104604  28.2156500  58.8062507  32.5298356  28.9354847
  58.3622683  32.3379589  28.3188876  53.9917269  28.2832368  19.8633046
  53.4640287  28.3661112  19.1738755  54.4512977  29.0250239  19.8597691
  53.9819119  28.4053030  19.7607742  60.3275687  29.2299646  26.1643332
  60.0885457  29.1895480  25.3264117  60.4909588  30.0770798  26.2909053
  60.3165990  29.3491731  26.0596814  56.9321717  33.6149595  32.0948377
  57.6555916  33.1622122  31.9159397  56.6671679  33.8954261  31.3120705
  57.0002990  33.5900564  31.9527093  45.8008585  28.2109769  28.8301257
  45.1761655  28.2228161  28.2227209  45.4654180  28.6869944  29.4792497
  45.6594077  28.2828286  28.8357825  45.9850334  26.5534888  14.8873942
  45.6363138  27.2054613  15.3505491  45.5046780  26.5392001  14.1597813
  45.8620578  26.6477941  14.8485033  53.5454351  36.8535931  18.9942704
  54.2688550  37.3194044  18.8507277  53.1054942  36.9209541  18.2440301
  53.5870044  36.9319768  18.8627485  53.0119634  21.9864152  31.6026915
  52.5160195  22.1827827  30.9118481  53.7688696  22.3856821  31.4315716
  53.0506458  22.0741886  31.4747051  50.2822513  25.6606498  28.1930225
  50.3065000  25.1266611  27.5043005  50.5333987  25.1523807  28.8555816
  50.3232432  25.5067402  28.1894870  46.5623836  24.3877317  27.5735969
  46.6022207  24.8886523  28.2870677  45.7373500  24.4787710  27.3041893
  46.4463361  24.4759133  27.6386508  46.3574243  29.1793418  20.3999986
  46.4977204  29.6765882  21.1028628  46.8556776  28.4779712  20.5414200
  46.4515324  29.1495397  20.5251565  46.3874465  30.0460529  17.7292563
  47.0219545  30.6420954  17.6642025  46.4700076  29.7463987  18.5438433
  46.4931016  30.0901437  17.8395650  59.3657031  32.5776006  30.5978927
  59.9574871  33.2173257  30.6297125  59.8016025  31.8799043  30.8870994
  59.5175462  32.5694357  30.6459760  47.9653448  25.9774504  17.7038005
  48.2869289  25.4977587  17.0497267  48.2280392  26.7874150  17.5128817
  48.0519473  26.0264402  17.5793497  53.3612603  25.3646698  30.0661484
  53.7867675  24.9119225  29.4545011  52.7469596  24.8106769  30.3426272
  53.3341248  25.2160675  30.0166509  42.8927453  32.2428370  20.9982109
  43.4019682  32.8392877  21.3793415  43.3661725  31.9754343  20.3158529
  43.0370829  32.2914185  20.9536632  53.8058201  40.9156636  19.1540765
  53.0887511  40.7417499  18.6888002  54.4564939  40.6809209  18.6216251
  53.7960052  40.8552429  19.0069983  51.8006826  21.8361798  23.4752061
  51.1575144  21.6859444  24.0437200  51.4606233  21.5904143  22.7101166
  51.6551903  21.7773921  23.4455076  56.3906172  29.7921225  22.8982070
  55.7197362  30.3350927  22.7695135  57.0845923  30.2616080  22.6563765
  56.3935040  29.9419496  22.8437597  56.5534300  26.2477109  25.8072443
  56.9061910  25.8206831  26.4818242  55.6949101  26.1627952  25.9373519
  56.4783744  26.1721849  25.9267453  45.2517985  28.8784628  23.8655289
  44.5329974  29.2948761  24.1328153  45.6230347  29.4438867  23.3146928
  45.2009917  29.0233910  23.8238096  54.5517566  29.5112477  29.7557285
  54.5315493  29.3295772  30.6092064  54.5996766  30.3824496  29.7316869
  54.5552207  29.6129015  29.8780580  51.0264559  27.9182628  19.2028669
  50.4329398  28.2399625  18.6513236  51.0639837  27.0723724  18.9949775
  50.9438948  27.8406956  19.0911440  57.9858360  21.3695520  26.7356755
  57.4789224  20.6624660  26.6677933  58.7825794  21.0388709  26.8657832
  58.0285599  21.2168672  26.7455750  53.9022376  27.8762133  22.6330419
  53.6736069  27.8994834  21.7908777  54.1620452  27.0519600  22.7525430
  53.9068564  27.7578213  22.5255617  46.9567138  26.4138679  23.9284615
  47.4324504  26.7755759  23.2934796  46.4555738  27.0695147  24.2084758
  46.9532497  26.5632868  23.8761356  60.1878500  35.8860447  19.7197620
  60.5712106  36.6351803  19.9495717  59.3922613  36.1326267  19.4609609
  60.1272282  36.0330141  19.7155193  48.9993791  28.5579879  17.2957999
  49.3792756  28.5759508  16.5109114  48.2586387  29.0033868  17.1748846
  48.9462629  28.6261653  17.1621567  56.6279082  26.8662070  22.8833577
  56.6273308  26.7110727  23.7417854  56.4235262  27.7125057  22.8274963
  56.5978860  26.9682691  23.0021517  54.3519934  31.5459572  26.5369784
  54.8473599  30.8282567  26.4973805  53.5419710  31.2430369  26.4224271
  54.3063827  31.3957218  26.5143510  49.7978545  35.3957385  18.6866789
  48.9889868  35.0724059  18.6400098  50.3053454  34.6890607  18.6195037
  49.7528212  35.2438701  18.6697083  56.4171753  34.2963259  29.2246913
  56.8426824  33.7737681  28.6717338  56.0528673  34.8944097  28.7035536
  56.4258355  34.3073486  29.0655923  53.0050352  38.0097524  25.5548071
  53.4761530  38.7237786  25.7238056  53.3410531  37.4096274  26.0907940
  53.1245467  38.0268988  25.6580446  49.9219847  22.7824994  32.5106165
  50.0547753  21.9855988  32.8387141  50.3065000  23.3091397  33.0904441
  49.9976176  22.7424911  32.6449668  52.9952202  19.7055320  29.1087259
  52.1898166  19.5953050  29.4255097  52.8658938  19.8067776  28.2517124
  52.8572335  19.7038990  29.0295299  56.4518163  25.8700812  29.7026955
  55.8681152  26.3710019  29.2904523  56.7722457  25.3630368  29.0691279
  56.4131338  25.8692647  29.5485463  48.9912962  24.7841407  19.9785630
  49.8128656  24.9539720  19.7367325  48.5282613  24.9388668  19.2551928
  49.0444124  24.8323140  19.8357275  47.5808294  22.7784169  30.7584059
  48.1252707  22.4375296  31.3488401  47.6345230  23.6369631  30.9005344
  47.6697413  22.8539429  30.8665932  69.6796275  46.4631382  21.8127981
  69.6490280  47.3176019  21.9846250  70.2777624  46.1626675  22.3714124
  69.7633433  46.5447879  21.9202783  57.2637100  55.0869751  22.3318143
  56.5119999  54.7085289  22.1034188  57.7123111  55.1188185  21.5836953
  57.2186767  55.0355358  22.1875645  66.1889677  51.8193559  36.1741367
  66.8956444  51.3245589  36.3028302  66.3777612  52.2602640  35.4444025
  66.3217582  51.8111909  36.0850413  62.7162060  55.5095120  17.7603690
  62.3813428  56.1872042  17.3247912  63.2288930  55.1200432  17.1720561
  62.7427641  55.5519699  17.6090481  62.2566351  57.4609389  23.7014801
  62.6405730  58.0296288  23.1619577  62.1925492  56.7358899  23.2220617
  62.3039778  57.4384853  23.5508664  65.7247781  47.6099077  29.2112563
  66.2703741  48.2884164  29.2706532  65.6664657  47.4686538  28.3514144
  65.7963695  47.6891079  29.0924623  58.8421856  55.0988143  24.5980915
  58.9432219  54.2888497  24.9078043  58.2463601  55.0045090  23.9680594
  58.7694395  54.9653171  24.5507154  67.5012850  49.0383684  20.0846291
  67.3852376  49.7891370  20.5138429  68.2968736  48.7807637  20.3342378
  67.6017439  49.1118531  20.1850382  58.6822596  60.0165732  25.9995771
  59.3260051  60.4578896  26.3891930  59.0078851  59.2119158  25.9126030
  58.8254424  59.9630927  26.0441249  52.0386900  51.1208430  24.2233249
  51.8037085  50.2876082  24.1165518  52.1772541  51.4013095  23.4094450
  52.0242563  51.0391933  24.0875604  54.3376988  43.2894160  27.1217557
  53.7182019  42.6986808  26.9527571  54.2360851  43.8805595  26.4881880
  54.2314663  43.2898243  27.0022546  59.3843175  53.0277707  21.3715633
  59.7059016  53.5682914  20.7676941  60.0315272  52.4574479  21.5037923
  59.5269230  53.0236882  21.3022668  61.4344883  45.0293702  21.4550020
  62.1325048  45.2081830  21.9471483  61.7497216  44.5064041  20.8320409
  61.5840221  44.9787474  21.4352030  61.6232819  51.4164147  21.4429811
  62.0626454  50.8081248  21.8884584  61.4737482  51.0371520  20.6715276
  61.6654284  51.2702618  21.3948979  61.6290553  52.8563065  28.2955529
  61.9113796  52.0614471  28.0742285  62.3576713  53.3343652  28.3160590
  61.7780117  52.8097662  28.2658544  59.6071747  40.3986099  25.5371294
  59.2775077  40.8497242  24.8674993  58.9316749  40.3202262  26.0844301
  59.4582183  40.4537234  25.5194518  65.2242155  49.7691328  18.3960580
  65.1393450  50.6252295  18.5410149  65.7126539  49.4935652  19.0642740
  65.2831053  49.8548650  18.5162662  66.8148155  36.3871622  23.7820905
  66.5001596  37.0775100  24.2141327  66.2975096  36.3316404  23.0806406
  66.6912625  36.4806510  23.7417854  66.1560589  46.3876123  19.8958316
  65.6272060  46.6035756  20.5555622  66.6785608  47.0812261  19.8159285
  66.1549041  46.5219259  19.9813915  71.6108641  51.9622427  25.2691360
  70.7806345  52.1733071  25.4324777  71.5617894  51.1359482  24.9933644
  71.4815377  51.8712033  25.2528725  58.0460196  50.2839339  18.6965784
  57.4617412  50.7889371  19.1031647  57.6430291  50.0581726  17.9562375
  57.8999500  50.3247588  18.6470809  59.6718379  54.7926281  28.1039270
  59.1545321  54.4333696  27.5000578  60.3692770  54.2688456  28.1145336
  59.6983960  54.6623969  28.0169528  63.3281971  55.2421095  34.0655443
  63.4165317  55.0547236  34.9133653  63.7571684  54.5958525  33.6660289
  63.4044073  55.1184103  34.1327194  60.8952431  54.5252255  33.0473105
  60.3323266  54.1124865  33.5712766  61.6573454  54.4505161  33.4666248
  60.9246879  54.4529656  33.1866105  62.5037411  46.5304991  17.1734704
  62.7433414  46.7382975  16.3610047  62.8253252  45.7262500  17.2823649
  62.5874569  46.4419093  17.0695257  57.8127701  38.4598387  21.0194242
  58.5673669  38.8276704  20.7811292  57.6355236  38.8337942  21.7873422
  57.8982179  38.5696575  21.0979131  56.4548422  56.5150276  25.6509735
  57.1569001  56.0002265  25.7082491  56.3745905  56.8424428  26.4556610
  56.5472183  56.4864503  25.7782527  71.1062600  44.6092828  29.0641781
  70.2691021  44.6795015  29.2989376  71.0750831  44.6117322  28.1916084
  70.9780882  44.6203055  28.9701329  56.1684766  40.8668706  17.7172355
  55.9860339  41.0840587  16.8913348  57.0310379  40.9807719  17.7730969
  56.2689355  40.9158604  17.6026842  55.7799198  52.7056628  25.1595343
  56.6188097  52.9379561  25.2069105  55.8110967  51.8360940  25.0902378
  55.9080915  52.6113575  25.1559988  61.8484485  37.8695117  20.7521379
  62.5770645  37.6911072  20.3059535  61.9379378  38.7113197  20.9628557
  61.9691147  37.9678995  20.7174897  65.8292786  48.8048504  24.6553673
  66.5850301  49.2380019  24.6942582  65.9355110  48.1553274  25.2288309
  65.9562956  48.7725988  24.7451698  68.8672957  52.6321781  25.4056076
  68.4308189  52.6358524  26.1615047  68.5335872  53.3127280  24.9735653
  68.7535577  52.7334237  25.4536908  68.7870440  39.6735609  27.6485504
  69.4296348  39.7433714  28.2347419  69.0393460  39.0064832  27.1465046
  68.9192572  39.5861958  27.6612783  55.7146793  44.1442879  16.2294828
  55.0004970  43.8581058  16.6417261  56.1990761  44.4839505  16.8701216
  55.6806156  44.1524528  16.3850463  63.5972424  56.5840216  30.3765682
  62.7987669  56.3439716  30.6339550  64.0458435  56.6354609  31.1232729
  63.5447035  56.5562607  30.5250606  72.0017303  49.3502701  24.2975713
  72.6633737  48.7893370  24.1971622  71.3608715  48.8554732  24.6228404
  72.0046170  49.1939110  24.3308053  62.8894111  52.6472833  16.6056636
  63.3045259  52.3157857  15.9141132  62.0586040  52.4141735  16.4776773
  62.8282119  52.5644089  16.4847484  68.2882134  50.3668084  24.0387702
  68.5237723  50.5113283  23.2114552  68.4371697  51.1310492  24.4319215
  68.3447937  50.5007138  23.9751306  70.1172590  49.2069750  21.8757306
  70.4480807  49.7397390  21.2697400  70.6905678  49.2608637  22.5319257
  70.2506269  49.2939319  21.8835087  65.3304479  47.0534652  22.5580886
  65.4251334  47.7923946  23.0120511  64.7063323  46.6252128  22.9915450
  65.2513510  47.0995973  22.6889033  65.5827501  48.8983392  15.7917838
  65.5007663  48.9685579  16.6572825  66.2207221  49.4613136  15.6001578
  65.6647338  48.9922363  15.8907787  58.9420672  48.6644130  25.2592364
  58.6839916  47.8315865  25.2323664  58.9969155  48.8901743  24.4184864
  58.9120450  48.5741901  25.1312501  64.0221722  40.7672581  25.3596457
  63.3178049  40.2781766  25.5180376  64.0706696  40.7795055  24.4884901
  63.9251774  40.6962229  25.2535797  57.9155384  46.2181893  25.7457259
  57.3404975  46.3774061  26.3821220  57.5391060  45.5817302  25.2825709
  57.7758196  46.1479706  25.7711817  71.2251942  44.4480247  23.3797467
  70.9688507  43.6360188  23.1895350  72.0681256  44.4557814  23.1527655
  71.3117967  44.3292244  23.3182284  65.4055034  38.3879871  28.1173621
  65.7865546  37.7058042  28.5041496  64.6018318  38.0989473  27.9349286
  65.3431496  38.2446919  28.1477677  62.6867611  48.9203846  18.8026444
  63.5008250  49.2118739  18.6909216  62.6226752  48.2663709  18.2284737
  62.7970350  48.8669041  18.7015282  68.9077101  51.6029843  33.2156020
  68.6715738  50.7717907  33.0968080  69.5520330  51.5515450  33.8010864
  68.9671772  51.4727531  33.2841913  58.5575519  52.3925364  23.9298756
  59.1949466  52.1537111  24.4750550  58.9830591  52.5962523  23.1951917
  58.7151685  52.3876374  23.9015914  59.1978334  47.6127654  18.2673646
  59.5823487  47.3935360  19.0190191  58.9489955  48.4390599  18.3974722
  59.2180407  47.7025800  18.3974722  69.9313522  51.3874291  29.2784314
  69.6259339  52.1202348  29.6397630  69.2119737  50.9812221  28.9977100
  69.7800864  51.4356024  29.2897451  60.9396991  52.8697787  25.6092543
  61.0135999  52.7072958  26.4634392  61.7566497  53.0587976  25.3653024
  61.0713350  52.8734529  25.6990568  75.6315314  48.0267292  28.6052659
  75.5639814  48.0463251  27.7355245  75.6170976  48.8697619  28.8308329
  75.6194070  48.1541027  28.5105135  54.7002748  53.2155649  22.6386986
  53.8740865  53.4617387  22.5121265  54.7614739  53.1367730  23.5049044
  54.5876915  53.2400598  22.7475930  56.9178772  39.2824590  23.5982426
  56.0501197  39.3547190  23.6640035  57.2053976  40.0846669  23.7870401
  56.8318520  39.4118737  23.6357193  66.0411660  39.4302450  31.9293748
  66.7865252  39.2412260  31.5157173  65.6248965  39.9560688  31.3707604
  66.0896635  39.4804595  31.7858321  59.4801577  55.8332530  20.3406016
  59.7699875  55.4421511  19.6165243  60.2105058  56.0149234  20.7811291
  59.6308461  55.8026343  20.2988823  73.4173931  46.8011678  26.8799253
  73.9681853  46.1679747  27.1196345  73.4018047  47.3327071  27.5714757
  73.4959128  46.7860626  27.0178111  57.4207492  57.8099912  23.4066166
  57.2007788  57.5197267  24.1992833  57.2002014  57.1514867  22.8784078
  57.3555087  57.6699620  23.4455074  56.3324440  49.8973228  25.6721867
  56.0437688  49.2710700  26.2067595  57.2007788  49.8393516  25.7386548
  56.4184692  49.7960773  25.7612822  67.1202337  45.0408012  25.9903849
  66.7767103  44.3198347  26.3411099  67.2195380  44.8321863  25.1482207
  67.0844380  44.9032215  25.9175529  59.5875448  59.1829302  22.1896858
  60.2399506  58.6505744  22.4187884  58.8901057  58.8297954  22.5764732
  59.5806166  59.0518825  22.2809026  56.5356713  51.5368480  21.5964232
  57.2902681  51.9181519  21.8099695  55.9427326  51.9879623  22.0510929
  56.5593427  51.6597307  21.6947111  67.5815366  51.5033716  21.5327837
  68.1473399  52.1626926  21.4486380  66.9343270  51.8483414  22.0044239
  67.5694123  51.6515657  21.5900594  54.8446124  42.7582850  21.0399302
  54.5570919  42.3884120  20.3031250  55.5316592  43.2277705  20.7783007
  54.9035021  42.7729819  20.8914378  64.0521945  54.4472500  20.9564917
  63.8108621  53.7140361  20.5491982  64.2323277  54.9959357  20.3031250
  64.0429569  54.4194891  20.7995139  59.2821265  49.7381060  22.3685839
  59.0864048  50.3455794  21.7746142  59.5055611  49.0449004  21.8877513
  59.2855906  49.7258585  22.2101920  57.6799795  46.6235798  22.4866707
  58.4022447  46.7876956  22.0270513  57.2007788  47.3445463  22.3806047
  57.7163526  46.7534027  22.4032321  65.6393303  42.9599597  27.8663392
  64.8004403  42.9860876  27.6301655  65.7097670  43.6070332  28.4468739
  65.5261696  43.0595722  27.9172509  64.0862581  39.8584974  22.5991008
  64.7888934  39.6592722  22.1210966  63.8206770  39.0860916  22.9059851
  64.1509213  39.7147940  22.5736450  69.5150827  48.1667583  25.1524634
  69.4284801  48.3223009  26.0059413  69.0601307  48.8105659  24.7784039
  69.4354083  48.2843339  25.2231741  52.4174318  43.5364062  21.8884584
  52.5190455  44.3390224  22.2165559  53.2130205  43.3351398  21.5907664
  52.5502224  43.6249961  21.8919939  63.3876643  45.4878331  23.7750193
  63.1411357  45.4074081  24.6086982  63.7161766  44.7031798  23.5812721
  63.3997886  45.3604596  23.8697716  67.2824692  52.1961690  27.5636975
  67.1439051  52.8942736  28.0685717  66.5024689  52.0410346  27.2073156
  67.1467918  52.2761857  27.5863249  65.6202777  48.4958065  33.8159356
  65.6150815  47.6237882  33.8201783  66.3263771  48.6946234  33.3428812
  65.7247781  48.3961939  33.7466392  58.4201425  56.4137821  30.0534203
  58.5690989  55.8540737  29.4007608  59.2001427  56.4929823  30.4366722
  58.5575519  56.3423386  30.0131152  68.7778064  51.5539944  18.3253474
  68.3984873  50.7677082  18.3182763  68.1144310  52.1026801  18.1825118
  68.6236539  51.5184768  18.3034271  60.9454726  56.5852464  31.3318694
  60.8698397  55.9161274  31.8869482  60.8744585  57.2870252  31.8459360
  60.9235333  56.5897371  31.4895542  66.2322690  34.4965643  25.7287555
  66.3506258  34.9542107  24.9954857  66.0584866  33.6910905  25.4423772
  66.2241861  34.4459416  25.5788488  61.6024973  55.1053463  22.1642300
  62.3674864  54.8363106  21.8424964  61.5003063  54.6203473  22.8812363
  61.7006468  54.9943027  22.2222128  64.1243633  52.1365646  14.1442249
  64.8916618  52.1965771  13.7348101  63.6774942  51.5646088  13.6598568
  64.1717060  52.0602222  14.0119960  65.0221429  50.9420302  26.4294982
  64.3466430  50.7105535  26.9308369  65.0313805  50.3341485  25.8037087
  64.9239933  50.8179227  26.4111134  67.0238163  53.7985435  18.6605160
  67.1058001  54.6052421  18.3366611  67.5087905  53.8181394  19.3845933
  67.1075321  53.9206097  18.7192058  60.3346360  59.9920784  29.7896695
  60.8242290  59.2931573  29.6072360  59.7630592  59.6944654  30.3772752
  60.3230890  59.8447007  29.8497736  56.1217111  48.9722322  22.7603210
  56.2781731  48.9069125  23.6159202  56.4617705  49.7470875  22.5481890
  56.1950346  49.0771520  22.8557804  62.6596256  48.3480206  21.6296573
  63.2011802  47.8450587  22.0935194  62.9742815  48.2945400  20.8186059
  62.7860653  48.2659627  21.5780385  66.5313363  52.5582853  38.7423486
  67.3448229  52.2868002  38.9028618  66.3708330  52.2590393  37.9383681
  66.6283312  52.4737779  38.6468891  60.8282706  53.7397557  18.9136601
  60.8975526  52.8812096  19.0529602  61.6071161  53.9569438  18.5855626
  60.9535556  53.6450421  18.8853759  65.2190193  56.1635258  23.1273095
  64.8269985  55.8601974  22.4095961  65.3743266  57.0004348  22.9378048
  65.1843783  56.2419095  22.9929592  52.6951373  46.1557272  23.0763977
  53.0750338  46.5741817  22.4124245  52.1206738  46.7370728  23.3832821
  52.6662698  46.3035131  23.0240718  65.3829868  52.7285247  23.0679125
  65.0244523  52.8999890  23.8443158  64.8968579  53.1898453  22.5107124
  65.2588565  52.8224218  23.1004394  63.2000254  36.3516446  26.6706217
  62.3293812  36.3255167  26.6239526  63.4540595  36.1793638  25.8532062
  63.1093814  36.3226589  26.5426353  60.1718234  48.4084413  15.6079360
  60.4610758  49.1849295  15.8822934  60.2590032  47.8973144  16.3093859
  60.2272490  48.4476331  15.7521857  60.2249395  38.3622674  28.1279687
  59.7087883  37.6702866  28.2531266  59.6643323  39.0293451  28.0742286
  60.0655908  38.3585932  28.1385753  62.2941628  38.9015634  29.9572540
  61.9073381  38.9264666  30.7386069  61.8074565  38.3357313  29.5047056
  62.1654137  38.8211385  30.0060443  66.5434607  53.6189143  34.0146326
  67.1814328  53.1249339  33.6808782  65.9008699  53.5466544  33.4298553
  66.5428834  53.5348152  33.8788681  68.2691608  45.4678289  28.5812242
  67.8419216  45.3804638  27.8260341  67.6317661  45.5756065  29.1667086
  68.1121215  45.4710949  28.5557683  61.9598770  35.7882620  32.2482799
  62.5891888  36.3242920  31.9703870  62.1284632  35.6959979  33.0996365
  62.0776564  35.8543982  32.3331328  66.5988864  54.3108952  30.6551683
  67.3881242  53.9598016  30.7753765  66.7732462  55.1245340  30.3928317
  66.7409146  54.3794809  30.6339551  53.8157741  45.3437214  25.5364222
  53.4214439  45.4180226  24.7614332  53.2597858  45.7295161  26.0872584
  53.6760554  45.4118989  25.5031882  65.4522688  38.3218508  25.2168101
  65.6572282  38.2540816  26.0625098  65.1249112  39.1277329  25.1489279
  65.4337936  38.4304449  25.3327756  59.2064936  42.9599596  21.5221771
  59.4824671  42.2418509  21.1099339  59.8063606  43.5584516  21.3142877
  59.3358201  42.9419967  21.4302532  68.7056376  38.8750272  24.6970867
  68.0930690  39.3620675  25.0824599  68.8020551  38.1993763  25.2408518
  68.6294274  38.8468581  24.8349725  62.7075457  40.6313114  19.7968366
  63.1619203  40.8023674  20.5216211  63.1815503  40.0181224  19.3966142
  62.8443777  40.5663999  19.8442128  72.3481404  49.9467209  30.1248383
  72.4064528  50.3953858  30.8708359  71.7147871  50.3566022  29.6878463
  72.2632699  50.0740944  30.1700931  65.9880499  55.5670751  26.5603129
  65.7900187  56.0561566  25.8659340  65.3668210  55.7711993  27.1387262
  65.8668063  55.6687289  26.5426352  60.0488477  47.3355648  20.9013373
  60.7930522  47.7229924  21.1396323  60.1949173  46.4913073  21.0653861
  60.1799062  47.2686121  20.9607343  61.9668052  39.1305907  25.9345235
  61.1204097  39.3028715  25.8086585  61.9639185  38.3255251  26.2711063
  61.8415202  39.0366936  25.9656362  63.0366353  42.9081121  26.8007293
  62.5626307  42.3822883  27.3112604  63.4084489  42.3610594  26.2322154
  63.0216242  42.7497118  26.7922440  64.9649852  43.8017676  19.8633046
  64.4372871  43.8846420  19.1738755  65.4245561  44.5435547  19.8597691
  64.9551703  43.9238338  19.7607742  71.3008270  44.7484954  26.1643332
  71.0618040  44.7080788  25.3264117  71.4642172  45.5956106  26.2909053
  71.2898574  44.8677039  26.0596814  67.9054301  49.1334903  32.0948377
  68.6288499  48.6807430  31.9159397  67.6404263  49.4139569  31.3120705
  67.9735574  49.1085872  31.9527093  56.9582918  42.0720195  14.8873942
  56.6095722  42.7239921  15.3505491  56.4779363  42.0577309  14.1597813
  56.8353162  42.1663249  14.8485033  64.5186935  52.3721239  18.9942704
  65.2421134  52.8379352  18.8507277  64.0787526  52.4394849  18.2440301
  64.5602627  52.4505076  18.8627485  63.6873090  49.2318782  30.2443393
  63.0730083  48.6876832  30.5392028  64.2040375  48.7183018  29.7649209
  63.6728752  49.0755191  30.2167621  62.9269387  50.3023052  27.9787691
  62.4996995  49.6772770  27.5453127  62.9194332  50.0197974  28.8046698
  62.8628528  50.1675832  28.0367519  63.9852217  37.5049460  31.6026915
  63.4892779  37.7013135  30.9118481  64.7421279  37.9042129  31.4315716
  64.0239042  37.5927194  31.4747051  61.2555097  41.1791806  28.1930225
  61.2797584  40.6451919  27.5043005  61.5066570  40.6709115  28.8555816
  61.2965016  41.0252710  28.1894870  57.5356419  39.9062624  27.5735969
  57.5754791  40.4071831  28.2870677  56.7106084  39.9973018  27.3041893
  57.4195945  39.9944441  27.6386508  57.3306826  44.6978726  20.3999986
  57.4709787  45.1951190  21.1028628  57.8289359  43.9965020  20.5414200
  57.4247907  44.6680705  20.5251565  57.3607049  45.5645837  17.7292563
  57.9952128  46.1606262  17.6642025  57.4432660  45.2649294  18.5438433
  57.4663600  45.6086745  17.8395650  70.3389614  48.0961314  30.5978927
  70.9307455  48.7358565  30.6297125  70.7748609  47.3984351  30.8870994
  70.4908046  48.0879665  30.6459760  58.9386032  41.4959812  17.7038005
  59.2601873  41.0162895  17.0497267  59.2012975  42.3059458  17.5128817
  59.0252057  41.5449710  17.5793497  62.1683004  52.5178687  31.2236821
  61.6608095  53.0714533  31.6677452  61.8709651  52.5786977  30.4055596
  62.0487889  52.6084998  31.1685278  53.8660037  47.7613678  20.9982109
  54.3752266  48.3578185  21.3793415  54.3394309  47.4939651  20.3158529
  54.0103412  47.8099493  20.9536632  64.7790785  56.4341944  19.1540765
  64.0620094  56.2602807  18.6888002  65.4297522  56.1994517  18.6216251
  64.7692635  56.3737737  19.0069983  62.7739409  37.3547106  23.4752061
  62.1307727  37.2044752  24.0437200  62.4338816  37.1089451  22.7101166
  62.6284487  37.2959229  23.4455076  67.3638756  45.3106533  22.8982070
  66.6929946  45.8536235  22.7695135  68.0578506  45.7801388  22.6563765
  67.3667623  45.4604804  22.8437597  61.4125490  57.4503245  28.1293828
  61.1891144  56.6922074  28.4977854  60.9235333  57.4801266  27.4074268
  61.3068939  57.3425469  28.0770569  67.5266883  41.7662416  25.8072443
  67.8794493  41.3392139  26.4818242  66.6681685  41.6813260  25.9373519
  67.4516328  41.6907157  25.9267453  56.2250568  44.3969936  23.8655289
  55.5062557  44.8134069  24.1328153  56.5962931  44.9624175  23.3146928
  56.1742500  44.5419218  23.8238096  60.0603947  57.6703703  25.5830913
  59.6464345  57.0077833  25.1934754  60.7451321  57.8181562  25.0626607
  60.1002318  57.5944361  25.4487410  63.4269241  56.8293788  26.3354529
  63.0285524  56.9396059  25.5675349  62.8120460  57.0375855  26.9181089
  63.2768130  56.8767356  26.3085829  61.9997143  43.4367936  19.2028669
  61.4061982  43.7584933  18.6513236  62.0372420  42.5909032  18.9949775
  61.9171532  43.3592264  19.0911440  68.9590943  36.8880828  26.7356755
  68.4521808  36.1809968  26.6677933  69.7558377  36.5574017  26.8657832
  69.0018183  36.7353980  26.7455750  64.8754959  43.3947441  22.6330419
  64.6468652  43.4180142  21.7908777  65.1353035  42.5704908  22.7525430
  64.8801147  43.2763521  22.5255617  57.9299722  41.9323987  23.9284615
  58.4057088  42.2941067  23.2934796  57.4288321  42.5880454  24.2084758
  57.9265081  42.0818176  23.8761356  71.1611083  51.4045755  19.7197620
  71.5444689  52.1537111  19.9495717  70.3655197  51.6511575  19.4609609
  71.1004866  51.5515449  19.7155193  59.9726375  44.0765187  17.2957999
  60.3525340  44.0944816  16.5109114  59.2318971  44.5219176  17.1748846
  59.9195213  44.1446961  17.1621567  67.6011665  42.3847378  22.8833577
  67.6005892  42.2296034  23.7417854  67.3967846  43.2310365  22.8274963
  67.5711443  42.4867999  23.0021517  65.3252518  47.0644880  26.5369784
  65.8206183  46.3467875  26.4973805  64.5152293  46.7615677  26.4224271
  65.2796411  46.9142526  26.5143510  60.7711129  50.9142693  18.6866789
  59.9622452  50.5909366  18.6400098  61.2786038  50.2075915  18.6195037
  60.7260796  50.7624009  18.6697083  67.3904336  49.8148567  29.2246913
  67.8159408  49.2922989  28.6717338  67.0261256  50.4129405  28.7035536
  67.3990939  49.8258794  29.0655923  57.0258416  58.1112785  27.9844259
  57.3404975  58.9249173  27.9922040  57.4351830  57.7263003  28.6526418
  57.1326514  58.1741487  28.0848350  63.9782936  53.5282831  25.5548071
  64.4494114  54.2423094  25.7238056  64.3143114  52.9281582  26.0907940
  64.0978051  53.5454296  25.6580446  66.0659920  55.1384145  37.7340143
  66.1756886  54.3492705  38.0896890  66.3950817  55.0490081  36.9314481
  66.1312326  55.0089998  37.6682533  64.6156882  53.3200766  32.3175763
  64.0677828  52.6958649  32.0495828  65.0769911  53.5095038  31.6019843
  64.6024092  53.2559816  32.1726194  63.9684786  35.2240628  29.1087259
  63.1630750  35.1138358  29.4255097  63.8391521  35.3253084  28.2517124
  63.8304919  35.2224298  29.0295299  67.4250746  41.3886120  29.7026955
  66.8413735  41.8895327  29.2904523  67.7455041  40.8815676  29.0691279
  67.3863922  41.3877955  29.5485463  59.9645546  40.3026715  19.9785630
  60.7861240  40.4725028  19.7367325  59.5015197  40.4573976  19.2551928
  60.0176708  40.3508448  19.8357275  64.1815208  54.3251838  28.8485104
  65.0013582  54.1814804  29.1101400  63.9009286  54.9498037  29.3901542
  64.2611952  54.3962190  28.9673044  73.8528544  61.0692341  26.5680911
  72.9966439  61.2300839  26.6190028  73.8996197  60.1984405  26.5885972
  73.7327655  60.9643143  26.5786977  68.2369683  70.6055059  22.3318143
  67.4852583  70.2270597  22.1034188  68.6855695  70.6373492  21.5836953
  68.1919350  70.5540666  22.1875645  77.1622260  67.3378867  36.1741367
  77.8689027  66.8430897  36.3028302  77.3510196  67.7787948  35.4444025
  77.2950166  67.3297217  36.0850413  76.6980365  63.1284385  29.2112563
  77.2436325  63.8069472  29.2706532  76.6397241  62.9871846  28.3514144
  76.7696279  63.2076387  29.0924623  69.8154440  70.6173451  24.5980915
  69.9164802  69.8073805  24.9078043  69.2196185  70.5230397  23.9680594
  69.7426978  70.4838479  24.5507154  63.0119484  66.6393738  24.2233249
  62.7769668  65.8061390  24.1165518  63.1505125  66.9198403  23.4094450
  62.9975146  66.5577241  24.0875604  65.3109571  58.8079468  27.1217557
  64.6914603  58.2172115  26.9527571  65.2093435  59.3990903  26.4881880
  65.2047247  58.8083551  27.0022546  72.4077467  60.5479010  21.4550020
  73.1057632  60.7267138  21.9471483  72.7229799  60.0249349  20.8320409
  72.5572804  60.4972782  21.4352030  65.0378704  62.3531750  29.3661126
  64.9137401  62.9394195  30.0010944  65.6896989  61.8591946  29.6673401
  65.1152354  62.3670554  29.5047055  72.5965402  66.9349455  21.4429811
  73.0359038  66.3266556  21.8884584  72.4470065  66.5556828  20.6715276
  72.6386868  66.7887926  21.3948979  70.0637045  65.5293467  28.6448637
  70.7086048  65.0365910  28.3259585  70.3038822  65.6718253  29.4714715
  70.1947630  65.4770909  28.7198170  72.6023137  68.3748373  28.2955529
  72.8846380  67.5799778  28.0742285  73.3309297  68.8528960  28.3160590
  72.7512700  68.3282970  28.2658544  70.5804331  55.9171407  25.5371294
  70.2507661  56.3682550  24.8674993  69.9049332  55.8387570  26.0844301
  70.4314767  55.9722542  25.5194518  77.7880738  51.9056930  23.7820905
  77.4734179  52.5960408  24.2141327  77.2707680  51.8501712  23.0806406
  77.6645209  51.9991818  23.7417854  64.5736809  71.5179408  25.4989455
  64.0904387  72.2429898  25.4749039  65.3860127  71.8155538  25.6099613
  64.6227556  71.6681762  25.5116734  70.6450963  70.3111589  28.1039270
  70.1277904  69.9519004  27.5000578  71.3425354  69.7873764  28.1145336
  70.6716544  70.1809277  28.0169528  71.8685014  70.0437563  33.0473105
  71.3055849  69.6310173  33.5712766  72.6306038  69.9690469  33.4666248
  71.8979463  69.9714964  33.1866105  68.7860285  53.9783695  21.0194242
  69.5406253  54.3462012  20.7811292  68.6087819  54.3523249  21.7873422
  68.8714763  54.0881883  21.0979131  67.4281006  72.0335584  25.6509735
  68.1301585  71.5187573  25.7082491  67.3478489  72.3609736  26.4556610
  67.5204766  72.0049811  25.7782527  68.4759912  62.2711171  34.7790150
  68.6480416  62.1617066  35.6275431  69.0129270  62.9165577  34.5421342
  68.5804916  62.3503173  34.8695247  67.1417349  56.3854014  17.7172355
  66.9592922  56.6025895  16.8913348  68.0042962  56.4993027  17.7730969
  67.2421939  56.4343912  17.6026842  66.7531781  68.2241936  25.1595343
  67.5920681  68.4564869  25.2069105  66.7843550  67.3546248  25.0902378
  66.8813499  68.1298883  25.1559988  67.3784484  68.6442811  29.4608648
  67.9182709  68.5013943  30.1312021  66.6954430  69.0439562  29.8292675
  67.3576638  68.6822482  29.6143070  72.8217068  53.3880425  20.7521379
  73.5503229  53.2096380  20.3059535  72.9111961  54.2298505  20.9628557
  72.9423730  53.4864303  20.7174897  76.8025369  64.3233812  24.6553673
  77.5582884  64.7565326  24.6942582  76.9087694  63.6738582  25.2288309
  76.9295540  64.2911296  24.7451698  62.7821629  64.8643102  29.6143070
  62.5160045  64.0482219  29.7734060  62.7960193  64.9096258  28.7438586
  62.7446352  64.7500007  29.5096552  66.6879376  59.6628187  16.2294828
  65.9737553  59.3766366  16.6417261  67.1723345  60.0024813  16.8701216
  66.6538740  59.6709836  16.3850463  67.5320236  58.4021481  32.2610078
  66.8392032  57.9318460  32.5070809  68.1480563  58.1759785  32.8351785
  67.5204766  58.2988612  32.3819230  63.1915043  65.6501882  26.8954814
  63.0090616  65.6248768  26.0427106  63.9264712  66.1200820  26.9343723
  63.2729107  65.7163244  26.7752733  66.2560795  62.3686885  33.4036923
  66.9800767  62.3539915  33.8901818  66.3576931  63.0782240  32.9058891
  66.3779004  62.4711588  33.4015710  73.6305744  65.8485969  38.2685870
  72.8378725  66.1629481  38.4538490  73.7454671  66.0637438  37.4306655
  73.5301155  65.9269806  38.1724205  76.3037063  62.5719960  22.5580886
  76.3983917  63.3109254  23.0120511  75.6795907  62.1437436  22.9915450
  76.2246093  62.6181281  22.6889033  74.5589537  65.7506173  33.2071167
  75.1328398  65.1133417  33.3619731  74.4804341  65.7510255  32.3380824
  74.6322772  65.6571284  33.1017578  63.1585953  62.5295382  27.0453881
  63.7359456  62.3931833  27.6846126  62.4600015  62.0731167  27.2999465
  63.1406975  62.4417649  27.1776171  69.9153255  64.1829438  25.2592364
  69.6572500  63.3501173  25.2323664  69.9701738  64.4087051  24.4184864
  69.8853033  64.0927209  25.1312501  74.9954306  56.2857889  25.3596457
  74.2910632  55.7967074  25.5180376  75.0439280  56.2980363  24.4884901
  74.8984357  56.2147537  25.2535797  68.8887968  61.7367200  25.7457259
  68.3137559  61.8959369  26.3821220  68.5123644  61.1002610  25.2825709
  68.7490780  61.6665013  25.7711817  72.5561256  60.2090550  30.6049637
  72.1675689  59.7844768  29.9501828  71.8915955  60.4572699  31.1126664
  72.4008184  60.1829271  30.5837505  58.6344786  61.3807275  23.7601699
  58.7205038  61.0039144  24.5415229  59.2620584  61.0067721  23.2821658
  58.7401337  61.2692757  23.8047177  76.3787618  53.9065179  28.1173621
  76.7598130  53.2243350  28.5041496  75.5750902  53.6174781  27.9349286
  76.3164080  53.7632227  28.1477677  69.5308103  67.9110672  23.9298756
  70.1682050  67.6722419  24.4750550  69.9563174  68.1147831  23.1951917
  69.6884269  67.9061682  23.9015914  64.2220745  70.1499008  27.8133060
  64.2624890  70.4213859  26.9852840  64.7815269  70.6740916  28.2290848
  64.3104091  70.2674763  27.7524948  70.1710918  63.1312962  18.2673646
  70.5556071  62.9120668  19.0190191  69.9222538  63.9575907  18.3974722
  70.1912990  63.2211108  18.3974722  70.3379458  56.4119377  37.9836230
  70.0232899  57.1818940  37.7205793  70.0169391  55.8489633  37.3988457
  70.2438377  56.4429645  37.8577580  71.9129575  68.3883094  25.6092543
  71.9868583  68.2258266  26.4634392  72.7299081  68.5773284  25.3653024
  72.0445933  68.3919837  25.6990568  65.6735331  68.7340957  22.6386986
  64.8473449  68.9802694  22.5121265  65.7347323  68.6553038  23.5049044
  65.5609498  68.7585906  22.7475930  67.8911355  54.8009898  23.5982426
  67.0233781  54.8732498  23.6640035  68.1786559  55.6031977  23.7870401
  67.8051103  54.9304045  23.6357193  77.0144244  54.9487758  31.9293748
  77.7597836  54.7597568  31.5157173  76.5981549  55.4745996  31.3707604
  77.0629218  54.9989903  31.7858321  71.0428906  66.1535583  31.4259146
  70.5440599  66.8651351  31.5044035  71.8529130  66.4736250  31.3877309
  71.0885012  66.3062432  31.4315715  68.3940076  73.3285220  23.4066166
  68.1740371  73.0382575  24.1992833  68.1734598  72.6700175  22.8784078
  68.3287670  73.1884928  23.4455074  67.3057023  65.4158536  25.6721867
  67.0170272  64.7896008  26.2067595  68.1740371  65.3578824  25.7386548
  67.3917275  65.3146081  25.7612822  78.0934921  60.5593320  25.9903849
  77.7499687  59.8383655  26.3411099  78.1927964  60.3507171  25.1482207
  78.0576964  60.4217523  25.9175529  67.5089297  67.0553787  21.5964232
  68.2635265  67.4366827  21.8099695  66.9159909  67.5064931  22.0510929
  67.5326010  67.1782615  21.6947111  69.9695964  59.0116628  36.7221445
  69.1595739  59.3174408  36.6111287  70.4470650  59.7322210  36.8374029
  69.9199442  59.1631229  36.7228516  68.8287523  68.2262349  26.9704348
  68.3068277  68.3662641  27.6556212  69.2161543  67.4673013  27.1606465
  68.8091224  68.1347873  27.1005424  65.8178707  58.2768158  21.0399302
  65.5303503  57.9069428  20.3031250  66.5049175  58.7463013  20.7783007
  65.8767605  58.2915127  20.8914378  70.2553849  65.2566368  22.3685839
  70.0596631  65.8641102  21.7746142  70.4788194  64.5634312  21.8877513
  70.2588490  65.2443893  22.2101920  68.6532379  62.1421106  22.4866707
  69.3755031  62.3062264  22.0270513  68.1740372  62.8630771  22.3806047
  68.6896109  62.2719335  22.4032321  76.6125886  58.4784905  27.8663392
  75.7736987  58.5046183  27.6301655  76.6830254  59.1255640  28.4468739
  76.4994280  58.5781030  27.9172509  66.3039996  64.5479178  31.5920847
  66.8161092  64.8263431  30.9429607  66.0176338  65.2868472  31.9583660
  66.3374859  64.6981532  31.5510725  75.0595165  55.3770282  22.5991008
  75.7621517  55.1778030  22.1210966  74.7939353  54.6046224  22.9059851
  75.1241797  55.2333248  22.5736450  63.3906902  59.0549370  21.8884584
  63.4923038  59.8575531  22.2165559  64.1862789  58.8536706  21.5907664
  63.5234807  59.1435269  21.8919939  69.8223721  56.6405567  31.6521889
  69.6306918  56.6560701  32.5021312  70.6722317  56.8369241  31.6288543
  69.9199443  56.6719918  31.7745183  64.2070634  59.1696548  29.6305705
  64.0656126  58.3180489  29.7550213  64.4911197  59.2125209  28.8067911
  64.2278480  59.0496298  29.5273329  74.3609226  61.0063638  23.7750193
  74.1143941  60.9259389  24.6086982  74.6894349  60.2217106  23.5812721
  74.3730470  60.8789904  23.8697716  76.5935360  64.0143373  33.8159356
  76.5883399  63.1423190  33.8201783  77.2996354  64.2131542  33.3428812
  76.6980364  63.9147247  33.7466392  70.3206254  63.7420357  33.1873176
  70.4649629  64.3221565  32.5516286  70.6681902  64.1196654  33.8923031
  70.3933715  63.8841061  33.1972171  72.4926171  62.9410525  30.9698308
  71.7449485  63.1341540  30.5646586  72.6467696  62.1155745  30.7322429
  72.4048599  62.8475637  30.8743714  69.3934009  71.9323129  30.0534203
  69.5423572  71.3726045  29.4007608  70.1734011  72.0115131  30.4366722
  69.5308102  71.8608694  30.0131152  72.7327948  56.8361076  31.8593712
  73.1900562  57.5685050  31.9866504  72.8084277  56.4127541  32.6180968
  72.8118918  56.8818314  31.9894788  64.9760939  57.0826896  32.9483155
  64.4403129  56.4707254  33.2643923  65.0378704  57.6575032  33.6016822
  64.9056572  57.0773824  33.0918582  77.2055274  50.0150951  25.7287555
  77.3238842  50.4727415  24.9954857  77.0317450  49.2096213  25.4423772
  77.1974445  49.9644723  25.5788488  70.6110326  58.8263180  28.7035536
  69.8206401  58.6454640  29.0252872  71.0070949  58.0490133  28.6865830
  70.5527202  58.6850641  28.7488084  75.9954012  66.4605610  26.4294982
  75.3199014  66.2290842  26.9308369  76.0046388  65.8526793  25.8037087
  75.8972517  66.3364535  26.4111134  73.1248156  61.3023439  33.1859035
  73.0607297  62.1633396  33.0579171  73.2645344  60.9855432  32.3854586
  73.1363626  61.3823606  33.0487248  71.8067250  63.9955579  27.3275238
  71.3829499  64.1960078  26.5914256  71.6312105  63.1484426  27.4399537
  71.7178131  63.9004360  27.2348928  67.0949695  64.4907630  22.7603210
  67.2514314  64.4254433  23.6159202  67.4350288  65.2656183  22.5481890
  67.1682930  64.5956828  22.8557804  73.6328840  63.8665514  21.6296573
  74.1744385  63.3635895  22.0935194  73.9475399  63.8130708  20.8186059
  73.7593237  63.7844934  21.5780385  74.7818109  58.7601818  31.6818874
  74.9960079  58.1212732  31.1282228  74.1652008  59.2047642  31.2526736
  74.7223438  58.7311962  31.5369305  63.6683957  61.6742580  23.0763977
  64.0482921  62.0927125  22.4124245  63.0939321  62.2556036  23.3832821
  63.6395281  61.8220439  23.0240718  76.9457197  60.3690883  32.6202181
  76.1333879  60.0616774  32.7015354  77.4047132  59.8889883  33.1844893
  76.8937582  60.2527376  32.7156775  74.1732838  51.8701754  26.6706217
  73.3026396  51.8440475  26.6239526  74.4273179  51.6978946  25.8532062
  74.0826398  51.8411897  26.5426353  74.0410705  61.7750955  37.4030883
  74.5110336  62.3993071  37.7898757  74.0872585  61.1067930  37.9624098
  74.1178580  61.7685635  37.5430955  71.1981978  53.8807982  28.1279687
  70.6820467  53.1888174  28.2531266  70.6375907  54.5478759  28.0742286
  71.0388491  53.8771240  28.1385753  73.2674212  54.4200942  29.9572540
  72.8805965  54.4449974  30.7386069  72.7807149  53.8542621  29.5047056
  73.1386721  54.3396693  30.0060443  72.9331353  51.3067928  32.2482799
  73.5624471  51.8428228  31.9703870  73.1017216  51.2145287  33.0996365
  73.0509148  51.3729290  32.3331328  72.7345268  56.0939122  34.5209211
  73.5618698  55.8224271  34.5767826  72.7553114  56.8899964  34.8773029
  72.8598118  56.1718877  34.5824394  67.3114758  63.2402985  27.7079472
  66.4702765  63.1406859  27.9158366  67.5204766  64.0098465  28.0593792
  67.2179451  63.3395029  27.7906787  64.7890325  60.8622522  25.5364222
  64.3947023  60.9365534  24.7614332  64.2330442  61.2480468  26.0872584
  64.6493137  60.9304297  25.5031882  76.4255272  53.8403816  25.2168101
  76.6304865  53.7726124  26.0625098  76.0981696  54.6462637  25.1489279
  76.4070520  53.9489757  25.3327756  71.1231423  61.1684384  26.9577069
  70.8194560  60.6140373  27.5587477  70.4210844  61.3476594  26.4705103
  70.9747633  61.1129167  26.9746775  70.1797520  58.4784904  21.5221771
  70.4557254  57.7603817  21.1099339  70.7796189  59.0769824  21.3142877
  70.3090785  58.4605275  21.4302532  69.1849774  68.3834105  31.6649167
  69.0770129  68.3936167  32.5311225  69.3945555  69.2088885  31.4754121
  69.1999885  68.5075180  31.7653259  73.6808041  56.1498422  19.7968366
  74.1351787  56.3208982  20.5216211  74.1548086  55.5366532  19.3966142
  73.8176361  56.0849307  19.8442128  67.2023566  65.6346747  29.1271105
  66.6111499  66.2756246  29.0974120  67.9644589  66.0584365  29.1002404
  67.2271827  65.7922586  29.1186252  67.5984189  56.7948745  29.7939122
  68.0585670  56.8687675  30.5314246  67.6440295  57.5929999  29.4438944
  67.6734744  56.9242892  29.8511879  69.2467538  57.4615440  34.3611149
  68.8553104  56.8148787  34.7966927  69.4153401  58.0526875  34.9805405
  69.2138449  57.4529708  34.5173855  71.0221061  62.8540956  20.9013373
  71.7663105  63.2415232  21.1396323  71.1681757  62.0098381  21.0653861
  71.1531646  62.7871429  20.9607343  72.9400636  54.6491215  25.9345235
  72.0936681  54.8214023  25.8086585  72.9371768  53.8440559  26.2711063
  72.8147786  54.5552244  25.9656362  74.0098936  58.4266429  26.8007293
  73.5358891  57.9008191  27.3112604  74.3817072  57.8795902  26.2322154
  73.9948825  58.2682426  26.7922440  64.3871967  60.4237936  32.1690838
  65.2497580  60.3233645  32.0828168  64.0563750  59.8432645  31.6076411
  64.4657163  60.3229563  32.0736244  75.9382436  59.3202984  19.8633046
  75.4105455  59.4031728  19.1738755  76.3978144  60.0620855  19.8597691
  75.9284286  59.4423646  19.7607742  67.7473752  59.2480385  28.8301257
  67.1226823  59.2598777  28.2227209  67.4119347  59.7240560  29.4792497
  67.6059244  59.3198902  28.8357825  67.9315501  57.5905503  14.8873942
  67.5828306  58.2425229  15.3505491  67.4511947  57.5762616  14.1597813
  67.8085745  57.6848557  14.8485033  64.4599428  67.3080845  30.2705021
  63.9299353  66.6173284  30.3199996  64.7324521  67.2991030  29.4417729
  64.4224150  67.2047977  30.1552437  74.6605674  64.7504090  30.2443393
  74.0462667  64.2062140  30.5392028  75.1772959  64.2368326  29.7649209
  74.6461336  64.5940499  30.2167621  73.9001971  65.8208360  27.9787691
  73.4729579  65.1958078  27.5453127  73.8926915  65.5383282  28.8046698
  73.8361112  65.6861140  28.0367519  67.0164498  60.8573533  31.0476125
  67.1757985  60.1016857  31.4527847  66.8357391  61.4064472  31.7016863
  67.0129857  60.8267346  31.2038831  74.9584801  53.0234768  31.6026915
  74.4625362  53.2198442  30.9118481  75.7153863  53.4227437  31.4315716
  74.9971626  53.1112502  31.4747051  72.2287680  56.6977114  28.1930225
  72.2530168  56.1637226  27.5043005  72.4799154  56.1894423  28.8555816
  72.2697599  56.5438018  28.1894870  59.7395270  63.9808609  27.6273369
  59.6338719  63.9355453  26.7625453  58.9895490  64.3262390  27.9087654
  59.6130873  64.0249517  27.5410699  68.5089003  55.4247932  27.5735969
  68.5487374  55.9257139  28.2870677  67.6838667  55.5158326  27.3041893
  68.3928529  55.5129749  27.6386508  70.6918616  64.9908672  35.6756264
  69.8414246  65.1280387  35.8113909  70.8546743  64.2572451  36.1203966
  70.5902479  64.9022774  35.7611863  69.9303366  61.9408442  29.8709868
  69.0995296  62.1082260  29.6645117  69.8754883  61.5644393  30.6558754
  69.7992781  61.9098174  29.9558397  67.7387149  55.4317335  35.5066279
  68.3639853  54.8879468  35.7795711  67.2837629  54.9512253  34.9374070
  67.7635410  55.2806816  35.4627873  68.3039410  60.2164034  20.3999986
  68.4442371  60.7136498  21.1028628  68.8021943  59.5150328  20.5414200
  68.3980491  60.1866013  20.5251565  68.3339632  61.0831145  17.7292563
  68.9684712  61.6791570  17.6642025  68.4165243  60.7834602  18.5438433
  68.4396183  61.1272053  17.8395650  69.9118615  57.0145120  17.7038005
  70.2334456  56.5348203  17.0497267  70.1745559  57.8244766  17.5128817
  69.9984641  57.0635018  17.5793497  73.1415588  68.0363995  31.2236821
  72.6340679  68.5899841  31.6677452  72.8442234  68.0972284  30.4055596
  73.0220473  68.1270306  31.1685278  75.3077770  56.4017314  30.0661484
  75.7332842  55.9489841  29.4545011  74.6934763  55.8477385  30.3426272
  75.2806416  56.2531290  30.0166509  64.8392620  63.2798986  20.9982109
  65.3484850  63.8763493  21.3793415  65.3126892  63.0124959  20.3158529
  64.9835996  63.3284801  20.9536632  73.7471993  52.8732414  23.4752061
  73.1040311  52.7230060  24.0437200  73.4071400  52.6274759  22.7101166
  73.6017070  52.8144536  23.4455076  78.4999467  57.2847724  25.8072443
  78.8527077  56.8577447  26.4818242  77.6414268  57.1998568  25.9373519
  78.4248912  57.2092465  25.9267453  67.1983152  59.9155244  23.8655289
  66.4795141  60.3319377  24.1328153  67.5695514  60.4809483  23.3146928
  67.1475084  60.0604526  23.8238096  76.4982733  60.5483093  29.7557285
  76.4780660  60.3666388  30.6092064  76.5461933  61.4195112  29.7316869
  76.5017374  60.6499631  29.8780580  74.4429063  67.1370285  35.6805762
  74.4024917  66.4919962  35.0950918  75.2552381  67.0806902  35.9931174
  74.5572216  67.0329252  35.6402711  72.9729726  58.9553244  19.2028669
  72.3794566  59.2770241  18.6513236  73.0105004  58.1094339  18.9949775
  72.8904115  58.8777572  19.0911440  75.8487543  58.9132749  22.6330419
  75.6201236  58.9365450  21.7908777  76.1085619  58.0890216  22.7525430
  75.8533731  58.7948828  22.5255617  70.1306771  60.7667222  32.2355519
  69.6185674  60.1588405  32.5940551  69.9586267  61.4823814  32.7029495
  70.0296408  60.7830521  32.3571743  64.9772486  59.2104797  34.8857881
  64.8075076  59.8706172  34.3406088  64.5338436  59.4211358  35.6070370
  64.8871820  59.3390779  34.9119511  68.9032305  57.4509295  23.9284615
  69.3789672  57.8126375  23.2934796  68.4020905  58.1065762  24.2084758
  68.8997664  57.6003484  23.8761356  74.0075842  58.6891466  34.6757775
  74.5647272  58.4605276  34.0436240  73.6836907  59.4497132  34.3992987
  74.0422252  58.7675303  34.5414272  61.8774550  62.1151662  30.1446371
  61.3301270  61.4452308  30.2627239  62.6666929  61.7481510  30.2089838
  61.9126734  61.9616649  30.1715072  71.7258959  61.7759120  35.6409782
  72.4770286  62.0910796  35.9549336  71.9181535  61.5738290  34.8143704
  71.8650373  61.7926501  35.5653178  70.9458958  59.5950495  17.2957999
  71.3257923  59.6130124  16.5109114  70.2051555  60.0404483  17.1748846
  70.8927796  59.6632269  17.1621567  78.5744249  57.9032686  22.8833577
  78.5738475  57.7481342  23.7417854  78.3700429  58.7495673  22.8274963
  78.5444027  58.0053307  23.0021517  60.6361520  61.3272470  27.2992394
  60.4583281  60.8749079  28.0247310  60.3480542  62.1298632  27.4830872
  60.5674473  61.3795028  27.4335897  76.2985101  62.5830188  26.5369784
  76.7938766  61.8653183  26.4973805  75.4884877  62.2800985  26.4224271
  76.2528994  62.4327834  26.5143510  62.3733990  63.8600194  24.4114153
  61.5079509  63.8485884  24.2996924  62.4732806  63.6730417  25.2585292
  62.2608157  63.8306255  24.5203098  78.3636920  65.3333875  29.2246913
  78.7891991  64.8108297  28.6717338  77.9993840  65.9314713  28.7035536
  78.3723523  65.3444102  29.0655923  67.9991000  73.6298093  27.9844259
  68.3137559  74.4434481  27.9922040  68.4084413  73.2448311  28.6526418
  68.1059098  73.6926795  28.0848350  74.9515519  69.0468139  25.5548071
  75.4226698  69.7608402  25.7238056  75.2875698  68.4466890  26.0907940
  75.0710634  69.0639604  25.6580446  71.8685014  53.8195610  32.5106165
  72.0012920  53.0226603  32.8387141  72.2530167  54.3462013  33.0904441
  71.9441343  53.7795527  32.6449668  75.5889466  68.8386074  32.3175763
  75.0410412  68.2143957  32.0495828  76.0502494  69.0280346  31.6019843
  75.5756675  68.7745124  32.1726194  74.9417370  50.7425936  29.1087259
  74.1363333  50.6323666  29.4255097  74.8124105  50.8438392  28.2517124
  74.8037502  50.7409606  29.0295299  78.3983330  56.9071428  29.7026955
  77.8146319  57.4080634  29.2904523  78.7187624  56.4000984  29.0691279
  78.3596505  56.9063263  29.5485463  70.9378129  55.8212023  19.9785630
  71.7593824  55.9910336  19.7367325  70.4747780  55.9759284  19.2551928
  70.9909291  55.8693756  19.8357275  69.5273461  53.8154785  30.7584059
  70.0717874  53.4745912  31.3488401  69.5810397  54.6740247  30.9005344
  69.6162581  53.8910044  30.8665932  65.3404020  67.5771201  27.6322867
  65.9448877  67.5367035  27.0036688  65.1331332  68.4242353  27.6626923
  65.3992917  67.6959204  27.5438984  60.5755302  66.5605819  27.5021790
  60.4779580  65.7502090  27.8111847  61.3584172  66.5397612  27.1168058
  60.6771439  66.4372909  27.4908653  36.4308252   5.9173248  12.9335818
  37.0745708   6.3586412  13.3231976  36.7564508   5.1126674  12.8466077
  36.5740081   5.8638442  12.9781295  41.0767628   1.1428611  20.9995489
  41.1650974   0.9554751  21.8473700  41.5057340   0.4966040  20.6000336
  41.1529730   1.0191618  21.0667241  38.6438088   0.4259771  19.9813152
  38.0808922   0.0132380  20.5052813  39.4059111   0.3512676  20.4006295
  38.6732536   0.3537171  20.1206152  41.1887687   0.5737630  23.6639273
  41.9728104   0.6868477  24.0295015  40.9884282  -0.2521233  23.8597959
  41.2753712   0.4684349  23.7473659  41.3458080   2.4847732  17.3105729
  40.5473326   2.2447232  17.5679597  41.7944092   2.5362125  18.0572776
  41.2932692   2.4570123  17.4590653  36.1687082   2.3145336  16.9874250
  36.3176646   1.7548252  16.3347655  36.9487084   2.3937338  17.3706769
  36.3061175   2.2430902  16.9471199  38.6940382   2.4859979  18.2658741
  38.6184054   1.8168790  18.8209529  38.6230242   3.1877767  18.7799407
  38.6720989   2.4904886  18.4235589  38.0832017   5.8928299  16.7236742
  38.5727947   5.1939088  16.5412406  37.5116249   5.5952169  17.3112799
  38.0716547   5.7454523  16.7837783  35.9602847  -1.2343688  18.5989214
  35.8523202  -1.2241625  19.4651272  36.1698629  -0.4088907  18.4094168
  35.9752958  -1.1102613  18.6993305  43.7366155   1.4678266  13.4943176
  43.5385844   1.9569081  12.7999387  43.1153866   1.6719508  14.0727309
  43.6153720   1.5694805  13.4766399  39.9168661  -1.5813798  18.1576868
  39.4093752  -1.0277951  18.6017498  39.6195307  -1.5205508  17.3395642
  39.7973546  -1.4907487  18.1025325  39.1611146   3.3510760  15.0633875
  38.9376801   2.5929589  15.4317901  38.6720990   3.3808781  14.3414314
  39.0554595   3.2432985  15.0110616  34.7744073   4.0120300  14.9184305
  35.0890632   4.8256688  14.9262087  35.1837486   3.6270519  15.5866465
  34.8812171   4.0749002  15.0188397  43.8145577   1.0391660  24.6680189
  43.9242543   0.2500221  25.0236937  44.1436474   0.9497596  23.8654528
  43.8797983   0.9097513  24.6022580  41.9300865   0.2259354  15.7825151
  42.7499239   0.0822320  16.0441446  41.6494943   0.8505552  16.3241589
  42.0097609   0.2969706  15.9013091  51.6014200   6.9699856  13.5020958
  50.7452096   7.1308355  13.5530075  51.6481854   6.0991920  13.5226019
  51.4813312   6.8650658  13.5127024  45.9855340  16.5062574   9.2658190
  45.2338240  16.1278113   9.0374235  46.4341352  16.5381008   8.5177000
  45.9405007  16.4548181   9.1215692  54.9107917  13.2386382  23.1081414
  55.6174684  12.7438413  23.2368349  55.0995852  13.6795463  22.3784072
  55.0435823  13.2304732  23.0190460  51.4380300  16.9287944   4.6943737
  51.1031669  17.6064865   4.2587959  51.9507170  16.5393255   4.1060608
  51.4645881  16.9712522   4.5430528  50.9784591  18.8802212  10.6354848
  51.3623971  19.4489111  10.0959623  50.9143733  18.1551723  10.1560664
  51.0258019  18.8577676  10.4848711  54.4466021   9.0291900  16.1452610
  54.9921982   9.7076987  16.2046579  54.3882898   8.8879361  15.2854191
  54.5181936   9.1083902  16.0264670  47.5640096  16.5180966  11.5320962
  47.6650459  15.7081320  11.8418090  46.9681842  16.4237913  10.9020641
  47.4912635  16.3845994  11.4847200  56.2231090  10.4576507   7.0186337
  56.1070616  11.2084193   7.4478476  57.0186977  10.2000461   7.2682424
  56.3235680  10.5311354   7.1190429  47.4040836  21.4358556  12.9335818
  48.0478291  21.8771720  13.3231976  47.7297091  20.6311982  12.8466077
  47.5472665  21.3823750  12.9781295  40.7605141  12.5401253  11.1573296
  40.5255325  11.7068905  11.0505565  40.8990781  12.8205919  10.3434497
  40.7460803  12.4584756  11.0215651  43.0595228   4.7086984  14.0557603
  42.4400260   4.1179631  13.8867618  42.9579092   5.2998419  13.4221927
  42.9532904   4.7091066  13.9362593  48.1061416  14.4470530   8.3055680
  48.4277257  14.9875738   7.7016988  48.7533512  13.8767302   8.4377970
  48.2487471  14.4429706   8.2362715  50.1563124   6.4486525   8.3890067
  50.8543288   6.6274653   8.8811530  50.4715456   5.9256865   7.7660456
  50.3058461   6.3980297   8.3692077  42.7864361   8.2539265  16.3001172
  42.6623058   8.8401711  16.9350991  43.4382646   7.7599461  16.6013447
  42.8638010   8.2678070  16.4387102  50.3451059  12.8356970   8.3769858
  50.7844695  12.2274071   8.8224631  50.1955722  12.4564344   7.6055323
  50.3872525  12.6895441   8.3289025  47.8122702  11.4300982  15.5788683
  48.4571705  10.9373425  15.2599632  48.0524479  11.5725769  16.4054762
  47.9433287  11.3778424  15.6538217  50.3508793  14.2755888  15.2295576
  50.6332036  13.4807294  15.0082332  51.0794954  14.7536475  15.2500637
  50.4998357  14.2290485  15.1998591  48.3289987   1.8178922  12.4711341
  47.9993317   2.2690066  11.8015040  47.6534989   1.7395085  13.0184348
  48.1800424   1.8730057  12.4534564  53.9460396  11.1884152   5.3300627
  53.8611691  12.0445118   5.4750196  54.4344779  10.9128476   5.9982786
  54.0049293  11.2741473   5.4502709  54.8778829   7.8068946   6.8298362
  54.3490300   8.0228579   7.4895669  55.4003849   8.5005084   6.7499332
  54.8767282   7.9412083   6.9153962  60.3326882  13.3815250  12.2031407
  59.5024585  13.5925894  12.3664823  60.2836134  12.5552305  11.9273690
  60.2033617  13.2904857  12.1868772  42.3222465  17.4186924  12.4329502
  41.8390044  18.1437413  12.4089085  43.1345784  17.7163054  12.5439660
  42.3713213  17.5689277  12.4456781  48.3936619  16.2119104  15.0379316
  47.8763561  15.8526519  14.4340624  49.0911011  15.6881279  15.0485382
  48.4202200  16.0816792  14.9509575  52.0500211  16.6613918  20.9995489
  52.1383557  16.4740059  21.8473700  52.4789924  16.0151348  20.6000336
  52.1262314  16.5376926  21.0667241  49.6170671  15.9445078  19.9813152
  49.0541506  15.5317688  20.5052813  50.3791695  15.8697984  20.4006295
  49.6465120  15.8722479  20.1206152  45.1766663  17.9343100  12.5849782
  45.8787242  17.4195089  12.6422538  45.0964146  18.2617251  13.3896657
  45.2690423  17.9057326  12.7122574  59.8280840   6.0285651  15.9981828
  58.9909261   6.0987838  16.2329423  59.7969071   6.0310146  15.1256131
  59.6999122   6.0395878  15.9041376  46.2245569   8.1718687  21.7130197
  46.3966073   8.0624581  22.5615478  46.7614927   8.8173092  21.4761389
  46.3290573   8.2510688  21.8035294  44.5017438  14.1249452  12.0935390
  45.3406337  14.3572384  12.1409151  44.5329207  13.2553763  12.0242425
  44.6299156  14.0306398  12.0900034  45.1270141  14.5450327  16.3948695
  45.6668366  14.4021458  17.0652068  44.4440087  14.9447078  16.7632722
  45.1062295  14.5829998  16.5483117  54.5511026  10.2241327  11.5893720
  55.3068541  10.6572842  11.6282628  54.6573350   9.5746097  12.1628356
  54.6781196  10.1918811  11.6791745  57.5891197  14.0514605  12.3396123
  57.1526429  14.0551347  13.0955094  57.2554112  14.7320104  11.9075700
  57.4753817  14.1527060  12.3876955  52.1620271  16.0922938  23.6639273
  52.9460687  16.2053785  24.0295015  51.9616865  15.2664075  23.8597959
  52.2486296  15.9869657  23.7473659  40.5307286  10.7650618  16.5483117
  40.2645701   9.9489734  16.7074107  40.5445850  10.8103773  15.6778632
  40.4932008  10.6507522  16.4436599  45.2805892   4.3028996  19.1950125
  44.5877689   3.8325976  19.4410856  45.8966220   4.0767300  19.7691832
  45.2690422   4.1996128  19.3159277  52.3190664  18.0033040  17.3105729
  51.5205910  17.7632540  17.5679597  52.7676675  18.0547432  18.0572776
  52.2665275  17.9755431  17.4590653  60.7235543  10.7695525  11.2315760
  61.3851977  10.2086193  11.1311668  60.0826955  10.2747555  11.5568451
  60.7264411  10.6131934  11.2648100  51.6112351  14.0665656   3.5396683
  52.0263499  13.7350680   2.8481179  50.7804281  13.8334558   3.4116820
  51.5500360  13.9836912   3.4187531  40.9400700  11.5509397  13.8294861
  40.7576273  11.5256283  12.9767153  41.6750369  12.0208335  13.8683770
  41.0214764  11.6170759  13.7092780  57.0100374  11.7860907  10.9727749
  57.2455963  11.9306106  10.1454599  57.1589938  12.5503315  11.3659262
  57.0666177  11.9199961  10.9091353  44.0046451   8.2694400  20.3376970
  44.7286424   8.2547431  20.8241864  44.1062588   8.9789755  19.8398938
  44.1264660   8.3719103  20.3355757  58.8390831  10.6262573   8.8097352
  59.1699048  11.1590213   8.2037447  59.4123919  10.6801461   9.4659303
  58.9724510  10.7132142   8.8175134  51.3791401  11.7493484  25.2025917
  50.5864382  12.0636996  25.3878536  51.4940328  11.9644953  24.3646701
  51.2786811  11.8277321  25.1064251  54.0522720   8.4727476   9.4920933
  54.1469574   9.2116770   9.9460558  53.4281563   8.0444951   9.9255497
  53.9731750   8.5188796   9.6229080  52.3075194  11.6513688  20.1411213
  52.8814055  11.0140932  20.2959777  52.2289997  11.6517771  19.2720871
  52.3808428  11.5578800  20.0357624  40.9071610   8.4302898  13.9793928
  41.4845113   8.2939348  14.6186173  40.2085672   7.9738682  14.2339512
  40.8892631   8.3425164  14.1116217  47.6638912  10.0836953  12.1932411
  47.4058157   9.2508688  12.1663710  47.7187395  10.3094566  11.3524911
  47.6338690   9.9934725  12.0652548  46.6373624   7.6374716  12.6797306
  46.0623216   7.7966884  13.3161267  46.2609301   7.0010125  12.2165756
  46.4976437   7.5672529  12.7051864  50.3046913   6.1098065  17.5389684
  49.9161346   5.6852283  16.8841875  49.6401611   6.3580215  18.0466711
  50.1493841   6.0836786  17.5177552  51.4085851  10.3396670   5.7366491
  52.2226490  10.6311562   5.6249262  51.3444993   9.6856532   5.1624784
  51.5188590  10.2861864   5.6355328  57.6295341  13.0222666  20.1496067
  57.3933979  12.1910731  20.0308127  58.2738570  12.9708273  20.7350911
  57.6890012  12.8920354  20.2181960  47.2793760  13.8118187  10.8638803
  47.9167706  13.5729935  11.4090596  47.7048831  14.0155346  10.1291964
  47.4369926  13.8069197  10.8355960  41.9706402  16.0506524  14.7473107
  42.0110547  16.3221375  13.9192886  42.5300926  16.5748432  15.1630895
  42.0589748  16.1682279  14.6864995  48.0865115   2.3126892  24.9176277
  47.7718556   3.0826455  24.6545839  47.7655048   1.7497148  24.3328504
  47.9924034   2.3437161  24.7917627  58.6531762  12.8067115  16.2124361
  58.3477579  13.5395171  16.5737677  57.9337978  12.4005044  15.9317147
  58.5019104  12.8548848  16.2237498  49.6615232  14.2890610  12.5432589
  49.7354240  14.1265782  13.3974439  50.4784738  14.4780799  12.2993071
  49.7931590  14.2927352  12.6330615  64.3533554   9.4460115  15.5392705
  64.2858054   9.4656074  14.6695292  64.3389217  10.2890442  15.7648376
  64.3412311   9.5733850  15.4445182  43.4220988  14.6348473   9.5727033
  42.5959106  14.8810210   9.4461312  43.4832979  14.5560553  10.4389091
  43.3095155  14.6593422   9.6815977  48.2019817  17.2525353   7.2746063
  48.4918116  16.8614334   6.5505289  48.9323298  17.4342058   7.7151338
  48.3526701  17.2219167   7.2328870  62.1392172   8.2204501  13.8139300
  62.6900093   7.5872571  14.0536392  62.1236287   8.7519894  14.5054804
  62.2177368   8.2053450  13.9518158  48.7914562  12.0543099  18.3599193
  48.2926256  12.7658866  18.4384082  49.6014787  12.3743765  18.3217356
  48.8370669  12.2069947  18.3655762  46.1425733  19.2292735  10.3406212
  45.9226028  18.9390090  11.1332879  45.9220255  18.5707690   9.8124125
  46.0773327  19.0892444  10.3795121  45.0542680  11.3166052  12.6061914
  44.7655929  10.6903523  13.1407641  45.9226028  11.2586339  12.6726595
  45.1402932  11.2153596  12.6952869  55.8420578   6.4600835  12.9243896
  55.4985344   5.7391170  13.2751146  55.9413620   6.2514686  12.0822254
  55.8062621   6.3225038  12.8515576  48.3093689  20.6022125   9.1236905
  48.9617747  20.0698567   9.3527931  47.6119297  20.2490777   9.5104779
  48.3024406  20.4711648   9.2149073  45.2574953  12.9561303   8.5304279
  46.0120921  13.3374342   8.7439742  44.6645566  13.4072446   8.9850976
  45.2811667  13.0790130   8.6287158  56.3033607  12.9226539   8.4667884
  56.8691640  13.5819749   8.3826427  55.6561510  13.2676237   8.9384286
  56.2912363  13.0708481   8.5240641  47.7181620   4.9124143  23.6561492
  46.9081396   5.2181923  23.5451334  48.1956307   5.6329725  23.7714076
  47.6685099   5.0638744  23.6568563  46.5773180  14.1269864  13.9044395
  46.0553933  14.2670156  14.5896259  46.9647200  13.3680528  14.0946512
  46.5576881  14.0355388  14.0345471  52.7740185  15.8665323   7.8904963
  52.5326861  15.1333184   7.4832028  52.9541518  16.4152180   7.2371297
  52.7647809  15.8387715   7.7335186  48.0039506  11.1573883   9.3025886
  47.8082288  11.7648618   8.7086189  48.2273851  10.4641827   8.8217560
  48.0074147  11.1451409   9.1441966  46.4018036   8.0428621   9.4206754
  47.1240688   8.2069779   8.9610560  45.9226028   8.7638286   9.3146094
  46.4381766   8.1726851   9.3372368  54.3611543   4.3792420  14.8003439
  53.5222644   4.4053699  14.5641702  54.4315910   5.0263155  15.3808786
  54.2479937   4.4788546  14.8512556  44.0525652  10.4486693  18.5260894
  44.5646749  10.7270947  17.8769654  43.7661995  11.1875988  18.8923707
  44.0860515  10.5989047  18.4850772  58.2369067   9.5860407  12.0864681
  58.1503042   9.7415833  12.9399460  57.7819547  10.2298482  11.7124086
  58.1572324   9.7036162  12.1571787  47.5709378   2.5413082  18.5861935
  47.3792575   2.5568217  19.4361359  48.4207974   2.7376756  18.5628590
  47.6685100   2.5727433  18.7085230  41.9556291   5.0704064  16.5645752
  41.8141783   4.2188004  16.6890260  42.2396854   5.1132724  15.7407958
  41.9764137   4.9503814  16.4613376  52.1094883   6.9071154  10.7090240
  51.8629597   6.8266905  11.5427029  52.4380006   6.1224622  10.5152768
  52.1216127   6.7797419  10.8037763  56.0042932  13.6154513  14.4977021
  55.8657291  14.3135559  15.0025764  55.2242930  13.4603170  14.1413203
  55.8686159  13.6954680  14.5203296  54.3421017   9.9150888  20.7499403
  54.3369056   9.0430705  20.7541830  55.0482011  10.1139058  20.2768859
  54.4466021   9.8154763  20.6806438  48.0691910   9.6427872  20.1213223
  48.2135286  10.2229081  19.4856333  48.4167559  10.0204169  20.8263078
  48.1419372   9.7848576  20.1312218  50.2411828   8.8418041  17.9038355
  49.4935142   9.0349055  17.4986633  50.3953353   8.0163260  17.6662476
  50.1534255   8.7483152  17.8083761  47.1419665  17.8330644  16.9874250
  47.2909229  17.2733560  16.3347655  47.9219667  17.9122646  17.3706769
  47.2793759  17.7616210  16.9471199  49.6672966  18.0045287  18.2658741
  49.5916637  17.3354098  18.8209529  49.5962825  18.7063075  18.7799407
  49.6453573  18.0090194  18.4235589  50.4813605   2.7368591  18.7933759
  50.9386219   3.4692566  18.9206551  50.5569934   2.3135057  19.5521014
  50.5604575   2.7825830  18.9234835  42.7246596   2.9834411  19.8823202
  42.1888785   2.3714769  20.1983970  42.7864361   3.5582547  20.5356869
  42.6542229   2.9781339  20.0258629  50.3243213  16.5246286   9.0982347
  51.0893104  16.2555930   8.7765011  50.2221303  16.0396296   9.8152410
  50.4224708  16.4135851   9.1562174  48.3595983   4.7270695  15.6375583
  47.5692057   4.5462155  15.9592918  48.7556605   3.9497648  15.6205877
  48.3012859   4.5858156  15.6828131  53.7439669  12.3613126  13.3635029
  53.0684671  12.1298358  13.8648416  53.7532045  11.7534308  12.7377134
  53.6458174  12.2372051  13.3451181  50.8733813   7.2030954  20.1199082
  50.8092954   8.0640911  19.9919218  51.0131001   6.8862948  19.3194633
  50.8849283   7.2831121  19.9827294  55.7456404  15.2178258   5.5945206
  55.8276241  16.0245244   5.2706657  56.2306146  15.2374217   6.3185980
  55.8293561  15.3398920   5.6532105  49.5552907   9.8963094  14.2615284
  49.1315156  10.0967593  13.5254303  49.3797762   9.0491942  14.3739584
  49.4663787   9.8011875  14.1688975  49.0564600  21.4113607  16.7236742
  49.5460531  20.7124396  16.5412406  48.4848833  21.1137477  17.3112799
  49.0449130  21.2639830  16.7837783  44.8435352  10.3915145   9.6943257
  44.9999971  10.3261948  10.5499249  45.1835945  11.1663698   9.4821937
  44.9168587  10.4964343   9.7897851  51.3814496   9.7673029   8.5636620
  51.9230042   9.2643410   9.0275241  51.6961055   9.7138224   7.7526105
  51.5078893   9.6852450   8.5120432  55.2531604  13.9775676  25.6763532
  56.0666469  13.7060825  25.8368665  55.0926570  13.6783216  24.8723728
  55.3501552  13.8930602  25.5808938  49.5500946  15.1590380   5.8476648
  49.6193766  14.3004919   5.9869649  50.3289401  15.3762261   5.5195673
  49.6753796  15.0643244   5.8193805  52.5303766   4.6609333  18.6158921
  52.7445735   4.0220248  18.0622275  51.9137665   5.1055157  18.1866782
  52.4709095   4.6319477  18.4709352  53.9408434  17.5828082  10.0613142
  53.5488225  17.2794797   9.3436008  54.0961506  18.4197172   9.8718095
  53.9062024  17.6611918   9.9269639  41.4169613   7.5750096  10.0104024
  41.7968578   7.9934641   9.3464291  40.8424978   8.1563551  10.3172867
  41.3880938   7.7227955   9.9580765  54.6942854   6.2698399  19.5542228
  53.8819536   5.9624289  19.6355400  55.1532788   5.7897399  20.1184940
  54.6423239   6.1534891  19.6496822  54.1048108  14.1478071  10.0019172
  53.7462763  14.3192713  10.7783204  53.6186819  14.6091276   9.4447171
  53.9806805  14.2417042  10.0344441  51.7896361   7.6758470  24.3370930
  52.2595992   8.3000586  24.7238804  51.8358241   7.0075446  24.8964145
  51.8664237   7.6693150  24.4771001  55.2652848  15.0381966  20.9486373
  55.9032568  14.5442162  20.6148829  54.6226939  14.9659367  20.3638600
  55.2647074  14.9540975  20.8128728  56.9909848   6.8871112  15.5152289
  56.5637456   6.7997461  14.7600388  56.3535901   6.9948888  16.1007133
  56.8339455   6.8903772  15.4897730  55.3207104  15.7301775  17.5891730
  56.1099483  15.3790839  17.7093811  55.4950702  16.5438163  17.3268364
  55.4627386  15.7987632  17.5679598  45.0600415   9.1410500  14.6419519
  44.2188421   9.0414375  14.8498412  45.2690423   9.9105981  14.9933839
  44.9665107   9.2402544  14.7246833  42.5375982   6.7630037  12.4704269
  42.1432680   6.8373049  11.6954379  41.9816099   7.1487984  13.0212631
  42.3978794   6.8311812  12.4371929  48.8717080   7.0691900  13.8917116
  48.5680217   6.5147888  14.4927524  48.1696500   7.2484110  13.4045150
  48.7233290   7.0136682  13.9086822  46.9335431  14.2841620  18.5989214
  46.8255786  14.2943683  19.4651272  47.1431212  15.1096401  18.4094168
  46.9485542  14.4082695  18.6993305  44.9509223  11.5354263  16.0611151
  44.3597156  12.1763761  16.0314167  45.7130246  11.9591880  16.0342451
  44.9757483  11.6930101  16.0526299  45.3469845   2.6956261  16.7279169
  45.8071327   2.7695190  17.4654293  45.3925952   3.4937515  16.3778990
  45.4220401   2.8250408  16.7851926  46.9953195   3.3622955  21.2951196
  46.6038760   2.7156303  21.7306974  47.1639058   3.9534391  21.9145452
  46.9624106   3.3537223  21.4513902  61.0699644  11.3660032  17.0588430
  61.1282768  11.8146681  17.8048406  60.4366112  11.7758845  16.6218510
  60.9850939  11.4933767  17.1040978  54.7098739  16.9863574  13.4943176
  54.5118428  17.4754389  12.7999387  54.0886450  17.1904816  14.0727309
  54.5886303  17.0880113  13.4766399  48.7706717   8.7548471   7.8353420
  49.5148762   9.1422747   8.0736370  48.9167413   7.9105897   7.9993908
  48.9017302   8.6878944   7.8947390  51.7584593   4.3273944  13.7347339
  51.2844547   3.8015707  14.2452650  52.1302729   3.7803417  13.1662201
  51.7434482   4.1689941  13.7262487  42.1357623   6.3245451  19.1030885
  42.9983236   6.2241160  19.0168215  41.8049406   5.7440160  18.5416457
  42.2142820   6.2237078  19.0076291  58.0221324   9.3876320  15.1454120
  57.7819547   8.5482735  15.1496546  58.5013331   9.4676487  15.8694894
  58.0573507   9.2757720  15.2528922  60.0226511   6.1677777  13.0983379
  59.7836281   6.1273612  12.2604164  60.1860412   7.0148929  13.2249100
  60.0116814   6.2869862  12.9936861  56.6272541  10.5527727  19.0288424
  57.3506740  10.1000253  18.8499444  56.3622503  10.8332392  18.2460752
  56.6953814  10.5278695  18.8867140  45.4959409   5.1487900  15.7641303
  44.8712479   5.1606292  15.1567256  45.1605004   5.6248075  16.4132544
  45.3544901   5.2206417  15.7697872  42.2085085  13.2088360  17.2045068
  41.6785009  12.5180799  17.2540042  42.4810178  13.1998546  16.3757776
  42.1709807  13.1055492  17.0892484  53.2405175  13.7914063   5.9282750
  53.9639374  14.2572176   5.7847324  52.8005766  13.8587672   5.1780347
  53.2820868  13.8697899   5.7967532  52.4091330  10.6511605  17.1783439
  51.7948323  10.1069655  17.4732075  52.9258615  10.1375841  16.6989255
  52.3946993  10.4948014  17.1507668  51.6487628  11.7215875  14.9127738
  51.2215236  11.0965594  14.4793173  51.6412572  11.4390797  15.7386745
  51.5846769  11.5868656  14.9707566  44.7650155   6.7581048  17.9816172
  44.9243641   6.0024372  18.3867894  44.5843048   7.3071988  18.6356910
  44.7615514   6.7274862  18.1378878  49.9773337   2.5984629  15.1270272
  50.0015824   2.0644742  14.4383052  50.2284811   2.0901938  15.7895863
  50.0183256   2.4445533  15.1234917  37.4880927   9.8816124  14.5613416
  37.3824376   9.8362969  13.6965500  36.7381147  10.2269905  14.8427701
  37.3616530   9.9257033  14.4750746  46.2574659   1.3255448  14.5076016
  46.2973031   1.8264654  15.2210724  45.4324324   1.4165841  14.2381939
  46.1414185   1.4137264  14.5726555  48.4404272  10.8916188  22.6096311
  47.5899903  11.0287902  22.7453956  48.6032400  10.1579966  23.0544013
  48.3388136  10.8030289  22.6951910  47.6789023   7.8415958  16.8049915
  46.8480953   8.0089776  16.5985163  47.6240540   7.4651908  17.5898801
  47.5478438   7.8105689  16.8898443  45.4872806   1.3324850  22.4406326
  46.1125509   0.7886983  22.7135758  45.0323286   0.8519768  21.8714116
  45.5121067   1.1814332  22.3967920  59.0607855   9.5154137  17.5318974
  59.6525695  10.1551388  17.5637172  59.4966849   8.8177174  17.8211041
  59.2126286   9.5072488  17.5799807  50.8901245  13.9371510  18.1576868
  50.3826336  14.4907357  18.6017498  50.5927891  13.9979800  17.3395642
  50.7706130  14.0277821  18.1025325  53.5009025  17.8534768   6.0880811
  52.7838335  17.6795630   5.6228049  54.1515763  17.6187340   5.5556297
  53.4910875  17.7930560   5.9410029  56.0856996   6.7299356   9.8322116
  55.4148186   7.2729058   9.7035182  56.7796746   7.1994211   9.5903811
  56.0885864   6.8797627   9.7777644  50.1343730  18.8696068  15.0633875
  49.9109384  18.1114897  15.4317901  49.6453573  18.8994089  14.3414314
  50.0287179  18.7618293  15.0110616  44.9468809   5.8162759  10.7995336
  44.2280798   6.2326892  11.0668200  45.3181171   6.3816998  10.2486974
  44.8960740   5.9612041  10.7578143  54.2468389   6.4490608  16.6897332
  54.2266317   6.2673904  17.5432111  54.2947590   7.3202627  16.6656916
  54.2503030   6.5507147  16.8120627  52.1914719  13.0377800  22.6145809
  52.1510574  12.3927477  22.0290964  53.0038038  12.9814418  22.9271221
  52.3057873  12.9336767  22.5742758  48.7822187  19.0896526  12.5170959
  48.3682586  18.4270656  12.1274801  49.4669561  19.2374385  11.9966654
  48.8220559  19.0137184  12.3827457  52.1487481  18.2486612  13.2694576
  51.7503764  18.3588882  12.5015396  51.5338701  18.4568678  13.8521136
  51.9986370  18.2960180  13.2425875  53.5973200   4.8140264   9.5670466
  53.3686893   4.8372965   8.7248824  53.8571276   3.9897731   9.6865476
  53.6019388   4.6956344   9.4595664  47.8792428   6.6674737  19.1695566
  47.3671331   6.0595920  19.5280598  47.7071924   7.3831329  19.6369542
  47.7782065   6.6838036  19.2911790  42.7258143   5.1112312  21.8197928
  42.5560733   5.7713687  21.2746135  42.2824093   5.3218873  22.5410417
  42.6357476   5.2398294  21.8459557  46.6517962   3.3516810  10.8624662
  47.1275328   3.7133890  10.2274843  46.1506562   4.0073278  11.1424804
  46.6483321   3.5010999  10.8101403  51.7561498   4.5898982  21.6097822
  52.3132929   4.3612791  20.9776287  51.4322563   5.3504647  21.3333034
  51.7907909   4.6682818  21.4754319  39.6260207   8.0159178  17.0786418
  39.0786927   7.3459823  17.1967286  40.4152585   7.6489026  17.1429885
  39.6612391   7.8624164  17.1055118  49.4744616   7.6766635  22.5749829
  50.2255943   7.9918312  22.8889383  49.6667192   7.4745806  21.7483751
  49.6136030   7.6934017  22.4993225  38.3847177   7.2279986  14.2332441
  38.2068938   6.7756595  14.9587356  38.0966199   8.0306147  14.4170918
  38.3160130   7.2802543  14.3675944  54.0470758   8.4837703  13.4709831
  54.5424423   7.7660698  13.4313851  53.2370534   8.1808501  13.3564318
  54.0014651   8.3335349  13.4483557  49.4929369  12.3335516   5.6206836
  48.6840692  12.0102190   5.5740145  50.0004278  11.6268738   5.5535084
  49.4479036  12.1816833   5.6037130  40.1219647   9.7607709  11.3454200
  39.2565166   9.7493400  11.2336971  40.2218463   9.5737932  12.1925339
  40.0093814   9.7313771  11.4543144  56.1122577  11.2341390  16.1586960
  56.5377648  10.7115812  15.6057385  55.7479497  11.8322228  15.6375583
  56.1209179  11.2451617  15.9995970  45.7476657  19.5305608  14.9184305
  46.0623216  20.3441996  14.9262087  46.1570070  19.1455827  15.5866465
  45.8544755  19.5934310  15.0188397  52.7001176  14.9475655  12.4888117
  53.1712354  15.6615917  12.6578103  53.0361355  14.3474405  13.0247987
  52.8196291  14.9647119  12.5920493  54.7878161  16.5576968  24.6680189
  54.8975126  15.7685529  25.0236937  55.1169057  16.4682904  23.8654528
  54.8530567  16.4282821  24.6022580  53.3375123  14.7393589  19.2515810
  52.7896068  14.1151472  18.9835875  53.7988151  14.9287861  18.5359889
  53.3242332  14.6752639  19.1066241  43.0889677  13.4778716  14.5662914
  43.6934534  13.4374551  13.9376735  42.8816989  14.3249868  14.5966970
  43.1478574  13.5966719  14.4779030  52.9033449  15.7444662  15.7825151
  53.7231823  15.6007628  16.0441446  52.6227526  16.3690860  16.3241589
  52.9830192  15.8155014  15.9013091  38.3240959  12.4613334  14.4361837
  38.2265237  11.6509605  14.7451894  39.1069829  12.4405127  14.0508105
  38.4257095  12.3380424  14.4248700  62.5746784  22.4885164  13.5020958
  61.7184680  22.6493663  13.5530075  62.6214438  21.6177228  13.5226019
  62.4545895  22.3835966  13.5127024  56.9587924  32.0247882   9.2658190
  56.2070823  31.6463420   9.0374235  57.4073935  32.0566316   8.5177000
  56.9137591  31.9733489   9.1215692  65.8840501  28.7571690  23.1081414
  66.5907268  28.2623721  23.2368349  66.0728436  29.1980771  22.3784072
  66.0168406  28.7490040  23.0190460  62.4112884  32.4473252   4.6943737
  62.0764252  33.1250173   4.2587959  62.9239754  32.0578563   4.1060608
  62.4378465  32.4897830   4.5430528  61.9517175  34.3987520  10.6354848
  62.3356554  34.9674419  10.0959623  61.8876316  33.6737031  10.1560664
  61.9990602  34.3762984  10.4848711  65.4198605  24.5477208  16.1452610
  65.9654565  25.2262295  16.2046579  65.3615481  24.4064669  15.2854191
  65.4914519  24.6269210  16.0264670  58.5372680  32.0366274  11.5320962
  58.6383043  31.2266628  11.8418090  57.9414425  31.9423221  10.9020641
  58.4645219  31.9031302  11.4847200  67.1963674  25.9761815   7.0186337
  67.0803200  26.7269501   7.4478476  67.9919560  25.7185769   7.2682424
  67.2968263  26.0496662   7.1190429  51.7337724  28.0586561  11.1573296
  51.4987909  27.2254213  11.0505565  51.8723365  28.3391227  10.3434497
  51.7193387  27.9770064  11.0215651  54.0327812  20.2272291  14.0557603
  53.4132843  19.6364939  13.8867618  53.9311675  20.8183727  13.4221927
  53.9265487  20.2276374  13.9362593  59.0793999  29.9655838   8.3055680
  59.4009840  30.5061046   7.7016988  59.7266096  29.3952610   8.4377970
  59.2220054  29.9615013   8.2362715  61.1295707  21.9671833   8.3890067
  61.8275872  22.1459961   8.8811530  61.4448040  21.4442173   7.7660456
  61.2791044  21.9165605   8.3692077  53.7596945  23.7724573  16.3001172
  53.6355642  24.3587019  16.9350991  54.4115229  23.2784769  16.6013447
  53.8370594  23.7863378  16.4387102  61.3183643  28.3542278   8.3769858
  61.7577278  27.7459379   8.8224631  61.1688306  27.9749652   7.6055323
  61.3605108  28.2080749   8.3289025  58.7855286  26.9486290  15.5788683
  59.4304288  26.4558733  15.2599632  59.0257063  27.0911077  16.4054762
  58.9165871  26.8963732  15.6538217  61.3241377  29.7941196  15.2295576
  61.6064620  28.9992602  15.0082332  62.0527537  30.2721783  15.2500637
  61.4730941  29.7475793  15.1998591  59.3022571  17.3364230  12.4711341
  58.9725901  17.7875373  11.8015040  58.6267573  17.2580393  13.0184348
  59.1533007  17.3915365  12.4534564  64.9192979  26.7069460   5.3300627
  64.8344274  27.5630426   5.4750196  65.4077362  26.4313784   5.9982786
  64.9781877  26.7926781   5.4502709  65.8511412  23.3254254   6.8298362
  65.3222884  23.5413887   7.4895669  66.3736432  24.0190392   6.7499332
  65.8499865  23.4597391   6.9153962  71.3059465  28.9000558  12.2031407
  70.4757168  29.1111202  12.3664823  71.2568718  28.0737613  11.9273690
  71.1766201  28.8090164  12.1868772  57.7411020  27.2217471   5.6305830
  57.1568235  27.7267502   6.0371694  57.3381115  26.9959857   4.8902422
  57.5950324  27.2625719   5.5810856  53.2955049  32.9372232  12.4329502
  52.8122627  33.6622721  12.4089085  54.1078367  33.2348362  12.5439660
  53.3445797  33.0874585  12.4456781  59.3669203  31.7304412  15.0379316
  58.8496145  31.3711827  14.4340624  60.0643594  31.2066587  15.0485382
  59.3934784  31.6002100  14.9509575  63.0232795  32.1799226  20.9995489
  63.1116141  31.9925367  21.8473700  63.4522507  31.5336656  20.6000336
  63.0994897  32.0562234  21.0667241  60.5903255  31.4630386  19.9813152
  60.0274089  31.0502996  20.5052813  61.3524278  31.3883292  20.4006295
  60.6197703  31.3907787  20.1206152  57.5078525  15.3976518   7.9534289
  58.2624493  15.7654835   7.7151339  57.3306060  15.7716073   8.7213468
  57.5933003  15.5074706   8.0319177  56.1499246  33.4528408  12.5849782
  56.8519825  32.9380397  12.6422538  56.0696729  33.7802559  13.3896657
  56.2423007  33.4242634  12.7122574  70.8013424  21.5470959  15.9981828
  69.9641845  21.6173146  16.2329423  70.7701655  21.5495454  15.1256131
  70.6731706  21.5581186  15.9041376  57.1978153  23.6903994  21.7130197
  57.3698656  23.5809889  22.5615478  57.7347510  24.3358400  21.4761389
  57.3023157  23.7695996  21.8035294  55.8635590  17.8046837   4.6512402
  55.6811163  18.0218718   3.8253395  56.7261203  17.9185850   4.7071016
  55.9640179  17.8536735   4.5366889  55.4750022  29.6434760  12.0935390
  56.3138921  29.8757692  12.1409151  55.5061791  28.7739071  12.0242425
  55.6031739  29.5491706  12.0900034  56.1002725  30.0635635  16.3948695
  56.6400950  29.9206766  17.0652068  55.4172671  30.4632386  16.7632722
  56.0794878  30.1015306  16.5483117  65.5243609  25.7426635  11.5893720
  66.2801124  26.1758150  11.6282628  65.6305934  25.0931405  12.1628356
  65.6513780  25.7104119  11.6791745  68.5623781  29.5699913  12.3396123
  68.1259012  29.5736655  13.0955094  68.2286696  30.2505412  11.9075700
  68.4486401  29.6712368  12.3876955  63.1352854  31.6108245  23.6639273
  63.9193271  31.7239093  24.0295015  62.9349449  30.7849383  23.8597959
  63.2218880  31.5054965  23.7473659  51.5039870  26.2835926  16.5483117
  51.2378285  25.4675042  16.7074107  51.5178434  26.3289081  15.6778632
  51.4664592  26.1692830  16.4436599  68.4821263  16.6113740  14.5825551
  69.1247172  16.6811845  15.1687466  68.7344284  15.9442963  14.0805092
  68.6143396  16.5240089  14.5952830  55.4097617  21.0821010   3.1634875
  54.6955794  20.7959189   3.5757307  55.8941585  21.4217636   3.8041262
  55.3756980  21.0902660   3.3190510  56.2538476  19.8214304  19.1950125
  55.5610273  19.3511284  19.4410856  56.8698803  19.5952608  19.7691832
  56.2423006  19.7181436  19.3159277  63.2923248  33.5218347  17.3105729
  62.4938493  33.2817848  17.5679597  63.7409259  33.5732740  18.0572776
  63.2397859  33.4940739  17.4590653  71.6968127  26.2880832  11.2315760
  72.3584561  25.7271501  11.1311668  71.0559539  25.7932863  11.5568451
  71.6996994  26.1317242  11.2648100  62.5844935  29.5850964   3.5396683
  62.9996083  29.2535988   2.8481179  61.7536864  29.3519866   3.4116820
  62.5232943  29.5022220   3.4187531  51.9133283  27.0694705  13.8294861
  51.7308857  27.0441591  12.9767153  52.6482952  27.5393643  13.8683770
  51.9947347  27.1356067  13.7092780  67.9832957  27.3046215  10.9727749
  68.2188547  27.4491414  10.1454599  68.1322521  28.0688623  11.3659262
  68.0398761  27.4385269  10.9091353  54.9779035  23.7879708  20.3376970
  55.7019007  23.7732738  20.8241864  55.0795171  24.4975063  19.8398938
  55.0997244  23.8904411  20.3355757  69.8123414  26.1447881   8.8097352
  70.1431631  26.6775521   8.2037447  70.3856502  26.1986769   9.4659303
  69.9457093  26.2317450   8.8175134  62.3523984  27.2678792  25.2025917
  61.5596965  27.5822304  25.3878536  62.4672912  27.4830261  24.3646701
  62.2519395  27.3462629  25.1064251  65.0255303  23.9912784   9.4920933
  65.1202158  24.7302078   9.9460558  64.4014147  23.5630259   9.9255497
  64.9464333  24.0374104   9.6229080  63.2807777  27.1698996  20.1411213
  63.8546639  26.5326240  20.2959777  63.2022581  27.1703079  19.2720871
  63.3541012  27.0764108  20.0357624  51.8804194  23.9488206  13.9793928
  52.4577696  23.8124656  14.6186173  51.1818255  23.4923990  14.2339512
  51.8625215  23.8610472  14.1116217  58.6371496  25.6022261  12.1932411
  58.3790740  24.7693996  12.1663710  58.6919979  25.8279874  11.3524911
  58.6071274  25.5120033  12.0652548  63.7172546  17.7050712  12.2936504
  63.0128873  17.2159897  12.4520423  63.7657520  17.7173186  11.4224948
  63.6202598  17.6340360  12.1875843  57.6106208  23.1560024  12.6797306
  57.0355799  23.3152192  13.3161267  57.2341884  22.5195433  12.2165756
  57.4709020  23.0857837  12.7051864  61.2779497  21.6283373  17.5389684
  60.8893929  21.2037591  16.8841875  60.6134195  21.8765523  18.0466711
  61.1226424  21.6022094  17.5177552  47.3563027  22.8000099  10.6941746
  47.4423279  22.4231967  11.4755276  47.9838824  22.4260544  10.2161704
  47.4619578  22.6885581  10.7387224  65.1005858  15.3258002  15.0513668
  65.4816370  14.6436173  15.4381542  64.2969142  15.0367604  14.8689333
  65.0382320  15.1825050  15.0817724  62.3818435  25.8581978   5.7366491
  63.1959074  26.1496870   5.6249262  62.3177576  25.2041840   5.1624784
  62.4921174  25.8047172   5.6355328  68.6027925  28.5407974  20.1496067
  68.3666562  27.7096039  20.0308127  69.2471154  28.4893581  20.7350911
  68.6622596  28.4105662  20.2181960  58.2526343  29.3303495  10.8638803
  58.8900290  29.0915243  11.4090596  58.6781415  29.5340654  10.1291964
  58.4102509  29.3254505  10.8355960  52.9438986  31.5691832  14.7473107
  52.9843131  31.8406683  13.9192886  53.5033510  32.0933740  15.1630895
  53.0322331  31.6867587  14.6864995  58.8929158  24.5505785   5.2013692
  59.2774311  24.3313492   5.9530238  58.6440778  25.3768730   5.3314769
  58.9131231  24.6403931   5.3314769  59.0597699  17.8312200  24.9176277
  58.7451140  18.6011763  24.6545839  58.7387631  17.2682456  24.3328504
  58.9656618  17.8622469  24.7917627  69.6264346  28.3252423  16.2124361
  69.3210163  29.0580479  16.5737677  68.9070561  27.9190352  15.9317147
  69.4751688  28.3734155  16.2237498  60.6347815  29.8075918  12.5432589
  60.7086823  29.6451090  13.3974439  61.4517321  29.9966107  12.2993071
  60.7664174  29.8112660  12.6330615  75.3266138  24.9645423  15.5392705
  75.2590638  24.9841382  14.6695292  75.3121800  25.8075750  15.7648376
  75.3144894  25.0919158  15.4445182  54.3953572  30.1533781   9.5727033
  53.5691689  30.3995518   9.4461312  54.4565563  30.0745861  10.4389091
  54.2827739  30.1778729   9.6815977  56.6129596  16.2202722  10.5322473
  55.7452021  16.2925321  10.5980082  56.9004800  17.0224800  10.7210448
  56.5269344  16.3496869  10.5697240  65.7362484  16.3680581  18.8633795
  66.4816076  16.1790391  18.4497220  65.3199789  16.8938819  18.3047651
  65.7847459  16.4182726  18.7198368  59.1752401  32.7710661   7.2746063
  59.4650699  32.3799642   6.5505289  59.9055882  32.9527366   7.7151338
  59.3259285  32.7404475   7.2328870  73.1124755  23.7389809  13.8139300
  73.6632677  23.1057878  14.0536392  73.0968871  24.2705202  14.5054804
  73.1909951  23.7238758  13.9518158  59.7647146  27.5728407  18.3599193
  59.2658840  28.2844174  18.4384082  60.5747370  27.8929073  18.3217356
  59.8103253  27.7255255  18.3655762  57.1158316  34.7478043  10.3406212
  56.8958612  34.4575398  11.1332879  56.8952838  34.0892998   9.8124125
  57.0505911  34.6077752  10.3795121  56.0275264  26.8351360  12.6061914
  55.7388512  26.2088831  13.1407641  56.8958612  26.7771647  12.6726595
  56.1135515  26.7338904  12.6952869  66.8153161  21.9786143  12.9243896
  66.4717927  21.2576478  13.2751146  66.9146204  21.7699994  12.0822254
  66.7795204  21.8410346  12.8515576  59.2826272  36.1207433   9.1236905
  59.9350330  35.5883875   9.3527931  58.5851881  35.7676085   9.5104779
  59.2756990  35.9896956   9.2149073  56.2307537  28.4746611   8.5304279
  56.9853505  28.8559650   8.7439742  55.6378150  28.9257754   8.9850976
  56.2544251  28.5975438   8.6287158  67.2766190  28.4411847   8.4667884
  67.8424223  29.1005057   8.3826427  66.6294094  28.7861545   8.9384286
  67.2644947  28.5893788   8.5240641  58.6914204  20.4309451  23.6561492
  57.8813980  20.7367231  23.5451334  59.1688891  21.1515033  23.7714076
  58.6417683  20.5824052  23.6568563  57.5505764  29.6455172  13.9044395
  57.0286517  29.7855464  14.5896259  57.9379784  28.8865836  14.0946512
  57.5309464  29.5540696  14.0345471  54.5396948  19.6960981   7.9739349
  54.2521743  19.3262251   7.2371297  55.2267416  20.1655836   7.7123054
  54.5985845  19.7107950   7.8254425  63.7472769  31.3850631   7.8904963
  63.5059444  30.6518492   7.4832028  63.9274101  31.9337488   7.2371297
  63.7380393  31.3573022   7.7335186  58.9772089  26.6759191   9.3025886
  58.7814872  27.2833926   8.7086189  59.2006435  25.9827135   8.8217560
  58.9806730  26.6636717   9.1441966  57.3750619  23.5613929   9.4206754
  58.0973271  23.7255087   8.9610560  56.8958612  24.2823594   9.3146094
  57.4114350  23.6912159   9.3372368  65.3344127  19.8977728  14.8003439
  64.4955227  19.9239007  14.5641702  65.4048494  20.5448463  15.3808786
  65.2212520  19.9973854  14.8512556  55.0258236  25.9672001  18.5260894
  55.5379333  26.2456255  17.8769654  54.7394578  26.7061295  18.8923707
  55.0593099  26.1174355  18.4850772  69.2101651  25.1045715  12.0864681
  69.1235625  25.2601141  12.9399460  68.7552131  25.7483790  11.7124086
  69.1304907  25.2221470  12.1571787  52.1125142  20.4742193   8.8224630
  52.2141279  21.2768355   9.1505606  52.9081029  20.2729529   8.5247711
  52.2453048  20.5628092   8.8259986  58.5441961  18.0598390  18.5861935
  58.3525158  18.0753524  19.4361359  59.3940557  18.2562064  18.5628590
  58.6417683  18.0912741  18.7085230  52.9288874  20.5889371  16.5645752
  52.7874366  19.7373312  16.6890260  53.2129438  20.6318032  15.7407958
  52.9496720  20.4689122  16.4613376  63.0827467  22.4256462  10.7090240
  62.8362181  22.3452213  11.5427029  63.4112590  21.6409930  10.5152768
  63.0948710  22.2982727  10.8037763  66.9775515  29.1339821  14.4977021
  66.8389875  29.8320867  15.0025764  66.1975513  28.9788478  14.1413203
  66.8418742  29.2139988  14.5203296  65.3153601  25.4336196  20.7499403
  65.3101639  24.5616013  20.7541830  66.0214594  25.6324366  20.2768859
  65.4198605  25.3340071  20.6806438  59.0424494  25.1613180  20.1213223
  59.1867870  25.7414388  19.4856333  59.3900142  25.5389477  20.8263078
  59.1151955  25.3033884  20.1312218  61.2144411  24.3603349  17.9038355
  60.4667725  24.5534363  17.4986633  61.3685937  23.5348568  17.6662476
  61.1266839  24.2668460  17.8083761  58.1152249  33.3515952  16.9874250
  58.2641813  32.7918868  16.3347655  58.8952251  33.4307954  17.3706769
  58.2526343  33.2801518  16.9471199  60.6405550  33.5230595  18.2658741
  60.5649221  32.8539406  18.8209529  60.5695409  34.2248383  18.7799407
  60.6186156  33.5275502  18.4235589  61.4546188  18.2553899  18.7933759
  61.9118802  18.9877874  18.9206551  61.5302517  17.8320365  19.5521014
  61.5337158  18.3011137  18.9234835  53.6979180  18.5019719  19.8823202
  53.1621369  17.8900077  20.1983970  53.7596944  19.0767855  20.5356869
  53.6274812  18.4966647  20.0258629  61.2975797  32.0431594   9.0982347
  62.0625688  31.7741238   8.7765011  61.1953886  31.5581604   9.8152410
  61.3957292  31.9321159   9.1562174  59.3328566  20.2456003  15.6375583
  58.5424641  20.0647463  15.9592918  59.7289189  19.4682956  15.6205877
  59.2745442  20.1043464  15.6828131  64.7172253  27.8798433  13.3635029
  64.0417254  27.6483666  13.8648416  64.7264629  27.2719616  12.7377134
  64.6190757  27.7557359  13.3451181  61.8466397  22.7216262  20.1199082
  61.7825538  23.5826219  19.9919218  61.9863584  22.4048256  19.3194633
  61.8581867  22.8016429  19.9827294  66.7188987  30.7363566   5.5945206
  66.8008825  31.5430552   5.2706657  67.2038729  30.7559525   6.3185980
  66.8026145  30.8584228   5.6532105  60.5285490  25.4148402  14.2615284
  60.1047740  25.6152901  13.5254303  60.3530346  24.5677250  14.3739584
  60.4396371  25.3197183  14.1688975  60.0297184  36.9298915  16.7236742
  60.5193114  36.2309704  16.5412406  59.4581416  36.6322785  17.3112799
  60.0181714  36.7825138  16.7837783  55.8167935  25.9100453   9.6943257
  55.9732555  25.8447256  10.5499249  56.1568528  26.6849006   9.4821937
  55.8901170  26.0149651   9.7897851  62.3547080  25.2858337   8.5636620
  62.8962625  24.7828718   9.0275241  62.6693639  25.2323531   7.7526105
  62.4811477  25.2037758   8.5120432  66.2264187  29.4960984  25.6763532
  67.0399053  29.2246133  25.8368665  66.0659154  29.1968524  24.8723728
  66.3234136  29.4115910  25.5808938  60.5233530  30.6775688   5.8476648
  60.5926350  29.8190227   5.9869649  61.3021985  30.8947569   5.5195673
  60.6486380  30.5828552   5.8193805  63.5036349  20.1794641  18.6158921
  63.7178319  19.5405555  18.0622275  62.8870249  20.6240465  18.1866782
  63.4441679  20.1504785  18.4709352  64.9141017  33.1013390  10.0613142
  64.5220809  32.7980105   9.3436008  65.0694090  33.9382480   9.8718095
  64.8794607  33.1797226   9.9269639  52.3902197  23.0935404  10.0104024
  52.7701162  23.5119949   9.3464291  51.8157562  23.6748859  10.3172867
  52.3613522  23.2413262   9.9580765  65.6675437  21.7883706  19.5542228
  64.8552119  21.4809597  19.6355400  66.1265372  21.3082707  20.1184940
  65.6155822  21.6720199  19.6496822  65.0780692  29.6663378  10.0019172
  64.7195347  29.8378021  10.7783204  64.5919403  30.1276584   9.4447171
  64.9539389  29.7602350  10.0344441  62.8951078  13.2894577  13.6046263
  62.0244636  13.2633298  13.5579573  63.1491419  13.1171769  12.7872109
  62.8044638  13.2604721  13.4766400  59.8669057  25.3462544   2.5419406
  60.1561582  26.1227426   2.8162981  59.9540856  24.8351275   3.2433906
  59.9223314  25.3854462   2.6861904  62.7628945  23.1943778  24.3370930
  63.2328576  23.8185894  24.7238804  62.8090825  22.5260753  24.8964145
  62.8396821  23.1878458  24.4771001  59.9200219  15.3000805  15.0619734
  59.4038707  14.6080997  15.1871313  59.3594147  15.9671582  15.0082333
  59.7606732  15.2964063  15.0725800  61.9892452  15.8393765  16.8912586
  61.6024205  15.8642797  17.6726116  61.5025389  15.2735444  16.4387103
  61.8604961  15.7589516  16.9400490  66.2385431  30.5567274  20.9486373
  66.8765152  30.0627470  20.6148829  65.5959523  30.4844675  20.3638600
  66.2379658  30.4726283  20.8128728  67.9642431  22.4056420  15.5152289
  67.5370040  22.3182769  14.7600388  67.3268484  22.5134196  16.1007133
  67.8072039  22.4089080  15.4897730  61.6549594  12.7260751  19.1822846
  62.2842712  13.2621051  18.9043917  61.8235456  12.6338110  20.0336412
  61.7727388  12.7922113  19.2671374  61.4563509  17.5131946  21.4549258
  62.2836938  17.2417094  21.5107872  61.4771355  18.3092787  21.8113076
  61.5816359  17.5911700  21.5164441  66.2939688  31.2487083  17.5891730
  67.0832066  30.8976147  17.7093811  66.4683286  32.0623471  17.3268364
  66.4359970  31.3172940  17.5679598  56.0332998  24.6595808  14.6419519
  55.1921005  24.5599683  14.8498412  56.2423006  25.4291289  14.9933839
  55.9397691  24.7587852  14.7246833  53.5108565  22.2815345  12.4704269
  53.1165263  22.3558357  11.6954379  52.9548682  22.6673292  13.0212631
  53.3711378  22.3497120  12.4371929  65.1473512  15.2596639  12.1508148
  65.3523106  15.1918947  12.9965145  64.8199936  16.0655461  12.0829326
  65.1288760  15.3682580  12.2667803  59.8449663  22.5877208  13.8917116
  59.5412801  22.0333196  14.4927524  59.1429084  22.7669418  13.4045150
  59.6965873  22.5321990  13.9086822  58.9015760  19.8977727   8.4561818
  59.1775495  19.1796640   8.0439385  59.5014430  20.4962647   8.2482924
  59.0309025  19.8798098   8.3642579  57.9068014  29.8026928  18.5989214
  57.7988369  29.8128990  19.4651272  58.1163796  30.6281709  18.4094168
  57.9218125  29.9268003  18.6993305  55.9241806  27.0539571  16.0611151
  55.3329740  27.6949069  16.0314167  56.6862830  27.4777188  16.0342451
  55.9490067  27.2115409  16.0526299  56.3202429  18.2141568  16.7279169
  56.7803911  18.2880498  17.4654293  56.3658536  19.0122823  16.3778990
  56.3952984  18.3435716  16.7851926  57.9685779  18.8808263  21.2951196
  57.5771344  18.2341610  21.7306974  58.1371642  19.4719699  21.9145452
  57.9356689  18.8722531  21.4513902  72.0432228  26.8845340  17.0588430
  72.1015352  27.3331989  17.8048406  71.4098695  27.2944153  16.6218510
  71.9583523  27.0119075  17.1040978  65.6831323  32.5048882  13.4943176
  65.4851011  32.9939697  12.7999387  65.0619034  32.7090124  14.0727309
  65.5618887  32.6065421  13.4766399  59.7439301  24.2733779   7.8353420
  60.4881346  24.6608055   8.0736370  59.8899997  23.4291204   7.9993908
  59.8749886  24.2064252   7.8947390  61.6618876  16.0684038  12.8685282
  60.8154921  16.2406846  12.7426631  61.6590009  15.2633382  13.2051110
  61.5366026  15.9745067  12.8996409  62.7317177  19.8459252  13.7347339
  62.2577131  19.3201014  14.2452650  63.1035313  19.2988725  13.1662201
  62.7167066  19.6875249  13.7262487  53.1090207  21.8430759  19.1030885
  53.9715820  21.7426468  19.0168215  52.7781990  21.2625468  18.5416457
  53.1875403  21.7422386  19.0076291  68.9953907  24.9061628  15.1454120
  68.7552130  24.0668043  15.1496546  69.4745914  24.9861795  15.8694894
  69.0306091  24.7943028  15.2528922  70.9959094  21.6863085  13.0983379
  70.7568864  21.6458919  12.2604164  71.1592996  22.5334237  13.2249100
  70.9849398  21.8055170  12.9936861  67.6005124  26.0713035  19.0288424
  68.3239323  25.6185561  18.8499444  67.3355087  26.3517700  18.2460752
  67.6686398  26.0464003  18.8867140  56.4691993  20.6673208  15.7641303
  55.8445063  20.6791600  15.1567256  56.1337588  21.1433383  16.4132544
  56.3277485  20.7391725  15.7697872  56.6533742  19.0098327   1.8213988
  56.3046546  19.6618052   2.2845538  56.1730187  18.9955440   1.0937860
  56.5303985  19.1041380   1.7825080  53.1817668  28.7273668  17.2045068
  52.6517593  28.0366107  17.2540042  53.4542762  28.7183854  16.3757776
  53.1442391  28.6240800  17.0892484  64.2137759  29.3099371   5.9282750
  64.9371958  29.7757484   5.7847324  63.7738350  29.3772980   5.1780347
  64.2553451  29.3883207   5.7967532  63.3823914  26.1696913  17.1783439
  62.7680907  25.6254963  17.4732075  63.8991199  25.6561149  16.6989255
  63.3679576  26.0133322  17.1507668  62.6220211  27.2401183  14.9127738
  62.1947819  26.6150902  14.4793173  62.6145156  26.9576105  15.7386745
  62.5579352  27.1053964  14.9707566  55.7382738  22.2766356  17.9816172
  55.8976225  21.5209680  18.3867894  55.5575632  22.8257295  18.6356910
  55.7348097  22.2460170  18.1378878  63.6803041  14.4427591  18.5366961
  63.1843602  14.6391266  17.8458528  64.4372103  14.8420260  18.3655763
  63.7189866  14.5305325  18.4087098  60.9505921  18.1169937  15.1270272
  60.9748408  17.5830050  14.4383052  61.2017394  17.6087246  15.7895863
  60.9915840  17.9630841  15.1234917  48.4613511  25.4001432  14.5613416
  48.3556960  25.3548277  13.6965500  47.7113731  25.7455213  14.8427701
  48.3349114  25.4442341  14.4750746  57.2307243  16.8440756  14.5076016
  57.2705615  17.3449962  15.2210724  56.4056908  16.9351149  14.2381939
  57.1146769  16.9322572  14.5726555  59.4136856  26.4101496  22.6096311
  58.5632486  26.5473210  22.7453956  59.5764984  25.6765274  23.0544013
  59.3120719  26.3215597  22.6951910  58.6521606  23.3601265  16.8049915
  57.8213536  23.5275083  16.5985163  58.5973124  22.9837216  17.5898801
  58.5211021  23.3290997  16.8898443  57.0257650  21.6356857   7.3340033
  57.1660611  22.1329321   8.0368674  57.5240183  20.9343151   7.4754247
  57.1198731  21.6058836   7.4591612  57.0557873  22.5023968   4.6632610
  57.6902952  23.0984393   4.5982072  57.1383483  22.2027426   5.4778480
  57.1614424  22.5464876   4.7735696  70.0340438  25.0339445  17.5318974
  70.6258279  25.6736696  17.5637172  70.4699433  24.3362482  17.8211041
  70.1858870  25.0257796  17.5799807  58.6336856  18.4337943   4.6378052
  58.9552697  17.9541026   3.9837314  58.8963799  19.2437590   4.4468863
  58.7202881  18.4827841   4.5133544  61.8633828  29.4556818  18.1576868
  61.3558919  30.0092665  18.6017498  61.5660474  29.5165108  17.3395642
  61.7438713  29.5463129  18.1025325  64.0296010  17.8210137  17.0001531
  64.4551082  17.3682664  16.3885057  63.4153004  17.2670208  17.2766318
  64.0024656  17.6724114  16.9506556  53.5610861  24.6991809   7.9322156
  54.0703090  25.2956316   8.3133461  54.0345133  24.4317782   7.2498575
  53.7054236  24.7477624   7.8876679  64.4741609  33.3720076   6.0880811
  63.7570918  33.1980938   5.6228049  65.1248346  33.1372648   5.5556297
  64.4643459  33.3115868   5.9410029  62.4690233  14.2925237  10.4092108
  61.8258551  14.1422884  10.9777246  62.1289640  14.0467582   9.6441213
  62.3235311  14.2337360  10.3795123  67.0589580  22.2484664   9.8322116
  66.3880770  22.7914366   9.7035182  67.7529330  22.7179519   9.5903811
  67.0618447  22.3982935   9.7777644  61.1076314  34.3881376  15.0633875
  60.8841968  33.6300205  15.4317901  60.6186157  34.4179397  14.3414314
  61.0019763  34.2803601  15.0110616  67.2217707  18.7040548  12.7412490
  67.5745317  18.2770271  13.4158288  66.3632509  18.6191391  12.8713566
  67.1467152  18.6285288  12.8607500  55.9201392  21.3348067  10.7995336
  55.2013381  21.7512200  11.0668200  56.2913755  21.9002306  10.2486974
  55.8693324  21.4797349  10.7578143  65.2200973  21.9675916  16.6897332
  65.1998900  21.7859211  17.5432111  65.2680174  22.8387935  16.6656916
  65.2235614  22.0692455  16.8120627  63.1647303  28.5563108  22.6145809
  63.1243158  27.9112785  22.0290964  63.9770621  28.4999726  22.9271221
  63.2790456  28.4522075  22.5742758  59.7554770  34.6081834  12.5170959
  59.3415169  33.9455964  12.1274801  60.4402145  34.7559693  11.9966654
  59.7953142  34.5322492  12.3827457  63.1220065  33.7671919  13.2694576
  62.7236348  33.8774190  12.5015396  62.5071284  33.9753986  13.8521136
  62.9718954  33.8145487  13.2425875  61.6947967  20.3746067   6.1368716
  61.1012806  20.6963064   5.5853283  61.7323244  19.5287163   5.9289822
  61.6122356  20.2970396   6.0251487  64.5705783  20.3325572   9.5670466
  64.3419476  20.3558273   8.7248824  64.8303859  19.5083039   9.6865476
  64.5751971  20.2141652   9.4595664  58.8525012  22.1860045  19.1695566
  58.3403915  21.5781228  19.5280598  58.6804508  22.9016637  19.6369542
  58.7514649  22.2023344  19.2911790  53.6990726  20.6297620  21.8197928
  53.5293317  21.2898995  21.2746135  53.2556676  20.8404181  22.5410417
  53.6090060  20.7583602  21.8459557  57.6250546  18.8702118  10.8624662
  58.1007912  19.2319198  10.2274843  57.1239145  19.5258586  11.1424804
  57.6215905  19.0196307  10.8101403  62.7294082  20.1084289  21.6097822
  63.2865512  19.8798099  20.9776287  62.4055147  20.8689955  21.3333034
  62.7640492  20.1868126  21.4754319  50.5992791  23.5344486  17.0786418
  50.0519510  22.8645131  17.1967286  51.3885169  23.1674334  17.1429885
  50.6344975  23.3809472  17.1055118  60.4477199  23.1951943  22.5749829
  61.1988526  23.5103620  22.8889383  60.6399776  22.9931114  21.7483751
  60.5868613  23.2119325  22.4993225  59.6677199  21.0143318   4.2298046
  60.0476164  21.0322947   3.4449160  58.9269795  21.4597307   4.1088893
  59.6146037  21.0825092   4.0961614  49.3579760  22.7465293  14.2332441
  49.1801521  22.2941902  14.9587356  49.0698782  23.5491455  14.4170918
  49.2892714  22.7987851  14.3675944  65.0203341  24.0023011  13.4709831
  65.5157007  23.2846006  13.4313851  64.2103117  23.6993809  13.3564318
  64.9747235  23.8520657  13.4483557  60.4661953  27.8520824   5.6206836
  59.6573276  27.5287498   5.5740145  60.9736862  27.1454046   5.5535084
  60.4211620  27.7002140   5.6037130  51.0952230  25.2793017  11.3454200
  50.2297750  25.2678708  11.2336971  51.1951046  25.0923240  12.1925339
  50.9826397  25.2499078  11.4543144  67.0855160  26.7526698  16.1586960
  67.5110232  26.2301120  15.6057385  66.7212080  27.3507536  15.6375583
  67.0941763  26.7636925  15.9995970  56.7209240  35.0490916  14.9184305
  57.0355799  35.8627304  14.9262087  57.1302653  34.6641135  15.5866465
  56.8277338  35.1119618  15.0188397  63.6733760  30.4660963  12.4888117
  64.1444938  31.1801225  12.6578103  64.0093938  29.8659713  13.0247987
  63.7928875  30.4832427  12.5920493  65.7610744  32.0762276  24.6680189
  65.8707710  31.2870837  25.0236937  66.0901641  31.9868212  23.8654528
  65.8263150  31.9468129  24.6022580  60.5903255  15.2388433  19.4446212
  60.7231160  14.4419427  19.7727188  60.9748407  15.7654836  20.0244488
  60.6659584  15.1988350  19.5789715  64.3107706  30.2578897  19.2515810
  63.7628652  29.6336780  18.9835875  64.7720735  30.4473169  18.5359889
  64.2974916  30.1937947  19.1066241  63.6635610  12.1618759  16.0427305
  62.8581574  12.0516489  16.3595144  63.5342345  12.2631215  15.1857171
  63.5255743  12.1602429  15.9635346  67.1201570  18.3264251  16.6367002
  66.5364559  18.8273458  16.2244570  67.4405864  17.8193807  16.0031326
  67.0814746  18.3256086  16.4825510  59.6596370  17.2404846   6.9125677
  60.4812064  17.4103159   6.6707372  59.1966020  17.3952107   6.1891975
  59.7127532  17.2886579   6.7697321  58.2491701  15.2347608  17.6924106
  58.7936114  14.8938735  18.2828448  58.3028637  16.0933070  17.8345390
  58.3380821  15.3102868  17.8005979  54.0622260  28.9964024  14.5662914
  54.6667118  28.9559858  13.9376735  53.8549573  29.8435176  14.5966970
  54.1211158  29.1152027  14.4779030  63.8766032  31.2629969  15.7825151
  64.6964406  31.1192936  16.0441446  63.5960110  31.8876168  16.3241589
  63.9562776  31.3340321  15.9013091  49.2973543  27.9798642  14.4361837
  49.1997821  27.1694913  14.7451894  50.0802412  27.9590435  14.0508105
  49.3989679  27.8565732  14.4248700  73.5479368  38.0070472  13.5020958
  72.6917263  38.1678970  13.5530075  73.5947021  37.1362536  13.5226019
  73.4278479  37.9021274  13.5127024  67.9320507  47.5433190   9.2658190
  67.1803407  47.1648728   9.0374235  68.3806519  47.5751624   8.5177000
  67.8870174  47.4918797   9.1215692  76.8573084  44.2756998  23.1081414
  77.5639851  43.7809029  23.2368349  77.0461020  44.7166079  22.3784072
  76.9900990  44.2675348  23.0190460  76.3931189  40.0662516  16.1452610
  76.9387149  40.7447603  16.2046579  76.3348065  39.9249977  15.2854191
  76.4647103  40.1454518  16.0264670  69.5105263  47.5551582  11.5320962
  69.6115626  46.7451936  11.8418090  68.9147009  47.4608529  10.9020641
  69.4377802  47.4216610  11.4847200  69.3506003  52.4729171  12.9335818
  69.9943459  52.9142335  13.3231976  69.6762259  51.6682598  12.8466077
  69.4937832  52.4194366  12.9781295  62.7070308  43.5771869  11.1573296
  62.4720492  42.7439521  11.0505565  62.8455949  43.8576534  10.3434497
  62.6925970  43.4955372  11.0215651  65.0060395  35.7457599  14.0557603
  64.3865427  35.1550247  13.8867618  64.9044259  36.3369035  13.4221927
  64.8998071  35.7461682  13.9362593  72.1028291  37.4857141   8.3890067
  72.8008456  37.6645269   8.8811530  72.4180623  36.9627481   7.7660456
  72.2523628  37.4350913   8.3692077  64.7329528  39.2909881  16.3001172
  64.6088225  39.8772327  16.9350991  65.3847813  38.7970077  16.6013447
  64.8103178  39.3048686  16.4387102  72.2916226  43.8727586   8.3769858
  72.7309862  43.2644687   8.8224631  72.1420889  43.4934960   7.6055323
  72.3337692  43.7266057   8.3289025  69.7587869  42.4671598  15.5788683
  70.4036872  41.9744041  15.2599632  69.9989646  42.6096385  16.4054762
  69.8898454  42.4149040  15.6538217  72.2973961  45.3126504  15.2295576
  72.5797203  44.5177910  15.0082332  73.0260121  45.7907091  15.2500637
  72.4463524  45.2661101  15.1998591  70.2755154  32.8549538  12.4711341
  69.9458484  33.3060681  11.8015040  69.6000156  32.7765701  13.0184348
  70.1265591  32.9100673  12.4534564  64.2687632  48.4557540  12.4329502
  63.7855211  49.1808029  12.4089085  65.0810951  48.7533670  12.5439660
  64.3178380  48.6059893  12.4456781  70.3401787  47.2489720  15.0379316
  69.8228728  46.8897135  14.4340624  71.0376178  46.7251895  15.0485382
  70.3667368  47.1187408  14.9509575  73.9965378  47.6984534  20.9995489
  74.0848724  47.5110675  21.8473700  74.4255091  47.0521964  20.6000336
  74.0727481  47.5747542  21.0667241  71.5635838  46.9815694  19.9813152
  71.0006673  46.5688304  20.5052813  72.3256862  46.9068600  20.4006295
  71.5930287  46.9093095  20.1206152  68.4811109  30.9161826   7.9534289
  69.2357077  31.2840143   7.7151339  68.3038643  31.2901381   8.7213468
  68.5665587  31.0260014   8.0319177  67.1231830  48.9713715  12.5849782
  67.8252409  48.4565705  12.6422538  67.0429313  49.2987867  13.3896657
  67.2155590  48.9427942  12.7122574  68.1710736  39.2089302  21.7130197
  68.3431240  39.0995197  22.5615478  68.7080094  39.8543708  21.4761389
  68.2755740  39.2881304  21.8035294  66.8368173  33.3232145   4.6512402
  66.6543746  33.5404026   3.8253395  67.6993786  33.4371158   4.7071016
  66.9372763  33.3722043   4.5366889  66.4482605  45.1620067  12.0935390
  67.2871505  45.3943000  12.1409151  66.4794374  44.2924379  12.0242425
  66.5764323  45.0677014  12.0900034  67.0735308  45.5820943  16.3948695
  67.6133533  45.4392074  17.0652068  66.3905254  45.9817693  16.7632722
  67.0527462  45.6200614  16.5483117  76.4976193  41.2611943  11.5893720
  77.2533708  41.6943458  11.6282628  76.6038517  40.6116713  12.1628356
  76.6246364  41.2289427  11.6791745  74.1085438  47.1293553  23.6639273
  74.8925854  47.2424401  24.0295015  73.9082032  46.3034690  23.8597959
  74.1951463  47.0240273  23.7473659  62.4772453  41.8021233  16.5483117
  62.2110868  40.9860350  16.7074107  62.4911017  41.8474389  15.6778632
  62.4397176  41.6878138  16.4436599  66.3830200  36.6006318   3.1634875
  65.6688377  36.3144497   3.5757307  66.8674169  36.9402944   3.8041262
  66.3489564  36.6087968   3.3190510  67.2271060  35.3399612  19.1950125
  66.5342856  34.8696591  19.4410856  67.8431387  35.1137916  19.7691832
  67.2155590  35.2366744  19.3159277  74.2655831  49.0403655  17.3105729
  73.4671077  48.8003155  17.5679597  74.7141843  49.0918048  18.0572776
  74.2130442  49.0126047  17.4590653  62.8865867  42.5880013  13.8294861
  62.7041440  42.5626899  12.9767153  63.6215536  43.0578951  13.8683770
  62.9679931  42.6541375  13.7092780  65.9511619  39.3065016  20.3376970
  66.6751591  39.2918046  20.8241864  66.0527755  40.0160371  19.8398938
  66.0729828  39.4089719  20.3355757  73.3256568  42.7864100  25.2025917
  72.5329549  43.1007612  25.3878536  73.4405495  43.0015569  24.3646701
  73.2251979  42.8647937  25.1064251  75.9987887  39.5098091   9.4920933
  76.0934741  40.2487386   9.9460558  75.3746730  39.0815567   9.9255497
  75.9196917  39.5559412   9.6229080  74.2540361  42.6884304  20.1411213
  74.8279222  42.0511548  20.2959777  74.1755164  42.6888387  19.2720871
  74.3273596  42.5949415  20.0357624  62.8536777  39.4673514  13.9793928
  63.4310280  39.3309964  14.6186173  62.1550839  39.0109298  14.2339512
  62.8357799  39.3795780  14.1116217  69.6104079  41.1207569  12.1932411
  69.3523324  40.2879304  12.1663710  69.6652562  41.3465182  11.3524911
  69.5803857  41.0305340  12.0652548  74.6905130  33.2236020  12.2936504
  73.9861456  32.7345205  12.4520423  74.7390104  33.2358494  11.4224948
  74.5935181  33.1525668  12.1875843  68.5838792  38.6745332  12.6797306
  68.0088383  38.8337500  13.3161267  68.2074468  38.0380741  12.2165756
  68.4441604  38.6043145  12.7051864  72.2512080  37.1468681  17.5389684
  71.8626513  36.7222899  16.8841875  71.5866779  37.3950831  18.0466711
  72.0959008  37.1207402  17.5177552  58.3295610  38.3185406  10.6941746
  58.4155862  37.9417275  11.4755276  58.9571408  37.9445852  10.2161704
  58.4352161  38.2070889  10.7387224  76.0738442  30.8443310  15.0513668
  76.4548953  30.1621481  15.4381542  75.2701726  30.5552912  14.8689333
  76.0114903  30.7010358  15.0817724  69.2258927  44.8488803  10.8638803
  69.8632874  44.6100551  11.4090596  69.6513998  45.0525962  10.1291964
  69.3835093  44.8439813  10.8355960  63.9171569  47.0877140  14.7473107
  63.9575714  47.3591991  13.9192886  64.4766093  47.6119048  15.1630895
  64.0054915  47.2052895  14.6864995  69.8661742  40.0691093   5.2013692
  70.2506894  39.8498799   5.9530238  69.6173362  40.8954038   5.3314769
  69.8863814  40.1589239   5.3314769  70.0330282  33.3497508  24.9176277
  69.7183723  34.1197071  24.6545839  69.7120215  32.7867764  24.3328504
  69.9389201  33.3807777  24.7917627  71.6080399  45.3261226  12.5432589
  71.6819407  45.1636397  13.3974439  72.4249905  45.5151415  12.2993071
  71.7396757  45.3297968  12.6330615  65.3686155  45.6719088   9.5727033
  64.5424273  45.9180826   9.4461312  65.4298147  45.5931169  10.4389091
  65.2560322  45.6964037   9.6815977  67.5862179  31.7388029  10.5322473
  66.7184605  31.8110629  10.5980082  67.8737383  32.5410108  10.7210448
  67.5001927  31.8682177  10.5697240  76.7095068  31.8865889  18.8633795
  77.4548660  31.6975699  18.4497220  76.2932372  32.4124127  18.3047651
  76.7580042  31.9368034  18.7198368  70.7379730  43.0913715  18.3599193
  70.2391423  43.8029482  18.4384082  71.5479954  43.4114381  18.3217356
  70.7835836  43.2440563  18.3655762  68.0890900  50.2663351  10.3406212
  67.8691195  49.9760706  11.1332879  67.8685422  49.6078306   9.8124125
  68.0238494  50.1263059  10.3795121  67.0007847  42.3536668  12.6061914
  66.7121096  41.7274139  13.1407641  67.8691195  42.2956955  12.6726595
  67.0868099  42.2524212  12.6952869  77.7885745  37.4971451  12.9243896
  77.4450511  36.7761786  13.2751146  77.8878787  37.2885302  12.0822254
  77.7527788  37.3595654  12.8515576  67.2040121  43.9931919   8.5304279
  67.9586089  44.3744958   8.7439742  66.6110733  44.4443062   8.9850976
  67.2276834  44.1160746   8.6287158  69.6646788  35.9494759  23.6561492
  68.8546563  36.2552539  23.5451334  70.1421474  36.6700341  23.7714076
  69.6150266  36.1009360  23.6568563  68.5238347  45.1640480  13.9044395
  68.0019101  45.3040772  14.5896259  68.9112367  44.4051144  14.0946512
  68.5042048  45.0726004  14.0345471  65.5129531  35.2146289   7.9739349
  65.2254327  34.8447559   7.2371297  66.1999999  35.6841144   7.7123054
  65.5718428  35.2293258   7.8254425  69.9504673  42.1944499   9.3025886
  69.7547455  42.8019234   8.7086189  70.1739018  41.5012443   8.8217560
  69.9539314  42.1822025   9.1441966  68.3483203  39.0799237   9.4206754
  69.0705855  39.2440395   8.9610560  67.8691196  39.8008902   9.3146094
  68.3846933  39.2097467   9.3372368  76.3076710  35.4163036  14.8003439
  75.4687811  35.4424315  14.5641702  76.3781078  36.0633771  15.3808786
  76.1945104  35.5159162  14.8512556  65.9990819  41.4857309  18.5260894
  66.5111916  41.7641563  17.8769654  65.7127162  42.2246603  18.8923707
  66.0325683  41.6359663  18.4850772  63.0857726  35.9927501   8.8224630
  63.1873862  36.7953663   9.1505606  63.8813613  35.7914837   8.5247711
  63.2185631  36.0813400   8.8259986  69.5174545  33.5783698  18.5861935
  69.3257742  33.5938832  19.4361359  70.3673141  33.7747372  18.5628590
  69.6150267  33.6098049  18.7085230  63.9021458  36.1074679  16.5645752
  63.7606950  35.2558620  16.6890260  64.1862021  36.1503340  15.7407958
  63.9229304  35.9874429  16.4613376  74.0560050  37.9441770  10.7090240
  73.8094765  37.8637521  11.5427029  74.3845173  37.1595237  10.5152768
  74.0681294  37.8168035  10.8037763  77.9508099  44.6525129  14.4977021
  77.8122458  45.3506175  15.0025764  77.1708097  44.4973785  14.1413203
  77.8151326  44.7325296  14.5203296  76.2886184  40.9521504  20.7499403
  76.2834223  40.0801321  20.7541830  76.9947178  41.1509673  20.2768859
  76.3931188  40.8525378  20.6806438  70.0157078  40.6798488  20.1213223
  70.1600453  41.2599696  19.4856333  70.3632726  41.0574785  20.8263078
  70.0884539  40.8219192  20.1312218  72.1876995  39.8788657  17.9038355
  71.4400309  40.0719671  17.4986633  72.3418520  39.0533876  17.6662476
  72.0999422  39.7853768  17.8083761  69.0884832  48.8701260  16.9874250
  69.2374396  48.3104176  16.3347655  69.8684835  48.9493262  17.3706769
  69.2258926  48.7986826  16.9471199  71.6138133  49.0415903  18.2658741
  71.5381804  48.3724713  18.8209529  71.5427992  49.7433691  18.7799407
  71.5918740  49.0460810  18.4235589  72.4278772  33.7739207  18.7933759
  72.8851386  34.5063182  18.9206551  72.5035101  33.3505673  19.5521014
  72.5069742  33.8196445  18.9234835  64.6711763  34.0205027  19.8823202
  64.1353953  33.4085385  20.1983970  64.7329528  34.5953163  20.5356869
  64.6007396  34.0151955  20.0258629  70.3061150  35.7641311  15.6375583
  69.5157225  35.5832771  15.9592918  70.7021773  34.9868264  15.6205877
  70.2478026  35.6228772  15.6828131  75.6904836  43.3983741  13.3635029
  75.0149838  43.1668974  13.8648416  75.6997212  42.7904924  12.7377134
  75.5923341  43.2742667  13.3451181  72.8198980  38.2401570  20.1199082
  72.7558121  39.1011527  19.9919218  72.9596168  37.9233564  19.3194633
  72.8314450  38.3201737  19.9827294  71.5018074  40.9333710  14.2615284
  71.0780323  41.1338209  13.5254303  71.3262929  40.0862558  14.3739584
  71.4128955  40.8382491  14.1688975  71.0029767  52.4484223  16.7236742
  71.4925698  51.7495012  16.5412406  70.4314000  52.1508093  17.3112799
  70.9914297  52.3010446  16.7837783  66.7900519  41.4285761   9.6943257
  66.9465138  41.3632564  10.5499249  67.1301112  42.2034314   9.4821937
  66.8633754  41.5334959   9.7897851  73.3279664  40.8043645   8.5636620
  73.8695209  40.3014026   9.0275241  73.6426223  40.7508839   7.7526105
  73.4544061  40.7223066   8.5120432  77.1996771  45.0146292  25.6763532
  78.0131636  44.7431441  25.8368665  77.0391737  44.7153832  24.8723728
  77.2966719  44.9301218  25.5808938  74.4768933  35.6979949  18.6158921
  74.6910903  35.0590863  18.0622275  73.8602832  36.1425773  18.1866782
  74.4174262  35.6690093  18.4709352  63.3634780  38.6120712  10.0104024
  63.7433745  39.0305257   9.3464291  62.7890145  39.1934167  10.3172867
  63.3346105  38.7598570   9.9580765  76.6408021  37.3069014  19.5542228
  75.8284703  36.9994905  19.6355400  77.0997956  36.8268015  20.1184940
  76.5888406  37.1905507  19.6496822  73.8683662  28.8079885  13.6046263
  72.9977220  28.7818606  13.5579573  74.1224003  28.6357077  12.7872109
  73.7777222  28.7790029  13.4766400  73.7361528  38.7129086  24.3370930
  74.2061160  39.3371202  24.7238804  73.7823409  38.0446061  24.8964145
  73.8129404  38.7063766  24.4771001  70.8932802  30.8186113  15.0619734
  70.3771291  30.1266305  15.1871313  70.3326731  31.4856890  15.0082333
  70.7339315  30.8149371  15.0725800  72.9625036  31.3579073  16.8912586
  72.5756789  31.3828105  17.6726116  72.4757973  30.7920752  16.4387103
  72.8337544  31.2774824  16.9400490  77.2118015  46.0752582  20.9486373
  77.8497735  45.5812778  20.6148829  76.5692107  46.0029983  20.3638600
  77.2112242  45.9911591  20.8128728  78.9375015  37.9241728  15.5152289
  78.5102623  37.8368077  14.7600388  78.3001068  38.0319504  16.1007133
  78.7804622  37.9274388  15.4897730  72.6282177  28.2446059  19.1822846
  73.2575295  28.7806359  18.9043917  72.7968040  28.1523418  20.0336412
  72.7459972  28.3107421  19.2671374  72.4296092  33.0317254  21.4549258
  73.2569521  32.7602402  21.5107872  72.4503938  33.8278095  21.8113076
  72.5548942  33.1097008  21.5164441  77.2672272  46.7672391  17.5891730
  78.0564650  46.4161455  17.7093811  77.4415869  47.5808779  17.3268364
  77.4092553  46.8358248  17.5679598  67.0065582  40.1781116  14.6419519
  66.1653589  40.0784991  14.8498412  67.2155590  40.9476597  14.9933839
  66.9130275  40.2773160  14.7246833  64.4841149  37.8000653  12.4704269
  64.0897847  37.8743665  11.6954379  63.9281266  38.1858600  13.0212631
  64.3443961  37.8682428  12.4371929  76.1206096  30.7781947  12.1508148
  76.3255689  30.7104255  12.9965145  75.7932520  31.5840769  12.0829326
  76.1021344  30.8867888  12.2667803  70.8182247  38.1062516  13.8917116
  70.5145384  37.5518504  14.4927524  70.1161668  38.2854726  13.4045150
  70.6698457  38.0507298  13.9086822  69.8748344  35.4163035   8.4561818
  70.1508078  34.6981948   8.0439385  70.4747013  36.0147955   8.2482924
  70.0041609  35.3983406   8.3642579  68.8800598  45.3212236  18.5989214
  68.7720953  45.3314298  19.4651272  69.0896379  46.1467017  18.4094168
  68.8950709  45.4453311  18.6993305  66.8974390  42.5724879  16.0611151
  66.3062323  43.2134377  16.0314167  67.6595413  42.9962496  16.0342451
  66.9222650  42.7300717  16.0526299  67.2935013  33.7326876  16.7279169
  67.7536494  33.8065806  17.4654293  67.3391119  34.5308130  16.3778990
  67.3685568  33.8621023  16.7851926  68.9418362  34.3993571  21.2951196
  68.5503928  33.7526918  21.7306974  69.1104225  34.9905007  21.9145452
  68.9089273  34.3907839  21.4513902  76.6563906  48.0234190  13.4943176
  76.4583595  48.5125005  12.7999387  76.0351617  48.2275432  14.0727309
  76.5351471  48.1250728  13.4766399  70.7171884  39.7919087   7.8353420
  71.4613929  40.1793363   8.0736370  70.8632581  38.9476512   7.9993908
  70.8482470  39.7249560   7.8947390  72.6351460  31.5869346  12.8685282
  71.7887505  31.7592154  12.7426631  72.6322592  30.7818690  13.2051110
  72.5098610  31.4930375  12.8996409  73.7049760  35.3644560  13.7347339
  73.2309715  34.8386322  14.2452650  74.0767896  34.8174033  13.1662201
  73.6899649  35.2060557  13.7262487  64.0822790  37.3616067  19.1030885
  64.9448403  37.2611776  19.0168215  63.7514573  36.7810776  18.5416457
  64.1607987  37.2607694  19.0076291  67.4424576  36.1858516  15.7641303
  66.8177647  36.1976908  15.1567256  67.1070171  36.6618691  16.4132544
  67.3010068  36.2577033  15.7697872  67.6266325  34.5283635   1.8213988
  67.2779129  35.1803360   2.2845538  67.1462771  34.5140748   1.0937860
  67.5036569  34.6226688   1.7825080  64.1550252  44.2458976  17.2045068
  63.6250176  43.5551415  17.2540042  64.4275345  44.2369161  16.3757776
  64.1174974  44.1426108  17.0892484  74.3556498  41.6882221  17.1783439
  73.7413491  41.1440271  17.4732075  74.8723782  41.1746457  16.6989255
  74.3412160  41.5318630  17.1507668  73.5952795  42.7586491  14.9127738
  73.1680403  42.1336209  14.4793173  73.5877739  42.4761413  15.7386745
  73.5311936  42.6239271  14.9707566  66.7115322  37.7951664  17.9816172
  66.8708809  37.0394988  18.3867894  66.5308215  38.3442603  18.6356910
  66.7080681  37.7645478  18.1378878  74.6535625  29.9612899  18.5366961
  74.1576186  30.1576574  17.8458528  75.4104687  30.3605568  18.3655763
  74.6922449  30.0490633  18.4087098  71.9238504  33.6355245  15.1270272
  71.9480992  33.1015358  14.4383052  72.1749978  33.1272554  15.7895863
  71.9648423  33.4816149  15.1234917  59.4346094  40.9186740  14.5613416
  59.3289543  40.8733585  13.6965500  58.6846314  41.2640521  14.8427701
  59.3081697  40.9627648  14.4750746  68.2039827  32.3626064  14.5076016
  68.2438198  32.8635270  15.2210724  67.3789491  32.4536457  14.2381939
  68.0879353  32.4507880  14.5726555  70.3869440  41.9286804  22.6096311
  69.5365070  42.0658518  22.7453956  70.5497567  41.1950582  23.0544013
  70.2853303  41.8400905  22.6951910  69.6254190  38.8786573  16.8049915
  68.7946120  39.0460391  16.5985163  69.5705707  38.5022524  17.5898801
  69.4943605  38.8476305  16.8898443  67.4337973  32.3695466  22.4406326
  68.0590677  31.8257599  22.7135758  66.9788453  31.8890384  21.8714116
  67.4586234  32.2184948  22.3967920  67.9990234  37.1542165   7.3340033
  68.1393195  37.6514629   8.0368674  68.4972767  36.4528459   7.4754247
  68.0931315  37.1244144   7.4591612  68.0290456  38.0209276   4.6632610
  68.6635536  38.6169701   4.5982072  68.1116067  37.7212734   5.4778480
  68.1347007  38.0650184   4.7735696  69.6069439  33.9523251   4.6378052
  69.9285280  33.4726334   3.9837314  69.8696383  34.7622897   4.4468863
  69.6935464  34.0013149   4.5133544  72.8366412  44.9742126  18.1576868
  72.3291503  45.5277973  18.6017498  72.5393058  45.0350416  17.3395642
  72.7171297  45.0648437  18.1025325  75.0028594  33.3395445  17.0001531
  75.4283666  32.8867972  16.3885057  74.3885587  32.7855516  17.2766318
  74.9757239  33.1909422  16.9506556  64.5343444  40.2177117   7.9322156
  65.0435673  40.8141624   8.3133461  65.0077716  39.9503090   7.2498575
  64.6786820  40.2662932   7.8876679  73.4422817  29.8110545  10.4092108
  72.7991135  29.6608191  10.9777246  73.1022224  29.5652890   9.6441213
  73.2967894  29.7522668  10.3795123  78.0322163  37.7669972   9.8322116
  77.3613353  38.3099674   9.7035182  78.7261914  38.2364827   9.5903811
  78.0351031  37.9168243   9.7777644  72.0808897  49.9066684  15.0633875
  71.8574552  49.1485513  15.4317901  71.5918740  49.9364705  14.3414314
  71.9752346  49.7988908  15.0110616  78.1950291  34.2225856  12.7412490
  78.5477901  33.7955579  13.4158288  77.3365092  34.1376699  12.8713566
  78.1199735  34.1470596  12.8607500  66.8933976  36.8533375  10.7995336
  66.1745965  37.2697508  11.0668200  67.2646338  37.4187614  10.2486974
  66.8425908  36.9982657  10.7578143  76.1933557  37.4861224  16.6897332
  76.1731484  37.3044519  17.5432111  76.2412757  38.3573243  16.6656916
  76.1968198  37.5877762  16.8120627  74.1379887  44.0748416  22.6145809
  74.0975741  43.4298093  22.0290964  74.9503205  44.0185034  22.9271221
  74.2523040  43.9707383  22.5742758  70.7287354  50.1267142  12.5170959
  70.3147753  49.4641272  12.1274801  71.4134728  50.2745001  11.9966654
  70.7685726  50.0507800  12.3827457  74.0952648  49.2857227  13.2694576
  73.6968931  49.3959498  12.5015396  73.4803868  49.4939294  13.8521136
  73.9451537  49.3330795  13.2425875  72.6680550  35.8931375   6.1368716
  72.0745389  36.2148372   5.5853283  72.7055828  35.0472471   5.9289822
  72.5854939  35.8155703   6.0251487  75.5438367  35.8510880   9.5670466
  75.3152060  35.8743581   8.7248824  75.8036443  35.0268347   9.6865476
  75.5484555  35.7326960   9.4595664  69.8257595  37.7045353  19.1695566
  69.3136498  37.0966536  19.5280598  69.6537091  38.4201945  19.6369542
  69.7247232  37.7208652  19.2911790  64.6723310  36.1482928  21.8197928
  64.5025900  36.8084303  21.2746135  64.2289260  36.3589489  22.5410417
  64.5822644  36.2768910  21.8459557  68.5983129  34.3887426  10.8624662
  69.0740496  34.7504506  10.2274843  68.0971729  35.0443894  11.1424804
  68.5948488  34.5381615  10.8101403  73.7026666  35.6269597  21.6097822
  74.2598096  35.3983407  20.9776287  73.3787731  36.3875263  21.3333034
  73.7373076  35.7053434  21.4754319  61.5725374  39.0529794  17.0786418
  61.0252094  38.3830439  17.1967286  62.3617753  38.6859641  17.1429885
  61.6077558  38.8994780  17.1055118  71.4209783  38.7137251  22.5749829
  72.1721110  39.0288928  22.8889383  71.6132359  38.5116422  21.7483751
  71.5601197  38.7304632  22.4993225  70.6409782  36.5328626   4.2298046
  71.0208747  36.5508255   3.4449160  69.9002378  36.9782615   4.1088893
  70.5878620  36.6010400   4.0961614  60.3312344  38.2650601  14.2332441
  60.1534105  37.8127210  14.9587356  60.0431366  39.0676763  14.4170918
  60.2625297  38.3173159  14.3675944  75.9935925  39.5208319  13.4709831
  76.4889590  38.8031314  13.4313851  75.1835701  39.2179116  13.3564318
  75.9479818  39.3705965  13.4483557  62.0684814  40.7978325  11.3454200
  61.2030333  40.7864016  11.2336971  62.1683630  40.6108548  12.1925339
  61.9558981  40.7684386  11.4543144  78.0587744  42.2712006  16.1586960
  78.4842815  41.7486428  15.6057385  77.6944664  42.8692844  15.6375583
  78.0674346  42.2822233  15.9995970  67.6941824  50.5676224  14.9184305
  68.0088383  51.3812612  14.9262087  68.1035237  50.1826442  15.5866465
  67.8009922  50.6304926  15.0188397  74.6466343  45.9846271  12.4888117
  75.1177522  46.6986533  12.6578103  74.9826522  45.3845021  13.0247987
  74.7661458  46.0017735  12.5920493  76.7343328  47.5947584  24.6680189
  76.8440293  46.8056145  25.0236937  77.0634225  47.5053520  23.8654528
  76.7995734  47.4653437  24.6022580  71.5635838  30.7573741  19.4446212
  71.6963744  29.9604735  19.7727188  71.9480991  31.2840144  20.0244488
  71.6392167  30.7173658  19.5789715  75.2840290  45.7764205  19.2515810
  74.7361236  45.1522088  18.9835875  75.7453318  45.9658477  18.5359889
  75.2707499  45.7123255  19.1066241  74.6368193  27.6804067  16.0427305
  73.8314157  27.5701797  16.3595144  74.5074929  27.7816523  15.1857171
  74.4988326  27.6787737  15.9635346  78.0934154  33.8449559  16.6367002
  77.5097143  34.3458766  16.2244570  78.4138448  33.3379115  16.0031326
  78.0547329  33.8441394  16.4825510  70.6328953  32.7590154   6.9125677
  71.4544648  32.9288467   6.6707372  70.1698604  32.9137415   6.1891975
  70.6860115  32.8071887   6.7697321  69.2224285  30.7532916  17.6924106
  69.7668698  30.4124043  18.2828448  69.2761221  31.6118378  17.8345390
  69.3113404  30.8288176  17.8005979  65.0354844  44.5149332  14.5662914
  65.6399701  44.4745166  13.9376735  64.8282156  45.3620484  14.5966970
  65.0943741  44.6337335  14.4779030  74.8498616  46.7815277  15.7825151
  75.6696990  46.6378243  16.0441446  74.5692694  47.4061476  16.3241589
  74.9295359  46.8525629  15.9013091  60.2706126  43.4983950  14.4361837
  60.1730404  42.6880221  14.7451894  61.0534996  43.4775743  14.0508105
  60.3722263  43.3751040  14.4248700  75.7062112  54.8095189  16.3001172
  75.5820809  55.3957635  16.9350991  76.3580396  54.3155385  16.6013447
  75.7835761  54.8233993  16.4387102  73.4505037  57.3206541  16.5483117
  73.1843452  56.5045658  16.7074107  73.4643601  57.3659697  15.6778632
  73.4129759  57.2063446  16.4436599  78.2003643  50.8584920  19.1950125
  77.5075440  50.3881899  19.4410856  78.8163970  50.6323224  19.7691832
  78.1888173  50.7552051  19.3159277  76.9244202  54.8250324  20.3376970
  77.6484174  54.8103354  20.8241864  77.0260339  55.5345679  19.8398938
  77.0462411  54.9275027  20.3355757  76.9723403  57.0042617  18.5260894
  77.4844500  57.2826871  17.8769654  76.6859746  57.7431911  18.8923707
  77.0058266  57.1544971  18.4850772  74.8754041  51.6259987  16.5645752
  74.7339533  50.7743928  16.6890260  75.1594605  51.6688648  15.7407958
  74.8961888  51.5059737  16.4613376  75.6444347  49.5390335  19.8823202
  75.1086536  48.9270693  20.1983970  75.7062111  50.1138471  20.5356869
  75.5739979  49.5337263  20.0258629  78.2667596  49.2512184  16.7279169
  78.7269078  49.3251114  17.4654293  78.3123703  50.0493438  16.3778990
  78.3418152  49.3806331  16.7851926  75.0555374  52.8801375  19.1030885
  75.9180987  52.7797084  19.0168215  74.7247157  52.2996084  18.5416457
  75.1340570  52.7793002  19.0076291  78.4157160  51.7043824  15.7641303
  77.7910230  51.7162216  15.1567256  78.0802755  52.1803999  16.4132544
  78.2742652  51.7762341  15.7697872  77.6847905  53.3136972  17.9816172
  77.8441392  52.5580296  18.3867894  77.5040799  53.8627911  18.6356910
  77.6813264  53.2830786  18.1378878  75.6455894  51.6668236  21.8197928
  75.4758484  52.3269611  21.2746135  75.2021843  51.8774797  22.5410417
  75.5555227  51.7954218  21.8459557  72.5457958  54.5715102  17.0786418
  71.9984677  53.9015747  17.1967286  73.3350336  54.2044949  17.1429885
  72.5810142  54.4180088  17.1055118  71.3044927  53.7835909  14.2332441
  71.1266689  53.3312518  14.9587356  71.0163950  54.5862071  14.4170918
  71.2357881  53.8358467  14.3675944   4.8364659  45.7585851  47.6713248
   4.8058664  46.6130488  47.8431517   5.4346008  45.4581144  48.2299391
   4.9201817  45.8402348  47.7788050   1.3458061  51.1148028  62.0326634
   2.0524828  50.6200059  62.1613569   1.5345996  51.5557109  61.3029292
   1.4785966  51.1066378  61.9435680   0.8816165  46.9053546  55.0697830
   1.4272125  47.5838633  55.1291799   0.8233041  46.7641007  54.2099411
   0.9532079  46.9845548  54.9509890   2.6581234  48.3338153  45.9431557
   2.5420760  49.0845839  46.3723696   3.4537120  48.0762106  46.1927644
   2.7585823  48.4073000  46.0435649   1.9716539  35.6826091  49.6406172
   1.6569980  36.3729569  50.0726594   1.4543480  35.6270873  48.9391672
   1.8481009  35.7760979  49.6003121   1.3128972  45.6830592  45.7543582
   0.7840444  45.8990225  46.4140889   1.8353992  46.3766730  45.6744552
   1.3117425  45.8173729  45.8399182   6.7677025  51.2576896  51.1276627
   5.9374728  51.4687540  51.2910043   6.7186278  50.4313951  50.8518910
   6.6383761  51.1666502  51.1113992   6.2630984  43.9047297  54.9227048
   5.4259405  43.9749484  55.1574643   6.2319215  43.9071792  54.0501351
   6.1349266  43.9157524  54.8286596   0.9861169  48.1002973  50.5138940
   1.7418684  48.5334488  50.5527848   1.0923494  47.4507743  51.0873576
   1.1131340  48.0680457  50.6036965   4.0241341  51.9276251  51.2641343
   3.5876572  51.9312993  52.0200314   3.6904256  52.6081749  50.8320920
   3.9103961  52.0288706  51.3122175   3.9438823  38.9690078  53.5070771
   4.5864732  39.0388183  54.0932686   4.1961844  38.3019301  53.0050312
   4.0760956  38.8816427  53.5198050   7.1585687  48.6457170  50.1560980
   7.8202121  48.0847839  50.0556888   6.5177099  48.1509201  50.4813671
   7.1614554  48.4893579  50.1893320   3.4450517  49.6622553  49.8972969
   3.6806107  49.8067752  49.0699819   3.5940081  50.4264961  50.2904482
   3.5016321  49.7961607  49.8336573   5.2740974  48.5024219  47.7342572
   5.6049191  49.0351859  47.1282667   5.8474062  48.5563106  48.3904523
   5.4074653  48.5893788  47.7420354   6.3820326  43.7434716  49.2382734
   6.1256891  42.9314657  49.0480617   7.2249640  43.7512283  49.0112921
   6.4686351  43.6246713  49.1767551   4.0645485  50.8984312  59.0741287
   3.8284122  50.0672376  58.9553347   4.7088714  50.8469919  59.6596131
   4.1240156  50.7682000  59.1427180   5.0881906  50.6828760  55.1369581
   4.7827723  51.4156817  55.4982897   4.3688121  50.2766690  54.8562367
   4.9369248  50.7310493  55.1482718  10.7883698  47.3221761  54.4637925
  10.7208198  47.3417720  53.5940512  10.7739360  48.1652088  54.6893596
  10.7762454  47.4495496  54.3690402   1.1980044  38.7256919  57.7879015
   1.9433636  38.5366729  57.3742440   0.7817349  39.2515157  57.2292871
   1.2465019  38.7759064  57.6443588   8.5742315  46.0966147  52.7384520
   9.1250237  45.4634216  52.9781612   8.5586431  46.6281540  53.4300024
   8.6527511  46.0815095  52.8763378   2.2770721  44.3362481  51.8489116
   1.9335487  43.6152816  52.1996366   2.3763764  44.1276332  51.0067474
   2.2412764  44.1986684  51.7760796   2.7383750  50.7988185  47.3913104
   3.3041783  51.4581395  47.3071647   2.0911654  51.1437883  47.8629506
   2.7262507  50.9470126  47.4485861   4.6719211  47.4622052  51.0109901
   4.5853185  47.6177479  51.8644680   4.2169691  48.1060128  50.6369306
   4.5922467  47.5797808  51.0817007   2.4393075  51.4916159  53.4222241
   2.3007435  52.1897205  53.9270984   1.6593073  51.3364815  53.0658423
   2.3036302  51.5716326  53.4448516   0.7771161  47.7912534  59.6744623
   0.7719199  46.9192351  59.6787050   1.4832154  47.9900703  59.2014079
   0.8816165  47.6916408  59.6051659   3.9346448  50.8494413  44.1838741
   3.5553257  50.0631551  44.1768030   3.2712694  51.3981270  44.0410385
   3.7804923  50.8139237  44.1619538   1.3891074  33.7920112  51.5872822
   1.5074642  34.2496576  50.8540124   1.2153250  32.9865374  51.3009039
   1.3810245  33.7413885  51.4373755   2.1806547  53.0939904  44.5190427
   2.2626385  53.9006890  44.1951877   2.6656289  53.1135863  45.2431200
   2.2643705  53.2160566  44.5777325   1.6881747  51.8537322  64.6008752
   2.5016613  51.5822471  64.7613885   1.5276714  51.5544862  63.7968948
   1.7851696  51.7692248  64.5054158   1.7002991  52.9143612  59.8731593
   2.3382712  52.4203808  59.5394049   1.0577083  52.8421013  59.2883820
   1.6997218  52.8302621  59.7373948   3.4259991  44.7632758  54.4397509
   2.9987600  44.6759107  53.6845608   2.7886044  44.8710534  55.0252353
   3.2689599  44.7665418  54.4142950   1.7557248  53.6063421  56.5136950
   2.5449626  53.2552485  56.6339031   1.9300846  54.4199809  56.2513584
   1.8977530  53.6749278  56.4924818   3.8624760  38.1704742  50.5556134
   3.2499073  38.6575144  50.9409865   3.9588935  37.4948232  51.0993785
   3.7862658  38.1423050  50.6934992   7.5049788  49.2421678  55.9833650
   7.5632912  49.6908327  56.7293626   6.8716255  49.6520491  55.5463730
   7.4201083  49.3695413  56.0286198   4.4571467  47.2637966  54.0699340
   4.2169690  46.4244381  54.0741766   4.9363474  47.3438133  54.7940114
   4.4923651  47.1519366  54.1774142   6.4576654  44.0439423  52.0228599
   6.2186424  44.0035257  51.1849384   6.6210556  44.8910575  52.1494320
   6.4466958  44.1631508  51.9182081   3.0622684  48.4289372  57.9533644
   3.7856883  47.9761899  57.7744664   2.7972647  48.7094038  57.1705972
   3.1303958  48.4040341  57.8112360   5.4957998  47.3915783  56.4564194
   6.0875839  48.0313034  56.4882392   5.9316993  46.6938820  56.7456261
   5.6476430  47.3834134  56.5045027   2.5207140  44.6061002  48.7567337
   1.8498330  45.1490704  48.6280402   3.2146890  45.0755857  48.5149031
   2.5236007  44.7559273  48.7022864   2.6835267  41.0616886  51.6657710
   3.0362877  40.6346608  52.3403508   1.8250069  40.9767729  51.7958786
   2.6084712  40.9861626  51.7852720   4.1159327  36.1835297  52.5942022
   3.6090192  35.4764437  52.5263200   4.9126761  35.8528486  52.7243099
   4.1586567  36.0308449  52.6041017   6.3179467  50.7000224  45.5782887
   6.7013073  51.4491580  45.8080984   5.5223581  50.9466044  45.3194876
   6.2573250  50.8469918  45.5740460   2.7580049  41.6801847  48.7418844
   2.7574276  41.5250504  49.6003121   2.5536229  42.5264834  48.6860230
   2.7279827  41.7822468  48.8606784   2.5472720  49.1103036  55.0832180
   2.9727792  48.5877458  54.5302605   2.1829640  49.7083874  54.5620803
   2.5559323  49.1213263  54.9241190   2.5819130  40.6840589  55.5612222
   1.9982119  41.1849796  55.1489790   2.9023424  40.1770145  54.9276546
   2.5432306  40.6832424  55.4070730  15.8097243  61.2771159  47.6713248
  15.7791247  62.1315796  47.8431517  16.4078592  60.9766452  48.2299391
  15.8934401  61.3587656  47.7788050   9.0096928  60.3646810  52.4266178
   8.1534823  60.5255308  52.4775295   9.0564581  59.4938874  52.4471239
   8.8896039  60.2597612  52.4372244  12.3190644  66.6333336  62.0326634
  13.0257411  66.1385366  62.1613569  12.5078580  67.0742417  61.3029292
  12.4518550  66.6251686  61.9435680  11.8548749  62.4238854  55.0697830
  12.4004709  63.1023941  55.1291799  11.7965625  62.2826315  54.2099411
  11.9264663  62.5030856  54.9509890  13.6313817  63.8523461  45.9431557
  13.5153343  64.6031147  46.3723696  14.4269704  63.5947414  46.1927644
  13.7318407  63.9258308  46.0435649   5.5144143  67.8417484  47.2300900
   5.8359984  68.3822691  46.6262208   6.1616239  67.2714256  47.3623190
   5.6570198  67.8376659  47.1607935   7.5645851  59.8433479  47.3135287
   8.2626016  60.0221607  47.8056750   7.8798183  59.3203818  46.6905676
   7.7141188  59.7927251  47.2937297   7.7533786  66.2303924  47.3015078
   8.1927422  65.6221025  47.7469851   7.6038449  65.8511297  46.5300543
   7.7955252  66.0842395  47.2534245   5.2205429  64.8247936  54.5033904
   5.8654432  64.3320379  54.1844852   5.4607206  64.9672723  55.3299982
   5.3516014  64.7725378  54.5783437   7.7591521  67.6702842  54.1540796
   8.0414763  66.8754248  53.9327552   8.4877681  68.1483429  54.1745857
   7.9081084  67.6237439  54.1243811   5.7372714  55.2125876  51.3956561
   5.4076044  55.6637019  50.7260260   5.0617716  55.1342039  51.9429568
   5.5883151  55.2677011  51.3779784  11.3543123  64.5831105  44.2545847
  11.2694418  65.4392072  44.3995416  11.8427506  64.3075429  44.9228006
  11.4132020  64.6688427  44.3747929  12.9449122  51.2011399  49.6406172
  12.6302563  51.8914877  50.0726594  12.4276064  51.1456181  48.9391672
  12.8213593  51.2946287  49.6003121  12.2861556  61.2015900  45.7543582
  11.7573027  61.4175533  46.4140889  12.8086576  61.8952038  45.6744552
  12.2850009  61.3359036  45.8399182  17.7409609  66.7762204  51.1276627
  16.9107312  66.9872848  51.2910043  17.6918861  65.9499259  50.8518910
  17.6116344  66.6851810  51.1113992   4.1761164  65.0979116  44.5551050
   3.5918379  65.6029148  44.9616914   3.7731259  64.8721503  43.8147642
   4.0300468  65.1387365  44.5056076   9.4582938  70.0560872  59.9240709
   9.5466284  69.8687013  60.7718920   9.8872651  69.4098302  59.5245556
   9.5345041  69.9323880  59.9912461   8.6338378  61.3444768  43.0319971
   8.8734382  61.5522752  42.2195314   8.9554219  60.5402277  43.1408915
   8.7175536  61.2558870  42.9280524   3.9428669  53.2738164  46.8779509
   4.6974637  53.6416481  46.6396559   3.7656203  53.6477719  47.6458688
   4.0283147  53.3836352  46.9564397  17.2363567  59.4232605  54.9227048
  16.3991988  59.4934792  55.1574643  17.2051798  59.4257099  54.0501351
  17.1081850  59.4342832  54.8286596   3.6328296  61.5665640  60.6375417
   3.8048800  61.4571535  61.4860698   4.1697654  62.2120046  60.4006609
   3.7373300  61.6457642  60.7280514   2.2985733  55.6808483  43.5757622
   2.1161306  55.8980364  42.7498615   3.1611346  55.7947496  43.6316236
   2.3990323  55.7298381  43.4612109   1.9100165  67.5196405  51.0180610
   2.7489065  67.7519338  51.0654371   1.9411934  66.6500717  50.9487645
   2.0381883  67.4253352  51.0145254   7.9785452  52.6834894  46.6106646
   8.7071613  52.5050849  46.1644802   8.0680345  53.5252974  46.8213824
   8.0992114  52.7818772  46.5760163  11.9593753  63.6188281  50.5138940
  12.7151268  64.0519796  50.5527848  12.0656077  62.9693051  51.0873576
  12.0863924  63.5865765  50.6036965  14.9973924  67.4461558  51.2641343
  14.5609156  67.4498301  52.0200314  14.6636840  68.1267057  50.8320920
  14.8836544  67.5474014  51.3122175  14.9171407  54.4875386  53.5070771
  15.5597315  54.5573491  54.0932686  15.1694428  53.8204609  53.0050312
  15.0493539  54.4001735  53.5198050   1.8447760  58.9582656  42.0880095
   1.1305937  58.6720835  42.5002527   2.3291729  59.2979282  42.7286482
   1.8107124  58.9664305  42.2435730   2.6888620  57.6975950  58.1195345
   1.9960416  57.2272929  58.3656076   3.3048947  57.4714254  58.6937052
   2.6773150  57.5943081  58.2404497  18.1318270  64.1642478  50.1560980
  18.7934704  63.6033147  50.0556888  17.4909682  63.6694509  50.4813671
  18.1347138  64.0078887  50.1893320   9.0195078  67.4612610  42.4641903
   9.4346227  67.1297634  41.7726399   8.1887008  67.2281512  42.3362040
   8.9583087  67.3783866  42.3432751  14.4183101  65.1807861  49.8972969
  14.6538690  65.3253060  49.0699819  14.5672665  65.9450269  50.2904482
  14.4748904  65.3146915  49.8336573   1.4129179  61.6641354  59.2622190
   2.1369151  61.6494384  59.7487084   1.5145315  62.3736709  58.7644158
   1.5347388  61.7666057  59.2600977  16.2473558  64.0209527  47.7342572
  16.5781775  64.5537167  47.1282667  16.8206646  64.0748414  48.3904523
  16.3807237  64.1079095  47.7420354  11.4605447  61.8674429  48.4166153
  11.5552301  62.6063723  48.8705778  10.8364290  61.4391905  48.8500717
  11.3814477  61.9135750  48.5474300   9.7157921  65.0460642  59.0656433
  10.2896782  64.4087886  59.2204997   9.6372724  65.0464724  58.1966091
   9.7891156  64.9525753  58.9602844  11.7128468  63.7123169  41.6503105
  11.6308631  63.7825356  42.5158092  12.3508189  64.2752913  41.4586845
  11.7948306  63.8062140  41.7493054   5.0721639  63.4783907  51.1177631
   4.8140884  62.6455642  51.0908930   5.1270122  63.7041520  50.2770131
   5.0421417  63.3881678  50.9897768  10.1522690  55.5812358  51.2181724
   9.4479016  55.0921543  51.3765643  10.2007664  55.5934832  50.3470168
  10.0552741  55.5102006  51.1121063   4.0456352  61.0321670  51.6042526
   3.4705943  61.1913838  52.2406487   3.6692028  60.3957079  51.1410976
   3.9059164  60.9619482  51.6297084   7.7129640  59.5045019  56.4634904
   7.3244073  59.0799237  55.8087095   7.0484339  59.7527168  56.9711931
   7.5576568  59.4783740  56.4422772  17.3552909  59.2620024  49.2382734
  17.0989474  58.4499965  49.0480617  18.1982223  59.2697591  49.0112921
  17.4418935  59.1432021  49.1767551  11.5356002  53.2019648  53.9758888
  11.9166513  52.5197819  54.3626762  10.7319286  52.9129250  53.7934553
  11.4732463  53.0586696  54.0062944   8.8168578  63.7343623  44.6611711
   9.6309217  64.0258516  44.5494482   8.7527720  63.0803486  44.0870004
   8.9271317  63.6808818  44.5600548  15.0378069  66.4169620  59.0741287
  14.8016706  65.5857684  58.9553347  15.6821298  66.3655227  59.6596131
  15.0972739  66.2867308  59.1427180   4.6876487  67.2065141  49.7884023
   5.3250434  66.9676888  50.3335816   5.1131558  67.4102300  49.0537184
   4.8452653  67.2016151  49.7601180   5.3279302  62.4267431  44.1258912
   5.7124454  62.2075137  44.8775458   5.0790922  63.2530376  44.2559989
   5.3481374  62.5165577  44.2559989   5.4947842  55.7073846  63.8421497
   5.1801283  56.4773409  63.5791059   5.1737775  55.1444102  63.2573724
   5.4006761  55.7384115  63.7162847  16.0614489  66.2014068  55.1369581
  15.7560306  66.9342125  55.4982897  15.3420705  65.7951998  54.8562367
  15.9101832  66.2495801  55.1482718   7.0697959  67.6837564  51.4677809
   7.1436967  67.5212735  52.3219659   7.8867465  67.8727753  51.2238291
   7.2014317  67.6874306  51.5575835  21.7616281  62.8407069  54.4637925
  21.6940782  62.8603028  53.5940512  21.7471944  63.6837396  54.6893596
  21.7495038  62.9680804  54.3690402   3.0479739  54.0964367  49.4567693
   2.1802165  54.1686967  49.5225302   3.3354943  54.8986446  49.6455668
   2.9619487  54.2258514  49.4942460  12.1712628  54.2442227  57.7879015
  12.9166220  54.0552037  57.3742440  11.7549932  54.7700465  57.2292871
  12.2197602  54.2944372  57.6443588  19.5474899  61.6151455  52.7384520
  20.0982820  60.9819524  52.9781612  19.5319014  62.1466848  53.4300024
  19.6260095  61.6000403  52.8763378   6.1997290  65.4490052  57.2844413
   5.7008983  66.1605820  57.3629302   7.0097514  65.7690719  57.2462576
   6.2453396  65.6016901  57.2900982   2.4625407  64.7113005  51.5307134
   2.1738656  64.0850477  52.0652861   3.3308755  64.6533293  51.5971815
   2.5485659  64.6100550  51.6198089  13.2503305  59.8547789  51.8489116
  12.9068071  59.1338124  52.1996366  13.3496347  59.6461640  51.0067474
  13.2145348  59.7171992  51.7760796   2.6657681  66.3508257  47.4549499
   3.4203649  66.7321296  47.6684962   2.0728293  66.8019400  47.9096196
   2.6894394  66.4737084  47.5532378  13.7116334  66.3173493  47.3913104
  14.2774367  66.9766703  47.3071647  13.0644237  66.6623191  47.8629506
  13.6995090  66.4655434  47.4485861   5.1264348  58.3071097  62.5806712
   4.3164123  58.6128877  62.4696554   5.6039034  59.0276679  62.6959296
   5.0767826  58.4585698  62.5813783   3.9855907  67.5216818  52.8289615
   3.4636661  67.6617110  53.5141479   4.3729927  66.7627482  53.0191732
   3.9659608  67.4302342  52.9590691   0.9747091  57.5722627  46.8984569
   0.6871887  57.2023897  46.1616517   1.6617559  58.0417482  46.6368274
   1.0335988  57.5869596  46.7499645  10.1822912  69.2612277  46.8150183
   9.9409588  68.5280138  46.4077248  10.3624245  69.8099134  46.1616517
  10.1730536  69.2334668  46.6580406   5.4122233  64.5520837  48.2271106
   5.2165015  65.1595571  47.6331409   5.6356578  63.8588781  47.7462780
   5.4156874  64.5398362  48.0687186   3.8100763  61.4375575  48.3451974
   4.5323415  61.6016733  47.8855780   3.3308756  62.1585240  48.2391314
   3.8464493  61.5673804  48.2617588  11.7694270  57.7739374  53.7248659
  10.9305371  57.8000653  53.4886922  11.8398638  58.4210109  54.3054006
  11.6562664  57.8735499  53.7757776  10.2163549  54.6724751  48.4576275
  10.9189901  54.4732499  47.9796233   9.9507737  53.9000693  48.7645118
  10.2810181  54.5287717  48.4321716  15.6451794  62.9807360  51.0109901
  15.5585769  63.1362786  51.8644680  15.1902274  63.6245436  50.6369306
  15.5655051  63.0983115  51.0817007   4.9792105  55.9360036  57.5107155
   4.7875302  55.9515170  58.3606579   5.8290701  56.1323710  57.4873810
   5.0767827  55.9674387  57.6330450   9.5177610  60.3018108  49.6335460
   9.2712325  60.2213858  50.4672249   9.8462733  59.5171575  49.4397988
   9.5298854  60.1744373  49.7282983  13.4125659  67.0101467  53.4222241
  13.2740018  67.7082513  53.9270984  12.6325657  66.8550123  53.0658423
  13.2768886  67.0901633  53.4448516  11.7503744  63.3097842  59.6744623
  11.7451783  62.4377659  59.6787050  12.4564738  63.5086011  59.2014079
  11.8548748  63.2101716  59.6051659   5.4774638  63.0374826  59.0458443
   5.6218013  63.6176034  58.4101553   5.8250286  63.4151123  59.7508298
   5.5502099  63.1795530  59.0557438   7.6494555  62.2364994  56.8283575
   6.9017869  62.4296009  56.4231853   7.8036080  61.4110214  56.5907696
   7.5616982  62.1430106  56.7328981  14.9079032  66.3679721  44.1838741
  14.5285841  65.5816859  44.1768030  14.2445277  66.9166578  44.0410385
  14.7537507  66.3324545  44.1619538   7.8896332  56.1315545  57.7178979
   8.3468946  56.8639520  57.8451771   7.9652661  55.7082010  58.4766234
   7.9687302  56.1772783  57.8480055  12.3623658  49.3105420  51.5872822
  12.4807226  49.7681884  50.8540124  12.1885834  48.5050682  51.3009039
  12.3542829  49.2599193  51.4373755   5.7678710  58.1217649  54.5620803
   4.9774785  57.9409109  54.8838138   6.1639333  57.3444602  54.5451097
   5.7095586  57.9805110  54.6073351  10.2544601  66.9505423  40.0027516
  11.0217586  67.0105548  39.5933368   9.8075910  66.3785865  39.5183835
  10.3018028  66.8741999  39.8705227  11.1522396  65.7560079  52.2880249
  10.4767398  65.5245312  52.7893636  11.1614772  65.1481262  51.6622354
  11.0540901  65.6319004  52.2696401   8.2816540  60.5977908  59.0444302
   8.2175681  61.4587865  58.9164438   8.4213728  60.2809901  58.2439853
   8.2932010  60.6778075  58.9072514  13.1539131  68.6125212  44.5190427
  13.2358968  69.4192198  44.1951877  13.6388873  68.6321171  45.2431200
  13.2376289  68.7345874  44.5777325   6.9635634  63.2910048  53.1860504
   6.5397883  63.4914547  52.4499523   6.7880489  62.4438896  53.2984804
   6.8746515  63.1958829  53.0934195   2.2518079  63.7862099  48.6188477
   2.4082698  63.7208902  49.4744469   2.5918672  64.5610652  48.4067157
   2.3251314  63.8911297  48.7143071   8.7897224  63.1619983  47.4881840
   9.3312769  62.6590364  47.9520461   9.1043783  63.1085177  46.6771325
   8.9161621  63.0799404  47.4365652  12.6614331  67.3722630  64.6008752
  13.4749196  67.1007779  64.7613885  12.5009297  67.0730170  63.7968948
  12.7584279  67.2877556  64.5054158   6.9583673  68.5537334  44.7721868
   7.0276494  67.6951873  44.9114869   7.7372128  68.7709215  44.4440893
   7.0836523  68.4590198  44.7439026   9.9386493  58.0556287  57.5404141
  10.1528463  57.4167201  56.9867495   9.3220392  58.5002111  57.1112002
   9.8791822  58.0266431  57.3954572  12.1025581  59.6645352  58.4787448
  11.2902263  59.3571243  58.5600620  12.5615516  59.1844352  59.0430160
  12.0505966  59.5481845  58.5742042  11.5130836  67.5425024  48.9264392
  11.1545490  67.7139667  49.7028425  11.0269546  68.0038230  48.3692391
  11.3889533  67.6363995  48.9589661   9.3301222  51.1656223  52.5291483
   8.4594780  51.1394944  52.4824793   9.5841563  50.9933415  51.7117329
   9.2394782  51.1366366  52.4011620   6.3019201  63.2224190  41.4664626
   6.5911726  63.9989072  41.7408201   6.3891000  62.7112921  42.1679126
   6.3573457  63.2616108  41.6107124   9.1979088  61.0705424  63.2616150
   9.6678720  61.6947540  63.6484024   9.2440969  60.4022399  63.8209365
   9.2746964  61.0640104  63.4016221   6.3550362  53.1762451  53.9864954
   5.8388851  52.4842643  54.1116533   5.7944291  53.8433228  53.9327553
   6.1956875  53.1725709  53.9971020   8.4242596  53.7155411  55.8157806
   8.0374349  53.7404443  56.5971336   7.9375533  53.1497090  55.3632323
   8.2955104  53.6351162  55.8645710  12.6735575  68.4328920  59.8731593
  13.3115296  67.9389116  59.5394049  12.0309667  68.3606321  59.2883820
  12.6729802  68.3487929  59.7373948  14.3992575  60.2818066  54.4397509
  13.9720183  60.1944415  53.6845608  13.7618628  60.3895842  55.0252353
  14.2422182  60.2850726  54.4142950   8.0899737  50.6022397  58.1068066
   8.7192855  51.1382697  57.8289137   8.2585600  50.5099756  58.9581632
   8.2077532  50.6683759  58.1916594   7.8913652  55.3893591  60.3794478
   8.7187082  55.1178740  60.4353092   7.9121498  56.1854433  60.7358296
   8.0166502  55.4673346  60.4409661  12.7289832  69.1248729  56.5136950
  13.5182210  68.7737793  56.6339031  12.9033429  69.9385117  56.2513584
  12.8710113  69.1934586  56.4924818   2.4683142  62.5357454  53.5664739
   1.6271149  62.4361328  53.7743632   2.6773150  63.3052935  53.9179059
   2.3747835  62.6349498  53.6492053  11.5823656  53.1358285  51.0753368
  11.7873249  53.0680593  51.9210365  11.2550080  53.9417106  51.0074546
  11.5638904  53.2444226  51.1913023   6.2799807  60.4638853  52.8162336
   5.9762944  59.9094842  53.4172744   5.5779228  60.6431063  52.3290370
   6.1316017  60.4083636  52.8332042   5.3365904  57.7739373  47.3807038
   5.6125638  57.0558286  46.9684605   5.9364573  58.3724293  47.1728144
   5.4659169  57.7559744  47.2887799  14.8357343  53.6890049  50.5556134
  14.2231657  54.1760452  50.9409865  14.9321518  53.0133540  51.0993785
  14.7595241  53.6608358  50.6934992   8.8376424  55.4452891  45.6553633
   9.2920171  55.6163451  46.3801477   9.3116470  54.8321001  45.2551409
   8.9744745  55.3803776  45.7027395   2.3591950  64.9301217  54.9856371
   1.7679883  65.5710715  54.9559387   3.1212973  65.3538834  54.9587671
   2.3840210  65.0877055  54.9771519   2.7552573  56.0903214  55.6524389
   3.2154054  56.1642144  56.3899513   2.8008679  56.8884468  55.3024210
   2.8303128  56.2197361  55.7097146   4.4035922  56.7569909  60.2196416
   4.0121488  56.1103256  60.6552194   4.5721785  57.3481344  60.8390672
   4.3706833  56.7484177  60.3759122  18.4782371  64.7606986  55.9833650
  18.5365495  65.2093635  56.7293626  17.8448839  65.1705799  55.5463730
  18.3933667  64.8880721  56.0286198  12.1181466  70.3810528  52.4188396
  11.9201155  70.8701343  51.7244607  11.4969177  70.5851770  52.9972529
  11.9969031  70.4827066  52.4011619   6.1789444  62.1495425  46.7598640
   6.9231489  62.5369701  46.9981590   6.3250141  61.3052850  46.9239128
   6.3100030  62.0825898  46.8192610   8.0969020  53.9445684  51.7930502
   7.2505065  54.1168492  51.6671851   8.0940152  53.1395028  52.1296330
   7.9716170  53.8506713  51.8241629   9.1667320  57.7220898  52.6592560
   8.6927275  57.1962660  53.1697870   9.5385456  57.1750371  52.0907421
   9.1517209  57.5636895  52.6507707  15.4304051  62.7823274  54.0699340
  15.1902274  61.9429689  54.0741766  15.9096058  62.8623441  54.7940114
  15.4656235  62.6704674  54.1774142  11.0950820  58.6157453  45.7218313
  10.5673839  58.6986197  45.0324022  11.5546528  59.3575324  45.7182958
  11.0852670  58.7378115  45.6193008  17.4309238  59.5624731  52.0228599
  17.1919008  59.5220565  51.1849384  17.5943139  60.4095883  52.1494320
  17.4199541  59.6816816  51.9182081  14.0355268  63.9474680  57.9533644
  14.7589467  63.4947207  57.7744664  13.7705230  64.2279346  57.1705972
  14.1036541  63.9225649  57.8112360   2.9042136  58.5434854  54.6886523
   2.2795207  58.5553246  54.0812476   2.5687731  59.0195029  55.3377764
   2.7627628  58.6153371  54.6943092   3.0883885  56.8859972  40.7459208
   2.7396689  57.5379698  41.2090758   2.6080331  56.8717085  40.0183080
   2.9654129  56.9803026  40.7070300  10.6487902  67.1861016  44.8527970
  11.3722101  67.6519129  44.7092544  10.2088493  67.2534626  44.1025567
  10.6903595  67.2644853  44.7212752   9.8174058  64.0458559  56.1028659
   9.2031051  63.5016609  56.3977295  10.3341342  63.5322795  55.6234475
   9.8029720  63.8894968  56.0752888   9.0570355  65.1162829  53.8372958
   8.6297963  64.4912547  53.4038393   9.0495299  64.8337751  54.6631965
   8.9929496  64.9815609  53.8952786   2.1732882  60.1528002  56.9061392
   2.3326369  59.3971326  57.3113114   1.9925775  60.7018941  57.5602130
   2.1698241  60.1221816  57.0624098  10.1153185  52.3189237  57.4612181
   9.6193746  52.5152912  56.7703748  10.8722247  52.7181906  57.2900983
  10.1540009  52.4066971  57.3332318   7.3856064  55.9931583  54.0515492
   7.4098552  55.4591696  53.3628272   7.6367538  55.4848892  54.7141083
   7.4265983  55.8392487  54.0480137   3.6657387  54.7202401  53.4321236
   3.7055758  55.2211608  54.1455944   2.8407051  54.8112795  53.1627159
   3.5496913  54.8084218  53.4971775   5.0871750  61.2362911  55.7295135
   4.2563680  61.4036729  55.5230383   5.0323267  60.8598862  56.5144021
   4.9561165  61.2052643  55.8143663   2.8955533  54.7271804  61.3651546
   3.5208237  54.1833937  61.6380978   2.4406013  54.2466722  60.7959336
   2.9203794  54.5761286  61.3213140   3.4607794  59.5118503  46.2585253
   3.6010755  60.0090967  46.9613894   3.9590327  58.8104797  46.3999467
   3.5548875  59.4820482  46.3836832   3.4908016  60.3785614  43.5877830
   4.1253096  60.9746039  43.5227292   3.5733627  60.0789071  44.4023700
   3.5964567  60.4226522  43.6980916  16.4690582  62.9101091  56.4564194
  17.0608422  63.5498342  56.4882392  16.9049577  62.2124128  56.7456261
  16.6209013  62.9019442  56.5045027   5.0686999  56.3099589  43.5623272
   5.3902840  55.8302672  42.9082534   5.3313943  57.1199235  43.3714083
   5.1553024  56.3589487  43.4378764   8.2983972  67.3318464  57.0822088
   7.7909063  67.8854310  57.5262718   8.0010618  67.3926754  56.2640862
   8.1788857  67.4224775  57.0270545  10.4646154  55.6971783  55.9246751
  10.8901226  55.2444310  55.3130277   9.8503147  55.1431854  56.2011538
  10.4374799  55.5485759  55.8751776   8.9040377  52.1686883  49.3337328
   8.2608695  52.0184529  49.9022466   8.5639784  51.9229228  48.5686433
   8.7585454  52.1099006  49.3040343  13.4939723  60.1246310  48.7567337
  12.8230913  60.6676012  48.6280402  14.1879474  60.5941165  48.5149031
  13.4968591  60.2744581  48.7022864  13.6567851  56.5802193  51.6657710
  14.0095461  56.1531916  52.3403508  12.7982652  56.4953037  51.7958786
  13.5817295  56.5046934  51.7852720   2.3551536  59.2109713  49.7240556
   1.6363525  59.6273846  49.9913420   2.7263898  59.7763952  49.1732194
   2.3043468  59.3558995  49.6823363  11.6551117  59.8437562  55.6142552
  11.6349044  59.6620857  56.4677331  11.7030317  60.7149581  55.5902136
  11.6585758  59.9454100  55.7365847   9.5997447  66.4324754  61.5391029
   9.5593301  65.7874431  60.9536184  10.4120765  66.3761371  61.8516441
   9.7140600  66.3283721  61.4987978  15.0891911  51.7020605  52.5942022
  14.5822776  50.9949745  52.5263200  15.8859345  51.3713794  52.7243099
  15.1319150  51.5493757  52.6041017  11.0055927  58.2087218  48.4915686
  10.7769620  58.2319919  47.6494044  11.2654003  57.3844685  48.6110697
  11.0102115  58.0903298  48.3840884   5.2875155  60.0621691  58.0940786
   4.7754058  59.4542874  58.4525818   5.1154651  60.7778283  58.5614762
   5.1864792  60.0784990  58.2157010  17.2912051  66.2185532  45.5782887
  17.6745657  66.9676888  45.8080984  16.4956164  66.4651352  45.3194876
  17.2305833  66.3655226  45.5740460   9.1644226  57.9845935  60.5343042
   9.7215656  57.7559745  59.9021507   8.8405291  58.7451601  60.2578254
   9.1990636  58.0629772  60.3999539   6.8827343  61.0713589  61.4995049
   7.6338670  61.3865265  61.8134603   7.0749919  60.8692759  60.6728971
   7.0218757  61.0880970  61.4238445   6.1027342  58.8904964  43.1543266
   6.4826307  58.9084593  42.3694380   5.3619938  59.3358953  43.0334113
   6.0496180  58.9586738  43.0206834  13.7312633  57.1987155  48.7418844
  13.7306859  57.0435811  49.6003121  13.5268813  58.0450142  48.6860230
  13.7012411  57.3007776  48.8606784  11.4553485  61.8784657  52.3955051
  11.9507150  61.1607652  52.3559071  10.6453261  61.5755454  52.2809538
  11.4097378  61.7282303  52.3728777   6.9012097  65.7282470  44.5452056
   6.0923419  65.4049143  44.4985365   7.4087005  65.0215692  44.4780304
   6.8561763  65.5763786  44.5282350  13.5205304  64.6288344  55.0832180
  13.9460375  64.1062766  54.5302605  13.1562224  65.2269182  54.5620803
  13.5291906  64.6398571  54.9241190  10.1083903  68.3422608  51.4133337
  10.5795082  69.0562871  51.5823323  10.4444082  67.7421359  51.9493207
  10.2279018  68.3594073  51.5165713   7.0253398  53.1150079  58.3691432
   7.1581304  52.3181072  58.6972408   7.4098551  53.6416482  58.9489708
   7.1009727  53.0749996  58.5034935  10.7457850  68.1340543  58.1761030
  10.1978796  67.5098426  57.9081095  11.2070878  68.3234815  57.4605109
  10.7325059  68.0699593  58.0311461  10.0985753  50.0380405  54.9672525
   9.2931717  49.9278135  55.2840364   9.9692489  50.1392861  54.1102391
   9.9605886  50.0364075  54.8880566  13.5551714  56.2025897  55.5612222
  12.9714703  56.7035104  55.1489790  13.8756008  55.6955453  54.9276546
  13.5164889  56.2017732  55.4070730   6.0946513  55.1166492  45.8370897
   6.9162208  55.2864805  45.5952592   5.6316164  55.2713753  45.1137195
   6.1477675  55.1648225  45.6942541   4.6841845  53.1109254  56.6169326
   5.2286258  52.7700381  57.2073668   4.7378781  53.9694716  56.7590611
   4.7730964  53.1864513  56.7251199  10.3116176  69.1391615  54.7070371
  11.1314550  68.9954581  54.9686666  10.0310254  69.7637814  55.2486809
  10.3912919  69.2101967  54.8258311  16.7105298  70.7311184  51.3956561
  16.3808628  71.1822327  50.7260260  16.0350300  70.6527347  51.9429568
  16.5615734  70.7862319  51.3779784  23.9181706  66.7196707  49.6406172
  23.6035147  67.4100185  50.0726594  23.4008647  66.6641489  48.9391672
  23.7946176  66.8131595  49.6003121  14.9161252  68.7923472  46.8779509
  15.6707220  69.1601789  46.6396559  14.7388787  69.1663026  47.6458688
  15.0015730  68.9021660  46.9564397  28.2096151  74.9417913  54.9227048
  27.3724572  75.0120100  55.1574643  28.1784382  74.9442407  54.0501351
  28.0814433  74.9528140  54.8286596  13.2718317  71.1993791  43.5757622
  13.0893890  71.4165672  42.7498615  14.1343930  71.3132804  43.6316236
  13.3722906  71.2483689  43.4612109  18.9518036  68.2020202  46.6106646
  19.6804196  68.0236157  46.1644802  19.0412929  69.0438282  46.8213824
  19.0724698  68.3004080  46.5760163  25.8903991  70.0060694  53.5070771
  26.5329899  70.0758799  54.0932686  26.1427011  69.3389917  53.0050312
  26.0226123  69.9187043  53.5198050  21.1255273  71.0997666  51.2181724
  20.4211600  70.6106851  51.3765643  21.1740247  71.1120140  50.3470168
  21.0285325  71.0287314  51.1121063  28.3285493  74.7805331  49.2382734
  28.0722058  73.9685273  49.0480617  29.1714807  74.7882899  49.0112921
  28.4151518  74.6617329  49.1767551  22.5088585  68.7204956  53.9758888
  22.8899097  68.0383127  54.3626762  21.7051870  68.4314558  53.7934553
  22.4465047  68.5772004  54.0062944  16.4680426  71.2259154  63.8421497
  16.1533867  71.9958717  63.5791059  16.1470358  70.6629410  63.2573724
  16.3739345  71.2569422  63.7162847  14.0212323  69.6149675  49.4567693
  13.1534748  69.6872275  49.5225302  14.3087527  70.4171754  49.6455668
  13.9352071  69.7443822  49.4942460  23.1445211  69.7627535  57.7879015
  23.8898803  69.5737345  57.3742440  22.7282516  70.2885773  57.2292871
  23.1930186  69.8129680  57.6443588  30.5207482  77.1336763  52.7384520
  31.0715404  76.5004832  52.9781612  30.5051598  77.6652156  53.4300024
  30.5992679  77.1185711  52.8763378  24.2235889  75.3733097  51.8489116
  23.8800654  74.6523432  52.1996366  24.3228931  75.1646948  51.0067474
  24.1877931  75.2357300  51.7760796  22.7426854  73.2924682  53.7248659
  21.9037955  73.3185960  53.4886922  22.8131221  73.9395417  54.3054006
  22.6295247  73.3920807  53.7757776  21.1896132  70.1910059  48.4576275
  21.8922485  69.9917807  47.9796233  20.9240321  69.4186001  48.7645118
  21.2542764  70.0473025  48.4321716  15.9524688  71.4545344  57.5107155
  15.7607885  71.4700478  58.3606579  16.8023284  71.6509018  57.4873810
  16.0500410  71.4859695  57.6330450  18.8628915  71.6500853  57.7178979
  19.3201530  72.3824827  57.8451771  18.9385244  71.2267318  58.4766234
  18.9419885  71.6958091  57.8480055  23.3356241  64.8290728  51.5872822
  23.4539810  65.2867192  50.8540124  23.1618417  64.0235990  51.3009039
  23.3275412  64.7784500  51.4373755  20.9119077  73.5741595  57.5404141
  21.1261046  72.9352509  56.9867495  20.2952976  74.0187419  57.1112002
  20.8524406  73.5451739  57.3954572  23.0758165  75.1830660  58.4787448
  22.2634846  74.8756551  58.5600620  23.5348099  74.7029660  59.0430160
  23.0238549  75.0667153  58.5742042  20.3033805  66.6841531  52.5291483
  19.4327363  66.6580252  52.4824793  20.5574146  66.5118723  51.7117329
  20.2127365  66.6551674  52.4011620  17.3282946  68.6947759  53.9864954
  16.8121434  68.0027951  54.1116533  16.7676875  69.3618536  53.9327553
  17.1689459  68.6911017  53.9971020  19.3975179  69.2340719  55.8157806
  19.0106932  69.2589751  56.5971336  18.9108116  68.6682398  55.3632323
  19.2687688  69.1536470  55.8645710  19.0632321  66.1207705  58.1068066
  19.6925439  66.6568005  57.8289137  19.2318184  66.0285064  58.9581632
  19.1810115  66.1869067  58.1916594  18.8646236  70.9078899  60.3794478
  19.6919665  70.6364048  60.4353092  18.8854082  71.7039741  60.7358296
  18.9899086  70.9858654  60.4409661  22.5556239  68.6543593  51.0753368
  22.7605833  68.5865901  51.9210365  22.2282663  69.4602414  51.0074546
  22.5371487  68.7629534  51.1913023  25.8089927  69.2075357  50.5556134
  25.1964241  69.6945760  50.9409865  25.9054102  68.5318848  51.0993785
  25.7327825  69.1793666  50.6934992  19.8109008  70.9638199  45.6553633
  20.2652755  71.1348759  46.3801477  20.2849054  70.3506309  45.2551409
  19.9477328  70.8989084  45.7027395  19.0701603  69.4630992  51.7930502
  18.2237649  69.6353800  51.6671851  19.0672736  68.6580336  52.1296330
  18.9448753  69.3692021  51.8241629  20.1399904  73.2406206  52.6592560
  19.6659858  72.7147968  53.1697870  20.5118040  72.6935679  52.0907421
  20.1249793  73.0822203  52.6507707  22.0683404  74.1342761  45.7218313
  21.5406422  74.2171505  45.0324022  22.5279112  74.8760632  45.7182958
  22.0585254  74.2563423  45.6193008  28.4041821  75.0810039  52.0228599
  28.1651591  75.0405873  51.1849384  28.5675723  75.9281191  52.1494320
  28.3932125  75.2002124  51.9182081  21.0885768  67.8374545  57.4612181
  20.5926330  68.0338219  56.7703748  21.8454830  68.2367214  57.2900983
  21.1272593  67.9252279  57.3332318  18.3588648  71.5116891  54.0515492
  18.3831135  70.9777003  53.3628272  18.6100122  71.0034200  54.7141083
  18.3998567  71.3577795  54.0480137  14.6389970  70.2387709  53.4321236
  14.6788342  70.7396916  54.1455944  13.8139635  70.3298103  53.1627159
  14.5229496  70.3269526  53.4971775  13.8688117  70.2457112  61.3651546
  14.4940820  69.7019245  61.6380978  13.4138597  69.7652030  60.7959336
  13.8936377  70.0946593  61.3213140  16.0419583  71.8284897  43.5623272
  16.3635424  71.3487980  42.9082534  16.3046526  72.6384543  43.3714083
  16.1285608  71.8774795  43.4378764  21.4378738  71.2157091  55.9246751
  21.8633809  70.7629618  55.3130277  20.8235731  70.6617162  56.2011538
  21.4107383  71.0671067  55.8751776  19.8772960  67.6872191  49.3337328
  19.2341278  67.5369837  49.9022466  19.5372367  67.4414536  48.5686433
  19.7318038  67.6284313  49.3040343  24.6300434  72.0987501  51.6657710
  24.9828045  71.6717224  52.3403508  23.7715236  72.0138345  51.7958786
  24.5549879  72.0232242  51.7852720  26.0624495  67.2205913  52.5942022
  25.5555359  66.5135053  52.5263200  26.8591928  66.8899102  52.7243099
  26.1051734  67.0679065  52.6041017  21.9788510  73.7272526  48.4915686
  21.7502203  73.7505227  47.6494044  22.2386587  72.9029993  48.6110697
  21.9834698  73.6088605  48.3840884  24.7045217  72.7172463  48.7418844
  24.7039443  72.5621119  49.6003121  24.5001397  73.5635450  48.6860230
  24.6744994  72.8193084  48.8606784  17.9985982  68.6335387  58.3691432
  18.1313887  67.8366380  58.6972408  18.3831135  69.1601790  58.9489708
  18.0742311  68.5935304  58.5034935  21.0718337  65.5565713  54.9672525
  20.2664301  65.4463443  55.2840364  20.9425073  65.6578169  54.1102391
  20.9338470  65.5549383  54.8880566  24.5284298  71.7211205  55.5612222
  23.9447286  72.2220411  55.1489790  24.8488592  71.2140761  54.9276546
  24.4897473  71.7203040  55.4070730  17.0679097  70.6351800  45.8370897
  17.8894791  70.8050113  45.5952592  16.6048748  70.7899061  45.1137195
  17.1210259  70.6833533  45.6942541  15.6574429  68.6294562  56.6169326
  16.2018842  68.2885689  57.2073668  15.7111364  69.4880024  56.7590611
  15.7463548  68.7049821  56.7251199   4.5315483  22.6963982  34.6053294
   4.5009487  23.5508619  34.7771564   5.1296832  22.3959275  35.1639438
   4.6152641  22.7780479  34.7128097   1.0408885  28.0526159  48.9666681
   1.7475652  27.5578190  49.0953615   1.2296820  28.4935240  48.2369339
   1.1736790  28.0444509  48.8775726   2.3532058  25.2716284  32.8771604
   2.2371584  26.0223970  33.3063742   3.1487944  25.0140238  33.1267691
   2.4536647  25.3451131  32.9775696   1.6667363  12.6204222  36.5746219
   1.3520804  13.3107700  37.0066641   1.1494304  12.5649004  35.8731719
   1.5431833  12.7139110  36.5343168   6.4627849  28.1955027  38.0616674
   5.6325552  28.4065671  38.2250090   6.4137102  27.3692082  37.7858957
   6.3334585  28.1044634  38.0454039   5.9581808  20.8425428  41.8567095
   5.1210229  20.9127615  42.0914689   5.9270039  20.8449923  40.9841397
   5.8300090  20.8535655  41.7626643   0.6811993  25.0381104  37.4478986
   1.4369508  25.4712619  37.4867895   0.7874318  24.3885874  38.0213622
   0.8082164  25.0058588  37.5377012   3.7192165  28.8654382  38.1981389
   3.2827396  28.8691124  38.9540361   3.3855080  29.5459881  37.7660967
   3.6054784  28.9666837  38.2462222   3.6389647  15.9068209  40.4410817
   4.2815556  15.9766314  41.0272733   3.8912668  15.2397432  39.9390359
   3.7711780  15.8194558  40.4538097   6.8536511  25.5835302  37.0901027
   7.5152945  25.0225970  36.9896935   6.2127923  25.0887332  37.4153718
   6.8565378  25.4271711  37.1233367   3.1401341  26.6000684  36.8313015
   3.3756931  26.7445883  36.0039866   3.2890905  27.3643092  37.2244529
   3.1967145  26.7339738  36.7676619   4.9691798  25.4402350  34.6682619
   5.3000015  25.9729990  34.0622714   5.5424886  25.4941238  35.3244570
   5.1025477  25.5271919  34.6760401   6.0771150  20.6812847  36.1722781
   5.8207715  19.8692788  35.9820664   6.9200464  20.6890414  35.9452968
   6.1637175  20.5624844  36.1107598   3.7596309  27.8362443  46.0081333
   3.5234946  27.0050508  45.8893394   4.4039538  27.7848050  46.5936178
   3.8190980  27.7060131  46.0767227   4.7832730  27.6206892  42.0709628
   4.4778547  28.3534948  42.4322944   4.0638945  27.2144821  41.7902414
   4.6320072  27.6688625  42.0822765  10.4834522  24.2599892  41.3977972
  10.4159022  24.2795851  40.5280559  10.4690184  25.1030219  41.6233643
  10.4713278  24.3873627  41.3030449   8.2693139  23.0344278  39.6724567
   8.8201061  22.4012347  39.9121659   8.2537254  23.5659671  40.3640071
   8.3478335  23.0193227  39.8103425   1.9721545  21.2740612  38.7829163
   1.6286311  20.5530947  39.1336413   2.0714588  21.0654463  37.9407521
   1.9363588  21.1364815  38.7100843   2.4334574  27.7366316  34.3253151
   2.9992607  28.3959526  34.2411694   1.7862478  28.0816014  34.7969553
   2.4213331  27.8848258  34.3825907   4.3670035  24.4000184  37.9449948
   4.2804009  24.5555610  38.7984726   3.9120514  25.0438259  37.5709353
   4.2873291  24.5175939  38.0157054   2.1343899  28.4294290  40.3562288
   1.9958259  29.1275336  40.8611031   1.3543897  28.2742947  39.9998470
   1.9987126  28.5094457  40.3788562   3.6297272  27.7872544  31.1178787
   3.2504081  27.0009682  31.1108077   2.9663518  28.3359401  30.9750432
   3.4755747  27.7517368  31.0959584   1.8757371  30.0318035  31.4530473
   1.9577208  30.8385021  31.1291924   2.3607113  30.0513994  32.1771247
   1.9594529  30.1538697  31.5117372   1.3832571  28.7915453  51.5348799
   2.1967437  28.5200602  51.6953932   1.2227538  28.4922993  50.7308995
   1.4802520  28.7070379  51.4394205   1.3953815  29.8521743  46.8071640
   2.0333536  29.3581939  46.4734096   0.7527907  29.7799144  46.2223867
   1.3948042  29.7680752  46.6713995   3.1210815  21.7010889  41.3737555
   2.6938423  21.6137238  40.6185655   2.4836868  21.8088665  41.9592399
   2.9640423  21.7043549  41.3482997   1.4508072  30.5441552  43.4476997
   2.2400450  30.1930616  43.5679078   1.6251670  31.3577940  43.1853630
   1.5928354  30.6127409  43.4264865   3.5575584  15.1082873  37.4896180
   2.9449897  15.5953275  37.8749912   3.6539759  14.4326364  38.0333832
   3.4813481  15.0801181  37.6275039   7.2000612  26.1799809  42.9173697
   7.2583735  26.6286458  43.6633673   6.5667079  26.5898622  42.4803777
   7.1151907  26.3073544  42.9626245   4.1522291  24.2016097  41.0039387
   3.9120514  23.3622512  41.0081813   4.6314298  24.2816264  41.7280160
   4.1874475  24.0897497  41.1114189   6.1527478  20.9817554  38.9568646
   5.9137248  20.9413389  38.1189431   6.3161380  21.8288706  39.0834367
   6.1417782  21.1009639  38.8522128   2.7573508  25.3667504  44.8873691
   3.4807707  24.9140030  44.7084711   2.4923471  25.6472169  44.1046019
   2.8254782  25.3418472  44.7452406   5.1908822  24.3293914  43.3904241
   5.7826663  24.9691165  43.4222439   5.6267817  23.6316951  43.6796308
   5.3427254  24.3212265  43.4385073   2.2157964  21.5439133  35.6907383
   1.5449154  22.0868835  35.5620449   2.9097714  22.0133988  35.4489078
   2.2186831  21.6937404  35.6362911   2.3786091  17.9995017  38.5997757
   2.7313701  17.5724740  39.2743555   1.5200893  17.9145860  38.7298833
   2.3035536  17.9239757  38.7192767   3.8110151  13.1213429  39.5282069
   3.3041016  12.4142568  39.4603247   4.6077585  12.7906617  39.6583146
   3.8537391  12.9686580  39.5381064   6.0130291  27.6378355  32.5122933
   6.3963897  28.3869711  32.7421030   5.2174405  27.8844175  32.2534923
   5.9524073  27.7848049  32.5080507   2.4530873  18.6179978  35.6758891
   2.4525100  18.4628635  36.5343167   2.2487053  19.4642965  35.6200277
   2.4230651  18.7200599  35.7946830   2.2423544  26.0481167  42.0172227
   2.6678616  25.5255589  41.4642652   1.8780464  26.6462005  41.4960850
   2.2510147  26.0591394  41.8581236   0.9179128  31.3716745  50.5265456
   1.0276094  30.5825306  50.8822203   1.2470025  31.2822681  49.7239794
   0.9831534  31.2422598  50.4607847   2.2769954  17.6218720  42.4952269
   1.6932943  18.1227927  42.0829837   2.5974248  17.1148276  41.8616592
   2.2383130  17.6210555  42.3410776  15.5048067  38.2149290  34.6053294
  15.4742071  39.0693927  34.7771564  16.1029415  37.9144583  35.1639438
  15.5885225  38.2965787  34.7128097   8.7047752  37.3024941  39.3606225
   7.8485647  37.4633440  39.4115342   8.7515405  36.4317005  39.3811286
   8.5846863  37.1975743  39.3712291   3.0888891  46.8387659  35.1243456
   2.3371791  46.4603197  34.8959501   3.5374903  46.8706093  34.3762267
   3.0438558  46.7873266  34.9800959  12.0141468  43.5711467  48.9666681
  12.7208235  43.0763498  49.0953615  12.2029404  44.0120548  48.2369339
  12.1469374  43.5629817  48.8775726   8.5413851  47.2613029  30.5529003
   8.2065220  47.9389950  30.1173226   9.0540722  46.8718340  29.9645875
   8.5679432  47.3037607  30.4015795   8.0818142  49.2127297  36.4940115
   8.4657522  49.7814196  35.9544890   8.0177284  48.4876808  36.0145931
   8.1291570  49.1902761  36.3433978  11.5499573  39.3616985  42.0037876
  12.0955533  40.0402072  42.0631846  11.4916449  39.2204446  41.1439458
  11.6215487  39.4408987  41.8849937   4.6673647  46.8506051  37.3906229
   4.7684010  46.0406405  37.7003357   4.0715393  46.7562998  36.7605907
   4.5946186  46.7171079  37.3432467  13.3264641  40.7901592  32.8771604
  13.2104167  41.5409278  33.3063742  14.1220528  40.5325546  33.1267691
  13.4269231  40.8636439  32.9775696   4.5074387  51.7683640  38.7921085
   5.1511843  52.2096804  39.1817243   4.8330643  50.9637067  38.7051344
   4.6506216  51.7148835  38.8366562   5.2094967  44.7795615  34.1640947
   5.5310808  45.3200823  33.5602255   5.8567063  44.2092387  34.2963236
   5.3521022  44.7754790  34.0947982   7.2596675  36.7811610  34.2475333
   7.9576840  36.9599738  34.7396797   7.5749007  36.2581950  33.6245723
   7.4092012  36.7305382  34.2277343   7.4484610  43.1682055  34.2355125
   7.8878246  42.5599156  34.6809898   7.2989273  42.7889429  33.4640590
   7.4906076  43.0220526  34.1874292   4.9156253  41.7626067  41.4373950
   5.5605256  41.2698510  41.1184899   5.1558030  41.9050854  42.2640029
   5.0466838  41.7103509  41.5123484   7.4542345  44.6080973  41.0880843
   7.7365587  43.8132379  40.8667599   8.1828505  45.0861560  41.1085904
   7.6031908  44.5615570  41.0583858   5.4323538  32.1504007  38.3296608
   5.1026868  32.6015150  37.6600307   4.7568540  32.0720170  38.8769614
   5.2833975  32.2055142  38.3119831  11.0493947  41.5209237  31.1885894
  10.9645242  42.3770203  31.3335463  11.5378330  41.2453561  31.8568053
  11.1082844  41.6066558  31.3087976  12.6399946  28.1389530  36.5746219
  12.3253387  28.8293008  37.0066641  12.1226888  28.0834312  35.8731719
  12.5164417  28.2324418  36.5343168  11.9812380  38.1394031  32.6883629
  11.4523851  38.3553664  33.3480935  12.5037400  38.8330169  32.6084599
  11.9800833  38.2737168  32.7739228  17.4360433  43.7140335  38.0616674
  16.6058136  43.9250979  38.2250090  17.3869685  42.8877390  37.7858957
  17.3067168  43.6229941  38.0454039   3.8711988  42.0357248  31.4891097
   3.2869203  42.5407279  31.8956961   3.4682083  41.8099634  30.7487689
   3.7251292  42.0765496  31.4396122   5.4970170  46.5444189  40.8964583
   4.9797112  46.1851604  40.2925891   6.1944562  46.0206364  40.9070649
   5.5235752  46.4141877  40.8094842   9.1533762  46.9939003  46.8580756
   9.2417108  46.8065144  47.7058967   9.5823475  46.3476433  46.4585603
   9.2295865  46.8702011  46.9252508   6.7204222  46.2770163  45.8398418
   6.1575057  45.8642773  46.3638080   7.4825246  46.2023069  46.2591562
   6.7498671  46.2047564  45.9791419   8.3289202  38.2822900  29.9660018
   8.5685206  38.4900883  29.1535361   8.6505043  37.4780408  30.0748962
   8.4126360  38.1937001  29.8620571   3.6379492  30.2116295  33.8119556
   4.3925461  30.5794612  33.5736606   3.4607027  30.5855850  34.5798735
   3.7233971  30.3214483  33.8904444   2.2800214  48.2668185  38.4435049
   2.9820793  47.7520174  38.5007805   2.1997697  48.5942336  39.2481924
   2.3723974  48.2382411  38.5707841  16.9314391  36.3610736  41.8567095
  16.0942812  36.4312923  42.0914689  16.9002622  36.3635231  40.9841397
  16.8032674  36.3720963  41.7626643   3.3279120  38.5043771  47.5715464
   3.4999624  38.3949666  48.4200745   3.8648478  39.1498177  47.3346656
   3.4324124  38.5835773  47.6620560   1.9936557  32.6186614  30.5097669
   1.8112130  32.8358495  29.6838661   2.8562170  32.7325627  30.5656283
   2.0941147  32.6676512  30.3952156   1.6050989  44.4574537  37.9520657
   2.4439888  44.6897469  37.9994418   1.6362758  43.5878848  37.8827692
   1.7332707  44.3631483  37.9485301   2.2303692  44.8775412  42.2533962
   2.7701917  44.7346543  42.9237334   1.5473638  45.2772163  42.6217988
   2.2095846  44.9155083  42.4068384   7.6736276  29.6213025  33.5446692
   8.4022437  29.4428980  33.0984849   7.7631169  30.4631105  33.7553871
   7.7942938  29.7196903  33.5100210  11.6544577  40.5566412  37.4478986
  12.4102092  40.9897927  37.4867895  11.7606901  39.9071182  38.0213622
  11.7814748  40.5243896  37.5377012  14.6924748  44.3839690  38.1981389
  14.2559980  44.3876432  38.9540361  14.3587664  45.0645189  37.7660967
  14.5787368  44.4852145  38.2462222   9.2653822  46.4248022  49.5224540
  10.0494238  46.5378870  49.8880282   9.0650416  45.5989160  49.7183226
   9.3519847  46.3194742  49.6058926  14.6122231  31.4253517  40.4410817
  15.2548139  31.4951622  41.0272733  14.8645252  30.7582740  39.9390359
  14.7444363  31.3379866  40.4538097   1.5398584  35.8960787  29.0220142
   0.8256761  35.6098966  29.4342574   2.0242553  36.2357413  29.6626529
   1.5057947  35.9042437  29.1775777   2.3839444  34.6354081  45.0535391
   1.6911240  34.1651061  45.2996123   2.9999771  34.4092385  45.6277098
   2.3723973  34.5321213  45.1744544   9.4224215  48.3358124  43.1690995
   8.6239461  48.0957625  43.4264864   9.8710227  48.3872517  43.9158043
   9.3698826  48.3080516  43.3175920   8.7145902  44.3990741  29.3981950
   9.1297051  44.0675765  28.7066446   7.8837832  44.1659643  29.2702087
   8.6533911  44.3161997  29.2772797  14.1133925  42.1185992  36.8313015
  14.3489514  42.2631191  36.0039866  14.2623489  42.8828400  37.2244529
  14.1699728  42.2525046  36.7676619   1.1080002  38.6019485  46.1962237
   1.8319975  38.5872515  46.6827131   1.2096139  39.3114840  45.6984205
   1.2298212  38.7044188  46.1941023  15.9424382  40.9587658  34.6682619
  16.2732599  41.4915298  34.0622714  16.5157470  41.0126546  35.3244570
  16.0758061  41.0457227  34.6760401   8.4824952  42.0818569  51.0611184
   7.6897933  42.3962081  51.2463803   8.5973879  42.2970038  50.2231968
   8.3820362  42.1602406  50.9649518  11.1556271  38.8052561  35.3506199
  11.2503125  39.5441855  35.8045825  10.5315114  38.3770036  35.7840764
  11.0765301  38.8513881  35.4814347   9.4108745  41.9838773  45.9996480
   9.9847606  41.3466017  46.1545044   9.3323548  41.9842856  45.1306138
   9.4841980  41.8903885  45.8942891  11.4079292  40.6501300  28.5843151
  11.3259455  40.7203487  29.4498138  12.0459013  41.2131044  28.3926892
  11.4899130  40.7440271  28.6833101   4.7672463  40.4162038  38.0517678
   4.5091708  39.5833773  38.0248977   4.8220946  40.6419651  37.2110178
   4.7372241  40.3259810  37.9237814   9.8473513  32.5190489  38.1521770
   9.1429840  32.0299674  38.3105690   9.8958488  32.5312963  37.2810215
   9.7503565  32.4480137  38.0461110   3.7407175  37.9699801  38.5382572
   3.1656767  38.1291969  39.1746533   3.3642852  37.3335210  38.0751023
   3.6009988  37.8997614  38.5637131   7.4080464  36.4423150  43.3974951
   7.0194897  36.0177368  42.7427142   6.7435162  36.6905300  43.9051977
   7.2527392  36.4161871  43.3762819  17.0503733  36.1998155  36.1722781
  16.7940298  35.3878096  35.9820664  17.8933047  36.2075722  35.9452968
  17.1369759  36.0810152  36.1107598  11.2306826  30.1397779  40.9098935
  11.6117337  29.4575950  41.2966809  10.4270110  29.8507381  40.7274600
  11.1683287  29.9964827  40.9402991   8.5119402  40.6721755  31.5951758
   9.3260041  40.9636647  31.4834529   8.4478544  40.0181617  31.0210051
   8.6222141  40.6186949  31.4940595  14.7328893  43.3547751  46.0081333
  14.4967530  42.5235816  45.8893394  15.3772121  43.3033358  46.5936178
  14.7923563  43.2245439  46.0767227   4.3827311  44.1443272  36.7224070
   5.0201258  43.9055020  37.2675863   4.8082382  44.3480431  35.9877231
   4.5403477  44.1394282  36.6941227   5.0230126  39.3645562  31.0598959
   5.4075278  39.1453269  31.8115504   4.7741746  40.1908507  31.1900036
   5.0432198  39.4543708  31.1900036   5.1898666  32.6451977  50.7761544
   4.8752107  33.4151540  50.5131106   4.8688599  32.0822233  50.1913770
   5.0957585  32.6762246  50.6502893  15.7565313  43.1392200  42.0709628
  15.4511130  43.8720256  42.4322944  15.0371529  42.7330129  41.7902414
  15.6052655  43.1873932  42.0822765   6.7648783  44.6215695  38.4017856
   6.8387791  44.4590867  39.2559706   7.5818289  44.8105884  38.1578338
   6.8965141  44.6252437  38.4915882   2.7430563  31.0342499  36.3907740
   1.8752988  31.1065098  36.4565349   3.0305767  31.8364577  36.5795715
   2.6570311  31.1636646  36.4282506  11.8663452  31.1820358  44.7219062
  12.6117044  30.9930168  44.3082487  11.4500756  31.7078596  44.1632918
  11.9148426  31.2322503  44.5783635   5.3053368  47.5850438  33.1331330
   5.5951667  47.1939419  32.4090556   6.0356849  47.7667143  33.5736605
   5.4560253  47.5544252  33.0914137   5.8948113  42.3868184  44.2184460
   5.3959807  43.0983951  44.2969349   6.7048338  42.7068850  44.1802622
   5.9404220  42.5395032  44.2241029   3.2459284  49.5617820  36.1991479
   3.0259579  49.2715175  36.9918146   3.0253806  48.9032775  35.6709392
   3.1806878  49.4217529  36.2380388   2.1576231  41.6491137  38.4647181
   1.8689480  41.0228608  38.9992908   3.0259579  41.5911424  38.5311861
   2.2436483  41.5478681  38.5538136  12.9454129  36.7925920  38.7829163
  12.6018895  36.0716255  39.1336413  13.0447171  36.5839771  37.9407521
  12.9096172  36.6550123  38.7100843   5.4127240  50.9347210  34.9822172
   6.0651298  50.4023652  35.2113198   4.7152848  50.5815862  35.3690046
   5.4057958  50.8036733  35.0734339   2.3608504  43.2886388  34.3889546
   3.1154472  43.6699427  34.6025009   1.7679117  43.7397531  34.8436243
   2.3845218  43.4115215  34.4872424  13.4067158  43.2551624  34.3253151
  13.9725191  43.9144834  34.2411694  12.7595061  43.6001322  34.7969553
  13.3945914  43.4033565  34.3825907   4.8215171  35.2449228  49.5146758
   4.0114947  35.5507008  49.4036601   5.2989858  35.9654810  49.6299342
   4.7718650  35.3963829  49.5153829   3.6806731  44.4594949  39.7629661
   3.1587485  44.5995241  40.4481526   4.0680751  43.7005613  39.9531779
   3.6610432  44.3680473  39.8930738   9.8773736  46.1990408  33.7490230
   9.6360412  45.4658269  33.3417295  10.0575069  46.7477265  33.0956563
   9.8681360  46.1712799  33.5920453   5.1073057  41.4898968  35.1611152
   4.9115839  42.0973703  34.5671455   5.3307402  40.7966912  34.6802826
   5.1107698  41.4776494  35.0027233   3.5051587  38.3753706  35.2792021
   4.2274239  38.5394864  34.8195827   3.0259579  39.0963371  35.1731361
   3.5415317  38.5051936  35.1957635  11.4645094  34.7117505  40.6588706
  10.6256195  34.7378784  40.4226969  11.5349462  35.3588240  41.2394052
  11.3513488  34.8113631  40.7097823   1.1559203  40.7811778  44.3846161
   1.6680300  41.0596032  43.7354920   0.8695546  41.5201072  44.7508974
   1.1894067  40.9314132  44.3436039   9.9114373  31.6102882  35.3916322
  10.6140725  31.4110630  34.9136280   9.6458561  30.8378824  35.6985165
   9.9761005  31.4665848  35.3661763  15.3402618  39.9185492  37.9449948
  15.2536593  40.0740918  38.7984726  14.8853098  40.5623567  37.5709353
  15.2605875  40.0361247  38.0157054   4.6742929  32.8738167  44.4447202
   4.4826126  32.8893301  45.2946626   5.5241525  33.0701841  44.4213857
   4.7718651  32.9052518  44.5670497   9.2128434  37.2396239  36.5675507
   8.9663148  37.1591990  37.4012296   9.5413557  36.4549707  36.3738035
   9.2249678  37.1122504  36.6623030  13.1076483  43.9479598  40.3562288
  12.9690842  44.6460644  40.8611031  12.3276481  43.7928254  39.9998470
  12.9719710  44.0279765  40.3788562  11.4454568  40.2475973  46.6084670
  11.4402607  39.3755790  46.6127096  12.1515562  40.4464143  46.1354126
  11.5499572  40.1479848  46.5391705   5.1725461  39.9752957  45.9798490
   5.3168837  40.5554165  45.3441600   5.5201110  40.3529254  46.6848345
   5.2452923  40.1173661  45.9897485   7.3445379  39.1743126  43.7623622
   6.5968693  39.3674140  43.3571900   7.4986904  38.3488345  43.5247743
   7.2567806  39.0808237  43.6669028   4.2453216  48.1655729  42.8459517
   4.3942780  47.6058645  42.1932921   5.0253219  48.2447731  43.2292036
   4.3827310  48.0941295  42.8056466  14.6029856  43.3057852  31.1178787
  14.2236665  42.5194990  31.1108077  13.9396101  43.8544709  30.9750432
  14.4488331  43.2702676  31.0959584   7.5847156  33.0693676  44.6519025
   8.0419770  33.8017651  44.7791818   7.6603485  32.6460142  45.4106281
   7.6638126  33.1150914  44.7820102  12.0574482  26.2483552  38.5212868
  12.1758050  26.7060015  37.7880171  11.8836657  25.4428813  38.2349086
  12.0493653  26.1977324  38.3713802   7.4276764  46.8571371  34.9567614
   8.1926655  46.5881015  34.6350278   7.3254854  46.3721381  35.6737677
   7.5258259  46.7460935  35.0147441   5.4629534  35.0595780  41.4960849
   4.6725609  34.8787240  41.8178185   5.8590157  34.2822733  41.4791144
   5.4046410  34.9183241  41.5413398   9.9495425  43.8883555  26.9367563
  10.7168410  43.9483680  26.5273415   9.5026734  43.3163996  26.4523882
   9.9968852  43.8120130  26.8045273  10.8473220  42.6938210  39.2220295
  10.1718222  42.4623443  39.7233682  10.8565596  42.0859393  38.5962400
  10.7491725  42.5697136  39.2036448   7.9767364  37.5356039  45.9784348
   7.9126505  38.3965996  45.8504485   8.1164552  37.2188033  45.1779900
   7.9882834  37.6156206  45.8412561  12.8489955  45.5503343  31.4530473
  12.9309792  46.3570329  31.1291924  13.3339697  45.5699302  32.1771247
  12.9327113  45.6724005  31.5117372   6.6586458  40.2288179  40.1200551
   6.2348707  40.4292678  39.3839570   6.4831313  39.3817027  40.2324851
   6.5697339  40.1336960  40.0274241   6.1598151  51.7438692  42.5822009
   6.6494082  51.0449481  42.3997673   5.5882384  51.4462562  43.1698066
   6.1482681  51.5964915  42.6423049   1.9468903  40.7240230  35.5528524
   2.1033522  40.6587033  36.4084516   2.2869496  41.4988783  35.3407203
   2.0202138  40.8289428  35.6483118   8.4848048  40.0998114  34.4221887
   9.0263593  39.5968495  34.8860508   8.7994607  40.0463308  33.6111372
   8.6112445  40.0177535  34.3705699  12.3565155  44.3100761  51.5348799
  13.1700020  44.0385910  51.6953932  12.1960121  44.0108301  50.7308995
  12.4535103  44.2255687  51.4394205   6.6534497  45.4915465  31.7061915
   6.7227318  44.6330004  31.8454915   7.4322952  45.7087346  31.3780940
   6.7787347  45.3968329  31.6779072   9.6337317  34.9934418  44.4744187
   9.8479286  34.3545332  43.9207541   9.0171216  35.4380242  44.0452049
   9.5742646  34.9644562  44.3294619  11.0441985  47.9153167  35.9198408
  10.6521777  47.6119882  35.2021275  11.1995057  48.7522257  35.7303362
  11.0095575  47.9937003  35.7854905  11.7976405  36.6023483  45.4127495
  10.9853087  36.2949374  45.4940667  12.2566339  36.1222484  45.9770207
  11.7456790  36.4859976  45.5082089  11.2081660  44.4803155  35.8604439
  10.8496314  44.6517798  36.6368471  10.7220370  44.9416361  35.3032437
  11.0840356  44.5742127  35.8929708   9.0252046  28.1034354  39.4631530
   8.1545603  28.0773075  39.4164840   9.2792387  27.9311546  38.6457376
   8.9345606  28.0744498  39.3351667   5.9970025  40.1602321  28.4004673
   6.2862550  40.9367203  28.6748248   6.0841824  39.6491052  29.1019173
   6.0524281  40.1994239  28.5447171   8.8929912  38.0083555  50.1956197
   9.3629544  38.6325671  50.5824071   8.9391793  37.3400530  50.7549412
   8.9697788  38.0018235  50.3356268   6.0501186  30.1140582  40.9205001
   5.5339675  29.4220774  41.0456580   5.4895115  30.7811359  40.8667599
   5.8907699  30.1103840  40.9311067   8.1193420  30.6533542  42.7497853
   7.7325173  30.6782574  43.5311383   7.6326357  30.0875221  42.2972370
   7.9905928  30.5729293  42.7985757  12.3686399  45.3707051  46.8071640
  13.0066119  44.8767247  46.4734096  11.7260490  45.2984452  46.2223867
  12.3680625  45.2866060  46.6713995  14.0943399  37.2196197  41.3737555
  13.6671007  37.1322546  40.6185655  13.4569452  37.3273973  41.9592399
  13.9373006  37.2228857  41.3482997   7.7850561  27.5400528  45.0408113
   8.4143679  28.0760828  44.7629183   7.9536424  27.4477887  45.8921679
   7.9028356  27.6061890  45.1256641   7.5864476  32.3271723  47.3134525
   8.4137905  32.0556871  47.3693139   7.6072322  33.1232564  47.6698343
   7.7117326  32.4051477  47.3749708  12.4240656  46.0626860  43.4476997
  13.2133034  45.7115924  43.5679078  12.5984253  46.8763248  43.1853630
  12.5660937  46.1312717  43.4264865   2.1633966  39.4735585  40.5004785
   1.3221973  39.3739460  40.7083679   2.3723974  40.2431066  40.8519106
   2.0698659  39.5727629  40.5832100  11.2774480  30.0736416  38.0093415
  11.4824073  30.0058724  38.8550412  10.9500904  30.8795238  37.9414592
  11.2589728  30.1822357  38.1253070   5.9750631  37.4016985  39.7502383
   5.6713768  36.8472973  40.3512791   5.2730052  37.5809195  39.2630417
   5.8266841  37.3461767  39.7672089   5.0316728  34.7117504  34.3147085
   5.3076462  33.9936417  33.9024652   5.6315397  35.3102424  34.1068191
   5.1609993  34.6937875  34.2227846   4.0368982  44.6166705  44.4574481
   3.9289337  44.6268767  45.3236539   4.2464763  45.4421486  44.2679434
   4.0519093  44.7407780  44.5578572  14.5308167  30.6268181  37.4896180
  13.9182481  31.1138583  37.8749912  14.6272342  29.9511671  38.0333832
  14.4546065  30.5986489  37.6275039   8.5327248  32.3831022  32.5893680
   8.9870995  32.5541582  33.3141524   9.0067294  31.7699132  32.1891455
   8.6695569  32.3181907  32.6367441   2.0542774  41.8679348  41.9196418
   1.4630707  42.5088846  41.8899433   2.8163797  42.2916965  41.8927718
   2.0791034  42.0255186  41.9111565   2.4503397  33.0281345  42.5864436
   2.9104878  33.1020275  43.3239560   2.4959503  33.8262599  42.2364257
   2.5253952  33.1575493  42.6437192   4.0986746  33.6948040  47.1536463
   3.7072311  33.0481387  47.5892241   4.2672609  34.2859476  47.7730718
   4.0657657  33.6862308  47.3099169  18.1733195  41.6985117  42.9173697
  18.2316319  42.1471766  43.6633673  17.5399663  42.1083930  42.4803777
  18.0884490  41.8258852  42.9626245  11.8132290  47.3188659  39.3528443
  11.6151979  47.8079474  38.6584654  11.1920001  47.5229901  39.9312576
  11.6919854  47.4205198  39.3351666   5.8740268  39.0873556  33.6938687
   6.6182313  39.4747832  33.9321637   6.0200965  38.2430981  33.8579175
   6.0050854  39.0204029  33.7532657   7.7919844  30.8823815  38.7270548
   6.9455889  31.0546623  38.6011898   7.7890976  30.0773159  39.0636377
   7.6666994  30.7884844  38.7581675   8.8618144  34.6599029  39.5932606
   8.3878099  34.1340791  40.1037917   9.2336280  34.1128502  39.0247468
   8.8468033  34.5015026  39.5847754  15.1254875  39.7201405  41.0039387
  14.8853098  38.8807820  41.0081813  15.6046882  39.8001572  41.7280160
  15.1607058  39.6082805  41.1114189  10.7901644  35.5535584  32.6558360
  10.2624663  35.6364328  31.9664069  11.2497352  36.2953455  32.6523005
  10.7803494  35.6756246  32.5533055  17.1260062  36.5002862  38.9568646
  16.8869832  36.4598696  38.1189431  17.2893963  37.3474014  39.0834367
  17.1150365  36.6194947  38.8522128  13.7306092  40.8852812  44.8873691
  14.4540291  40.4325338  44.7084711  13.4656054  41.1657477  44.1046019
  13.7987365  40.8603780  44.7452406   2.5992960  35.4812985  41.6226570
   1.9746031  35.4931377  41.0152523   2.2638555  35.9573160  42.2717810
   2.4578452  35.5531502  41.6283139   2.7834709  33.8238104  27.6799255
   2.4347513  34.4757829  28.1430805   2.3031155  33.8095217  26.9523126
   2.6604953  33.9181157  27.6410347  10.3438726  44.1239148  31.7868017
  11.0672925  44.5897261  31.6432590   9.9039317  44.1912757  31.0365614
  10.3854419  44.2022984  31.6552799   9.5124881  40.9836690  43.0368706
   8.8981875  40.4394740  43.3317341  10.0292166  40.4700926  42.5574522
   9.4980544  40.8273099  43.0092935   8.7521179  42.0540960  40.7713005
   8.3248787  41.4290679  40.3378440   8.7446123  41.7715882  41.5972012
   8.6880320  41.9193741  40.8292832   1.8683706  37.0906133  43.8401439
   2.0277192  36.3349457  44.2453161   1.6876599  37.6397072  44.4942176
   1.8649065  37.0599947  43.9964145   9.8104009  29.2567368  44.3952228
   9.3144570  29.4531043  43.7043795  10.5673071  29.6560037  44.2241030
   9.8490833  29.3445102  44.2672365   7.0806888  32.9309714  40.9855539
   7.1049376  32.3969827  40.2968319   7.3318362  32.4227023  41.6481129
   7.1216807  32.7770618  40.9820183   3.3608211  31.6580533  40.3661283
   3.4006582  32.1589739  41.0795991   2.5357875  31.7490926  40.0967206
   3.2447736  31.7462349  40.4311821   5.5437823  41.2241273  48.4681578
   4.6933454  41.3612987  48.6039223   5.7065951  40.4905051  48.9129279
   5.4421687  41.1355374  48.5537177   4.7822574  38.1741042  42.6635182
   3.9514504  38.3414860  42.4570430   4.7274091  37.7976993  43.4484067
   4.6511989  38.1430774  42.7483710   2.5906357  31.6649935  48.2991593
   3.2159061  31.1212068  48.5721025   2.1356837  31.1844853  47.7299383
   2.6154618  31.5139417  48.2553187   3.1558618  36.4496634  33.1925300
   3.2961579  36.9469098  33.8953941   3.6541151  35.7482928  33.3339513
   3.2499699  36.4198613  33.3176879   3.1858840  37.3163745  30.5217877
   3.8203920  37.9124170  30.4567338   3.2684451  37.0167203  31.3363747
   3.2915391  37.3604653  30.6320963  16.1641406  39.8479222  43.3904241
  16.7559246  40.4876473  43.4222439  16.6000400  39.1502259  43.6796308
  16.3159837  39.8397573  43.4385073   4.7637823  33.2477720  30.4963319
   5.0853664  32.7680803  29.8422581   5.0264767  34.0577367  30.3054130
   4.8503848  33.2967618  30.3718811   7.9934796  44.2696595  44.0162135
   7.4859887  44.8232442  44.4602765   7.6961442  44.3304885  43.1980909
   7.8739681  44.3602906  43.9610591  10.1596978  32.6349914  42.8586798
  10.5852050  32.1822441  42.2470324   9.5453971  32.0809985  43.1351585
  10.1325623  32.4863891  42.8091823  10.6042576  48.1859852  31.9466078
   9.8871886  48.0120715  31.4813316  11.2549314  47.9512425  31.4141564
  10.5944427  48.1255645  31.7995296   8.5991201  29.1065014  36.2677375
   7.9559519  28.9562661  36.8362513   8.2590608  28.8607359  35.5026479
   8.4536278  29.0477137  36.2380390  13.1890547  37.0624441  35.6907383
  12.5181737  37.6054143  35.5620449  13.8830298  37.5319296  35.4489078
  13.1919415  37.2122712  35.6362911   7.2377281  49.2021153  40.9219142
   7.0142935  48.4439982  41.2903168   6.7487124  49.2319174  40.1999581
   7.1320730  49.0943378  40.8695883  13.3518675  33.5180325  38.5997757
  13.7046285  33.0910048  39.2743555  12.4933476  33.4331168  38.7298833
  13.2768119  33.4425065  38.7192767   2.0502360  36.1487844  36.6580603
   1.3314349  36.5651977  36.9253467   2.4214722  36.7142083  36.1072241
   1.9994292  36.2937126  36.6163410  11.3501941  36.7815693  42.5482599
  11.3299868  36.5998988  43.4017378  11.3981141  37.6527712  42.5242182
  11.3536582  36.8832232  42.6705894   9.2948270  43.3702885  48.4731075
   9.2544125  42.7252562  47.8876231  10.1071589  43.3139503  48.7856487
   9.4091424  43.2661852  48.4328025   5.8855738  49.4221611  38.3756226
   5.4716137  48.7595741  37.9860068   6.5703112  49.5699470  37.8551920
   5.9254110  49.3462269  38.2412723   9.2521032  48.5811696  39.1279843
   8.8537315  48.6913967  38.3600663   8.6372252  48.7893763  39.7106403
   9.1019921  48.6285264  39.1011142   7.8248934  35.1885844  31.9953983
   7.2313773  35.5102841  31.4438550   7.8624212  34.3426940  31.7875089
   7.7423323  35.1110173  31.8836754  14.7842735  28.6398736  39.5282069
  14.2773600  27.9327876  39.4603247  15.5810169  28.3091925  39.6583146
  14.8269974  28.4871888  39.5381064  10.7006751  35.1465349  35.4255733
  10.4720444  35.1698050  34.5834091  10.9604827  34.3222816  35.5450743
  10.7052939  35.0281429  35.3180930   4.9825979  36.9999822  45.0280833
   4.4704882  36.3921005  45.3865864   4.8105475  37.7156414  45.4954809
   4.8815616  37.0163121  45.1497057   3.7551513  33.6841895  36.7209928
   4.2308880  34.0458975  36.0860110   3.2540113  34.3398363  37.0010071
   3.7516872  33.8336084  36.6686669  16.9862875  43.1563663  32.5122933
  17.3696481  43.9055019  32.7421030  16.1906988  43.4029483  32.2534923
  16.9256657  43.3033357  32.5080507   8.8595050  34.9224066  47.4683089
   9.4166480  34.6937876  46.8361554   8.5356115  35.6829732  47.1918301
   8.8941460  35.0007903  47.3339586   6.5778167  38.0091720  48.4335096
   7.3289494  38.3243397  48.7474650   6.7700743  37.8070891  47.6069017
   6.7169581  38.0259102  48.3578491   5.7978166  35.8283095  30.0883312
   6.1777131  35.8462724  29.3034427   5.0570762  36.2737084  29.9674160
   5.7447004  35.8964869  29.9546881  13.4263457  34.1365286  35.6758891
  13.4257683  33.9813943  36.5343167  13.2219637  34.9828273  35.6200277
  13.3963235  34.2385907  35.7946830  11.1504309  38.8162788  39.3295098
  11.6457974  38.0985783  39.2899118  10.3404085  38.5133586  39.2149585
  11.1048202  38.6660434  39.3068824   6.5962920  42.6660601  31.4792102
   5.7874243  42.3427275  31.4325412   7.1037829  41.9593823  31.4120351
   6.5512587  42.5141917  31.4622397  13.2156128  41.5666475  42.0172227
  13.6411199  41.0440897  41.4642652  12.8513048  42.1647313  41.4960850
  13.2242730  41.5776702  41.8581236   2.8510208  49.8630693  40.7769572
   3.1656767  50.6767081  40.7847354   3.2603621  49.4780912  41.4451731
   2.9578306  49.9259395  40.8773664   9.8034727  45.2800740  38.3473384
  10.2745905  45.9941002  38.5163369  10.1394906  44.6799490  38.8833254
   9.9229842  45.2972204  38.4505760  11.8911712  46.8902053  50.5265456
  12.0008677  46.1010614  50.8822203  12.2202608  46.8007989  49.7239794
  11.9564118  46.7607906  50.4607847   6.7204222  30.0528210  45.3031479
   6.8532128  29.2559204  45.6312455   7.1049375  30.5794613  45.8829755
   6.7960551  30.0128127  45.4374982  10.4408674  45.0718674  45.1101077
   9.8929620  44.4476557  44.8421142  10.9021702  45.2612946  44.3945156
  10.4275883  45.0077724  44.9651508   9.7936577  26.9758536  41.9012572
   8.9882541  26.8656266  42.2180411   9.6643313  27.0770992  41.0442438
   9.6556710  26.9742206  41.8220613  13.2502538  33.1404028  42.4952269
  12.6665527  33.6413235  42.0829837  13.5706832  32.6333584  41.8616592
  13.2115713  33.1395863  42.3410776   5.7897337  32.0544623  32.7710944
   6.6113031  32.2242936  32.5292639   5.3266988  32.2091884  32.0477242
   5.8428499  32.1026356  32.6282588   4.3792669  30.0487385  43.5509373
   4.9237082  29.7078512  44.1413714   4.4329605  30.9072847  43.6930657
   4.4681788  30.1242645  43.6591246  10.0067000  46.0769746  41.6410418
  10.8265374  45.9332712  41.9026713   9.7261078  46.7015945  42.1826856
  10.0863743  46.1480098  41.7598357  19.6780335  52.8210249  39.3606225
  18.8218231  52.9818747  39.4115342  19.7247989  51.9502313  39.3811286
  19.5579447  52.7161051  39.3712291  14.0621475  62.3572967  35.1243456
  13.3104374  61.9788505  34.8959501  14.5107487  62.3891401  34.3762267
  14.0171142  62.3058574  34.9800959  22.9874052  59.0896775  48.9666681
  23.6940819  58.5948806  49.0953615  23.1761987  59.5305856  48.2369339
  23.1201957  59.0815125  48.8775726  19.5146435  62.7798337  30.5529003
  19.1797803  63.4575258  30.1173226  20.0273305  62.3903648  29.9645875
  19.5412016  62.8222915  30.4015795  19.0550726  64.7312605  36.4940115
  19.4390105  65.2999504  35.9544890  18.9909867  64.0062116  36.0145931
  19.1024153  64.7088069  36.3433978  22.5232156  54.8802293  42.0037876
  23.0688116  55.5587380  42.0631846  22.4649032  54.7389754  41.1439458
  22.5948070  54.9594295  41.8849937  15.6406231  62.3691359  37.3906229
  15.7416594  61.5591713  37.7003357  15.0447976  62.2748306  36.7605907
  15.5678770  62.2356387  37.3432467  24.2997225  56.3086900  32.8771604
  24.1836751  57.0594586  33.3063742  25.0953111  56.0510853  33.1267691
  24.4001814  56.3821747  32.9775696  15.4806971  67.2868948  38.7921085
  16.1244426  67.7282112  39.1817243  15.8063226  66.4822375  38.7051344
  15.6238799  67.2334143  38.8366562   8.8371275  58.3911646  37.0158563
   8.6021460  57.5579298  36.9090831   8.9756916  58.6716311  36.2019763
   8.8226938  58.3095149  36.8800918  11.1361363  50.5597376  39.9142870
  10.5166394  49.9690024  39.7452885  11.0345226  51.1508812  39.2807193
  11.0299038  50.5601459  39.7947860  16.1827550  60.2980923  34.1640947
  16.5043391  60.8386131  33.5602255  16.8299647  59.7277695  34.2963236
  16.3253606  60.2940098  34.0947982  18.2329258  52.2996918  34.2475333
  18.9309423  52.4785046  34.7396797  18.5481591  51.7767258  33.6245723
  18.3824596  52.2490690  34.2277343  10.8630496  54.1049658  42.1586439
  10.7389193  54.6912104  42.7936258  11.5148780  53.6109854  42.4598714
  10.9404145  54.1188463  42.2972369  15.8888837  57.2811375  41.4373950
  16.5337839  56.7883818  41.1184899  16.1290614  57.4236162  42.2640029
  16.0199422  57.2288817  41.5123484  18.4274928  60.1266281  41.0880843
  18.7098171  59.3317687  40.8667599  19.1561089  60.6046868  41.1085904
  18.5764492  60.0800878  41.0583858  16.4056122  47.6689315  38.3296608
  16.0759452  48.1200458  37.6600307  15.7301124  47.5905478  38.8769614
  16.2566558  47.7240450  38.3119831  22.0226530  57.0394544  31.1885894
  21.9377825  57.8955511  31.3335463  22.5110914  56.7638869  31.8568053
  22.0815428  57.1251866  31.3087976  22.9544964  53.6579339  32.6883629
  22.4256435  53.8738972  33.3480935  23.4769983  54.3515477  32.6084599
  22.9533417  53.7922476  32.7739228  14.8444571  57.5542555  31.4891097
  14.2601787  58.0592587  31.8956961  14.4414667  57.3284942  30.7487689
  14.6983875  57.5950804  31.4396122  10.3988600  63.2697317  38.2914769
   9.9156178  63.9947806  38.2674352  11.2111918  63.5673447  38.4024926
  10.4479348  63.4199670  38.3042048  16.4702754  62.0629497  40.8964583
  15.9529696  61.7036912  40.2925891  17.1677145  61.5391672  40.9070649
  16.4968335  61.9327185  40.8094842  20.1266346  62.5124311  46.8580756
  20.2149692  62.3250452  47.7058967  20.5556059  61.8661741  46.4585603
  20.2028448  62.3887319  46.9252508  17.6936806  61.7955471  45.8398418
  17.1307641  61.3828081  46.3638080  18.4557829  61.7208377  46.2591562
  17.7231254  61.7232872  45.9791419  19.3021786  53.8008208  29.9660018
  19.5417789  54.0086191  29.1535361  19.6237627  52.9965716  30.0748962
  19.3858944  53.7122309  29.8620571  14.6112076  45.7301603  33.8119556
  15.3658044  46.0979920  33.5736606  14.4339611  46.1041158  34.5798735
  14.6966554  45.8399791  33.8904444  13.2532797  63.7853492  38.4435049
  13.9553377  63.2705482  38.5007805  13.1730280  64.1127644  39.2481924
  13.3456558  63.7567719  38.5707841  27.9046975  51.8796044  41.8567095
  27.0675396  51.9498231  42.0914689  27.8735206  51.8820539  40.9841397
  27.7765257  51.8906271  41.7626643  14.3011704  54.0229079  47.5715464
  14.4732208  53.9134974  48.4200745  14.8381061  54.6683485  47.3346656
  14.4056708  54.1021081  47.6620560  12.9669141  48.1371922  30.5097669
  12.7844714  48.3543803  29.6838661  13.8294754  48.2510935  30.5656283
  13.0673730  48.1861820  30.3952156  12.5783573  59.9759844  37.9520657
  13.4172472  60.2082777  37.9994418  12.6095342  59.1064156  37.8827692
  12.7065290  59.8816791  37.9485301  13.2036276  60.3960720  42.2533962
  13.7434501  60.2531851  42.9237334  12.5206222  60.7957470  42.6217988
  13.1828430  60.4340391  42.4068384  18.6468860  45.1398333  33.5446692
  19.3755020  44.9614288  33.0984849  18.7363753  45.9816413  33.7553871
  18.7675522  45.2382211  33.5100210  22.6277161  56.0751720  37.4478986
  23.3834676  56.5083235  37.4867895  22.7339485  55.4256490  38.0213622
  22.7547331  56.0429204  37.5377012  25.6657332  59.9024998  38.1981389
  25.2292564  59.9061740  38.9540361  25.3320247  60.5830497  37.7660967
  25.5519952  60.0037453  38.2462222  20.2386405  61.9433330  49.5224540
  21.0226822  62.0564178  49.8880282  20.0383000  61.1174467  49.7183226
  20.3252431  61.8380050  49.6058926   8.6073421  56.6161010  42.4068384
   8.3411836  55.8000127  42.5659374   8.6211985  56.6614166  41.5363899
   8.5698143  56.5017915  42.3021866  12.5131168  51.4146095  29.0220142
  11.7989345  51.1284274  29.4342574  12.9975136  51.7542721  29.6626529
  12.4790531  51.4227745  29.1775777  13.3572027  50.1539389  45.0535391
  12.6643824  49.6836368  45.2996123  13.9732354  49.9277693  45.6277098
  13.3456557  50.0506521  45.1744544  20.3956799  63.8543432  43.1690995
  19.5972044  63.6142932  43.4264864  20.8442810  63.9057825  43.9158043
  20.3431410  63.8265824  43.3175920  19.6878486  59.9176049  29.3981950
  20.1029634  59.5861073  28.7066446  18.8570415  59.6844951  29.2702087
  19.6266494  59.8347305  29.2772797   9.0166834  57.4019790  39.6880128
   8.8342408  57.3766676  38.8352420   9.7516503  57.8718728  39.7269037
   9.0980898  57.4681152  39.5678046  12.0812586  54.1204793  46.1962237
  12.8052558  54.1057823  46.6827131  12.1828723  54.8300148  45.6984205
  12.2030795  54.2229496  46.1941023  19.4557535  57.6003877  51.0611184
  18.6630516  57.9147389  51.2463803  19.5706463  57.8155346  50.2231968
  19.3552946  57.6787714  50.9649518  22.1288854  54.3237868  35.3506199
  22.2235709  55.0627163  35.8045825  21.5047698  53.8955344  35.7840764
  22.0497885  54.3699189  35.4814347  20.3841328  57.5024081  45.9996480
  20.9580190  56.8651325  46.1545044  20.3056132  57.5028164  45.1306138
  20.4574563  57.4089192  45.8942891   8.9837745  54.2813291  39.8379194
   9.5611247  54.1449741  40.4771440   8.2851806  53.8249075  40.0924779
   8.9658766  54.1935557  39.9701484  22.3811876  56.1686608  28.5843151
  22.2992038  56.2388795  29.4498138  23.0191596  56.7316352  28.3926892
  22.4631713  56.2625579  28.6833101  15.7405047  55.9347346  38.0517678
  15.4824291  55.1019081  38.0248977  15.7953530  56.1604959  37.2110178
  15.7104825  55.8445117  37.9237814  20.8206097  48.0375797  38.1521770
  20.1162424  47.5484982  38.3105690  20.8691071  48.0498271  37.2810215
  20.7236149  47.9665445  38.0461110  14.7139759  53.4885109  38.5382572
  14.1389350  53.6477277  39.1746533  14.3375435  52.8520518  38.0751023
  14.5742571  53.4182922  38.5637131  18.3813048  51.9608458  43.3974951
  17.9927480  51.5362676  42.7427142  17.7167746  52.2090608  43.9051977
  18.2259975  51.9347179  43.3762819   4.4596578  53.1325183  36.5527013
   4.5456830  52.7557052  37.3340543   5.0872375  52.7585629  36.0746971
   4.5653129  53.0210666  36.5972490  22.2039409  45.6583087  40.9098935
  22.5849921  44.9761258  41.2966809  21.4002694  45.3692689  40.7274600
  22.1415871  45.5150135  40.9402991  19.4851986  56.1907063  31.5951758
  20.2992625  56.4821955  31.4834529  19.4211127  55.5366925  31.0210051
  19.5954725  56.1372257  31.4940595  25.7061476  58.8733059  46.0081333
  25.4700114  58.0421123  45.8893394  26.3504705  58.8218666  46.5936178
  25.7656147  58.7430747  46.0767227  15.3559894  59.6628580  36.7224070
  15.9933841  59.4240328  37.2675863  15.7814966  59.8665739  35.9877231
  15.5136060  59.6579590  36.6941227  10.0472537  61.9016916  40.6058374
  10.0876682  62.1731768  39.7778153  10.6067061  62.4258825  41.0216162
  10.1355883  62.0192672  40.5450262  16.1631250  48.1637285  50.7761544
  15.8484691  48.9336848  50.5131106  15.8421182  47.6007541  50.1913770
  16.0690169  48.1947554  50.6502893  26.7297897  58.6577507  42.0709628
  26.4243714  59.3905564  42.4322944  26.0104112  58.2515437  41.7902414
  26.5785239  58.7059240  42.0822765  17.7381366  60.1401003  38.4017856
  17.8120374  59.9776174  39.2559706  18.5550873  60.3291192  38.1578338
  17.8697725  60.1437745  38.4915882  32.4299689  55.2970508  41.3977972
  32.3624189  55.3166467  40.5280559  32.4155351  56.1400835  41.6233643
  32.4178445  55.4244243  41.3030449  11.4987123  60.4858865  35.4312300
  10.6725241  60.7320603  35.3046578  11.5599114  60.4070946  36.2974358
  11.3861290  60.5103814  35.5401244  13.7163147  46.5527806  36.3907740
  12.8485572  46.6250406  36.4565349  14.0038351  47.3549885  36.5795715
  13.6302895  46.6821954  36.4282506  22.8396035  46.7005666  44.7219062
  23.5849627  46.5115476  44.3082487  22.4233340  47.2263904  44.1632918
  22.8881010  46.7507811  44.5783635  16.2785952  63.1035746  33.1331330
  16.5684250  62.7124727  32.4090556  17.0089433  63.2852451  33.5736605
  16.4292836  63.0729559  33.0914137  16.8680697  57.9053492  44.2184460
  16.3692391  58.6169259  44.2969349  17.6780921  58.2254158  44.1802622
  16.9136804  58.0580340  44.2241029  14.2191867  65.0803128  36.1991479
  13.9992163  64.7900483  36.9918146  13.9986390  64.4218083  35.6709392
  14.1539462  64.9402836  36.2380388  13.1308815  57.1676445  38.4647181
  12.8422063  56.5413916  38.9992908  13.9992163  57.1096732  38.5311861
  13.2169067  57.0663989  38.5538136  23.9186712  52.3111228  38.7829163
  23.5751478  51.5901563  39.1336413  24.0179755  52.1025079  37.9407521
  23.8828755  52.1735431  38.7100843  16.3859823  66.4532518  34.9822172
  17.0383881  65.9208960  35.2113198  15.6885432  66.1001170  35.3690046
  16.3790541  66.3222041  35.0734339  13.3341088  58.8071696  34.3889546
  14.0887056  59.1884735  34.6025009  12.7411701  59.2582839  34.8436243
  13.3577802  58.9300523  34.4872424  24.3799742  58.7736932  34.3253151
  24.9457774  59.4330142  34.2411694  23.7327645  59.1186630  34.7969553
  24.3678498  58.9218873  34.3825907  15.7947755  50.7634536  49.5146758
  14.9847531  51.0692316  49.4036601  16.2722442  51.4840118  49.6299342
  15.7451234  50.9149137  49.5153829  14.6539315  59.9780257  39.7629661
  14.1320068  60.1180549  40.4481526  15.0413335  59.2190921  39.9531779
  14.6343016  59.8865781  39.8930738  11.6430499  50.0286066  33.8324616
  11.3555294  49.6587336  33.0956563  12.3300967  50.4980921  33.5708321
  11.7019396  50.0433035  33.6839692  20.8506320  61.7175716  33.7490230
  20.6092996  60.9843577  33.3417295  21.0307653  62.2662573  33.0956563
  20.8413944  61.6898107  33.5920453  16.0805640  57.0084276  35.1611152
  15.8848423  57.6159011  34.5671455  16.3039986  56.3152220  34.6802826
  16.0840281  56.9961802  35.0027233  14.4784170  53.8939014  35.2792021
  15.2006822  54.0580172  34.8195827  13.9992163  54.6148679  35.1731361
  14.5147901  54.0237244  35.1957635  22.4377678  50.2302813  40.6588706
  21.5988778  50.2564092  40.4226969  22.5082045  50.8773548  41.2394052
  22.3246071  50.3298939  40.7097823  12.1291787  56.2997086  44.3846161
  12.6412884  56.5781340  43.7354920  11.8428130  57.0386380  44.7508974
  12.1626650  56.4499440  44.3436039  20.8846956  47.1288190  35.3916322
  21.5873309  46.9295938  34.9136280  20.6191145  46.3564132  35.6985165
  20.9493588  46.9851156  35.3661763   9.2158693  50.8067278  34.6809897
   9.3174830  51.6093440  35.0090873  10.0114580  50.6054614  34.3832978
   9.3486599  50.8953177  34.6845253  15.6475512  48.3923475  44.4447202
  15.4558709  48.4078609  45.2946626  16.4974108  48.5887149  44.4213857
  15.7451234  48.4237826  44.5670497  10.0322425  50.9214456  42.4231019
   9.8907917  50.0698397  42.5475527  10.3162989  50.9643117  41.5993225
  10.0530271  50.8014206  42.3198643  20.1861018  52.7581547  36.5675507
  19.9395732  52.6777298  37.4012296  20.5146141  51.9735014  36.3738035
  20.1982261  52.6307812  36.6623030  24.0809067  59.4664906  40.3562288
  23.9423426  60.1645952  40.8611031  23.3009064  59.3113562  39.9998470
  23.9452293  59.5465073  40.3788562  22.4187152  55.7661281  46.6084670
  22.4135190  54.8941098  46.6127096  23.1248146  55.9649450  46.1354126
  22.5232156  55.6665155  46.5391705  16.1458045  55.4938265  45.9798490
  16.2901421  56.0739473  45.3441600  16.4933694  55.8714562  46.6848345
  16.2185506  55.6358969  45.9897485  18.3177962  54.6928434  43.7623622
  17.5701276  54.8859448  43.3571900  18.4719488  53.8673653  43.5247743
  18.2300390  54.5993545  43.6669028  15.2185800  63.6841037  42.8459517
  15.3675364  63.1243953  42.1932921  15.9985802  63.7633039  43.2292036
  15.3559894  63.6126602  42.8056466  25.5762439  58.8243160  31.1178787
  25.1969248  58.0380298  31.1108077  24.9128685  59.3730017  30.9750432
  25.4220914  58.7887984  31.0959584  17.7439101  63.8555680  44.1244008
  17.6682772  63.1864490  44.6794796  17.6728960  64.5573468  44.6384674
  17.7219708  63.8600587  44.2820856  18.5579739  48.5878984  44.6519025
  19.0152354  49.3202959  44.7791818  18.6336068  48.1645450  45.4106281
  18.6370709  48.6336222  44.7820102  10.8012731  48.8344804  45.7408469
  10.2654920  48.2225162  46.0569236  10.8630495  49.4092940  46.3942136
  10.7308363  48.8291732  45.8843896  18.4009348  62.3756679  34.9567614
  19.1659239  62.1066323  34.6350278  18.2987438  61.8906689  35.6737677
  18.4990843  62.2646243  35.0147441  16.4362117  50.5781088  41.4960849
  15.6458192  50.3972548  41.8178185  16.8322740  49.8008041  41.4791144
  16.3778994  50.4368549  41.5413398  20.9228008  59.4068863  26.9367563
  21.6900993  59.4668988  26.5273415  20.4759317  58.8349304  26.4523882
  20.9701435  59.3305438  26.8045273  21.8205804  58.2123518  39.2220295
  21.1450805  57.9808751  39.7233682  21.8298180  57.6044701  38.5962400
  21.7224308  58.0882444  39.2036448  18.9499948  53.0541347  45.9784348
  18.8859089  53.9151304  45.8504485  19.0897135  52.7373341  45.1779900
  18.9615418  53.1341514  45.8412561  23.8222538  61.0688651  31.4530473
  23.9042376  61.8755637  31.1291924  24.3072280  61.0884610  32.1771247
  23.9059696  61.1909313  31.5117372  17.6319042  55.7473487  40.1200551
  17.2081291  55.9477986  39.3839570  17.4563897  54.9002335  40.2324851
  17.5429922  55.6522268  40.0274241  17.1330735  67.2624000  42.5822009
  17.6226665  66.5634789  42.3997673  16.5614967  66.9647870  43.1698066
  17.1215265  67.1150223  42.6423049  12.9201486  56.2425538  35.5528524
  13.0766106  56.1772341  36.4084516  13.2602080  57.0174091  35.3407203
  12.9934721  56.3474736  35.6483118  19.4580631  55.6183422  34.4221887
  19.9996177  55.1153803  34.8860508  19.7727190  55.5648616  33.6111372
  19.5845028  55.5362843  34.3705699  23.3297739  59.8286069  51.5348799
  24.1432604  59.5571218  51.6953932  23.1692705  59.5293609  50.7308995
  23.4267687  59.7440995  51.4394205  17.6267081  61.0100773  31.7061915
  17.6959901  60.1515312  31.8454915  18.4055536  61.2272654  31.3780940
  17.7519931  60.9153637  31.6779072  20.6069900  50.5119726  44.4744187
  20.8211870  49.8730640  43.9207541  19.9903800  50.9565550  44.0452049
  20.5475230  50.4829870  44.3294619  22.0174568  63.4338475  35.9198408
  21.6254360  63.1305190  35.2021275  22.1727641  64.2707564  35.7303362
  21.9828158  63.5122311  35.7854905   9.4935748  53.4260489  35.8689291
   9.8734713  53.8445034  35.2049558   8.9191113  54.0073944  36.1758134
   9.4647073  53.5738347  35.8166032  22.7708988  52.1208791  45.4127495
  21.9585670  51.8134682  45.4940667  23.2298923  51.6407792  45.9770207
  22.7189373  52.0045284  45.5082089  22.1814243  59.9988463  35.8604439
  21.8228898  60.1703106  36.6368471  21.6952954  60.4601669  35.3032437
  22.0572940  60.0927434  35.8929708  19.9984629  43.6219662  39.4631530
  19.1278187  43.5958383  39.4164840  20.2524970  43.4496854  38.6457376
  19.9078189  43.5929806  39.3351667  16.9702609  55.6787629  28.4004673
  17.2595133  56.4552511  28.6748248  17.0574407  55.1676360  29.1019173
  17.0256865  55.7179547  28.5447171  19.8662496  53.5268863  50.1956197
  20.3362127  54.1510979  50.5824071  19.9124376  52.8585838  50.7549412
  19.9430372  53.5203543  50.3356268  17.0233770  45.6325890  40.9205001
  16.5072258  44.9406082  41.0456580  16.4627699  46.2996667  40.8667599
  16.8640283  45.6289148  40.9311067  19.0926003  46.1718850  42.7497853
  18.7057756  46.1967882  43.5311383  18.6058940  45.6060529  42.2972370
  18.9638512  46.0914601  42.7985757  23.3418983  60.8892359  46.8071640
  23.9798703  60.3952555  46.4734096  22.6993074  60.8169760  46.2223867
  23.3413209  60.8051368  46.6713995  25.0675983  52.7381505  41.3737555
  24.6403591  52.6507854  40.6185655  24.4302036  52.8459281  41.9592399
  24.9105590  52.7414165  41.3482997  18.7583145  43.0585836  45.0408113
  19.3876263  43.5946136  44.7629183  18.9269008  42.9663195  45.8921679
  18.8760939  43.1247198  45.1256641  18.5597060  47.8457031  47.3134525
  19.3870489  47.5742179  47.3693139  18.5804906  48.6417872  47.6698343
  18.6849910  47.9236785  47.3749708  23.3973239  61.5812168  43.4476997
  24.1865617  61.2301232  43.5679078  23.5716837  62.3948556  43.1853630
  23.5393521  61.6498025  43.4264865  13.1366550  54.9920893  40.5004785
  12.2954556  54.8924768  40.7083679  13.3456557  55.7616374  40.8519106
  13.0431242  55.0912937  40.5832100  10.6142116  52.6140430  38.3289536
  10.2198814  52.6883442  37.5539646  10.0582233  52.9998377  38.8797898
  10.4744929  52.6822205  38.2957196  16.9483214  52.9202293  39.7502383
  16.6446352  52.3658281  40.3512791  16.2462635  53.0994502  39.2630417
  16.7999424  52.8647075  39.7672089  16.0049311  50.2302812  34.3147085
  16.2809046  49.5121725  33.9024652  16.6047981  50.8287732  34.1068191
  16.1342576  50.2123183  34.2227846  15.0101565  60.1352013  44.4574481
  14.9021920  60.1454075  45.3236539  15.2197347  60.9606794  44.2679434
  15.0251676  60.2593088  44.5578572  19.5059832  47.9016330  32.5893680
  19.9603579  48.0726890  33.3141524  19.9799878  47.2884440  32.1891455
  19.6428152  47.8367215  32.6367441  13.0275357  57.3864656  41.9196418
  12.4363291  58.0274154  41.8899433  13.7896381  57.8102273  41.8927718
  13.0523618  57.5440494  41.9111565  13.4235980  48.5466653  42.5864436
  13.8837462  48.6205583  43.3239560  13.4692087  49.3447907  42.2364257
  13.4986536  48.6760800  42.6437192  15.0719330  49.2133348  47.1536463
  14.6804895  48.5666695  47.5892241  15.2405193  49.8044784  47.7730718
  15.0390240  49.2047616  47.3099169  29.1465779  57.2170425  42.9173697
  29.2048903  57.6657074  43.6633673  28.5132247  57.6269238  42.4803777
  29.0617074  57.3444160  42.9626245  22.7864874  62.8373967  39.3528443
  22.5884562  63.3264782  38.6584654  22.1652585  63.0415209  39.9312576
  22.6652438  62.9390505  39.3351666  16.8472852  54.6058864  33.6938687
  17.5914897  54.9933140  33.9321637  16.9933548  53.7616289  33.8579175
  16.9783437  54.5389337  33.7532657  18.7652427  46.4009123  38.7270548
  17.9188473  46.5731931  38.6011898  18.7623560  45.5958467  39.0636377
  18.6399577  46.3070152  38.7581675  19.8350728  50.1784337  39.5932606
  19.3610682  49.6526099  40.1037917  20.2068864  49.6313810  39.0247468
  19.8200617  50.0200334  39.5847754  10.2123758  52.1755844  44.9616152
  11.0749371  52.0751553  44.8753482   9.8815541  51.5950553  44.4001724
  10.2908954  52.0747471  44.8661558  26.0987458  55.2386713  41.0039387
  25.8585681  54.3993128  41.0081813  26.5779466  55.3186880  41.7280160
  26.1339642  55.1268113  41.1114189  21.7634227  51.0720892  32.6558360
  21.2357246  51.1549636  31.9664069  22.2229936  51.8138763  32.6523005
  21.7536078  51.1941554  32.5533055  28.0992645  52.0188170  38.9568646
  27.8602415  51.9784004  38.1189431  28.2626547  52.8659322  39.0834367
  28.0882949  52.1380255  38.8522128  24.7038676  56.4038120  44.8873691
  25.4272874  55.9510646  44.7084711  24.4388638  56.6842785  44.1046019
  24.7719949  56.3789088  44.7452406  13.5725544  50.9998293  41.6226570
  12.9478614  51.0116685  41.0152523  13.2371139  51.4758468  42.2717810
  13.4311036  51.0716810  41.6283139  13.7567293  49.3423412  27.6799255
  13.4080097  49.9943137  28.1430805  13.2763738  49.3280525  26.9523126
  13.6337537  49.4366465  27.6410347  10.2851219  59.0598753  43.0630335
   9.7551144  58.3691192  43.1125309  10.5576313  59.0508938  42.2343043
  10.2475942  58.9565885  42.9477751  21.3171310  59.6424456  31.7868017
  22.0405509  60.1082568  31.6432590  20.8771901  59.7098065  31.0365614
  21.3587002  59.7208292  31.6552799  20.4857465  56.5021998  43.0368706
  19.8714458  55.9580048  43.3317341  21.0024750  55.9886234  42.5574522
  20.4713127  56.3458407  43.0092935  19.7253762  57.5726268  40.7713005
  19.2981370  56.9475986  40.3378440  19.7178707  57.2901190  41.5972012
  19.6612903  57.4379048  40.8292832  12.8416289  52.6091441  43.8401439
  13.0009776  51.8534765  44.2453161  12.6609183  53.1582380  44.4942176
  12.8381648  52.5785255  43.9964145  20.7836592  44.7752676  44.3952228
  20.2877154  44.9716351  43.7043795  21.5405654  45.1745345  44.2241030
  20.8223417  44.8630410  44.2672365  18.0539472  48.4495022  40.9855539
  18.0781959  47.9155135  40.2968319  18.3050946  47.9412331  41.6481129
  18.0949391  48.2955926  40.9820183   5.5647062  55.7326517  40.4198683
   5.4590511  55.6873362  39.5550767   4.8147282  56.0780298  40.7012968
   5.4382665  55.7767425  40.3336013  14.3340794  47.1765841  40.3661283
  14.3739166  47.6775047  41.0795991  13.5090459  47.2676234  40.0967206
  14.2180320  47.2647657  40.4311821  16.5170407  56.7426581  48.4681578
  15.6666038  56.8798295  48.6039223  16.6798535  56.0090359  48.9129279
  16.4154271  56.6540682  48.5537177  15.7555158  53.6926350  42.6635182
  14.9247087  53.8600168  42.4570430  15.7006675  53.3162301  43.4484067
  15.6244572  53.6616082  42.7483710  13.5638941  47.1835243  48.2991593
  14.1891644  46.6397376  48.5721025  13.1089421  46.7030161  47.7299383
  13.5887201  47.0324725  48.2553187  14.1291201  51.9681942  33.1925300
  14.2694162  52.4654406  33.8953941  14.6273734  51.2668236  33.3339513
  14.2232282  51.9383921  33.3176879  14.1591424  52.8349053  30.5217877
  14.7936503  53.4309478  30.4567338  14.2417035  52.5352511  31.3363747
  14.2647975  52.8789961  30.6320963  27.1373990  55.3664530  43.3904241
  27.7291830  56.0061781  43.4222439  27.5732984  54.6687567  43.6796308
  27.2892421  55.3582881  43.4385073  15.7370407  48.7663028  30.4963319
  16.0586248  48.2866111  29.8422581  15.9997350  49.5762674  30.3054130
  15.8236432  48.8152926  30.3718811  18.9667379  59.7881903  44.0162135
  18.4592470  60.3417750  44.4602765  18.6694026  59.8490193  43.1980909
  18.8472264  59.8788214  43.9610591  21.1329562  48.1535222  42.8586798
  21.5584633  47.7007749  42.2470324  20.5186555  47.5995293  43.1351585
  21.1058207  48.0049199  42.8091823  10.6644412  55.0316894  33.7907423
  11.1736641  55.6281401  34.1718728  11.1378684  54.7642867  33.1083842
  10.8087787  55.0802709  33.7461945  21.5775160  63.7045160  31.9466078
  20.8604469  63.5306023  31.4813316  22.2281897  63.4697733  31.4141564
  21.5677010  63.6440953  31.7995296  19.5723784  44.6250322  36.2677375
  18.9292102  44.4747968  36.8362513  19.2323191  44.3792667  35.5026479
  19.4268862  44.5662445  36.2380390  24.1623131  52.5809749  35.6907383
  23.4914321  53.1239451  35.5620449  24.8562881  53.0504604  35.4489078
  24.1651998  52.7308020  35.6362911  18.2109865  64.7206461  40.9219142
  17.9875519  63.9625290  41.2903168  17.7219708  64.7504482  40.1999581
  18.1053314  64.6128685  40.8695883  24.3251258  49.0365633  38.5997757
  24.6778868  48.6095356  39.2743555  23.4666060  48.9516476  38.7298833
  24.2500703  48.9610373  38.7192767  13.0234943  51.6673152  36.6580603
  12.3046932  52.0837285  36.9253467  13.3947306  52.2327391  36.1072241
  12.9726875  51.8122434  36.6163410  22.3234524  52.3001001  42.5482599
  22.3032451  52.1184296  43.4017378  22.3713725  53.1713020  42.5242182
  22.3269165  52.4017539  42.6705894  20.2680854  58.8888193  48.4731075
  20.2276709  58.2437870  47.8876231  21.0804172  58.8324811  48.7856487
  20.3824008  58.7847160  48.4328025  16.8588322  64.9406919  38.3756226
  16.4448720  64.2781049  37.9860068  17.5435696  65.0884778  37.8551920
  16.8986693  64.8647577  38.2412723  20.2253616  64.0997004  39.1279843
  19.8269899  64.2099275  38.3600663  19.6104835  64.3079071  39.7106403
  20.0752505  64.1470572  39.1011142  18.7981518  50.7071152  31.9953983
  18.2046357  51.0288149  31.4438550  18.8356795  49.8612248  31.7875089
  18.7155907  50.6295480  31.8836754  21.6739334  50.6650657  35.4255733
  21.4453027  50.6883358  34.5834091  21.9337411  49.8408124  35.5450743
  21.6785522  50.5466737  35.3180930  15.9558563  52.5185130  45.0280833
  15.4437466  51.9106313  45.3865864  15.7838059  53.2341722  45.4954809
  15.8548200  52.5348429  45.1497057  10.8024277  50.9622705  47.6783195
  10.6326868  51.6224080  47.1331401  10.3590227  51.1729266  48.3995684
  10.7123611  51.0908687  47.7044824  14.7284097  49.2027203  36.7209928
  15.2041463  49.5644283  36.0860110  14.2272696  49.8583671  37.0010071
  14.7249456  49.3521392  36.6686669  19.8327633  50.4409374  47.4683089
  20.3899063  50.2123184  46.8361554  19.5088698  51.2015040  47.1918301
  19.8674043  50.5193211  47.3339586   7.7026342  53.8669571  42.9371685
   7.1553061  53.1970216  43.0552553   8.4918720  53.4999418  43.0015152
   7.7378526  53.7134557  42.9640385  17.5510750  53.5277028  48.4335096
  18.3022077  53.8428705  48.7474650  17.7433327  53.3256199  47.6069017
  17.6902165  53.5444409  48.3578491  16.7710750  51.3468403  30.0883312
  17.1509715  51.3648032  29.3034427  16.0303346  51.7922392  29.9674160
  16.7179588  51.4150177  29.9546881   6.4613311  53.0790378  40.0917708
   6.2835073  52.6266987  40.8172623   6.1732334  53.8816540  40.2756185
   6.3926265  53.1312936  40.2261211  22.1236893  54.3348096  39.3295098
  22.6190558  53.6171091  39.2899118  21.3136668  54.0318893  39.2149585
  22.0780786  54.1845742  39.3068824  17.5695504  58.1845909  31.4792102
  16.7606827  57.8612583  31.4325412  18.0770413  57.4779131  31.4120351
  17.5245171  58.0327225  31.4622397   8.1985781  55.6118102  37.2039467
   7.3331301  55.6003793  37.0922238   8.2984597  55.4248325  38.0510606
   8.0859948  55.5824163  37.3128411  24.1888711  57.0851783  42.0172227
  24.6143783  56.5626205  41.4642652  23.8245631  57.6832621  41.4960850
  24.1975314  57.0962010  41.8581236  13.8242791  65.3816001  40.7769572
  14.1389350  66.1952389  40.7847354  14.2336205  64.9966219  41.4451731
  13.9310889  65.4444703  40.8773664  20.7767311  60.7986048  38.3473384
  21.2478489  61.5126310  38.5163369  21.1127489  60.1984798  38.8833254
  20.8962426  60.8157512  38.4505760  22.8644295  62.4087361  50.5265456
  22.9741261  61.6195921  50.8822203  23.1935192  62.3193297  49.7239794
  22.9296701  62.2793214  50.4607847  17.6936806  45.5713518  45.3031479
  17.8264711  44.7744512  45.6312455  18.0781959  46.0979921  45.8829755
  17.7693135  45.5313435  45.4374982  21.4141257  60.5903982  45.1101077
  20.8662203  59.9661865  44.8421142  21.8754286  60.7798254  44.3945156
  21.4008467  60.5263032  44.9651508  20.7669161  42.4943844  41.9012572
  19.9615125  42.3841574  42.2180411  20.6375896  42.5956300  41.0442438
  20.6289294  42.4927514  41.8220613  24.2235122  48.6589336  42.4952269
  23.6398110  49.1598543  42.0829837  24.5439416  48.1518892  41.8616592
  24.1848297  48.6581171  42.3410776  16.7629921  47.5729931  32.7710944
  17.5845615  47.7428244  32.5292639  16.2999572  47.7277192  32.0477242
  16.8161083  47.6211664  32.6282588  15.3525253  45.5672693  43.5509373
  15.8969666  45.2263820  44.1413714  15.4062188  46.4258155  43.6930657
  15.4414372  45.6427953  43.6591246  11.1655811  59.3289109  40.4248181
  11.7700669  59.2884943  39.7962001  10.9583124  60.1760261  40.4552236
  11.2244709  59.4477112  40.3364297  20.9799583  61.5955054  41.6410418
  21.7997957  61.4518020  41.9026713  20.6993661  62.2201253  42.1826856
  21.0596327  61.6665406  41.7598357   6.4007094  58.3123727  40.2947104
   6.3031372  57.5019998  40.6037160   7.1835963  58.2915520  39.9093372
   6.5023230  58.1890817  40.2833967  37.4513234  69.2519906  34.6053294
  37.4207238  70.1064543  34.7771564  38.0494583  68.9515199  35.1639438
  37.5350392  69.3336403  34.7128097  30.6512919  68.3395557  39.3606225
  29.7950814  68.5004055  39.4115342  30.6980572  67.4687621  39.3811286
  30.5312030  68.2346359  39.3712291  33.9606635  74.6082083  48.9666681
  34.6673403  74.1134113  49.0953615  34.1494571  75.0491164  48.2369339
  34.0934541  74.6000433  48.8775726  33.4964740  70.3987601  42.0037876
  34.0420700  71.0772688  42.0631846  33.4381616  70.2575062  41.1439458
  33.5680654  70.4779603  41.8849937  35.2729808  71.8272208  32.8771604
  35.1569334  72.5779894  33.3063742  36.0685695  71.5696161  33.1267691
  35.3734398  71.9007055  32.9775696  22.1093946  66.0782684  39.9142870
  21.4898978  65.4875332  39.7452885  22.0077810  66.6694120  39.2807193
  22.0031622  66.0786767  39.7947860  27.1560134  75.8166231  34.1640947
  27.4775975  76.3571438  33.5602255  27.8032230  75.2463003  34.2963236
  27.2986189  75.8125406  34.0947982  29.2061842  67.8182226  34.2475333
  29.9042007  67.9970354  34.7396797  29.5214174  67.2952565  33.6245723
  29.3557179  67.7675998  34.2277343  21.8363079  69.6234966  42.1586439
  21.7121776  70.2097412  42.7936258  22.4881364  69.1295162  42.4598714
  21.9136729  69.6373770  42.2972369  29.3949777  74.2052671  34.2355125
  29.8343413  73.5969772  34.6809898  29.2454440  73.8260044  33.4640590
  29.4371243  74.0591142  34.1874292  26.8621420  72.7996683  41.4373950
  27.5070423  72.3069126  41.1184899  27.1023197  72.9421470  42.2640029
  26.9932005  72.7474125  41.5123484  29.4007512  75.6451589  41.0880843
  29.6830755  74.8502995  40.8667599  30.1293672  76.1232176  41.1085904
  29.5497075  75.5986186  41.0583858  27.3788706  63.1874623  38.3296608
  27.0492036  63.6385766  37.6600307  26.7033707  63.1090786  38.8769614
  27.2299142  63.2425758  38.3119831  32.9959114  72.5579852  31.1885894
  32.9110409  73.4140819  31.3335463  33.4843497  72.2824176  31.8568053
  33.0548011  72.6437174  31.3087976  33.9277547  69.1764647  32.6883629
  33.3989019  69.3924280  33.3480935  34.4502567  69.8700785  32.6084599
  33.9266000  69.3107783  32.7739228  39.3825600  74.7510951  38.0616674
  38.5523303  74.9621595  38.2250090  39.3334852  73.9248006  37.7858957
  39.2532335  74.6600557  38.0454039  25.8177155  73.0727863  31.4891097
  25.2334370  73.5777895  31.8956961  25.4147250  72.8470250  30.7487689
  25.6716459  73.1136112  31.4396122  31.0998930  78.0309619  46.8580756
  31.1882275  77.8435760  47.7058967  31.5288642  77.3847049  46.4585603
  31.1761032  77.9072627  46.9252508  30.2754369  69.3193515  29.9660018
  30.5150373  69.5271499  29.1535361  30.5970210  68.5151024  30.0748962
  30.3591527  69.2307617  29.8620571  25.5844660  61.2486911  33.8119556
  26.3390628  61.6165228  33.5736606  25.4072194  61.6226466  34.5798735
  25.6699138  61.3585099  33.8904444  25.2744287  69.5414387  47.5715464
  25.4464791  69.4320282  48.4200745  25.8113645  70.1868793  47.3346656
  25.3789291  69.6206389  47.6620560  23.9401724  63.6557230  30.5097669
  23.7577297  63.8729111  29.6838661  24.8027337  63.7696243  30.5656283
  24.0406314  63.7047128  30.3952156  33.6009744  71.5937028  37.4478986
  34.3567259  72.0268543  37.4867895  33.7072069  70.9441798  38.0213622
  33.7279915  71.5614512  37.5377012  36.6389915  75.4210305  38.1981389
  36.2025147  75.4247048  38.9540361  36.3052831  76.1015804  37.7660967
  36.5252535  75.5222761  38.2462222  31.2118989  77.4618638  49.5224540
  31.9959405  77.5749486  49.8880282  31.0115583  76.6359775  49.7183226
  31.2985014  77.3565358  49.6058926  19.5806004  72.1346318  42.4068384
  19.3144420  71.3185435  42.5659374  19.5944568  72.1799474  41.5363899
  19.5430727  72.0203223  42.3021866  36.5587398  62.4624133  40.4410817
  37.2013307  62.5322238  41.0272733  36.8110419  61.7953356  39.9390359
  36.6909530  62.3750482  40.4538097  23.4863751  66.9331403  29.0220142
  22.7721928  66.6469582  29.4342574  23.9707720  67.2728029  29.6626529
  23.4523115  66.9413052  29.1775777  24.3304611  65.6724697  45.0535391
  23.6376407  65.2021676  45.2996123  24.9464938  65.4463001  45.6277098
  24.3189141  65.5691828  45.1744544  39.7734261  72.1391225  37.0901027
  40.4350696  71.5781894  36.9896935  39.1325673  71.6443256  37.4153718
  39.7763129  71.9827634  37.1233367  30.6611069  75.4361357  29.3981950
  31.0762218  75.1046381  28.7066446  29.8302999  75.2030259  29.2702087
  30.5999078  75.3532613  29.2772797  19.9899418  72.9205098  39.6880128
  19.8074991  72.8951984  38.8352420  20.7249087  73.3904036  39.7269037
  20.0713482  72.9866460  39.5678046  36.0599092  73.1556608  36.8313015
  36.2954681  73.3001807  36.0039866  36.2088656  73.9199016  37.2244529
  36.1164895  73.2895662  36.7676619  23.0545170  69.6390101  46.1962237
  23.7785142  69.6243131  46.6827131  23.1561306  70.3485456  45.6984205
  23.1763379  69.7414804  46.1941023  37.8889549  71.9958274  34.6682619
  38.2197766  72.5285914  34.0622714  38.4622637  72.0497161  35.3244570
  38.0223228  72.0827843  34.6760401  30.4290119  73.1189185  51.0611184
  29.6363100  73.4332697  51.2463803  30.5439046  73.3340654  50.2231968
  30.3285530  73.1973022  50.9649518  33.1021438  69.8423176  35.3506199
  33.1968292  70.5812470  35.8045825  32.4780282  69.4140652  35.7840764
  33.0230468  69.8884497  35.4814347  31.3573912  73.0209389  45.9996480
  31.9312774  72.3836633  46.1545044  31.2788716  73.0213471  45.1306138
  31.4307147  72.9274500  45.8942891  19.9570328  69.7998598  39.8379194
  20.5343831  69.6635049  40.4771440  19.2584390  69.3434383  40.0924779
  19.9391350  69.7120865  39.9701484  33.3544459  71.6871916  28.5843151
  33.2724622  71.7574103  29.4498138  33.9924180  72.2501660  28.3926892
  33.4364297  71.7810887  28.6833101  26.7137630  71.4532654  38.0517678
  26.4556875  70.6204389  38.0248977  26.7686113  71.6790267  37.2110178
  26.6837408  71.3630425  37.9237814  31.7938681  63.5561105  38.1521770
  31.0895007  63.0670290  38.3105690  31.8423655  63.5683579  37.2810215
  31.6968732  63.4850753  38.0461110  25.6872343  69.0070417  38.5382572
  25.1121934  69.1662585  39.1746533  25.3108019  68.3705826  38.0751023
  25.5475155  68.9368230  38.5637131  29.3545631  67.4793766  43.3974951
  28.9660064  67.0547984  42.7427142  28.6900330  67.7275916  43.9051977
  29.1992559  67.4532487  43.3762819  38.9968900  67.2368771  36.1722781
  38.7405465  66.4248712  35.9820664  39.8398214  67.2446338  35.9452968
  39.0834926  67.1180768  36.1107598  15.4329162  68.6510491  36.5527013
  15.5189413  68.2742360  37.3340543  16.0604959  68.2770937  36.0746971
  15.5385713  68.5395974  36.5972490  33.1771993  61.1768395  40.9098935
  33.5582505  60.4946566  41.2966809  32.3735277  60.8877997  40.7274600
  33.1148455  61.0335443  40.9402991  30.4584570  71.7092370  31.5951758
  31.2725208  72.0007263  31.4834529  30.3943711  71.0552233  31.0210051
  30.5687309  71.6557565  31.4940595  36.6794060  74.3918367  46.0081333
  36.4432697  73.5606431  45.8893394  37.3237289  74.3403974  46.5936178
  36.7388730  74.2616055  46.0767227  26.3292478  75.1813888  36.7224070
  26.9666425  74.9425635  37.2675863  26.7547549  75.3851047  35.9877231
  26.4868644  75.1764898  36.6941227  26.9695293  70.4016178  31.0598959
  27.3540446  70.1823884  31.8115504  26.7206913  71.2279123  31.1900036
  26.9897365  70.4914324  31.1900036  27.1363833  63.6822593  50.7761544
  26.8217274  64.4522156  50.5131106  26.8153766  63.1192849  50.1913770
  27.0422752  63.7132862  50.6502893  37.7030480  74.1762815  42.0709628
  37.3976297  74.9090872  42.4322944  36.9836696  73.7700745  41.7902414
  37.5517823  74.2244548  42.0822765  28.7113950  75.6586311  38.4017856
  28.7852958  75.4961482  39.2559706  29.5283456  75.8476500  38.1578338
  28.8430308  75.6623053  38.4915882  43.4032272  70.8155816  41.3977972
  43.3356773  70.8351775  40.5280559  43.3887935  71.6586143  41.6233643
  43.3911029  70.9429551  41.3030449  24.6895730  62.0713114  36.3907740
  23.8218156  62.1435714  36.4565349  24.9770935  62.8735193  36.5795715
  24.6035478  62.2007261  36.4282506  33.8128619  62.2190974  44.7219062
  34.5582211  62.0300784  44.3082487  33.3965924  62.7449212  44.1632918
  33.8613593  62.2693119  44.5783635  41.1890890  69.5900202  39.6724567
  41.7398811  68.9568271  39.9121659  41.1735005  70.1215595  40.3640071
  41.2676086  69.5749150  39.8103425  27.8413281  73.4238800  44.2184460
  27.3424974  74.1354567  44.2969349  28.6513505  73.7439466  44.1802622
  27.8869387  73.5765648  44.2241029  24.1041398  72.6861753  38.4647181
  23.8154647  72.0599224  38.9992908  24.9724746  72.6282040  38.5311861
  24.1901650  72.5849297  38.5538136  34.8919296  67.8296536  38.7829163
  34.5484062  67.1086871  39.1336413  34.9912339  67.6210387  37.9407521
  34.8561339  67.6920739  38.7100843  24.3073672  74.3257004  34.3889546
  25.0619640  74.7070043  34.6025009  23.7144284  74.7768147  34.8436243
  24.3310385  74.4485831  34.4872424  35.3532325  74.2922240  34.3253151
  35.9190358  74.9515450  34.2411694  34.7060229  74.6371938  34.7969553
  35.3411082  74.4404181  34.3825907  26.7680339  66.2819844  49.5146758
  25.9580114  66.5877624  49.4036601  27.2455025  67.0025426  49.6299342
  26.7183817  66.4334445  49.5153829  25.6271898  75.4965565  39.7629661
  25.1052652  75.6365857  40.4481526  26.0145919  74.7376229  39.9531779
  25.6075599  75.4051089  39.8930738  22.6163082  65.5471374  33.8324616
  22.3287878  65.1772644  33.0956563  23.3033550  66.0166229  33.5708321
  22.6751980  65.5618343  33.6839692  31.8238903  77.2361024  33.7490230
  31.5825579  76.5028885  33.3417295  32.0040236  77.7847881  33.0956563
  31.8146527  77.2083415  33.5920453  27.0538224  72.5269584  35.1611152
  26.8581006  73.1344318  34.5671455  27.2772569  71.8337528  34.6802826
  27.0572865  72.5147109  35.0027233  25.4516754  69.4124322  35.2792021
  26.1739406  69.5765480  34.8195827  24.9724747  70.1333987  35.1731361
  25.4880485  69.5422551  35.1957635  33.4110261  65.7488121  40.6588706
  32.5721362  65.7749400  40.4226969  33.4814629  66.3958856  41.2394052
  33.2978655  65.8484246  40.7097823  23.1024371  71.8182394  44.3846161
  23.6145467  72.0966648  43.7354920  22.8160713  72.5571688  44.7508974
  23.1359234  71.9684748  44.3436039  37.2867785  70.9556107  37.9449948
  37.2001760  71.1111533  38.7984726  36.8318265  71.5994183  37.5709353
  37.2071042  71.0731863  38.0157054  20.1891277  66.3252586  34.6809897
  20.2907413  67.1278748  35.0090873  20.9847164  66.1239922  34.3832978
  20.3219182  66.4138485  34.6845253  26.6208096  63.9108783  44.4447202
  26.4291293  63.9263917  45.2946626  27.4706692  64.1072457  44.4213857
  26.7183818  63.9423134  44.5670497  21.0055009  66.4399764  42.4231019
  20.8640501  65.5883705  42.5475527  21.2895572  66.4828425  41.5993225
  21.0262855  66.3199514  42.3198643  31.1593601  68.2766855  36.5675507
  30.9128316  68.1962605  37.4012296  31.4878724  67.4920322  36.3738035
  31.1714845  68.1493120  36.6623030  35.0541650  74.9850214  40.3562288
  34.9156009  75.6831260  40.8611031  34.2741648  74.8298870  39.9998470
  34.9184877  75.0650381  40.3788562  33.3919735  71.2846589  46.6084670
  33.3867774  70.4126406  46.6127096  34.0980729  71.4834758  46.1354126
  33.4964739  71.1850463  46.5391705  27.1190629  71.0123573  45.9798490
  27.2634004  71.5924781  45.3441600  27.4666277  71.3899870  46.6848345
  27.1918090  71.1544277  45.9897485  29.2910546  70.2113742  43.7623622
  28.5433860  70.4044756  43.3571900  29.4452071  69.3858961  43.5247743
  29.2032974  70.1178853  43.6669028  36.5495023  74.3428468  31.1178787
  36.1701832  73.5565606  31.1108077  35.8861268  74.8915325  30.9750432
  36.3953498  74.3073292  31.0959584  29.5312323  64.1064292  44.6519025
  29.9884937  64.8388267  44.7791818  29.6068652  63.6830757  45.4106281
  29.6103293  64.1521530  44.7820102  21.7745314  64.3530112  45.7408469
  21.2387504  63.7410470  46.0569236  21.8363079  64.9278248  46.3942136
  21.7040947  64.3477040  45.8843896  34.0039649  57.2854167  38.5212868
  34.1223217  57.7430631  37.7880171  33.8301825  56.4799429  38.2349086
  33.9958820  57.2347940  38.3713802  27.4094701  66.0966396  41.4960849
  26.6190776  65.9157856  41.8178185  27.8055324  65.3193349  41.4791144
  27.3511577  65.9553857  41.5413398  31.8960592  74.9254170  26.9367563
  32.6633577  74.9854295  26.5273415  31.4491901  74.3534612  26.4523882
  31.9434019  74.8490746  26.8045273  32.7938387  73.7308826  39.2220295
  32.1183389  73.4994059  39.7233682  32.8030763  73.1230009  38.5962400
  32.6956892  73.6067752  39.2036448  29.9232531  68.5726655  45.9784348
  29.8591672  69.4336612  45.8504485  30.0629719  68.2558648  45.1779900
  29.9348001  68.6526822  45.8412561  34.7955122  76.5873959  31.4530473
  34.8774959  77.3940945  31.1291924  35.2804864  76.6069918  32.1771247
  34.8792280  76.7094621  31.5117372  28.6051625  71.2658795  40.1200551
  28.1813874  71.4663294  39.3839570  28.4296480  70.4187643  40.2324851
  28.5162506  71.1707576  40.0274241  23.8934070  71.7610846  35.5528524
  24.0498689  71.6957649  36.4084516  24.2334663  72.5359399  35.3407203
  23.9667305  71.8660044  35.6483118  30.4313215  71.1368730  34.4221887
  30.9728760  70.6339111  34.8860508  30.7459774  71.0833924  33.6111372
  30.5577612  71.0548151  34.3705699  34.3030322  75.3471377  51.5348799
  35.1165187  75.0756526  51.6953932  34.1425288  75.0478917  50.7308995
  34.4000271  75.2626303  51.4394205  28.5999664  76.5286081  31.7061915
  28.6692485  75.6700620  31.8454915  29.3788120  76.7457962  31.3780940
  28.7252514  76.4338945  31.6779072  31.5802484  66.0305034  44.4744187
  31.7944454  65.3915948  43.9207541  30.9636383  66.4750858  44.0452049
  31.5207813  66.0015178  44.3294619  20.4668332  68.9445797  35.8689291
  20.8467296  69.3630341  35.2049558  19.8923696  69.5259252  36.1758134
  20.4379656  69.0923655  35.8166032  33.7441572  67.6394099  45.4127495
  32.9318254  67.3319990  45.4940667  34.2031507  67.1593099  45.9770207
  33.6921957  67.5230592  45.5082089  33.1546827  75.5173771  35.8604439
  32.7961481  75.6888414  36.6368471  32.6685538  75.9786977  35.3032437
  33.0305524  75.6112742  35.8929708  27.9435192  71.1972937  28.4004673
  28.2327717  71.9737819  28.6748248  28.0306991  70.6861668  29.1019173
  27.9989448  71.2364855  28.5447171  30.8395080  69.0454171  50.1956197
  31.3094711  69.6696287  50.5824071  30.8856960  68.3771146  50.7549412
  30.9162955  69.0388851  50.3356268  27.9966353  61.1511198  40.9205001
  27.4804842  60.4591390  41.0456580  27.4360282  61.8181975  40.8667599
  27.8372866  61.1474456  40.9311067  30.0658587  61.6904158  42.7497853
  29.6790340  61.7153190  43.5311383  29.5791524  61.1245837  42.2972370
  29.9371096  61.6099909  42.7985757  34.3151566  76.4077667  46.8071640
  34.9531287  75.9137863  46.4734096  33.6725658  76.3355068  46.2223867
  34.3145793  76.3236676  46.6713995  36.0408566  68.2566813  41.3737555
  35.6136174  68.1693162  40.6185655  35.4034619  68.3644589  41.9592399
  35.8838173  68.2599473  41.3482997  29.7315728  58.5771144  45.0408113
  30.3608846  59.1131444  44.7629183  29.9001591  58.4848503  45.8921679
  29.8493523  58.6432506  45.1256641  29.5329643  63.3642338  47.3134525
  30.3603073  63.0927487  47.3693139  29.5537489  64.1603180  47.6698343
  29.6582493  63.4422093  47.3749708  34.3705823  77.0997476  43.4476997
  35.1598201  76.7486540  43.5679078  34.5449421  77.9133864  43.1853630
  34.5126104  77.1683333  43.4264865  24.1099133  70.5106201  40.5004785
  23.2687140  70.4110075  40.7083679  24.3189141  71.2801682  40.8519106
  24.0163826  70.6098245  40.5832100  21.5874700  68.1325738  38.3289536
  21.1931398  68.2068750  37.5539646  21.0314817  68.5183685  38.8797898
  21.4477512  68.2007513  38.2957196  27.9215798  68.4387600  39.7502383
  27.6178935  67.8843589  40.3512791  27.2195219  68.6179810  39.2630417
  27.7732008  68.3832383  39.7672089  26.9781895  65.7488120  34.3147085
  27.2541629  65.0307033  33.9024652  27.5780564  66.3473040  34.1068191
  27.1075160  65.7308491  34.2227846  24.0007941  72.9049964  41.9196418
  23.4095874  73.5459462  41.8899433  24.7628965  73.3287581  41.8927718
  24.0256202  73.0625802  41.9111565  24.3968564  64.0651961  42.5864436
  24.8570045  64.1390891  43.3239560  24.4424670  64.8633215  42.2364257
  24.4719119  64.1946108  42.6437192  26.0451913  64.7318656  47.1536463
  25.6537479  64.0852003  47.5892241  26.2137776  65.3230091  47.7730718
  26.0122824  64.7232924  47.3099169  40.1198363  72.7355733  42.9173697
  40.1781486  73.1842382  43.6633673  39.4864830  73.1454546  42.4803777
  40.0349658  72.8629468  42.9626245  33.7597457  78.3559275  39.3528443
  33.5617146  78.8450090  38.6584654  33.1385168  78.5600517  39.9312576
  33.6385022  78.4575813  39.3351666  27.8205436  70.1244172  33.6938687
  28.5647480  70.5118448  33.9321637  27.9666132  69.2801597  33.8579175
  27.9516021  70.0574645  33.7532657  29.7385011  61.9194431  38.7270548
  28.8921056  62.0917239  38.6011898  29.7356143  61.1143775  39.0636377
  29.6132161  61.8255460  38.7581675  30.8083311  65.6969645  39.5932606
  30.3343266  65.1711407  40.1037917  31.1801447  65.1499118  39.0247468
  30.7933200  65.5385642  39.5847754  21.1856342  67.6941152  44.9616152
  22.0481955  67.5936861  44.8753482  20.8548125  67.1135861  44.4001724
  21.2641538  67.5932779  44.8661558  37.0720042  70.7572021  41.0039387
  36.8318265  69.9178436  41.0081813  37.5512049  70.8372188  41.7280160
  37.1072226  70.6453421  41.1114189  32.7366811  66.5906200  32.6558360
  32.2089830  66.6734944  31.9664069  33.1962519  67.3324071  32.6523005
  32.7268662  66.7126862  32.5533055  39.0725229  67.5373478  38.9568646
  38.8334999  67.4969312  38.1189431  39.2359130  68.3844630  39.0834367
  39.0615532  67.6565563  38.8522128  35.6771259  71.9223427  44.8873691
  36.4005458  71.4695954  44.7084711  35.4121221  72.2028093  44.1046019
  35.7452532  71.8974396  44.7452406  24.5458128  66.5183601  41.6226570
  23.9211198  66.5301993  41.0152523  24.2103722  66.9943776  42.2717810
  24.4043619  66.5902118  41.6283139  24.7299876  64.8608719  27.6799255
  24.3812681  65.5128445  28.1430805  24.2496322  64.8465833  26.9523126
  24.6070120  64.9551773  27.6410347  32.2903894  75.1609763  31.7868017
  33.0138092  75.6267876  31.6432590  31.8504485  75.2283373  31.0365614
  32.3319586  75.2393600  31.6552799  31.4590049  72.0207306  43.0368706
  30.8447042  71.4765356  43.3317341  31.9757334  71.5071542  42.5574522
  31.4445711  71.8643715  43.0092935  30.6986346  73.0911576  40.7713005
  30.2713954  72.4661294  40.3378440  30.6911290  72.8086498  41.5972012
  30.6345487  72.9564356  40.8292832  23.8148873  68.1276749  43.8401439
  23.9742360  67.3720073  44.2453161  23.6341767  68.6767688  44.4942176
  23.8114232  68.0970563  43.9964145  31.7569176  60.2937984  44.3952228
  31.2609737  60.4901659  43.7043795  32.5138238  60.6930653  44.2241030
  31.7956001  60.3815718  44.2672365  29.0272055  63.9680330  40.9855539
  29.0514543  63.4340443  40.2968319  29.2783529  63.4597639  41.6481129
  29.0681974  63.8141234  40.9820183  16.5379645  71.2511825  40.4198683
  16.4323094  71.2058670  39.5550767  15.7879865  71.5965606  40.7012968
  16.4115248  71.2952733  40.3336013  25.3073378  62.6951149  40.3661283
  25.3471749  63.1960355  41.0795991  24.4823042  62.7861542  40.0967206
  25.1912904  62.7832965  40.4311821  27.4902991  72.2611888  48.4681578
  26.6398621  72.3983603  48.6039223  27.6531118  71.5275667  48.9129279
  27.3886854  72.1725990  48.5537177  26.7287741  69.2111658  42.6635182
  25.8979671  69.3785476  42.4570430  26.6739258  68.8347609  43.4484067
  26.5977156  69.1801390  42.7483710  24.5371524  62.7020551  48.2991593
  25.1624228  62.1582684  48.5721025  24.0822004  62.2215469  47.7299383
  24.5619785  62.5510033  48.2553187  25.1023785  67.4867250  33.1925300
  25.2426746  67.9839714  33.8953941  25.6006318  66.7853544  33.3339513
  25.1964866  67.4569229  33.3176879  25.1324007  68.3534361  30.5217877
  25.7669087  68.9494786  30.4567338  25.2149618  68.0537819  31.3363747
  25.2380558  68.3975269  30.6320963  38.1106573  70.8849838  43.3904241
  38.7024413  71.5247089  43.4222439  38.5465568  70.1872875  43.6796308
  38.2625004  70.8768189  43.4385073  26.7102990  64.2848336  30.4963319
  27.0318831  63.8051419  29.8422581  26.9729934  65.0947982  30.3054130
  26.7969016  64.3338234  30.3718811  29.9399963  75.3067211  44.0162135
  29.4325054  75.8603058  44.4602765  29.6426609  75.3675501  43.1980909
  29.8204848  75.3973522  43.9610591  32.1062145  63.6720530  42.8586798
  32.5317217  63.2193057  42.2470324  31.4919138  63.1180601  43.1351585
  32.0790791  63.5234506  42.8091823  21.6376995  70.5502202  33.7907423
  22.1469225  71.1466709  34.1718728  22.1111267  70.2828175  33.1083842
  21.7820371  70.5988017  33.7461945  35.1355714  68.0995057  35.6907383
  34.4646904  68.6424759  35.5620449  35.8295465  68.5689912  35.4489078
  35.1384582  68.2493328  35.6362911  35.2983842  64.5550941  38.5997757
  35.6511452  64.1280663  39.2743555  34.4398643  64.4701784  38.7298833
  35.2233287  64.4795681  38.7192767  23.9967527  67.1858460  36.6580603
  23.2779516  67.6022593  36.9253467  24.3679889  67.7512699  36.1072241
  23.9459459  67.3307742  36.6163410  33.2967108  67.8186309  42.5482599
  33.2765035  67.6369604  43.4017378  33.3446308  68.6898328  42.5242182
  33.3001749  67.9202847  42.6705894  31.2413438  74.4073501  48.4731075
  31.2009292  73.7623178  47.8876231  32.0536756  74.3510118  48.7856487
  31.3556591  74.3032468  48.4328025  29.7714101  66.2256460  31.9953983
  29.1778941  66.5473457  31.4438550  29.8089379  65.3797556  31.7875089
  29.6888490  66.1480788  31.8836754  36.7307902  59.6769352  39.5282069
  36.2238767  58.9698492  39.4603247  37.5275336  59.3462541  39.6583146
  36.7735141  59.5242504  39.5381064  32.6471918  66.1835965  35.4255733
  32.4185611  66.2068666  34.5834091  32.9069994  65.3593432  35.5450743
  32.6518106  66.0652045  35.3180930  26.9291146  68.0370438  45.0280833
  26.4170049  67.4291621  45.3865864  26.7570642  68.7527030  45.4954809
  26.8280783  68.0533737  45.1497057  21.7756861  66.4808013  47.6783195
  21.6059451  67.1409388  47.1331401  21.3322811  66.6914574  48.3995684
  21.6856195  66.6093995  47.7044824  25.7016680  64.7212511  36.7209928
  26.1774047  65.0829591  36.0860110  25.2005280  65.3768978  37.0010071
  25.6982039  64.8706700  36.6686669  38.9328042  74.1934279  32.5122933
  39.3161648  74.9425635  32.7421030  38.1372155  74.4400099  32.2534923
  38.8721824  74.3403973  32.5080507  30.8060217  65.9594682  47.4683089
  31.3631647  65.7308492  46.8361554  30.4821282  66.7200348  47.1918301
  30.8406627  66.0378519  47.3339586  18.6758926  69.3854879  42.9371685
  18.1285645  68.7155524  43.0552553  19.4651304  69.0184726  43.0015152
  18.7111109  69.2319865  42.9640385  28.5243334  69.0462336  48.4335096
  29.2754661  69.3614012  48.7474650  28.7165910  68.8441507  47.6069017
  28.6634748  69.0629717  48.3578491  27.7443334  66.8653711  30.0883312
  28.1242298  66.8833340  29.3034427  27.0035930  67.3107700  29.9674160
  27.6912171  66.9335485  29.9546881  35.3728624  65.1735902  35.6758891
  35.3722850  65.0184558  36.5343167  35.1684804  66.0198889  35.6200277
  35.3428402  65.2756523  35.7946830  17.4345895  68.5975686  40.0917708
  17.2567656  68.1452295  40.8172623  17.1464917  69.4001848  40.2756185
  17.3658848  68.6498244  40.2261211  33.0969476  69.8533404  39.3295098
  33.5923141  69.1356399  39.2899118  32.2869252  69.5504201  39.2149585
  33.0513369  69.7031050  39.3068824  28.5428088  73.7031217  31.4792102
  27.7339410  73.3797891  31.4325412  29.0502996  72.9964439  31.4120351
  28.4977754  73.5512533  31.4622397  19.1718365  71.1303410  37.2039467
  18.3063884  71.1189101  37.0922238  19.2717181  70.9433633  38.0510606
  19.0592532  71.1009471  37.3128411  35.1621295  72.6037091  42.0172227
  35.5876367  72.0811513  41.4642652  34.7978215  73.2017929  41.4960850
  35.1707898  72.6147318  41.8581236  31.7499894  76.3171355  38.3473384
  32.2211073  77.0311618  38.5163369  32.0860073  75.7170106  38.8833254
  31.8695009  76.3342820  38.4505760  33.8376879  77.9272669  50.5265456
  33.9473844  77.1381229  50.8822203  34.1667776  77.8378605  49.7239794
  33.9029285  77.7978522  50.4607847  28.6669389  61.0898826  45.3031479
  28.7997295  60.2929819  45.6312455  29.0514542  61.6165229  45.8829755
  28.7425718  61.0498743  45.4374982  32.3873841  76.1089290  45.1101077
  31.8394787  75.4847173  44.8421142  32.8486869  76.2983562  44.3945156
  32.3741050  76.0448340  44.9651508  31.7401745  58.0129152  41.9012572
  30.9347708  57.9026882  42.2180411  31.6108480  58.1141608  41.0442438
  31.6021877  58.0112822  41.8220613  35.1967705  64.1774644  42.4952269
  34.6130694  64.6783851  42.0829837  35.5171999  63.6704200  41.8616592
  35.1580880  64.1766479  42.3410776  27.7362504  63.0915239  32.7710944
  28.5578199  63.2613552  32.5292639  27.2732155  63.2462500  32.0477242
  27.7893667  63.1396972  32.6282588  26.3257836  61.0858001  43.5509373
  26.8702249  60.7449128  44.1413714  26.3794772  61.9443463  43.6930657
  26.4146956  61.1613260  43.6591246  31.9532167  77.1140362  41.6410418
  32.7730541  76.9703328  41.9026713  31.6726245  77.7386561  42.1826856
  32.0328910  77.1850714  41.7598357  38.3521289  78.7059931  38.3296608
  38.0224619  79.1571074  37.6600307  37.6766291  78.6276094  38.8769614
  38.2031725  78.7611066  38.3119831  45.5597697  74.6945454  36.5746219
  45.2451138  75.3848932  37.0066641  45.0424639  74.6390236  35.8731719
  45.4362167  74.7880342  36.5343168  36.5577243  76.7672219  33.8119556
  37.3123211  77.1350536  33.5736606  36.3804778  77.1411773  34.5798735
  36.6431722  76.8770407  33.8904444  49.8512142  82.9166660  41.8567095
  49.0140563  82.9868847  42.0914689  49.8200373  82.9191154  40.9841397
  49.7230424  82.9276887  41.7626643  40.5934027  76.1768949  33.5446692
  41.3220187  75.9984904  33.0984849  40.6828920  77.0187029  33.7553871
  40.7140689  76.2752827  33.5100210  47.5319982  77.9809441  40.4410817
  48.1745890  78.0507546  41.0272733  47.7843002  77.3138664  39.9390359
  47.6642114  77.8935790  40.4538097  42.7671264  79.0746413  38.1521770
  42.0627591  78.5855598  38.3105690  42.8156239  79.0868887  37.2810215
  42.6701316  79.0036061  38.0461110  49.9701484  82.7554078  36.1722781
  49.7138049  81.9434020  35.9820664  50.8130798  82.7631646  35.9452968
  50.0567509  82.6366076  36.1107598  44.1504576  76.6953703  40.9098935
  44.5315088  76.0131874  41.2966809  43.3467861  76.4063305  40.7274600
  44.0881038  76.5520751  40.9402991  38.1096417  79.2007901  50.7761544
  37.7949858  79.9707464  50.5131106  37.7886349  78.6378157  50.1913770
  38.0155336  79.2318170  50.6502893  35.6628314  77.5898422  36.3907740
  34.7950739  77.6621022  36.4565349  35.9503518  78.3920501  36.5795715
  35.5768062  77.7192569  36.4282506  44.7861203  77.7376282  44.7219062
  45.5314795  77.5486092  44.3082487  44.3698507  78.2634520  44.1632918
  44.8346177  77.7878427  44.5783635  44.3842845  81.2673429  40.6588706
  43.5453946  81.2934707  40.4226969  44.4547212  81.9144164  41.2394052
  44.2711238  81.3669554  40.7097823  42.8312123  78.1658806  35.3916322
  43.5338476  77.9666554  34.9136280  42.5656312  77.3934748  35.6985165
  42.8958756  78.0221772  35.3661763  37.5940680  79.4294091  44.4447202
  37.4023877  79.4449225  45.2946626  38.4439275  79.6257765  44.4213857
  37.6916401  79.4608442  44.5670497  40.5044907  79.6249600  44.6519025
  40.9617521  80.3573574  44.7791818  40.5801235  79.2016065  45.4106281
  40.5835876  79.6706838  44.7820102  44.9772232  72.8039475  38.5212868
  45.0955801  73.2615939  37.7880171  44.8034408  71.9984737  38.2349086
  44.9691403  72.7533247  38.3713802  41.9449796  74.6590278  39.4631530
  41.0743354  74.6328999  39.4164840  42.1990138  74.4867470  38.6457376
  41.8543356  74.6300421  39.3351667  38.9698937  76.6696506  40.9205001
  38.4537425  75.9776698  41.0456580  38.4092866  77.3367283  40.8667599
  38.8105450  76.6659764  40.9311067  41.0391170  77.2089466  42.7497853
  40.6522923  77.2338498  43.5311383  40.5524108  76.6431145  42.2972370
  40.9103679  77.1285217  42.7985757  40.7048312  74.0956452  45.0408113
  41.3341430  74.6316752  44.7629183  40.8734175  74.0033811  45.8921679
  40.8226107  74.1617814  45.1256641  40.5062227  78.8827646  47.3134525
  41.3335656  78.6112795  47.3693139  40.5270073  79.6788488  47.6698343
  40.6315077  78.9607401  47.3749708  44.1972230  76.6292340  38.0093415
  44.4021824  76.5614648  38.8550412  43.8698654  77.4351161  37.9414592
  44.1787478  76.7378281  38.1253070  47.4505918  77.1824104  37.4896180
  46.8380232  77.6694507  37.8749912  47.5470093  76.5067595  38.0333832
  47.3743816  77.1542413  37.6275039  41.4524999  78.9386946  32.5893680
  41.9068746  79.1097506  33.3141524  41.9265045  78.3255056  32.1891455
  41.5893319  78.8737831  32.6367441  40.7117595  77.4379739  38.7270548
  39.8653640  77.6102547  38.6011898  40.7088727  76.6329083  39.0636377
  40.5864745  77.3440768  38.7581675  41.7815895  81.2154953  39.5932606
  41.3075849  80.6896715  40.1037917  42.1534031  80.6684426  39.0247468
  41.7665784  81.0570950  39.5847754  50.0457813  83.0558786  38.9568646
  49.8067583  83.0154620  38.1189431  50.2091714  83.9029938  39.0834367
  50.0348116  83.1750871  38.8522128  42.7301759  75.8123292  44.3952228
  42.2342321  76.0086967  43.7043795  43.4870822  76.2115961  44.2241030
  42.7688584  75.9001026  44.2672365  40.0004639  79.4865638  40.9855539
  40.0247126  78.9525751  40.2968319  40.2516113  78.9782947  41.6481129
  40.0414558  79.3326542  40.9820183  36.2805961  78.2136456  40.3661283
  36.3204333  78.7145663  41.0795991  35.4555626  78.3046850  40.0967206
  36.1645487  78.3018273  40.4311821  35.5104108  78.2205859  48.2991593
  36.1356811  77.6767992  48.5721025  35.0554588  77.7400777  47.7299383
  35.5352369  78.0695341  48.2553187  43.0794729  79.1905838  42.8586798
  43.5049800  78.7378365  42.2470324  42.4651722  78.6365909  43.1351585
  43.0523374  79.0419814  42.8091823  41.5188952  75.6620938  36.2677375
  40.8757270  75.5118584  36.8362513  41.1788359  75.4163283  35.5026479
  41.3734029  75.6033060  36.2380390  46.2716426  80.0736248  38.5997757
  46.6244036  79.6465971  39.2743555  45.4131227  79.9887092  38.7298833
  46.1965870  79.9980989  38.7192767  47.7040486  75.1954660  39.5282069
  47.1971350  74.4883800  39.4603247  48.5007919  74.8647849  39.6583146
  47.7467725  75.0427812  39.5381064  43.6204501  81.7021273  35.4255733
  43.3918194  81.7253974  34.5834091  43.8802578  80.8778740  35.5450743
  43.6250689  81.5837352  35.3180930  46.3461208  80.6921210  35.6758891
  46.3455434  80.5369866  36.5343167  46.1417388  81.5384197  35.6200277
  46.3160985  80.7941831  35.7946830  39.6401973  76.6084134  45.3031479
  39.7729879  75.8115127  45.6312455  40.0247126  77.1350537  45.8829755
  39.7158302  76.5684051  45.4374982  42.7134328  73.5314460  41.9012572
  41.9080292  73.4212190  42.2180411  42.5841064  73.6326916  41.0442438
  42.5754461  73.5298130  41.8220613  46.1700289  79.6959952  42.4952269
  45.5863278  80.1969159  42.0829837  46.4904583  79.1889508  41.8616592
  46.1313464  79.6951787  42.3410776  38.7095088  78.6100547  32.7710944
  39.5310782  78.7798860  32.5292639  38.2464739  78.7647808  32.0477242
  38.7626250  78.6582280  32.6282588  37.2990420  76.6043309  43.5509373
  37.8434833  76.2634436  44.1413714  37.3527355  77.4628771  43.6930657
  37.3879539  76.6798568  43.6591246  15.1998891  15.1527421  21.5393341
  15.1692895  16.0072058  21.7111611  15.7980239  14.8522714  22.0979485
  15.2836049  15.2343918  21.6468143   8.3998575  14.2403072  26.2946272
   7.5436471  14.4011571  26.3455388   8.4466229  13.3695136  26.3151333
   8.2797687  14.1353874  26.3052338   2.7839715  23.7765790  22.0583503
   2.0322615  23.3981329  21.8299548   3.2325727  23.8084224  21.3102313
   2.7389382  23.7251397  21.9141005  11.7092292  20.5089598  35.9006728
  12.4159059  20.0141629  36.0293662  11.8980227  20.9498680  35.1709386
  11.8420198  20.5007948  35.8115773   8.2364675  24.1991160  17.4869050
   7.9016044  24.8768081  17.0513272   8.7491546  23.8096471  16.8985922
   8.2630256  24.2415738  17.3355842   7.7768966  26.1505428  23.4280162
   8.1608346  26.7192327  22.8884937   7.7128108  25.4254939  22.9485978
   7.8242394  26.1280892  23.2774024  11.2450397  16.2995116  28.9377923
  11.7906357  16.9780203  28.9971893  11.1867273  16.1582577  28.0779505
  11.3166311  16.3787118  28.8189984   4.3624471  23.7884182  24.3246276
   4.4634834  22.9784536  24.6343403   3.7666217  23.6941129  23.6945954
   4.2897010  23.6549211  24.2772514  13.0215465  17.7279723  19.8111651
  12.9054991  18.4787410  20.2403789  13.8171352  17.4703677  20.0607738
  13.1220055  17.8014570  19.9115743   4.2025211  28.7061772  25.7261132
   4.8462666  29.1474936  26.1157290   4.5281467  27.9015198  25.6391390
   4.3457040  28.6526966  25.7706609   4.9045791  21.7173746  21.0980993
   5.2261632  22.2578954  20.4942302   5.5517887  21.1470518  21.2303283
   5.0471846  21.7132922  21.0288029   6.9547499  13.7189741  21.1815380
   7.6527663  13.8977869  21.6736843   7.2699831  13.1960081  20.5585770
   7.1042836  13.6683514  21.1617390   7.1435434  20.1060186  21.1695172
   7.5829070  19.4977287  21.6149944   6.9940097  19.7267560  20.3980637
   7.1856900  19.9598658  21.1214339   4.6107077  18.7004198  28.3713997
   5.2556080  18.2076641  28.0524946   4.8508854  18.8428985  29.1980075
   4.7417662  18.6481640  28.4463530   7.1493169  21.5459104  28.0220890
   7.4316411  20.7510510  27.8007646   7.8779329  22.0239692  28.0425951
   7.2982732  21.4993701  27.9923905  10.7444771  18.4587368  18.1225941
  10.6596066  19.3148334  18.2675510  11.2329154  18.1831692  18.7908100
  10.8033668  18.5444689  18.2428022  11.6763204  15.0772162  19.6223676
  11.1474675  15.2931795  20.2820982  12.1988224  15.7708300  19.5424645
  11.6751657  15.2115299  19.7079275  17.1311257  20.6518466  24.9956720
  16.3008960  20.8629110  25.1590137  17.0820509  19.8255521  24.7199004
  17.0017992  20.5608073  24.9794086   5.1920994  23.4822321  27.8304630
   4.6747936  23.1229736  27.2265938   5.8895386  22.9584495  27.8410696
   5.2186576  23.3520008  27.7434889   8.8484586  23.9317135  33.7920803
   8.9367932  23.7443275  34.6399013   9.2774299  23.2854564  33.3925650
   8.9246689  23.8080142  33.8592554   6.4155046  23.2148295  32.7738465
   5.8525881  22.8020904  33.2978126   7.1776070  23.1401200  33.1931608
   6.4449495  23.1425695  32.9131466   1.9751038  25.2046316  25.3775095
   2.6771617  24.6898305  25.4347852   1.8948521  25.5320467  26.1821970
   2.0674798  25.1760542  25.5047888  16.6265215  13.2988867  28.7907142
  15.7893636  13.3691054  29.0254736  16.5953446  13.3013362  27.9181444
  16.4983498  13.3099094  28.6966690   3.0229944  15.4421903  34.5055510
   3.1950448  15.3327797  35.3540792   3.5599302  16.0876308  34.2686703
   3.1274948  15.5213904  34.5960607   1.3001813  21.3952668  24.8860703
   2.1390712  21.6275600  24.9334465   1.3313582  20.5256979  24.8167739
   1.4283531  21.3009614  24.8825348   1.9254516  21.8153543  29.1874009
   2.4652741  21.6724674  29.8577381   1.2424462  22.2150294  29.5558035
   1.9046670  21.8533214  29.3408431  11.3495401  17.4944544  24.3819033
  12.1052916  17.9276058  24.4207942  11.4557725  16.8449313  24.9553669
  11.4765572  17.4622027  24.4717059  14.3875572  21.3217821  25.1321436
  13.9510804  21.3254563  25.8880408  14.0538488  22.0023320  24.7001014
  14.2738192  21.4230277  25.1802269   8.9604646  23.3626154  36.4564587
   9.7445062  23.4757001  36.8220329   8.7601240  22.5367291  36.6523272
   9.0470671  23.2572873  36.5398973  14.3073055   8.3631649  27.3750864
  14.9498963   8.4329753  27.9612779  14.5596076   7.6960871  26.8730406
  14.4395187   8.2757997  27.3878143   9.1175039  25.2736256  30.1031042
   8.3190285  25.0335756  30.3604911   9.5661051  25.3250649  30.8498090
   9.0649650  25.2458647  30.2515966  17.5219918  18.0398741  24.0241073
  18.1836352  17.4789409  23.9236982  16.8811330  17.5450771  24.3493765
  17.5248786  17.8835150  24.0573414   8.4096726  21.3368872  16.3321997
   8.8247874  21.0053896  15.6406492   7.5788656  21.1037774  16.2042133
   8.3484735  21.2540128  16.2112844  13.8084749  19.0564123  23.7653062
  14.0440338  19.2009322  22.9379913  13.9574313  19.8206531  24.1584576
  13.8650552  19.1903177  23.7016666   0.8030826  15.5397616  33.1302283
   1.5270799  15.5250647  33.6167178   0.9046963  16.2492971  32.6324252
   0.9249035  15.6422319  33.1281070  15.6375206  17.8965789  21.6022666
  15.9683423  18.4293429  20.9962761  16.2108294  17.9504677  22.2584617
  15.7708885  17.9835358  21.6100448   8.1775776  19.0196701  37.9951230
   7.3848757  19.3340212  38.1803850   8.2924703  19.2348169  37.1572015
   8.0771186  19.0980537  37.8989565  10.8507095  15.7430692  22.2846246
  10.9453949  16.4819986  22.7385872  10.2265938  15.3148167  22.7180811
  10.7716125  15.7892012  22.4154394   9.1059569  18.9216904  32.9336527
   9.6798430  18.2844149  33.0885091   9.0274372  18.9220987  32.0646185
   9.1792804  18.8282016  32.8282938   4.4623287  17.3540169  24.9857725
   4.2042532  16.5211904  24.9589024   4.5171770  17.5797782  24.1450225
   4.4323065  17.2637941  24.8577861   9.5424337   9.4568620  25.0861817
   8.8380664   8.9677806  25.2445736   9.5909312   9.4691095  24.2150262
   9.4454389   9.3858268  24.9801157   3.4357999  14.9077932  25.4722619
   2.8607591  15.0670100  26.1086580   3.0593676  14.2713341  25.0091070
   3.2960812  14.8375745  25.4977178   7.1031288  13.3801281  30.3314998
   6.7145721  12.9555499  29.6767189   6.4385986  13.6283431  30.8392024
   6.9478216  13.3540002  30.3102866  16.7454557  13.1376286  23.1062828
  16.4891122  12.3256227  22.9160711  17.5883871  13.1453853  22.8793015
  16.8320583  13.0188283  23.0447645  10.9257650   7.0775910  27.8438982
  11.3068161   6.3954081  28.2306856  10.1220934   6.7885512  27.6614646
  10.8634111   6.9342958  27.8743038   8.2070226  17.6099886  18.5291805
   9.0210865  17.9014779  18.4174576   8.1429368  16.9559748  17.9550098
   8.3172965  17.5565081  18.4280642  14.4279716  20.2925882  32.9421380
  14.1918354  19.4613947  32.8233441  15.0722945  20.2411489  33.5276225
  14.4874387  20.1623570  33.0107274   4.0778135  21.0821403  23.6564117
   4.7152082  20.8433151  24.2015910   4.5033206  21.2858562  22.9217277
   4.2354301  21.0772413  23.6281274  15.4516137  20.0770331  29.0049675
  15.1461954  20.8098388  29.3662990  14.7322353  19.6708260  28.7242461
  15.3003479  20.1252064  29.0162812   6.4599607  21.5593826  25.3357903
   6.5338615  21.3968998  26.1899753   7.2769113  21.7484015  25.0918385
   6.5915965  21.5630568  25.4255929  21.1517929  16.7163331  28.3318019
  21.0842430  16.7359290  27.4620606  21.1373592  17.5593659  28.5573690
  21.1396686  16.8437066  28.2370496  11.5614276   8.1198489  31.6559108
  12.3067868   7.9308299  31.2422534  11.1451580   8.6456727  31.0972965
  11.6099250   8.1700634  31.5123682   5.0004192  24.5228569  20.0671376
   5.2902491  24.1317550  19.3430603   5.7307673  24.7045274  20.5076652
   5.1511076  24.4922383  20.0254183  18.9376547  15.4907718  26.6064613
  19.4884468  14.8575787  26.8461706  18.9220662  16.0223110  27.2980118
  19.0161743  15.4756666  26.7443472   5.5898937  19.3246315  31.1524507
   5.0910631  20.0362083  31.2309395   6.3999162  19.6446981  31.1142669
   5.6355044  19.4773163  31.1581075   2.9410108  26.4995951  23.1331526
   2.7210403  26.2093306  23.9258193   2.7204630  25.8410906  22.6049438
   2.8757702  26.3595660  23.1720435   1.8527055  18.5869268  25.3987228
   1.5640304  17.9606739  25.9332955   2.7210403  18.5289555  25.4651908
   1.9387307  18.4856812  25.4878182  12.6404953  13.7304051  25.7169210
  12.2969719  13.0094386  26.0676459  12.7397995  13.5217902  24.8747568
  12.6046996  13.5928254  25.6440890   5.1078064  27.8725341  21.9162219
   5.7602122  27.3401784  22.1453245   4.4103672  27.5193994  22.3030093
   5.1008782  27.7414864  22.0074386   2.0559328  20.2264519  21.3229593
   2.8105296  20.6077558  21.5365055   1.4629941  20.6775663  21.7776289
   2.0796042  20.3493346  21.4212471  13.1017982  20.1929755  21.2593198
  13.6676015  20.8522965  21.1751741  12.4545885  20.5379453  21.7309600
  13.0896738  20.3411697  21.3165954   4.5165995  12.1827359  36.4486805
   3.7065771  12.4885139  36.3376647   4.9940682  12.9032942  36.5639389
   4.4669474  12.3341960  36.4493876   3.3757555  21.3973080  26.6969708
   2.8538309  21.5373372  27.3821573   3.7631575  20.6383745  26.8871826
   3.3561256  21.3058604  26.8270785   9.5724560  23.1368539  20.6830277
   9.3311236  22.4036400  20.2757342   9.7525893  23.6855396  20.0296610
   9.5632184  23.1090931  20.5260500   3.2002411  15.3131837  22.2132068
   3.9225063  15.4772995  21.7535874   2.7210403  16.0341502  22.1071407
   3.2366141  15.4430067  22.1297682  11.1595918  11.6495636  27.5928753
  10.3207019  11.6756915  27.3567016  11.2300286  12.2966371  28.1734099
  11.0464312  11.7491762  27.6437869   9.6065197   8.5481013  22.3256368
  10.3091549   8.3488761  21.8476327   9.3409385   7.7756955  22.6325212
   9.6711829   8.4043979  22.3001810  15.0353442  16.8563623  24.8789994
  14.9487417  17.0119049  25.7324773  14.5803922  17.5001698  24.5049399
  14.9556699  16.9739378  24.9497101   4.3693753   9.8116298  31.3787249
   4.1776950   9.8271433  32.2286673   5.2192349  10.0079972  31.3553904
   4.4669475   9.8430649  31.5010544   8.9079258  14.1774370  23.5015554
   8.6613972  14.0970121  24.3352343   9.2364381  13.3927838  23.3078081
   8.9200502  14.0500635  23.5963077  12.8027307  20.8857729  27.2902335
  12.6641666  21.5838775  27.7951077  12.0227305  20.7306386  26.9338517
  12.6670534  20.9657896  27.3128609  11.1405392  17.1854105  33.5424717
  11.1353431  16.3133921  33.5467143  11.8466386  17.3842274  33.0694172
  11.2450396  17.0857979  33.4731752   4.8676285  16.9131088  32.9138537
   5.0119661  17.4932297  32.2781647   5.2151934  17.2907385  33.6188392
   4.9403747  17.0551792  32.9237532   7.0396203  16.1121257  30.6963669
   6.2919517  16.3052271  30.2911947   7.1937728  15.2866476  30.4587790
   6.9518630  16.0186368  30.6009074   3.9404040  25.1033860  29.7799564
   4.0893604  24.5436776  29.1272968   4.7204042  25.1825862  30.1632083
   4.0778134  25.0319426  29.7396513  14.2980680  20.2435983  18.0518834
  13.9187489  19.4573121  18.0448124  13.6346925  20.7922840  17.9090479
  14.1439155  20.2080807  18.0299631   6.4657341  25.2748503  31.0584055
   6.3901012  24.6057314  31.6134843   6.3947200  25.9766291  31.5724721
   6.4437948  25.2793410  31.2160903   7.2797980  10.0071808  31.5859072
   7.7370594  10.7395782  31.7131864   7.3554309   9.5838273  32.3446328
   7.3588950  10.0529046  31.7160149   7.1227588  23.7949502  21.8907661
   7.8877479  23.5259146  21.5690325   7.0205678  23.3099512  22.6077723
   7.2209083  23.6839067  21.9487488   5.1580358  11.9973911  28.4300896
   4.3676432  11.8165372  28.7518232   5.5540981  11.2200864  28.4131191
   5.0997234  11.8561372  28.4753445  10.5424044  19.6316342  26.1560342
   9.8669046  19.4001574  26.6573729  10.5516420  19.0237525  25.5302447
  10.4442549  19.5075267  26.1376494   7.6718188  14.4734171  32.9124395
   7.6077329  15.3344127  32.7844532   7.8115376  14.1566164  32.1119946
   7.6833658  14.5534337  32.7752608  12.5440779  22.4881474  18.3870520
  12.6260616  23.2948460  18.0631971  13.0290521  22.5077433  19.1111294
  12.6277936  22.6102136  18.4457419   6.3537282  17.1666310  27.0540598
   5.9299531  17.3670809  26.3179616   6.1782137  16.3195158  27.1664898
   6.2648162  17.0715091  26.9614288   5.8548975  28.6816823  29.5162055
   6.3444906  27.9827612  29.3337720   5.2833208  28.3840693  30.1038113
   5.8433505  28.5343047  29.5763096   1.6419727  17.6618361  22.4868571
   1.7984346  17.5965164  23.3424563   1.9820320  18.4366914  22.2747250
   1.7152962  17.7667559  22.5823165   8.1798871  17.0376245  21.3561934
   8.7214417  16.5346626  21.8200554   8.4945430  16.9841440  20.5451419
   8.3063269  16.9555666  21.3045746  12.0515979  21.2478892  38.4688846
  12.8650844  20.9764041  38.6293979  11.8910945  20.9486432  37.6649042
  12.1485927  21.1633818  38.3734252   6.3485321  22.4293596  18.6401962
   6.4178141  21.5708135  18.7794962   7.1273776  22.6465477  18.3120986
   6.4738171  22.3346460  18.6119119   9.3288141  11.9312549  31.4084234
   9.5430110  11.2923464  30.8547588   8.7122040  12.3758373  30.9792096
   9.2693470  11.9022693  31.2634665  10.7392809  24.8531298  22.8538455
  10.3472600  24.5498013  22.1361321  10.8945881  25.6900388  22.6643409
  10.7046399  24.9315134  22.7194952  11.4927229  13.5401615  32.3467541
  10.6803911  13.2327505  32.4280714  11.9517163  13.0600615  32.9110254
  11.4407614  13.4238107  32.4422136  10.9032484  21.4181287  22.7944486
  10.5447138  21.5895929  23.5708518  10.4171194  21.8794492  22.2372484
  10.7791180  21.5120258  22.8269755   8.5880736  14.9461686  37.1296244
   9.0580368  15.5703802  37.5164118   8.6342617  14.2778662  37.6889458
   8.6648612  14.9396366  37.2696315  12.0637223  22.3085183  33.7411687
  12.7016943  21.8145378  33.4074143  11.4211314  22.2362583  33.1563913
  12.0631449  22.2244191  33.6054042  13.7894223  14.1574329  28.3077602
  13.3621831  14.0700677  27.5525702  13.1520276  14.2652104  28.8932446
  13.6323830  14.1606988  28.2823044   7.2815300   9.2649854  34.2474572
   8.1088729   8.9935003  34.3033186   7.3023146  10.0610695  34.6038390
   7.4068150   9.3429608  34.3089754  12.1191479  23.0004991  30.3817043
  12.9083858  22.6494056  30.5019125  12.2935077  23.8141379  30.1193677
  12.2611761  23.0690848  30.3604911   1.8584790  16.4113717  27.4344832
   1.0172796  16.3117591  27.6423726   2.0674798  17.1809197  27.7859153
   1.7649482  16.5105760  27.5172147  10.9725304   7.0114548  24.9433462
  11.1774897   6.9436855  25.7890459  10.6451728   7.8173369  24.8754639
  10.9540552   7.1200488  25.0593117   5.6701455  14.3395116  26.6842430
   5.3664592  13.7851104  27.2852837   4.9680876  14.5187326  26.1970464
   5.5217665  14.2839898  26.7012135   3.7319806  21.5544836  31.3914527
   3.6240161  21.5646899  32.2576586   3.9415587  22.3799617  31.2019481
   3.7469917  21.6785911  31.4918619  14.2258991   7.5646312  24.4236227
  13.6133305   8.0516714  24.8089959  14.3223166   6.8889803  24.9673878
  14.1496889   7.5364621  24.5615085   1.7493598  18.8057479  28.8536465
   1.1581531  19.4466977  28.8239480   2.5114621  19.2295096  28.8267765
   1.7741858  18.9633317  28.8451612  17.8684019  18.6363249  29.8513743
  17.9267143  19.0849897  30.5973720  17.2350487  19.0462061  29.4143823
  17.7835314  18.7636983  29.8966292  11.5083114  24.2566790  26.2868490
  11.3102803  24.7457605  25.5924701  10.8870825  24.4608032  26.8652623
  11.3870678  24.3583329  26.2691713   5.5691092  16.0251687  20.6278734
   6.3133137  16.4125964  20.8661684   5.7151789  15.1809113  20.7919222
   5.7001677  15.9582160  20.6872704   8.5568968  11.5977161  26.5272653
   8.0828922  11.0718923  27.0377964   8.9287104  11.0506633  25.9587515
   8.5418857  11.4393157  26.5187800  14.8205699  16.6579536  27.9379434
  14.5803922  15.8185951  27.9421860  15.2997706  16.7379703  28.6620207
  14.8557882  16.5460936  28.0454236  16.8210886  13.4380993  25.8908693
  16.5820656  13.3976828  25.0529477  16.9844787  14.2852146  26.0174414
  16.8101189  13.5573078  25.7862175  13.4256916  17.8230943  31.8213738
  14.1491115  17.3703469  31.6424758  13.1606878  18.1035608  31.0386066
  13.4938189  17.7981911  31.6792453   2.2943784  12.4191116  28.5566617
   1.6696854  12.4309508  27.9492570   1.9589379  12.8951291  29.2057857
   2.1529276  12.4909633  28.5623186  10.0389550  21.0617279  18.7208064
  10.7623749  21.5275392  18.5772637   9.5990141  21.1290888  17.9705661
  10.0805243  21.1401115  18.5892845   9.2075705  17.9214821  29.9708753
   8.5932699  17.3772871  30.2657388   9.7242990  17.4079057  29.4914569
   9.1931368  17.7651230  29.9432981   8.4472003  18.9919091  27.7053052
   8.0199611  18.3668810  27.2718487   8.4396947  18.7094013  28.5312059
   8.3831144  18.8571872  27.7632879   1.5634530  14.0284264  30.7741486
   1.7228016  13.2727588  31.1793208   1.3827423  14.5775204  31.4282223
   1.5599889  13.9978078  30.9304192   9.5054833   6.1945500  31.3292275
   9.0095394   6.3909174  30.6383842  10.2623895   6.5938168  31.1581077
   9.5441657   6.2823233  31.2012412   6.7757712   9.8687846  27.9195586
   6.8000199   9.3347958  27.2308366   7.0269186   9.3605154  28.5821176
   6.8167631   9.7148750  27.9160230   5.2388647  18.1619404  35.4021624
   4.3884278  18.2991118  35.5379269   5.4016775  17.4283182  35.8469326
   5.1372511  18.0733505  35.4877224   4.4773398  15.1119174  29.5975229
   3.6465328  15.2792992  29.3910477   4.4224915  14.7355124  30.3824114
   4.3462813  15.0808905  29.6823757  15.8592230  16.7857354  30.3244288
  16.4510070  17.4254604  30.3562486  16.2951224  16.0880390  30.6136354
  16.0110661  16.7775704  30.3725120   7.6885620  21.2074726  30.9502182
   7.1810711  21.7610573  31.3942812   7.3912266  21.2683016  30.1320956
   7.5690505  21.2981037  30.8950638   9.8547802   9.5728046  29.7926845
  10.2802873   9.1200572  29.1810371   9.2404795   9.0188116  30.0691632
   9.8276447   9.4242022  29.7431870  10.2993400  25.1237984  18.8806125
   9.5822710  24.9498846  18.4153362  10.9500138  24.8890556  18.3481611
  10.2895251  25.0633776  18.7335343  12.8841371  14.0002572  22.6247430
  12.2132561  14.5432274  22.4960496  13.5781122  14.4697428  22.3829125
  12.8870239  14.1500843  22.5702958   6.9328105  26.1399284  27.8559188
   6.7093759  25.3818113  28.2243215   6.4437948  26.1697305  27.1339628
   6.8271554  26.0321509  27.8035929  13.0469499  10.4558456  25.5337803
  13.3997109  10.0288179  26.2083602  12.1884300  10.3709299  25.6638880
  12.9718943  10.3803197  25.6532814   1.7453184  13.0865976  23.5920650
   1.0265173  13.5030108  23.8593513   2.1165546  13.6520214  23.0412288
   1.6945115  13.2315257  23.5503457  11.0452765  13.7193824  29.4822646
  11.0250692  13.5377120  30.3357424  11.0931965  14.5905843  29.4582229
  11.0487406  13.8210363  29.6045940   8.9899094  20.3081016  35.4071122
   8.9494949  19.6630693  34.8216278   9.8022413  20.2517634  35.7196534
   9.1042248  20.2039983  35.3668071   5.5806562  26.3599742  25.3096273
   5.1666961  25.6973873  24.9200115   6.2653936  26.5077601  24.7891967
   5.6204934  26.2840401  25.1752770   8.9471856  25.5189828  26.0619890
   8.5488139  25.6292098  25.2940710   8.3323076  25.7271894  26.6446449
   8.7970745  25.5663396  26.0351189  14.4793559   5.5776868  26.4622116
  13.9724423   4.8706007  26.3943293  15.2760993   5.2470057  26.5923192
  14.5220798   5.4250019  26.4721111  10.3957575  12.0843480  22.3595780
  10.1671268  12.1076181  21.5174138  10.6555651  11.2600947  22.4790790
  10.4003763  11.9659560  22.2520977   4.6776803  13.9377953  31.9620880
   4.1655706  13.3299136  32.3205911   4.5056299  14.6534546  32.4294856
   4.5766440  13.9541252  32.0837103   3.4502337  10.6220026  23.6549975
   3.9259703  10.9837106  23.0200156   2.9490937  11.2776494  23.9350118
   3.4467696  10.7714215  23.6026716  16.6813699  20.0941794  19.4462980
  17.0647305  20.8433150  19.6761077  15.8857812  20.3407614  19.1874969
  16.6207481  20.2411488  19.4420554   8.5545873  11.8602198  34.4023135
   9.1117304  11.6316007  33.7701601   8.2306938  12.6207863  34.1258348
   8.5892284  11.9386034  34.2679632   6.2728991  14.9469851  35.3675142
   7.0240318  15.2621528  35.6814697   6.4651567  14.7449022  34.5409064
   6.4120405  14.9637233  35.2918538  13.1214281  11.0743417  22.6098938
  13.1208507  10.9192074  23.4683214  12.9170461  11.9206404  22.5540323
  13.0914059  11.1764038  22.7286877  10.8455133  15.7540919  26.2635145
  11.3408798  15.0363914  26.2239165  10.0354909  15.4511717  26.1489632
  10.7999026  15.6038565  26.2408871   6.2913744  19.6038732  18.4132149
   5.4825067  19.2805406  18.3665459   6.7988653  18.8971954  18.3460398
   6.2463411  19.4520049  18.3962444  12.9106952  18.5044607  28.9512274
  13.3362023  17.9819028  28.3982699  12.5463872  19.1025444  28.4300896
  12.9193554  18.5154834  28.7921283   2.5461032  26.8008824  27.7109619
   2.8607591  27.6145212  27.7187401   2.9554445  26.4159043  28.3791778
   2.6529130  26.8637526  27.8113711   9.4985551  22.2178871  25.2813431
   9.9696729  22.9319133  25.4503416   9.8345730  21.6177621  25.8173300
   9.6180666  22.2350335  25.3845807  11.5862536  23.8280184  37.4605503
  11.6959501  23.0388745  37.8162250  11.9153432  23.7386120  36.6579841
  11.6514942  23.6986037  37.3947894  10.1359498  22.0096805  32.0441124
   9.5880444  21.3854689  31.7761189  10.5972526  22.1991077  31.3285203
  10.1226707  21.9455855  31.8991555  12.9453362  10.0782159  29.4292316
  12.3616351  10.5791366  29.0169883  13.2657656   9.5711716  28.7956639
  12.9066537  10.0773994  29.2750823   9.7017824  23.0147878  28.5750465
  10.5216198  22.8710844  28.8366760   9.4211901  23.6394077  29.1166903
   9.7814567  23.0858230  28.6938404  26.1731474  30.6712729  21.5393341
  26.1425479  31.5257366  21.7111611  26.7712823  30.3708022  22.0979485
  26.2568632  30.7529226  21.6468143  19.3731159  29.7588380  26.2946272
  18.5169055  29.9196879  26.3455388  19.4198813  28.8880444  26.3151333
  19.2530271  29.6539182  26.3052338  13.7572299  39.2951098  22.0583503
  13.0055198  38.9166637  21.8299548  14.2058310  39.3269532  21.3102313
  13.7121966  39.2436705  21.9141005  18.7501550  41.6690736  23.4280162
  19.1340929  42.2377635  22.8884937  18.6860691  40.9440247  22.9485978
  18.7974977  41.6466200  23.2774024  15.3357055  39.3069490  24.3246276
  15.4367418  38.4969844  24.6343403  14.7398800  39.2126437  23.6945954
  15.2629594  39.1734518  24.2772514  23.9948049  33.2465031  19.8111651
  23.8787575  33.9972717  20.2403789  24.7903935  32.9888985  20.0607738
  24.0952638  33.3199878  19.9115743  15.1757795  44.2247080  25.7261132
  15.8195250  44.6660244  26.1157290  15.5014050  43.4200506  25.6391390
  15.3189623  44.1712274  25.7706609   8.5322099  35.3289777  23.9498609
   8.2972284  34.4957429  23.8430878   8.6707740  35.6094443  23.1359810
   8.5177762  35.2473280  23.8140964  10.8312187  27.4975508  26.8482917
  10.2117218  26.9068155  26.6792932  10.7296050  28.0886943  26.2147240
  10.7249862  27.4979590  26.7287907  15.8778374  37.2359054  21.0980993
  16.1994215  37.7764262  20.4942302  16.5250471  36.6655826  21.2303283
  16.0204429  37.2318230  21.0288029  17.9280082  29.2375049  21.1815380
  18.6260247  29.4163177  21.6736843  18.2432415  28.7145389  20.5585770
  18.0775420  29.1868821  21.1617390  10.5581320  31.0427789  29.0926486
  10.4340017  31.6290235  29.7276305  11.2099604  30.5487985  29.3938761
  10.6354969  31.0566594  29.2312415  18.1168018  35.6245494  21.1695172
  18.5561653  35.0162595  21.6149944  17.9672681  35.2452868  20.3980637
  18.1589483  35.4783965  21.1214339  15.5839661  34.2189506  28.3713997
  16.2288663  33.7261949  28.0524946  15.8241438  34.3614293  29.1980075
  15.7150246  34.1666948  28.4463530  18.1225752  37.0644412  28.0220890
  18.4048995  36.2695818  27.8007646  18.8511912  37.5425000  28.0425951
  18.2715316  37.0179009  27.9923905  16.1006946  24.6067446  25.2636655
  15.7710276  25.0578590  24.5940354  15.4251948  24.5283609  25.8109661
  15.9517382  24.6618581  25.2459878  21.7177354  33.9772676  18.1225941
  21.6328649  34.8333642  18.2675510  22.2061737  33.7017000  18.7908100
  21.7766252  34.0629997  18.2428022  23.3083354  20.5952969  23.5086265
  22.9936795  21.2856447  23.9406688  22.7910295  20.5397751  22.8071766
  23.1847824  20.6887857  23.4683215  22.6495787  30.5957470  19.6223676
  22.1207259  30.8117103  20.2820982  23.1720807  31.2893608  19.5424645
  22.6484240  30.7300607  19.7079275  14.5395395  34.4920687  18.4231144
  13.9552611  34.9970718  18.8297008  14.1365490  34.2663074  17.6827736
  14.3934699  34.5328935  18.3736169  10.0939424  40.2075448  25.2254816
   9.6107002  40.9325937  25.2014399  10.9062742  40.5051578  25.3364973
  10.1430172  40.3577801  25.2382095  16.1653578  39.0007628  27.8304630
  15.6480520  38.6415043  27.2265938  16.8627969  38.4769803  27.8410696
  16.1919159  38.8705316  27.7434889  18.9972610  30.7386339  16.9000065
  19.2368613  30.9464322  16.0875408  19.3188451  29.9343847  17.0089009
  19.0809768  30.6500440  16.7960618  14.3062900  22.6679734  20.7459603
  15.0608868  23.0358051  20.5076653  14.1290435  23.0419289  21.5138782
  14.3917378  22.7777922  20.8244491  12.9483621  40.7231624  25.3775095
  13.6504200  40.2083613  25.4347852  12.8681104  41.0505775  26.1821970
  13.0407382  40.6945850  25.5047888  13.9962528  30.9607211  34.5055510
  14.1683031  30.8513105  35.3540792  14.5331885  31.6061616  34.2686703
  14.1007532  31.0399212  34.5960607  12.6619965  25.0750053  17.4437716
  12.4795538  25.2921934  16.6178708  13.5245578  25.1889066  17.4996330
  12.7624554  25.1239951  17.3292203  12.2734397  36.9137976  24.8860703
  13.1123296  37.1460908  24.9334465  12.3046166  36.0442287  24.8167739
  12.4016114  36.8194922  24.8825348  12.8987100  37.3338851  29.1874009
  13.4385325  37.1909982  29.8577381  12.2157046  37.7335602  29.5558035
  12.8779254  37.3718522  29.3408431  18.3419684  22.0776464  20.4786739
  19.0705844  21.8992419  20.0324896  18.4314577  22.9194544  20.6893917
  18.4626346  22.1760342  20.4440257   8.3024245  33.5539142  29.3408430
   8.0362660  32.7378258  29.4999421   8.3162809  33.5992297  28.4703946
   8.2648967  33.4396046  29.2361912  12.2081992  28.3524226  15.9560189
  11.4940169  28.0662406  16.3682621  12.6925960  28.6920852  16.5966576
  12.1741355  28.3605876  16.1115823  13.0522851  27.0917520  31.9875438
  12.3594648  26.6214500  32.2336170  13.6683178  26.8655824  32.5617145
  13.0407381  26.9884652  32.1084591  19.3829310  36.8554180  16.3321997
  19.7980458  36.5239204  15.6406492  18.5521239  36.6223082  16.2042133
  19.3217318  36.7725436  16.2112844   8.7117658  34.3397921  26.6220175
   8.5293232  34.3144807  25.7692467   9.4467327  34.8096859  26.6609083
   8.7931722  34.4059283  26.5018093  11.7763410  31.0582924  33.1302283
  12.5003382  31.0435955  33.6167178  11.8779547  31.7678279  32.6324252
  11.8981619  31.1607627  33.1281070  26.6107789  33.4151097  21.6022666
  26.9416006  33.9478737  20.9962761  27.1840877  33.4689985  22.2584617
  26.7441468  33.5020666  21.6100448  19.1508359  34.5382008  37.9951230
  18.3581340  34.8525520  38.1803850  19.2657287  34.7533477  37.1572015
  19.0503770  34.6165845  37.8989565  21.8239678  31.2616000  22.2846246
  21.9186533  32.0005294  22.7385872  21.1998522  30.8333475  22.7180811
  21.7448709  31.3077320  22.4154394   8.6788569  31.2191422  26.7719241
   9.2562071  31.0827872  27.4111487   7.9802630  30.7627206  27.0264826
   8.6609590  31.1313688  26.9041531  22.0762700  33.1064739  15.5183198
  21.9942862  33.1766927  16.3838185  22.7142420  33.6694483  15.3266939
  22.1582537  33.2003711  15.6173148  15.4355871  32.8725477  24.9857725
  15.1775115  32.0397212  24.9589024  15.4904354  33.0983090  24.1450225
  15.4055649  32.7823249  24.8577861  20.5156921  24.9753928  25.0861817
  19.8113248  24.4863114  25.2445736  20.5641895  24.9876402  24.2150262
  20.4186973  24.9043576  24.9801157  14.4090583  30.4263240  25.4722619
  13.8340174  30.5855408  26.1086580  14.0326259  29.7898649  25.0091070
  14.2693395  30.3561053  25.4977178  18.0763872  28.8986589  30.3314998
  17.6878304  28.4740807  29.6767189  17.4118570  29.1468739  30.8392024
  17.9210799  28.8725310  30.3102866   4.1547402  30.0703315  23.4867060
   4.2407654  29.6935183  24.2680590   4.7823199  29.6963760  23.0087018
   4.2603953  29.9588797  23.5312537  19.1802810  33.1285194  18.5291805
  19.9943449  33.4200087  18.4174576  19.1161951  32.4745056  17.9550098
  19.2905549  33.0750388  18.4280642  15.0510718  36.6006711  23.6564117
  15.6884665  36.3618459  24.2015910  15.4765790  36.8043870  22.9217277
  15.2086884  36.5957721  23.6281274   9.7423361  38.8395048  27.5398421
   9.7827506  39.1109899  26.7118200  10.3017885  39.3636956  27.9556208
   9.8306706  38.9570803  27.4790309  15.6913533  31.8209001  17.9939006
  16.0758686  31.6016708  18.7455551  15.4425154  32.6471946  18.1240082
  15.7115606  31.9107147  18.1240083  15.8582074  25.1015416  37.7101590
  15.5435515  25.8714979  37.4471153  15.5372006  24.5385672  37.1253817
  15.7640993  25.1325685  37.5842940  17.4332190  37.0779134  25.3357903
  17.5071198  36.9154306  26.1899753  18.2501696  37.2669323  25.0918385
  17.5648549  37.0815876  25.4255929  11.1937947  37.4236997  22.3652347
  10.3676064  37.6698734  22.2386625  11.2549938  37.3449077  23.2314405
  11.0812114  37.4481946  22.4741291  13.4113971  23.4905938  23.3247787
  12.5436396  23.5628537  23.3905396  13.6989175  24.2928017  23.5135762
  13.3253719  23.6200085  23.3622553  15.9736776  40.0413877  20.0671376
  16.2635074  39.6502858  19.3430603  16.7040257  40.2230582  20.5076652
  16.1243660  40.0107691  20.0254183  16.5631521  34.8431623  31.1524507
  16.0643215  35.5547390  31.2309395  17.3731745  35.1632289  31.1142669
  16.6087628  34.9958471  31.1581075  13.9142691  42.0181259  23.1331526
  13.6942987  41.7278614  23.9258193  13.6937213  41.3596214  22.6049438
  13.8490286  41.8780968  23.1720435  12.8259639  34.1054576  25.3987228
  12.5372887  33.4792047  25.9332955  13.6942987  34.0474863  25.4651908
  12.9119891  34.0042120  25.4878182  16.0810647  43.3910649  21.9162219
  16.7334705  42.8587092  22.1453245  15.3836256  43.0379302  22.3030093
  16.0741365  43.2600172  22.0074386  13.0291912  35.7449827  21.3229593
  13.7837880  36.1262866  21.5365055  12.4362525  36.1960970  21.7776289
  13.0528626  35.8678654  21.4212471  24.0750565  35.7115063  21.2593198
  24.6408598  36.3708273  21.1751741  23.4278469  36.0564761  21.7309600
  24.0629322  35.8597005  21.3165954  15.4898579  27.7012667  36.4486805
  14.6798355  28.0070447  36.3376647  15.9673266  28.4218250  36.5639389
  15.4402058  27.8527268  36.4493876  14.3490139  36.9158388  26.6969708
  13.8270892  37.0558680  27.3821573  14.7364159  36.1569052  26.8871826
  14.3293840  36.8243912  26.8270785  11.3381323  26.9664197  20.7664663
  11.0506118  26.5965467  20.0296610  12.0251791  27.4359052  20.5048368
  11.3970220  26.9811166  20.6179739  20.5457144  38.6553847  20.6830277
  20.3043819  37.9221708  20.2757342  20.7258476  39.2040704  20.0296610
  20.5364768  38.6276239  20.5260500  15.7756464  33.9462407  22.0951199
  15.5799247  34.5537142  21.5011502  15.9990810  33.2530351  21.6142873
  15.7791105  33.9339933  21.9367280  14.1734994  30.8317145  22.2132068
  14.8957646  30.9958303  21.7535874  13.6942987  31.5526810  22.1071407
  14.2098725  30.9615375  22.1297682  11.8242611  33.2375218  31.3186207
  12.3363708  33.5159471  30.6694967  11.5378954  33.9764512  31.6849021
  11.8577474  33.3877571  31.2776086  20.5797780  24.0666321  22.3256368
  21.2824133  23.8674069  21.8476327  20.3141969  23.2942263  22.6325212
  20.6444412  23.9229287  22.3001810   8.9109517  27.7445409  21.6149944
   9.0125654  28.5471571  21.9430919   9.7065404  27.5432745  21.3173025
   9.0437423  27.8331308  21.6185299  15.3426336  25.3301606  31.3787249
  15.1509533  25.3456741  32.2286673  16.1924932  25.5265280  31.3553904
  15.4402058  25.3615957  31.5010544   9.7273249  27.8592588  29.3571066
   9.5858741  27.0076528  29.4815574  10.0113813  27.9021248  28.5333272
   9.7481095  27.7392338  29.2538690  19.8811842  29.6959678  23.5015554
  19.6346556  29.6155429  24.3352343  20.2096965  28.9113146  23.3078081
  19.8933085  29.5685943  23.5963077  15.8408869  32.4316396  32.9138537
  15.9852245  33.0117605  32.2781647  16.1884518  32.8092693  33.6188392
  15.9136330  32.5737100  32.9237532  18.0128786  31.6306565  30.6963669
  17.2652100  31.8237579  30.2911947  18.1670312  30.8051784  30.4587790
  17.9251214  31.5371676  30.6009074  14.9136624  40.6219168  29.7799564
  15.0626188  40.0622084  29.1272968  15.6936626  40.7011170  30.1632083
  15.0510718  40.5504734  29.7396513  25.2713263  35.7621291  18.0518834
  24.8920072  34.9758429  18.0448124  24.6079509  36.3108148  17.9090479
  25.1171738  35.7266115  18.0299631  18.2530563  25.5257115  31.5859072
  18.7103177  26.2581090  31.7131864  18.3286892  25.1023581  32.3446328
  18.3321533  25.5714354  31.7160149  10.4963555  25.7722935  32.6748516
   9.9605744  25.1603293  32.9909283  10.5581319  26.3471071  33.3282183
  10.4259187  25.7669863  32.8183943  22.7257889  18.7046991  25.4552915
  22.8441457  19.1623454  24.7220218  22.5520065  17.8992252  25.1689133
  22.7177060  18.6540763  25.3053849  18.0960172  39.3134810  21.8907661
  18.8610063  39.0444454  21.5690325  17.9938261  38.8284820  22.6077723
  18.1941667  39.2024375  21.9487488  16.1312941  27.5159219  28.4300896
  15.3409016  27.3350680  28.7518232  16.5273564  26.7386172  28.4131191
  16.0729817  27.3746680  28.4753445  20.6178832  36.3446994  13.8707610
  21.3851817  36.4047119  13.4613462  20.1710141  35.7727435  13.3863928
  20.6652259  36.2683569  13.7385320  21.5156628  35.1501650  26.1560342
  20.8401629  34.9186882  26.6573729  21.5249004  34.5422832  25.5302447
  21.4175132  35.0260575  26.1376494  18.6450772  29.9919479  32.9124395
  18.5809913  30.8529435  32.7844532  18.7847959  29.6751472  32.1119946
  18.6566242  30.0719645  32.7752608  23.5173362  38.0066782  18.3870520
  23.5993200  38.8133768  18.0631971  24.0023104  38.0262741  19.1111294
  23.6010520  38.1287444  18.4457419  17.3269865  32.6851618  27.0540598
  16.9032115  32.8856117  26.3179616  17.1514721  31.8380466  27.1664898
  17.2380746  32.5900399  26.9614288  16.8281559  44.2002131  29.5162055
  17.3177489  43.5012920  29.3337720  16.2565791  43.9026001  30.1038113
  16.8166089  44.0528355  29.5763096  12.6152310  33.1803669  22.4868571
  12.7716930  33.1150472  23.3424563  12.9552904  33.9552222  22.2747250
  12.6885545  33.2852867  22.5823165  19.1531455  32.5561553  21.3561934
  19.6947000  32.0531934  21.8200554  19.4678014  32.5026748  20.5451419
  19.2795852  32.4740974  21.3045746  17.3217905  37.9478904  18.6401962
  17.3910725  37.0893443  18.7794962  18.1006360  38.1650785  18.3120986
  17.4470755  37.8531768  18.6119119  21.7125392  40.3716606  22.8538455
  21.3205184  40.0683321  22.1361321  21.8678465  41.2085696  22.6643409
  21.6778982  40.4500442  22.7194952   9.1886572  30.3638620  22.8029338
   9.5685537  30.7823165  22.1389605   8.6141937  30.9452075  23.1098181
   9.1597897  30.5116479  22.7506079  21.8765067  36.9366595  22.7944486
  21.5179722  37.1081237  23.5708518  21.3903778  37.3979800  22.2372484
  21.7523764  37.0305566  22.8269755  19.6935453  20.5597793  26.3971577
  18.8229011  20.5336514  26.3504887  19.9475794  20.3874985  25.5797423
  19.6029013  20.5307937  26.2691714  16.6653432  32.6165760  15.3344720
  16.9545957  33.3930642  15.6088294  16.7525231  32.1054491  16.0359219
  16.7207689  32.6557678  15.4787218  19.5613320  30.4646994  37.1296244
  20.0312951  31.0889110  37.5164118  19.6075200  29.7963970  37.6889458
  19.6381196  30.4581674  37.2696315  16.7184594  22.5704021  27.8545047
  16.2023082  21.8784213  27.9796626  16.1578522  23.2374799  27.8007646
  16.5591107  22.5667279  27.8651113  18.7876827  23.1096982  29.6837900
  18.4008580  23.1346013  30.4651430  18.3009764  22.5438660  29.2312417
  18.6589336  23.0292732  29.7325804  18.4533969  19.9963967  31.9748160
  19.0827087  20.5324267  31.6969230  18.6219831  19.9041326  32.8261726
  18.5711763  20.0625329  32.0596688  18.2547884  24.7835162  34.2474572
  19.0821313  24.5120311  34.3033186  18.2755730  25.5796003  34.6038390
  18.3800734  24.8614916  34.3089754  12.8317373  31.9299025  27.4344832
  11.9905380  31.8302899  27.6423726  13.0407381  32.6994505  27.7859153
  12.7382066  32.0291068  27.5172147  10.3092940  29.5518561  25.2629583
   9.9149638  29.6261573  24.4879692   9.7533057  29.9376508  25.8137945
  10.1695753  29.6200336  25.2297243  21.9457887  22.5299855  24.9433462
  22.1507481  22.4622163  25.7890459  21.6184311  23.3358677  24.8754639
  21.9273135  22.6385796  25.0593117  16.6434038  29.8580424  26.6842430
  16.3397176  29.3036412  27.2852837  15.9413459  30.0372634  26.1970464
  16.4950248  29.8025206  26.7012135  15.7000135  27.1680943  21.2487132
  15.9759870  26.4499856  20.8364699  16.2998805  27.7665863  21.0408238
  15.8293400  27.1501314  21.1567893  14.7052389  37.0730144  31.3914527
  14.5972744  37.0832207  32.2576586  14.9148171  37.8984925  31.2019481
  14.7202500  37.1971219  31.4918619  25.1991575  23.0831620  24.4236227
  24.5865889  23.5702022  24.8089959  25.2955750  22.4075111  24.9673878
  25.1229473  23.0549928  24.5615085  19.2010656  24.8394461  19.5233727
  19.6554402  25.0105021  20.2481571  19.6750702  24.2262572  19.1231502
  19.3378976  24.7745346  19.5707488  12.7226181  34.3242787  28.8536465
  12.1314115  34.9652285  28.8239480  13.4847205  34.7480404  28.8267765
  12.7474442  34.4818625  28.8451612  13.1186804  25.4844785  29.5204483
  13.5788286  25.5583714  30.2579606  13.1642911  26.2826039  29.1704304
  13.1937359  25.6138932  29.5777239  14.7670154  26.1511479  34.0876510
  14.3755719  25.5044827  34.5232288  14.9356017  26.7422915  34.7070765
  14.7341064  26.1425747  34.2439216  22.4815698  39.7752098  26.2868490
  22.2835386  40.2642913  25.5924701  21.8603409  39.9793340  26.8652623
  22.3603262  39.8768637  26.2691713  16.5423676  31.5436995  20.6278734
  17.2865721  31.9311272  20.8661684  16.6884372  30.6994421  20.7919222
  16.6734261  31.4767468  20.6872704  18.4603251  23.3387254  25.6610595
  17.6139296  23.5110062  25.5351945  18.4574384  22.5336598  25.9976424
  18.3350401  23.2448283  25.6921722  19.5301552  27.1162469  26.5272653
  19.0561506  26.5904231  27.0377964  19.9019688  26.5691941  25.9587515
  19.5151441  26.9578465  26.5187800   9.9074582  29.1133975  31.8956199
  10.7700195  29.0129684  31.8093529   9.5766365  28.5328685  31.3341771
   9.9859778  29.0125602  31.8001605  21.4585051  28.0099023  19.5898407
  20.9308070  28.0927767  18.9004116  21.9180760  28.7516895  19.5863052
  21.4486902  28.1319686  19.4873102  13.2676368  27.9376424  28.5566617
  12.6429438  27.9494816  27.9492570  12.9321963  28.4136599  29.2057857
  13.1261860  28.0094941  28.5623186  13.4518117  26.2801543  14.6139302
  13.1030921  26.9321268  15.0770851  12.9714562  26.2658656  13.8863173
  13.3288361  26.3744596  14.5750393   9.9802043  35.9976884  29.9970381
   9.4501968  35.3069323  30.0465356  10.2527137  35.9887070  29.1683090
   9.9426766  35.8944016  29.8817797  21.0122134  36.5802587  18.7208064
  21.7356333  37.0460700  18.5772637  20.5722725  36.6476196  17.9705661
  21.0537826  36.6586423  18.5892845  19.4204586  34.5104399  27.7053052
  18.9932194  33.8854118  27.2718487  19.4129531  34.2279321  28.5312059
  19.3563727  34.3757180  27.7632879  12.5367113  29.5469572  30.7741486
  12.6960600  28.7912896  31.1793208  12.3560007  30.0960512  31.4282223
  12.5332472  29.5163386  30.9304192  20.4787416  21.7130808  31.3292275
  19.9827978  21.9094482  30.6383842  21.2356478  22.1123476  31.1581077
  20.5174241  21.8008541  31.2012412  17.7490296  25.3873154  27.9195586
  17.7732783  24.8533266  27.2308366  18.0001769  24.8790462  28.5821176
  17.7900215  25.2334057  27.9160230   5.2597886  32.6704648  27.3538730
   5.1541335  32.6251493  26.4890814   4.5098106  33.0158429  27.6353015
   5.1333489  32.7145557  27.2676059  14.0291618  24.1143972  27.3001330
  14.0689990  24.6153178  28.0136037  13.2041283  24.2054365  27.0307253
  13.9131144  24.2025788  27.3651868  16.2121231  33.6804712  35.4021624
  15.3616861  33.8176426  35.5379269  16.3749359  32.9468490  35.8469326
  16.1105094  33.5918813  35.4877224  15.4505981  30.6304482  29.5975229
  14.6197911  30.7978300  29.3910477  15.3957499  30.2540432  30.3824114
  15.3195396  30.5994213  29.6823757  13.2589765  24.1213375  35.2331640
  13.8842468  23.5775507  35.5061072  12.8040245  23.6408292  34.6639430
  13.2838025  23.9702856  35.1893233  13.8242025  28.9060073  20.1265347
  13.9644986  29.4032537  20.8293988  14.3224558  28.2046368  20.2679560
  13.9183106  28.8762052  20.2516926  13.8542248  29.7727184  17.4557923
  14.4887327  30.3687609  17.3907385  13.9367858  29.4730642  18.2703794
  13.9598799  29.8168092  17.5661010  15.4321231  25.7041160  17.4303365
  15.7537072  25.2244242  16.7762628  15.6948174  26.5140806  17.2394177
  15.5187256  25.7531057  17.3058858  18.6618203  36.7260034  30.9502182
  18.1543294  37.2795881  31.3942812  18.3644850  36.7868324  30.1320956
  18.5423088  36.8166345  30.8950638  10.3595236  31.9695025  20.7247469
  10.8687465  32.5659532  21.1058775  10.8329508  31.7020999  20.0423889
  10.5038611  32.0180840  20.6801992  21.2725984  40.6423292  18.8806125
  20.5555293  40.4684154  18.4153362  21.9232721  40.4075864  18.3481611
  21.2627834  40.5819084  18.7335343  19.2674608  21.5628453  23.2017422
  18.6242926  21.4126100  23.7702560  18.9274015  21.3170799  22.4366526
  19.1219686  21.5040576  23.1720437  17.9060689  41.6584592  27.8559188
  17.6826343  40.9003421  28.2243215  17.4170532  41.6882613  27.1339628
  17.8004138  41.5506817  27.8035929  24.0202082  25.9743764  25.5337803
  24.3729692  25.5473487  26.2083602  23.1616884  25.8894607  25.6638880
  23.9451527  25.8988504  25.6532814  12.7185767  28.6051283  23.5920650
  11.9997756  29.0215416  23.8593513  13.0898130  29.1705522  23.0412288
  12.6677699  28.7500565  23.5503457  16.5539146  41.8785050  25.3096273
  16.1399544  41.2159180  24.9200115  17.2386520  42.0262909  24.7891967
  16.5937517  41.8025708  25.1752770  19.9204440  41.0375136  26.0619890
  19.5220723  41.1477406  25.2940710  19.3055659  41.2457202  26.6446449
  19.7703329  41.0848704  26.0351189  18.4932342  27.6449283  18.9294029
  17.8997181  27.9666280  18.3778596  18.5307619  26.7990379  18.7215135
  18.4106731  27.5673612  18.8176801  25.4526142  21.0962176  26.4622116
  24.9457007  20.3891315  26.3943293  26.2493576  20.7655364  26.5923192
  25.4953382  20.9435327  26.4721111  21.3690158  27.6028788  22.3595780
  21.1403851  27.6261489  21.5174138  21.6288234  26.7786255  22.4790790
  21.3736346  27.4844868  22.2520977  15.6509387  29.4563261  31.9620880
  15.1388290  28.8484444  32.3205911  15.4788883  30.1719853  32.4294856
  15.5499024  29.4726560  32.0837103  10.4975101  27.9000836  34.6123242
  10.3277692  28.5602211  34.0671448  10.0541051  28.1107397  35.3335731
  10.4074435  28.0286818  34.6384871  14.4234921  26.1405334  23.6549975
  14.8992287  26.5022414  23.0200156  13.9223520  26.7961802  23.9350118
  14.4200280  26.2899523  23.6026716  27.6546282  35.6127102  19.4462980
  28.0379888  36.3618458  19.6761077  26.8590396  35.8592922  19.1874969
  27.5940065  35.7596796  19.4420554  19.5278457  27.3787506  34.4023135
  20.0849887  27.1501315  33.7701601  19.2039522  28.1393171  34.1258348
  19.5624867  27.4571342  34.2679632   7.3977166  30.8047702  29.8711731
   6.8503885  30.1348347  29.9892600   8.1869544  30.4377550  29.9355199
   7.4329350  30.6512688  29.8980432  17.2461574  30.4655159  35.3675142
  17.9972901  30.7806836  35.6814697  17.4384151  30.2634330  34.5409064
  17.3852988  30.4822541  35.2918538  16.4661574  28.2846534  17.0223359
  16.8460539  28.3026163  16.2374474  15.7254170  28.7300523  16.9014207
  16.4130412  28.3528309  16.8886927  24.0946864  26.5928725  22.6098938
  24.0941091  26.4377382  23.4683214  23.8903044  27.4391712  22.5540323
  24.0646642  26.6949346  22.7286877   6.1564135  30.0168510  27.0257754
   5.9785896  29.5645119  27.7512670   5.8683158  30.8194671  27.2096232
   6.0877089  30.0691067  27.1601257  17.2646328  35.1224040  18.4132149
  16.4557651  34.7990714  18.3665459  17.7721237  34.4157262  18.3460398
  17.2195995  34.9705357  18.3962444   7.8936605  32.5496233  24.1379514
   7.0282125  32.5381924  24.0262285   7.9935421  32.3626456  24.9850653
   7.7810772  32.5202295  24.2468458  13.5193615  42.3194132  27.7109619
  13.8340174  43.1330520  27.7187401  13.9287028  41.9344351  28.3791778
  13.6261713  42.3822834  27.8113711  20.4718135  37.7364179  25.2813431
  20.9429313  38.4504441  25.4503416  20.8078313  37.1362929  25.8173300
  20.5913250  37.7535643  25.3845807  17.3887630  22.5091649  32.2371526
  17.5215535  21.7122643  32.5652501  17.7732782  23.0358052  32.8169801
  17.4643959  22.4691566  32.3715029  20.4619985  19.4321975  28.8352619
  19.6565949  19.3219705  29.1520457  20.3326720  19.5334431  27.9782485
  20.3240118  19.4305646  28.7560659  16.4580745  24.5108062  19.7050991
  17.2796439  24.6806375  19.4632686  15.9950396  24.6655323  18.9817288
  16.5111907  24.5589795  19.5622635  15.0476077  22.5050824  30.4849420
  15.5920489  22.1641951  31.0753761  15.1013012  23.3636286  30.6270704
  15.1365196  22.5806084  30.5931293  10.8606635  36.2667240  27.3588227
  11.4651493  36.2263075  26.7302048  10.6533948  37.1138392  27.3892283
  10.9195533  36.3855243  27.2704344   6.0957918  35.2501858  27.2287151
   5.9982196  34.4398129  27.5377207   6.8786787  35.2293651  26.8433419
   6.1974054  35.1268948  27.2174014  37.1464058  46.1898037  21.5393341
  37.1158062  47.0442674  21.7111611  37.7445407  45.8893330  22.0979485
  37.2301216  46.2714534  21.6468143  30.3463743  45.2773688  26.2946272
  29.4901638  45.4382187  26.3455388  30.3931396  44.4065752  26.3151333
  30.2262854  45.1724490  26.3052338  24.7304882  54.8136406  22.0583503
  23.9787782  54.4351944  21.8299548  25.1790894  54.8454840  21.3102313
  24.6854549  54.7622013  21.9141005  30.1829842  55.2361776  17.4869050
  29.8481211  55.9138697  17.0513272  30.6956713  54.8467087  16.8985922
  30.2095423  55.2786354  17.3355842  29.7234134  57.1876044  23.4280162
  30.1073513  57.7562943  22.8884937  29.6593275  56.4625555  22.9485978
  29.7707561  57.1651508  23.2774024  33.1915564  47.3365732  28.9377923
  33.7371524  48.0150819  28.9971893  33.1332440  47.1953193  28.0779505
  33.2631478  47.4157734  28.8189984  26.3089639  54.8254798  24.3246276
  26.4100001  54.0155152  24.6343403  25.7131384  54.7311745  23.6945954
  26.2362177  54.6919826  24.2772514  34.9680632  48.7650339  19.8111651
  34.8520158  49.5158025  20.2403789  35.7636519  48.5074293  20.0607738
  35.0685222  48.8385186  19.9115743  26.1490378  59.7432387  25.7261132
  26.7927834  60.1845552  26.1157290  26.4746634  58.9385814  25.6391390
  26.2922207  59.6897582  25.7706609  19.5054683  50.8475085  23.9498609
  19.2704867  50.0142737  23.8430878  19.6440324  51.1279751  23.1359810
  19.4910345  50.7658588  23.8140964  21.8044770  43.0160815  26.8482917
  21.1849802  42.4253463  26.6792932  21.7028634  43.6072251  26.2147240
  21.6982446  43.0164898  26.7287907  26.8510958  52.7544362  21.0980993
  27.1726799  53.2949570  20.4942302  27.4983054  52.1841134  21.2303283
  26.9937013  52.7503537  21.0288029  28.9012666  44.7560357  21.1815380
  29.5992831  44.9348485  21.6736843  29.2164998  44.2330697  20.5585770
  29.0508003  44.7054129  21.1617390  21.5313903  46.5613097  29.0926486
  21.4072600  47.1475543  29.7276305  22.1832188  46.0673293  29.3938761
  21.6087553  46.5751902  29.2312415  29.0900601  51.1430802  21.1695172
  29.5294237  50.5347903  21.6149944  28.9405264  50.7638176  20.3980637
  29.1322067  50.9969273  21.1214339  26.5572244  49.7374814  28.3713997
  27.2021247  49.2447257  28.0524946  26.7974021  49.8799601  29.1980075
  26.6882829  49.6852256  28.4463530  29.0958336  52.5829720  28.0220890
  29.3781578  51.7881126  27.8007646  29.8244496  53.0610307  28.0425951
  29.2447899  52.5364317  27.9923905  27.0739529  40.1252754  25.2636655
  26.7442860  40.5763898  24.5940354  26.3984531  40.0468917  25.8109661
  26.9249966  40.1803889  25.2459878  32.6909938  49.4957984  18.1225941
  32.6061233  50.3518950  18.2675510  33.1794321  49.2202308  18.7908100
  32.7498835  49.5815305  18.2428022  33.6228371  46.1142778  19.6223676
  33.0939843  46.3302411  20.2820982  34.1453391  46.8078916  19.5424645
  33.6216824  46.2485915  19.7079275  25.5127979  50.0105995  18.4231144
  24.9285194  50.5156026  18.8297008  25.1098074  49.7848381  17.6827736
  25.3667283  50.0514243  18.3736169  21.0672007  55.7260756  25.2254816
  20.5839586  56.4511245  25.2014399  21.8795326  56.0236886  25.3364973
  21.1162755  55.8763109  25.2382095  27.1386162  54.5192936  27.8304630
  26.6213103  54.1600351  27.2265938  27.8360553  53.9955111  27.8410696
  27.1651743  54.3890624  27.7434889  29.9705193  46.2571647  16.9000065
  30.2101197  46.4649630  16.0875408  30.2921034  45.4529155  17.0089009
  30.0542351  46.1685748  16.7960618  25.2795484  38.1865042  20.7459603
  26.0341452  38.5543359  20.5076653  25.1023018  38.5604597  21.5138782
  25.3649962  38.2963230  20.8244491  23.9216205  56.2416932  25.3775095
  24.6236784  55.7268921  25.4347852  23.8413688  56.5691083  26.1821970
  24.0139965  56.2131158  25.5047888  23.6352548  40.5935361  17.4437716
  23.4528121  40.8107242  16.6178708  24.4978161  40.7074374  17.4996330
  23.7357138  40.6425259  17.3292203  23.2466980  52.4323284  24.8860703
  24.0855880  52.6646216  24.9334465  23.2778749  51.5627595  24.8167739
  23.3748698  52.3380230  24.8825348  23.8719683  52.8524159  29.1874009
  24.4117908  52.7095290  29.8577381  23.1889629  53.2520910  29.5558035
  23.8511837  52.8903830  29.3408431  29.3152267  37.5961772  20.4786739
  30.0438428  37.4177727  20.0324896  29.4047160  38.4379852  20.6893917
  29.4358929  37.6945650  20.4440257  19.2756828  49.0724450  29.3408430
  19.0095243  48.2563566  29.4999421  19.2895392  49.1177605  28.4703946
  19.2381551  48.9581354  29.2361912  23.1814575  43.8709534  15.9560189
  22.4672752  43.5847713  16.3682621  23.6658544  44.2106160  16.5966576
  23.1473939  43.8791184  16.1115823  30.3561893  52.3739488  16.3321997
  30.7713042  52.0424512  15.6406492  29.5253823  52.1408390  16.2042133
  30.2949902  52.2910744  16.2112844  19.6850242  49.8583229  26.6220175
  19.5025815  49.8330115  25.7692467  20.4199911  50.3282167  26.6609083
  19.7664306  49.9244591  26.5018093  22.7495994  46.5768232  33.1302283
  23.4735966  46.5621262  33.6167178  22.8512130  47.2863587  32.6324252
  22.8714203  46.6792935  33.1281070  32.7972262  46.7801308  22.2846246
  32.8919116  47.5190602  22.7385872  32.1731106  46.3518783  22.7180811
  32.7181292  46.8262628  22.4154394  19.6521152  46.7376730  26.7719241
  20.2294655  46.6013180  27.4111487  18.9535214  46.2812514  27.0264826
  19.6342174  46.6498996  26.9041531  33.0495283  48.6250047  15.5183198
  32.9675446  48.6952234  16.3838185  33.6875004  49.1879791  15.3266939
  33.1315121  48.7189018  15.6173148  26.4088454  48.3910785  24.9857725
  26.1507699  47.5582520  24.9589024  26.4636937  48.6168398  24.1450225
  26.3788232  48.3008557  24.8577861  31.4889505  40.4939236  25.0861817
  30.7845831  40.0048421  25.2445736  31.5374479  40.5061710  24.2150262
  31.3919556  40.4228884  24.9801157  25.3823167  45.9448548  25.4722619
  24.8072758  46.1040716  26.1086580  25.0058843  45.3083957  25.0091070
  25.2425979  45.8746361  25.4977178  29.0496455  44.4171897  30.3314998
  28.6610888  43.9926115  29.6767189  28.3851154  44.6654047  30.8392024
  28.8943383  44.3910618  30.3102866  38.6919724  44.1746902  23.1062828
  38.4356289  43.3626843  22.9160711  39.5349038  44.1824469  22.8793015
  38.7785750  44.0558899  23.0447645  15.1279985  45.5888623  23.4867060
  15.2140237  45.2120491  24.2680590  15.7555783  45.2149068  23.0087018
  15.2336536  45.4774105  23.5312537  32.8722817  38.1146526  27.8438982
  33.2533329  37.4324697  28.2306856  32.0686101  37.8256128  27.6614646
  32.8099278  37.9713574  27.8743038  30.1535393  48.6470502  18.5291805
  30.9676032  48.9385394  18.4174576  30.0894535  47.9930364  17.9550098
  30.2638133  48.5935696  18.4280642  26.0243302  52.1192019  23.6564117
  26.6617249  51.8803767  24.2015910  26.4498373  52.3229178  22.9217277
  26.1819468  52.1143029  23.6281274  20.7155944  54.3580356  27.5398421
  20.7560089  54.6295207  26.7118200  21.2750468  54.8822264  27.9556208
  20.8039290  54.4756111  27.4790309  26.6646117  47.3394309  17.9939006
  27.0491269  47.1202016  18.7455551  26.4157737  48.1657254  18.1240082
  26.6848189  47.4292455  18.1240083  28.4064774  52.5964442  25.3357903
  28.4803782  52.4339614  26.1899753  29.2234280  52.7854631  25.0918385
  28.5381132  52.6001184  25.4255929  22.1670530  52.9422305  22.3652347
  21.3408648  53.1884042  22.2386625  22.2282522  52.8634385  23.2314405
  22.0544697  52.9667254  22.4741291  24.3846554  39.0091246  23.3247787
  23.5168980  39.0813845  23.3905396  24.6721758  39.8113324  23.5135762
  24.2986302  39.1385393  23.3622553  26.9469359  55.5599185  20.0671376
  27.2367658  55.1688166  19.3430603  27.6772840  55.7415890  20.5076652
  27.0976244  55.5292999  20.0254183  24.8875275  57.5366567  23.1331526
  24.6675570  57.2463922  23.9258193  24.6669797  56.8781522  22.6049438
  24.8222869  57.3966276  23.1720435  23.7992222  49.6239884  25.3987228
  23.5105471  48.9977355  25.9332955  24.6675570  49.5660171  25.4651908
  23.8852474  49.5227428  25.4878182  27.0543231  58.9095957  21.9162219
  27.7067289  58.3772399  22.1453245  26.3568839  58.5564609  22.3030093
  27.0473949  58.7785480  22.0074386  24.0024496  51.2635135  21.3229593
  24.7570464  51.6448174  21.5365055  23.4095108  51.7146278  21.7776289
  24.0261209  51.3863962  21.4212471  35.0483149  51.2300371  21.2593198
  35.6141182  51.8893581  21.1751741  34.4011052  51.5750069  21.7309600
  35.0361905  51.3782312  21.3165954  25.3222722  52.4343696  26.6969708
  24.8003476  52.5743988  27.3821573  25.7096742  51.6754360  26.8871826
  25.3026423  52.3429220  26.8270785  22.3113906  42.4849505  20.7664663
  22.0238702  42.1150775  20.0296610  22.9984374  42.9544360  20.5048368
  22.3702804  42.4996474  20.6179739  31.5189727  54.1739155  20.6830277
  31.2776403  53.4407016  20.2757342  31.6991060  54.7226012  20.0296610
  31.5097351  54.1461547  20.5260500  26.7489048  49.4647715  22.0951199
  26.5531830  50.0722450  21.5011502  26.9723393  48.7715659  21.6142873
  26.7523689  49.4525241  21.9367280  25.1467578  46.3502453  22.2132068
  25.8690230  46.5143611  21.7535874  24.6675571  47.0712118  22.1071407
  25.1831308  46.4800683  22.1297682  33.1061085  42.6866252  27.5928753
  32.2672186  42.7127531  27.3567016  33.1765453  43.3336987  28.1734099
  32.9929479  42.7862378  27.6437869  22.7975194  48.7560525  31.3186207
  23.3096291  49.0344779  30.6694967  22.5111537  49.4949820  31.6849021
  22.8310058  48.9062879  31.2776086  31.5530364  39.5851629  22.3256368
  32.2556716  39.3859377  21.8476327  31.2874552  38.8127571  22.6325212
  31.6176996  39.4414595  22.3001810  19.8842101  43.2630717  21.6149944
  19.9858237  44.0656879  21.9430919  20.6797988  43.0618053  21.3173025
  20.0170006  43.3516616  21.6185299  30.8544425  45.2144986  23.5015554
  30.6079140  45.1340737  24.3352343  31.1829548  44.4298454  23.3078081
  30.8665669  45.0871251  23.5963077  34.7492474  51.9228345  27.2902335
  34.6106833  52.6209391  27.7951077  33.9692472  51.7677002  26.9338517
  34.6135701  52.0028512  27.3128609  25.8869208  56.1404476  29.7799564
  26.0358771  55.5807392  29.1272968  26.6669210  56.2196478  30.1632083
  26.0243301  56.0690042  29.7396513  36.2445847  51.2806599  18.0518834
  35.8652656  50.4943737  18.0448124  35.5812092  51.8293456  17.9090479
  36.0904322  51.2451423  18.0299631  28.4122508  56.3119119  31.0584055
  28.3366179  55.6427930  31.6134843  28.3412367  57.0136907  31.5724721
  28.3903115  56.3164026  31.2160903  29.0692755  54.8320118  21.8907661
  29.8342646  54.5629762  21.5690325  28.9670845  54.3470128  22.6077723
  29.1674251  54.7209683  21.9487488  27.1045525  43.0344527  28.4300896
  26.3141600  42.8535987  28.7518232  27.5006148  42.2571480  28.4131191
  27.0462401  42.8931988  28.4753445  31.5911416  51.8632302  13.8707610
  32.3584401  51.9232427  13.4613462  31.1442725  51.2912743  13.3863928
  31.6384843  51.7868877  13.7385320  32.4889211  50.6686957  26.1560342
  31.8134213  50.4372190  26.6573729  32.4981587  50.0608140  25.5302447
  32.3907716  50.5445883  26.1376494  34.4905946  53.5252090  18.3870520
  34.5725783  54.3319076  18.0631971  34.9755688  53.5448049  19.1111294
  34.5743104  53.6472752  18.4457419  28.3002449  48.2036926  27.0540598
  27.8764698  48.4041425  26.3179616  28.1247304  47.3565774  27.1664898
  28.2113330  48.1085707  26.9614288  27.8014142  59.7187439  29.5162055
  28.2910073  59.0198228  29.3337720  27.2298375  59.4211309  30.1038113
  27.7898672  59.5713662  29.5763096  23.5884894  48.6988977  22.4868571
  23.7449513  48.6335780  23.3424563  23.9285487  49.4737530  22.2747250
  23.6618129  48.8038175  22.5823165  30.1264039  48.0746861  21.3561934
  30.6679584  47.5717242  21.8200554  30.4410598  48.0212055  20.5451419
  30.2528436  47.9926282  21.3045746  28.2950488  53.4664212  18.6401962
  28.3643309  52.6078751  18.7794962  29.0738943  53.6836093  18.3120986
  28.4203338  53.3717076  18.6119119  32.6857976  55.8901914  22.8538455
  32.2937768  55.5868629  22.1361321  32.8411048  56.7271004  22.6643409
  32.6511566  55.9685750  22.7194952  20.1619155  45.8823928  22.8029338
  20.5418120  46.3008473  22.1389605  19.5874520  46.4637383  23.1098181
  20.1330480  46.0301787  22.7506079  32.8497651  52.4551902  22.7944486
  32.4912305  52.6266545  23.5708518  32.3636361  52.9165108  22.2372484
  32.7256348  52.5490874  22.8269755  27.6386016  48.1351068  15.3344720
  27.9278541  48.9115950  15.6088294  27.7257815  47.6239799  16.0359219
  27.6940272  48.1742986  15.4787218  23.8049957  47.4484332  27.4344832
  22.9637964  47.3488207  27.6423726  24.0139965  48.2179813  27.7859153
  23.7114650  47.5476376  27.5172147  21.2825524  45.0703869  25.2629583
  20.8882222  45.1446881  24.4879692  20.7265641  45.4561816  25.8137945
  21.1428336  45.1385644  25.2297243  27.6166622  45.3765732  26.6842430
  27.3129759  44.8221720  27.2852837  26.9146043  45.5557942  26.1970464
  27.4682832  45.3210514  26.7012135  26.6732719  42.6866251  21.2487132
  26.9492453  41.9685164  20.8364699  27.2731388  43.2851171  21.0408238
  26.8025984  42.6686622  21.1567893  25.6784973  52.5915452  31.3914527
  25.5705328  52.6017514  32.2576586  25.8880754  53.4170233  31.2019481
  25.6935084  52.7156527  31.4918619  36.1724158  38.6016928  24.4236227
  35.5598472  39.0887330  24.8089959  36.2688333  37.9260419  24.9673878
  36.0962056  38.5735236  24.5615085  30.1743239  40.3579769  19.5233727
  30.6286986  40.5290329  20.2481571  30.6483285  39.7447879  19.1231502
  30.3111560  40.2930654  19.5707488  23.6958765  49.8428095  28.8536465
  23.1046698  50.4837593  28.8239480  24.4579788  50.2665712  28.8267765
  23.7207026  50.0003933  28.8451612  24.0919388  41.0030092  29.5204483
  24.5520869  41.0769022  30.2579606  24.1375494  41.8011347  29.1704304
  24.1669943  41.1324240  29.5777239  27.5156259  47.0622303  20.6278734
  28.2598304  47.4496579  20.8661684  27.6616956  46.2179729  20.7919222
  27.6466845  46.9952776  20.6872704  30.5034135  42.6347776  26.5272653
  30.0294090  42.1089538  27.0377964  30.8752271  42.0877249  25.9587515
  30.4884024  42.4763773  26.5187800  32.4317635  43.5284331  19.5898407
  31.9040654  43.6113075  18.9004116  32.8913343  44.2702202  19.5863052
  32.4219485  43.6504993  19.4873102  24.2408951  43.4561732  28.5566617
  23.6162022  43.4680124  27.9492570  23.9054546  43.9321907  29.2057857
  24.0994443  43.5280249  28.5623186  24.4250700  41.7986851  14.6139302
  24.0763504  42.4506576  15.0770851  23.9447146  41.7843964  13.8863173
  24.3020944  41.8929904  14.5750393  20.9534627  51.5162192  29.9970381
  20.4234552  50.8254631  30.0465356  21.2259720  51.5072378  29.1683090
  20.9159349  51.4129324  29.8817797  31.9854718  52.0987895  18.7208064
  32.7088916  52.5646008  18.5772637  31.5455309  52.1661504  17.9705661
  32.0270410  52.1771731  18.5892845  31.1540873  48.9585437  29.9708753
  30.5397866  48.4143487  30.2657388  31.6708158  48.4449673  29.4914569
  31.1396535  48.8021846  29.9432981  30.3937170  50.0289707  27.7053052
  29.9664778  49.4039426  27.2718487  30.3862114  49.7464629  28.5312059
  30.3296311  49.8942488  27.7632879  23.5099697  45.0654880  30.7741486
  23.6693184  44.3098204  31.1793208  23.3292590  45.6145819  31.4282223
  23.5065056  45.0348694  30.9304192  28.7222879  40.9058461  27.9195586
  28.7465367  40.3718574  27.2308366  28.9734353  40.3975770  28.5821176
  28.7632798  40.7519365  27.9160230  16.2330469  48.1889956  27.3538730
  16.1273918  48.1436801  26.4890814  15.4830689  48.5343737  27.6353015
  16.1066072  48.2330865  27.2676059  25.0024202  39.6329280  27.3001330
  25.0422573  40.1338486  28.0136037  24.1773866  39.7239673  27.0307253
  24.8863728  39.7211096  27.3651868  26.4238565  46.1489789  29.5975229
  25.5930495  46.3163607  29.3910477  26.3690082  45.7725740  30.3824114
  26.2927980  46.1179521  29.6823757  24.7974609  44.4245381  20.1265347
  24.9377570  44.9217845  20.8293988  25.2957142  43.7231675  20.2679560
  24.8915690  44.3947360  20.2516926  24.8274831  45.2912492  17.4557923
  25.4619911  45.8872917  17.3907385  24.9100442  44.9915950  18.2703794
  24.9331382  45.3353400  17.5661010  26.4053814  41.2226467  17.4303365
  26.7269655  40.7429550  16.7762628  26.6680758  42.0326114  17.2394177
  26.4919840  41.2716365  17.3058858  21.3327819  47.4880333  20.7247469
  21.8420048  48.0844840  21.1058775  21.8062091  47.2206306  20.0423889
  21.4771195  47.5366148  20.6801992  32.2458567  56.1608600  18.8806125
  31.5287877  55.9869462  18.4153362  32.8965305  55.9261172  18.3481611
  32.2360418  56.1004392  18.7335343  34.8306538  45.0373188  22.6247430
  34.1597728  45.5802890  22.4960496  35.5246289  45.5068043  22.3829125
  34.8335406  45.1871459  22.5702958  28.8793272  57.1769900  27.8559188
  28.6558927  56.4188729  28.2243215  28.3903115  57.2067921  27.1339628
  28.7736721  57.0692125  27.8035929  34.9934666  41.4929072  25.5337803
  35.3462276  41.0658795  26.2083602  34.1349467  41.4079915  25.6638880
  34.9184111  41.4173812  25.6532814  23.6918351  44.1236591  23.5920650
  22.9730340  44.5400724  23.8593513  24.0630713  44.6890830  23.0412288
  23.6410283  44.2685873  23.5503457  27.5271729  57.3970358  25.3096273
  27.1132128  56.7344488  24.9200115  28.2119103  57.5448217  24.7891967
  27.5670101  57.3211016  25.1752770  30.8937023  56.5560443  26.0619890
  30.4953306  56.6662714  25.2940710  30.2788243  56.7642510  26.6446449
  30.7435913  56.6034011  26.0351189  29.4664925  43.1634591  18.9294029
  28.8729765  43.4851588  18.3778596  29.5040203  42.3175687  18.7215135
  29.3839314  43.0858920  18.8176801  32.3422742  43.1214096  22.3595780
  32.1136435  43.1446797  21.5174138  32.6020818  42.2971563  22.4790790
  32.3468930  43.0030176  22.2520977  25.3967504  41.6590642  23.6549975
  25.8724871  42.0207722  23.0200156  24.8956104  42.3147110  23.9350118
  25.3932863  41.8084831  23.6026716  18.3709749  46.3233010  29.8711731
  17.8236469  45.6533655  29.9892600  19.1602128  45.9562858  29.9355199
  18.4061933  46.1697996  29.8980432  27.4394157  43.8031842  17.0223359
  27.8193122  43.8211471  16.2374474  26.6986754  44.2485831  16.9014207
  27.3862995  43.8713617  16.8886927  35.0679448  42.1114033  22.6098938
  35.0673674  41.9562690  23.4683214  34.8635628  42.9577020  22.5540323
  35.0379226  42.2134654  22.7286877  17.1296719  45.5353818  27.0257754
  16.9518480  45.0830427  27.7512670  16.8415741  46.3379979  27.2096232
  17.0609672  45.5876375  27.1601257  28.2378912  50.6409348  18.4132149
  27.4290234  50.3176022  18.3665459  28.7453820  49.9342570  18.3460398
  28.1928578  50.4890665  18.3962444  18.8669189  48.0681541  24.1379514
  18.0014708  48.0567232  24.0262285  18.9668005  47.8811764  24.9850653
  18.7543356  48.0387602  24.2468458  24.4926199  57.8379440  27.7109619
  24.8072758  58.6515828  27.7187401  24.9019612  57.4529659  28.3791778
  24.5994297  57.9008142  27.8113711  31.4450718  53.2549487  25.2813431
  31.9161897  53.9689749  25.4503416  31.7810897  52.6548237  25.8173300
  31.5645833  53.2720951  25.3845807  27.4313328  40.0293370  19.7050991
  28.2529023  40.1991683  19.4632686  26.9682979  40.1840631  18.9817288
  27.4844490  40.0775103  19.5622635  21.8339219  51.7852548  27.3588227
  22.4384076  51.7448382  26.7302048  21.6266531  52.6323700  27.3892283
  21.8928116  51.9040551  27.2704344  17.0690501  50.7687166  27.2287151
  16.9714779  49.9583437  27.5377207  17.8519371  50.7478959  26.8433419
  17.1706638  50.6454256  27.2174014  35.7037466  70.3321714  22.0583503
  34.9520365  69.9537252  21.8299548  36.1523478  70.3640148  21.3102313
  35.6587133  70.2807321  21.9141005  44.6290043  67.0645522  35.9006728
  45.3356810  66.5697553  36.0293662  44.8177978  67.5054603  35.1709386
  44.7617948  67.0563872  35.8115773  41.1562426  70.7547084  17.4869050
  40.8213794  71.4324005  17.0513272  41.6689296  70.3652395  16.8985922
  41.1828007  70.7971662  17.3355842  40.6966717  72.7061352  23.4280162
  41.0806096  73.2748251  22.8884937  40.6325858  71.9810863  22.9485978
  40.7440144  72.6836816  23.2774024  44.1648147  62.8551040  28.9377923
  44.7104107  63.5336127  28.9971893  44.1065024  62.7138501  28.0779505
  44.2364062  62.9343042  28.8189984  37.2822222  70.3440106  24.3246276
  37.3832585  69.5340460  24.6343403  36.6863967  70.2497053  23.6945954
  37.2094761  70.2105134  24.2772514  45.9413216  64.2835647  19.8111651
  45.8252742  65.0343333  20.2403789  46.7369103  64.0259601  20.0607738
  46.0417805  64.3570494  19.9115743  37.1222962  75.2617695  25.7261132
  37.7660417  75.7030859  26.1157290  37.4479217  74.4571122  25.6391390
  37.2654790  75.2082890  25.7706609  30.4787266  66.3660393  23.9498609
  30.2437451  65.5328045  23.8430878  30.6172907  66.6465058  23.1359810
  30.4642929  66.2843896  23.8140964  39.8745249  60.2745665  21.1815380
  40.5725414  60.4533793  21.6736843  40.1897582  59.7516005  20.5585770
  40.0240587  60.2239437  21.1617390  40.0633185  66.6616110  21.1695172
  40.5026820  66.0533211  21.6149944  39.9137848  66.2823484  20.3980637
  40.1054651  66.5154581  21.1214339  40.0690919  68.1015028  28.0220890
  40.3514162  67.3066434  27.8007646  40.7977080  68.5795615  28.0425951
  40.2180483  68.0549625  27.9923905  43.6642521  65.0143292  18.1225941
  43.5793817  65.8704258  18.2675510  44.1526905  64.7387616  18.7908100
  43.7231419  65.1000613  18.2428022  44.5960955  61.6328086  19.6223676
  44.0672426  61.8487719  20.2820982  45.1185975  62.3264224  19.5424645
  44.5949408  61.7671223  19.7079275  36.4860562  65.5291302  18.4231144
  35.9017778  66.0341334  18.8297008  36.0830658  65.3033689  17.6827736
  36.3399866  65.5699551  18.3736169  32.0404591  71.2446064  25.2254816
  31.5572169  71.9696553  25.2014399  32.8527909  71.5422194  25.3364973
  32.0895339  71.3948417  25.2382095  38.1118745  70.0378244  27.8304630
  37.5945687  69.6785659  27.2265938  38.8093136  69.5140419  27.8410696
  38.1384326  69.9075932  27.7434889  41.7682337  70.4873058  33.7920803
  41.8565683  70.2999199  34.6399013  42.1972050  69.8410488  33.3925650
  41.8444439  70.3636066  33.8592554  39.3352797  69.7704218  32.7738465
  38.7723632  69.3576828  33.2978126  40.0973820  69.6957124  33.1931608
  39.3647245  69.6981619  32.9131466  40.9437777  61.7756955  16.9000065
  41.1833781  61.9834938  16.0875408  41.2653618  60.9714463  17.0089009
  41.0274935  61.6871056  16.7960618  36.2528067  53.7050350  20.7459603
  37.0074035  54.0728667  20.5076653  36.0755602  54.0789905  21.5138782
  36.3382546  53.8148538  20.8244491  34.8948788  71.7602240  25.3775095
  35.5969368  71.2454229  25.4347852  34.8146271  72.0876391  26.1821970
  34.9872549  71.7316466  25.5047888  34.6085132  56.1120669  17.4437716
  34.4260705  56.3292550  16.6178708  35.4710745  56.2259682  17.4996330
  34.7089721  56.1610567  17.3292203  34.2199564  67.9508591  24.8860703
  35.0588463  68.1831524  24.9334465  34.2511333  67.0812903  24.8167739
  34.3481281  67.8565538  24.8825348  34.8452267  68.3709467  29.1874009
  35.3850492  68.2280598  29.8577381  34.1622213  68.7706217  29.5558035
  34.8244421  68.4089138  29.3408431  44.2693152  64.0500467  24.3819033
  45.0250667  64.4831982  24.4207942  44.3755476  63.4005237  24.9553669
  44.3963322  64.0177951  24.4717059  47.3073323  67.8773745  25.1321436
  46.8708555  67.8810487  25.8880408  46.9736238  68.5579244  24.7001014
  47.1935943  67.9786200  25.1802269  41.8802396  69.9182077  36.4564587
  42.6642813  70.0312925  36.8220329  41.6798991  69.0923214  36.6523272
  41.9668422  69.8128797  36.5398973  34.1547159  59.3894842  15.9560189
  33.4405336  59.1033021  16.3682621  34.6391127  59.7291468  16.5966576
  34.1206522  59.3976492  16.1115823  42.0372790  71.8292179  30.1031042
  41.2388035  71.5891680  30.3604911  42.4858801  71.8806572  30.8498090
  41.9847401  71.8014571  30.2515966  41.3294477  67.8924796  16.3321997
  41.7445625  67.5609820  15.6406492  40.4986406  67.6593698  16.2042133
  41.2682485  67.8096052  16.2112844  30.6582825  65.3768537  26.6220175
  30.4758399  65.3515423  25.7692467  31.3932494  65.8467475  26.6609083
  30.7396889  65.4429899  26.5018093  46.7282500  65.6120047  23.7653062
  46.9638089  65.7565246  22.9379913  46.8772063  66.3762455  24.1584576
  46.7848303  65.7459101  23.7016666  48.5572956  64.4521713  21.6022666
  48.8881174  64.9849353  20.9962761  49.1306045  64.5060601  22.2584617
  48.6906636  64.5391282  21.6100448  41.0973527  65.5752624  37.9951230
  40.3046507  65.8896136  38.1803850  41.2122454  65.7904093  37.1572015
  40.9968937  65.6536461  37.8989565  43.7704846  62.2986616  22.2846246
  43.8651700  63.0375910  22.7385872  43.1463689  61.8704091  22.7180811
  43.6913876  62.3447936  22.4154394  42.0257319  65.4772828  32.9336527
  42.5996181  64.8400072  33.0885091  41.9472123  65.4776911  32.0646185
  42.0990554  65.3837940  32.8282938  44.0227867  64.1435355  15.5183198
  43.9408029  64.2137542  16.3838185  44.6607587  64.7065099  15.3266939
  44.1047704  64.2374326  15.6173148  37.3821038  63.9096093  24.9857725
  37.1240282  63.0767828  24.9589024  37.4369521  64.1353706  24.1450225
  37.3520816  63.8193864  24.8577861  36.3555750  61.4633856  25.4722619
  35.7805341  61.6226024  26.1086580  35.9791426  60.8269265  25.0091070
  36.2158563  61.3931669  25.4977178  26.1012569  61.1073930  23.4867060
  26.1872821  60.7305799  24.2680590  26.7288367  60.7334376  23.0087018
  26.2069120  60.9959413  23.5312537  41.1267977  64.1655810  18.5291805
  41.9408616  64.4570702  18.4174576  41.0627118  63.5115672  17.9550098
  41.2370716  64.1121004  18.4280642  47.3477467  66.8481806  32.9421380
  47.1116105  66.0169871  32.8233441  47.9920696  66.7967413  33.5276225
  47.4072138  66.7179494  33.0107274  36.9975885  67.6377327  23.6564117
  37.6349832  67.3989075  24.2015910  37.4230957  67.8414486  22.9217277
  37.1552052  67.6328337  23.6281274  31.6888528  69.8765664  27.5398421
  31.7292673  70.1480515  26.7118200  32.2483052  70.4007572  27.9556208
  31.7771874  69.9941419  27.4790309  37.6378700  62.8579617  17.9939006
  38.0223853  62.6387324  18.7455551  37.3890321  63.6842562  18.1240082
  37.6580773  62.9477763  18.1240083  39.3797357  68.1149750  25.3357903
  39.4536366  67.9524922  26.1899753  40.1966864  68.3039939  25.0918385
  39.5113716  68.1186492  25.4255929  33.1403114  68.4607612  22.3652347
  32.3141232  68.7069350  22.2386625  33.2015105  68.3819693  23.2314405
  33.0277281  68.4852561  22.4741291  37.9201943  71.0784493  20.0671376
  38.2100241  70.6873474  19.3430603  38.6505424  71.2601198  20.5076652
  38.0708827  71.0478306  20.0254183  38.5096688  65.8802239  31.1524507
  38.0108382  66.5918006  31.2309395  39.3196912  66.2002905  31.1142669
  38.5552795  66.0329087  31.1581075  35.8607859  73.0551875  23.1331526
  35.6408154  72.7649230  23.9258193  35.6402381  72.3966830  22.6049438
  35.7955453  72.9151583  23.1720435  34.7724806  65.1425192  25.3987228
  34.4838054  64.5162663  25.9332955  35.6408154  65.0845479  25.4651908
  34.8585058  65.0412736  25.4878182  38.0275814  74.4281265  21.9162219
  38.6799872  73.8957707  22.1453245  37.3301423  74.0749917  22.3030093
  38.0206532  74.2970788  22.0074386  34.9757079  66.7820443  21.3229593
  35.7303047  67.1633482  21.5365055  34.3827692  67.2331586  21.7776289
  34.9993793  66.9049270  21.4212471  46.0215733  66.7485679  21.2593198
  46.5873765  67.4078889  21.1751741  45.3743636  67.0935377  21.7309600
  46.0094489  66.8967620  21.3165954  36.2955306  67.9529004  26.6969708
  35.7736059  68.0929296  27.3821573  36.6829326  67.1939668  26.8871826
  36.2759007  67.8614528  26.8270785  33.2846490  58.0034813  20.7664663
  32.9971286  57.6336083  20.0296610  33.9716958  58.4729668  20.5048368
  33.3435387  58.0181782  20.6179739  42.4922311  69.6924463  20.6830277
  42.2508987  68.9592324  20.2757342  42.6723644  70.2411320  20.0296610
  42.4829935  69.6646854  20.5260500  37.7221631  64.9833023  22.0951199
  37.5264414  65.5907758  21.5011502  37.9455977  64.2900967  21.6142873
  37.7256272  64.9710549  21.9367280  36.1200161  61.8687761  22.2132068
  36.8422813  62.0328919  21.7535874  35.6408154  62.5897426  22.1071407
  36.1563892  61.9985991  22.1297682  30.8574684  58.7816025  21.6149944
  30.9590821  59.5842187  21.9430919  31.6530571  58.5803361  21.3173025
  30.9902590  58.8701924  21.6185299  41.8277009  60.7330294  23.5015554
  41.5811723  60.6526045  24.3352343  42.1562132  59.9483761  23.3078081
  41.8398252  60.6056559  23.5963077  45.7225058  67.4413653  27.2902335
  45.5839417  68.1394699  27.7951077  44.9425056  67.2862309  26.9338517
  45.5868285  67.5213820  27.3128609  44.0603143  63.7410028  33.5424717
  44.0551181  62.8689845  33.5467143  44.7664137  63.9398197  33.0694172
  44.1648147  63.6413903  33.4731752  36.8601791  71.6589784  29.7799564
  37.0091355  71.0992700  29.1272968  37.6401793  71.7381786  30.1632083
  36.9975885  71.5875350  29.7396513  47.2178431  66.7991907  18.0518834
  46.8385239  66.0129045  18.0448124  46.5544676  67.3478764  17.9090479
  47.0636905  66.7636731  18.0299631  39.3855092  71.8304427  31.0584055
  39.3098763  71.1613238  31.6134843  39.3144951  72.5322215  31.5724721
  39.3635699  71.8349334  31.2160903  40.0425339  70.3505426  21.8907661
  40.8075230  70.0815070  21.5690325  39.9403429  69.8655436  22.6077723
  40.1406834  70.2394990  21.9487488  42.5643999  67.3817610  13.8707610
  43.3316984  67.4417735  13.4613462  42.1175308  66.8098051  13.3863928
  42.6117426  67.3054185  13.7385320  43.4621795  66.1872265  26.1560342
  42.7866797  65.9557498  26.6573729  43.4714171  65.5793448  25.5302447
  43.3640299  66.0631191  26.1376494  45.4638529  69.0437398  18.3870520
  45.5458367  69.8504384  18.0631971  45.9488271  69.0633357  19.1111294
  45.5475687  69.1658060  18.4457419  39.2735033  63.7222234  27.0540598
  38.8497282  63.9226733  26.3179616  39.0979888  62.8751082  27.1664898
  39.1845913  63.6271015  26.9614288  38.7746726  75.2372747  29.5162055
  39.2642656  74.5383536  29.3337720  38.2030958  74.9396617  30.1038113
  38.7631256  75.0898970  29.5763096  34.5617478  64.2174285  22.4868571
  34.7182097  64.1521088  23.3424563  34.9018071  64.9922838  22.2747250
  34.6350712  64.3223483  22.5823165  41.0996622  63.5932169  21.3561934
  41.6412168  63.0902550  21.8200554  41.4143181  63.5397363  20.5451419
  41.2261019  63.5111590  21.3045746  44.9713730  67.8034816  38.4688846
  45.7848595  67.5319965  38.6293979  44.8108696  67.5042356  37.6649042
  45.0683678  67.7189742  38.3734252  39.2683072  68.9849520  18.6401962
  39.3375892  68.1264059  18.7794962  40.0471527  69.2021401  18.3120986
  39.3935922  68.8902384  18.6119119  43.6590559  71.4087222  22.8538455
  43.2670351  71.1053937  22.1361321  43.8143632  72.2456311  22.6643409
  43.6244149  71.4871058  22.7194952  31.1351739  61.4009236  22.8029338
  31.5150704  61.8193781  22.1389605  30.5607104  61.9822691  23.1098181
  31.1063064  61.5487094  22.7506079  43.8230234  67.9737210  22.7944486
  43.4644889  68.1451853  23.5708518  43.3368945  68.4350416  22.2372484
  43.6988931  68.0676181  22.8269755  38.6118600  63.6536376  15.3344720
  38.9011124  64.4301258  15.6088294  38.6990398  63.1425107  16.0359219
  38.6672856  63.6928294  15.4787218  44.9834974  68.8641106  33.7411687
  45.6214694  68.3701302  33.4074143  44.3409065  68.7918507  33.1563913
  44.9829200  68.7800115  33.6054042  45.0389230  69.5560915  30.3817043
  45.8281608  69.2049979  30.5019125  45.2132828  70.3697303  30.1193677
  45.1809512  69.6246772  30.3604911  32.2558108  60.5889177  25.2629583
  31.8614805  60.6632189  24.4879692  31.6998224  60.9747124  25.8137945
  32.1160920  60.6570952  25.2297243  37.6465303  58.2051559  21.2487132
  37.9225037  57.4870472  20.8364699  38.2463972  58.8036479  21.0408238
  37.7758567  58.1871930  21.1567893  36.6517556  68.1100760  31.3914527
  36.5437911  68.1202822  32.2576586  36.8613338  68.9355541  31.2019481
  36.6667668  68.2341835  31.4918619  44.4280865  70.8122714  26.2868490
  44.2300553  71.3013529  25.5924701  43.8068576  71.0163956  26.8652623
  44.3068429  70.9139253  26.2691713  38.4888843  62.5807611  20.6278734
  39.2330888  62.9681887  20.8661684  38.6349539  61.7365036  20.7919222
  38.6199428  62.5138084  20.6872704  46.3454667  64.3786867  31.8213738
  47.0688866  63.9259393  31.6424758  46.0804629  64.6591532  31.0386066
  46.4135940  64.3537835  31.6792453  35.3983284  57.3172159  14.6139302
  35.0496088  57.9691884  15.0770851  34.9179730  57.3029272  13.8863173
  35.2753528  57.4115212  14.5750393  42.9587301  67.6173203  18.7208064
  43.6821500  68.0831316  18.5772637  42.5187892  67.6846812  17.9705661
  43.0002993  67.6957039  18.5892845  42.1273456  64.4770745  29.9708753
  41.5130449  63.9328795  30.2657388  42.6440741  63.9634981  29.4914569
  42.1129119  64.3207154  29.9432981  41.3669753  65.5475015  27.7053052
  40.9397361  64.9224733  27.2718487  41.3594698  65.2649937  28.5312059
  41.3028895  65.4127795  27.7632879  27.2063053  63.7075264  27.3538730
  27.1006502  63.6622109  26.4890814  26.4563273  64.0529045  27.6353015
  27.0798656  63.7516172  27.2676059  38.1586398  64.7175328  35.4021624
  37.3082029  64.8547042  35.5379269  38.3214526  63.9839106  35.8469326
  38.0570262  64.6289429  35.4877224  35.8007415  60.8097800  17.4557923
  36.4352494  61.4058225  17.3907385  35.8833026  60.5101258  18.2703794
  35.9063966  60.8538708  17.5661010  37.3786398  56.7411775  17.4303365
  37.7002239  56.2614858  16.7762628  37.6413341  57.5511421  17.2394177
  37.4652423  56.7901673  17.3058858  40.6083370  67.7630650  30.9502182
  40.1008462  68.3166497  31.3942812  40.3110017  67.8238940  30.1320956
  40.4888255  67.8536961  30.8950638  32.3060403  63.0065641  20.7247469
  32.8152632  63.6030148  21.1058775  32.7794675  62.7391614  20.0423889
  32.4503778  63.0551456  20.6801992  43.2191151  71.6793907  18.8806125
  42.5020460  71.5054770  18.4153362  43.8697888  71.4446480  18.3481611
  43.2093001  71.6189700  18.7335343  39.8525856  72.6955208  27.8559188
  39.6291510  71.9374037  28.2243215  39.3635699  72.7253229  27.1339628
  39.7469305  72.5877433  27.8035929  34.6650934  59.6421899  23.5920650
  33.9462924  60.0586032  23.8593513  35.0363297  60.2076138  23.0412288
  34.6142866  59.7871181  23.5503457  41.9096845  66.8636940  35.4071122
  41.8692700  66.2186617  34.8216278  42.7220163  66.8073558  35.7196534
  42.0239999  66.7595907  35.3668071  38.5004313  72.9155666  25.3096273
  38.0864711  72.2529796  24.9200115  39.1851687  73.0633525  24.7891967
  38.5402684  72.8396324  25.1752770  41.8669607  72.0745751  26.0619890
  41.4685890  72.1848022  25.2940710  41.2520826  72.2827818  26.6446449
  41.7168496  72.1219319  26.0351189  40.4397509  58.6819899  18.9294029
  39.8462348  59.0036896  18.3778596  40.4772787  57.8360995  18.7215135
  40.3571898  58.6044227  18.8176801  49.6011449  66.6497718  19.4462980
  49.9845055  67.3989074  19.6761077  48.8055563  66.8963538  19.1874969
  49.5405232  66.7967412  19.4420554  29.3442333  61.8418318  29.8711731
  28.7969052  61.1718963  29.9892600  30.1334711  61.4748166  29.9355199
  29.3794517  61.6883304  29.8980432  38.4126741  59.3217150  17.0223359
  38.7925706  59.3396779  16.2374474  37.6719337  59.7671139  16.9014207
  38.3595579  59.3898924  16.8886927  28.1029303  61.0539125  27.0257754
  27.9251064  60.6015734  27.7512670  27.8148325  61.8565287  27.2096232
  28.0342256  61.1061683  27.1601257  43.7652884  62.3096843  26.2635145
  44.2606549  61.5919838  26.2239165  42.9552659  62.0067640  26.1489632
  43.7196777  62.1594489  26.2408871  39.2111495  66.1594656  18.4132149
  38.4022818  65.8361330  18.3665459  39.7186404  65.4527878  18.3460398
  39.1661162  66.0075972  18.3962444  29.8401772  63.5866849  24.1379514
  28.9747292  63.5752540  24.0262285  29.9400588  63.3997072  24.9850653
  29.7275939  63.5572910  24.2468458  35.4658782  73.3564748  27.7109619
  35.7805341  74.1701136  27.7187401  35.8752196  72.9714966  28.3791778
  35.5726880  73.4193450  27.8113711  42.4183302  68.7734795  25.2813431
  42.8894480  69.4875057  25.4503416  42.7543480  68.1733545  25.8173300
  42.5378417  68.7906259  25.3845807  44.5060287  70.3836108  37.4605503
  44.6157252  69.5944669  37.8162250  44.8351183  70.2942044  36.6579841
  44.5712692  70.2541961  37.3947894  43.0557248  68.5652729  32.0441124
  42.5078194  67.9410612  31.7761189  43.5170277  68.7547001  31.3285203
  43.0424458  68.5011779  31.8991555  38.4045912  55.5478678  19.7050991
  39.2261606  55.7176991  19.4632686  37.9415563  55.7025939  18.9817288
  38.4577074  55.5960411  19.5622635  32.8071802  67.3037856  27.3588227
  33.4116660  67.2633690  26.7302048  32.5999115  68.1509008  27.3892283
  32.8660700  67.4225859  27.2704344  42.6215575  69.5703801  28.5750465
  43.4413948  69.4266767  28.8366760  42.3409652  70.1950000  29.1166903
  42.7012318  69.6414153  28.6938404  28.0423085  66.2872474  27.2287151
  27.9447363  65.4768745  27.5377207  28.8251954  66.2664267  26.8433419
  28.1439221  66.1639564  27.2174014  52.2928910  76.3144304  26.2946272
  51.4366805  76.4752802  26.3455388  52.3396564  75.4436368  26.3151333
  52.1728021  76.2095106  26.3052338  55.6022626  82.5830830  35.9006728
  56.3089394  82.0882860  36.0293662  55.7910562  83.0239911  35.1709386
  55.7350532  82.5749180  35.8115773  55.1380731  78.3736348  28.9377923
  55.6836691  79.0521435  28.9971893  55.0797607  78.2323809  28.0779505
  55.2096645  78.4528350  28.8189984  43.7509937  74.0531431  26.8482917
  43.1314969  73.4624079  26.6792932  43.6493801  74.6442867  26.2147240
  43.6447613  74.0535514  26.7287907  50.8477833  75.7930973  21.1815380
  51.5457998  75.9719101  21.6736843  51.1630166  75.2701312  20.5585770
  50.9973170  75.7424745  21.1617390  43.4779070  77.5983713  29.0926486
  43.3537767  78.1846159  29.7276305  44.1297355  77.1043909  29.3938761
  43.5552720  77.6122517  29.2312415  48.5037411  80.7745430  28.3713997
  49.1486414  80.2817873  28.0524946  48.7439188  80.9170217  29.1980075
  48.6347997  80.7222872  28.4463530  51.0423503  83.6200336  28.0220890
  51.3246746  82.8251742  27.8007646  51.7709663  84.0980923  28.0425951
  51.1913067  83.5734933  27.9923905  49.0204697  71.1623370  25.2636655
  48.6908027  71.6134513  24.5940354  48.3449698  71.0839533  25.8109661
  48.8715133  71.2174505  25.2459878  56.2281104  67.1508893  23.5086265
  55.9134545  67.8412371  23.9406688  55.7108046  67.0953675  22.8071766
  56.1045575  67.2443781  23.4683215  47.2260651  69.2235658  20.7459603
  47.9806619  69.5913975  20.5076653  47.0488185  69.5975213  21.5138782
  47.3115129  69.3333846  20.8244491  60.5195549  75.3730099  28.7907142
  59.6823970  75.4432286  29.0254736  60.4883780  75.3754594  27.9181444
  60.3913832  75.3840326  28.6966690  46.9160278  77.5163134  34.5055510
  47.0880782  77.4069029  35.3540792  47.4529636  78.1617540  34.2686703
  47.0205282  77.5955136  34.5960607  45.5817715  71.6305977  17.4437716
  45.3993289  71.8477858  16.6178708  46.4443328  71.7444990  17.4996330
  45.6822305  71.6795875  17.3292203  51.2617435  68.6332388  20.4786739
  51.9903595  68.4548343  20.0324896  51.3512327  69.4750468  20.6893917
  51.3824097  68.7316266  20.4440257  55.2425735  79.5685775  24.3819033
  55.9983250  80.0017290  24.4207942  55.3488060  78.9190545  24.9553669
  55.3695906  79.5363259  24.4717059  41.2221995  80.1095065  29.3408430
  40.9560411  79.2934182  29.4999421  41.2360560  80.1548221  28.4703946
  41.1846718  79.9951970  29.2361912  58.2003389  70.4372880  27.3750864
  58.8429298  70.5070985  27.9612779  58.4526410  69.7702103  26.8730406
  58.3325521  70.3499229  27.3878143  45.1279742  74.9080150  15.9560189
  44.4137920  74.6218329  16.3682621  45.6123711  75.2476776  16.5966576
  45.0939106  74.9161799  16.1115823  45.9720602  73.6473444  31.9875438
  45.2792399  73.1770423  32.2336170  46.5880929  73.4211748  32.5617145
  45.9605132  73.5440576  32.1084591  41.6315409  80.8953845  26.6220175
  41.4490982  80.8700731  25.7692467  42.3665078  81.3652783  26.6609083
  41.7129473  80.9615207  26.5018093  44.6961161  77.6138848  33.1302283
  45.4201133  77.5991878  33.6167178  44.7977297  78.3234203  32.6324252
  44.8179370  77.7163551  33.1281070  52.0706110  81.0937932  37.9951230
  51.2779091  81.4081444  38.1803850  52.1855037  81.3089401  37.1572015
  51.9701521  81.1721769  37.8989565  54.7437429  77.8171923  22.2846246
  54.8384284  78.5561218  22.7385872  54.1196273  77.3889399  22.7180811
  54.6646459  77.8633244  22.4154394  52.9989903  80.9958136  32.9336527
  53.5728765  80.3585380  33.0885091  52.9204707  80.9962218  32.0646185
  53.0723138  80.9023247  32.8282938  41.5986319  77.7747346  26.7719241
  42.1759822  77.6383796  27.4111487  40.9000381  77.3183130  27.0264826
  41.5807341  77.6869612  26.9041531  48.3553622  79.4281401  24.9857725
  48.0972866  78.5953136  24.9589024  48.4102104  79.6539014  24.1450225
  48.3253399  79.3379172  24.8577861  53.4354672  71.5309852  25.0861817
  52.7310998  71.0419037  25.2445736  53.4839646  71.5432326  24.2150262
  53.3384723  71.4599500  24.9801157  47.3288334  76.9819164  25.4722619
  46.7537925  77.1411332  26.1086580  46.9524010  76.3454573  25.0091070
  47.1891146  76.9116977  25.4977178  50.9961622  75.4542513  30.3314998
  50.6076055  75.0296731  29.6767189  50.3316321  75.7024663  30.8392024
  50.8408550  75.4281234  30.3102866  60.6384892  75.2117518  23.1062828
  60.3821456  74.3997459  22.9160711  61.4814205  75.2195085  22.8793015
  60.7250917  75.0929515  23.0447645  37.0745153  76.6259238  23.4867060
  37.1605404  76.2491107  24.2680590  37.7020950  76.2519684  23.0087018
  37.1801704  76.5144721  23.5312537  54.8187984  69.1517142  27.8438982
  55.1998496  68.4695313  28.2306856  54.0151268  68.8626744  27.6614646
  54.7564446  69.0084190  27.8743038  47.9708469  83.1562635  23.6564117
  48.6082416  82.9174382  24.2015910  48.3963540  83.3599794  22.9217277
  48.1284635  83.1513645  23.6281274  48.6111284  78.3764925  17.9939006
  48.9956437  78.1572631  18.7455551  48.3622904  79.2027870  18.1240082
  48.6313357  78.4663071  18.1240083  48.7779824  71.6571340  37.7101590
  48.4633265  72.4270903  37.4471153  48.4569757  71.0941596  37.1253817
  48.6838743  71.6881609  37.5842940  50.3529941  83.6335058  25.3357903
  50.4268949  83.4710229  26.1899753  51.1699447  83.8225247  25.0918385
  50.4846299  83.6371800  25.4255929  46.3311721  70.0461861  23.3247787
  45.4634147  70.1184461  23.3905396  46.6186926  70.8483940  23.5135762
  46.2451469  70.1756008  23.3622553  55.4544610  70.1939721  31.6559108
  56.1998202  70.0049531  31.2422534  55.0381915  70.7197959  31.0972965
  55.5029584  70.2441866  31.5123682  62.8306881  77.5648949  26.6064613
  63.3814802  76.9317018  26.8461706  62.8150996  78.0964342  27.2980118
  62.9092077  77.5497897  26.7443472  49.4829272  81.3987547  31.1524507
  48.9840965  82.1103314  31.2309395  50.2929496  81.7188213  31.1142669
  49.5285378  81.5514395  31.1581075  45.7457389  80.6610500  25.3987228
  45.4570638  80.0347971  25.9332955  46.6140737  80.6030787  25.4651908
  45.8317641  80.5598044  25.4878182  56.5335287  75.8045283  25.7169210
  56.1900053  75.0835618  26.0676459  56.6328330  75.5959134  24.8747568
  56.4977330  75.6669486  25.6440890  45.9489663  82.3005751  21.3229593
  46.7035631  82.6818790  21.5365055  45.3560275  82.7516894  21.7776289
  45.9726376  82.4234578  21.4212471  48.4096330  74.2568591  36.4486805
  47.5996105  74.5626371  36.3376647  48.8871016  74.9774173  36.5639389
  48.3599809  74.4083192  36.4493876  44.2579073  73.5220121  20.7664663
  43.9703869  73.1521391  20.0296610  44.9449542  73.9914976  20.5048368
  44.3167971  73.5367090  20.6179739  48.6954215  80.5018331  22.0951199
  48.4996998  81.1093066  21.5011502  48.9188561  79.8086275  21.6142873
  48.6988856  80.4895856  21.9367280  47.0932745  77.3873069  22.2132068
  47.8155397  77.5514227  21.7535874  46.6140738  78.1082734  22.1071407
  47.1296476  77.5171298  22.1297682  55.0526253  73.7236868  27.5928753
  54.2137353  73.7498147  27.3567016  55.1230620  74.3707603  28.1734099
  54.9394646  73.8232994  27.6437869  44.7440362  79.7931141  31.3186207
  45.2561459  80.0715395  30.6694967  44.4576704  80.5320435  31.6849021
  44.7775225  79.9433495  31.2776086  53.4995531  70.6222245  22.3256368
  54.2021884  70.4229993  21.8476327  53.2339720  69.8498187  22.6325212
  53.5642163  70.4785211  22.3001810  58.9283776  78.9304854  24.8789994
  58.8417751  79.0860281  25.7324773  58.4734256  79.5742930  24.5049399
  58.8487033  79.0480610  24.9497101  41.8307268  74.3001333  21.6149944
  41.9323404  75.1027495  21.9430919  42.6263155  74.0988669  21.3173025
  41.9635174  74.3887232  21.6185299  48.2624087  71.8857530  31.3787249
  48.0707284  71.9012664  32.2286673  49.1122683  72.0821204  31.3553904
  48.3599809  71.9171881  31.5010544  42.6471000  74.4148511  29.3571066
  42.5056492  73.5632452  29.4815574  42.9311563  74.4577172  28.5333272
  42.6678846  74.2948261  29.2538690  52.8009592  76.2515602  23.5015554
  52.5544307  76.1711352  24.3352343  53.1294715  75.4669069  23.3078081
  52.8130836  76.1241867  23.5963077  55.0335726  79.2595336  33.5424717
  55.0283765  78.3875153  33.5467143  55.7396720  79.4583505  33.0694172
  55.1380730  79.1599210  33.4731752  48.7606620  78.9872320  32.9138537
  48.9049995  79.5673528  32.2781647  49.1082268  79.3648617  33.6188392
  48.8334081  79.1293024  32.9237532  50.9326537  78.1862489  30.6963669
  50.1849851  78.3793503  30.2911947  51.0868062  77.3607708  30.4587790
  50.8448965  78.0927600  30.6009074  51.1728314  72.0813039  31.5859072
  51.6300928  72.8137014  31.7131864  51.2484643  71.6579505  32.3446328
  51.2519284  72.1270277  31.7160149  43.4161305  72.3278859  32.6748516
  42.8803495  71.7159217  32.9909283  43.4779070  72.9026995  33.3282183
  43.3456938  72.3225787  32.8183943  55.6455640  65.2602914  25.4552915
  55.7639208  65.7179378  24.7220218  55.4717816  64.4548176  25.1689133
  55.6374811  65.2096687  25.3053849  49.0510692  74.0715143  28.4300896
  48.2606767  73.8906603  28.7518232  49.4471315  73.2942096  28.4131191
  48.9927568  73.9302604  28.4753445  54.4354378  81.7057573  26.1560342
  53.7599380  81.4742806  26.6573729  54.4446754  81.0978756  25.5302447
  54.3372883  81.5816499  26.1376494  51.5648522  76.5475402  32.9124395
  51.5007663  77.4085359  32.7844532  51.7045710  76.2307396  32.1119946
  51.5763992  76.6275569  32.7752608  50.2467616  79.2407542  27.0540598
  49.8229865  79.4412041  26.3179616  50.0712471  78.3936390  27.1664898
  50.1578497  79.1456323  26.9614288  45.5350061  79.7359593  22.4868571
  45.6914680  79.6706396  23.3424563  45.8750654  80.5108146  22.2747250
  45.6083296  79.8408791  22.5823165  52.0729206  79.1117477  21.3561934
  52.6144751  78.6087858  21.8200554  52.3875765  79.0582671  20.5451419
  52.1993603  79.0296898  21.3045746  53.2218475  74.0053781  31.4084234
  53.4360445  73.3664695  30.8547588  52.6052374  74.4499605  30.9792096
  53.1623804  73.9763925  31.2634665  42.1084323  76.9194544  22.8029338
  42.4883287  77.3379088  22.1389605  41.5339687  77.5007999  23.1098181
  42.0795648  77.0672402  22.7506079  55.3857563  75.6142846  32.3467541
  54.5734245  75.3068737  32.4280714  55.8447498  75.1341846  32.9110254
  55.3337948  75.4979339  32.4422136  52.4811071  77.0202918  37.1296244
  52.9510702  77.6445034  37.5164118  52.5272951  76.3519893  37.6889458
  52.5578946  77.0137598  37.2696315  49.6382344  69.1259945  27.8545047
  49.1220833  68.4340137  27.9796626  49.0776273  69.7930722  27.8007646
  49.4788858  69.1223203  27.8651113  51.7074578  69.6652905  29.6837900
  51.3206331  69.6901937  30.4651430  51.2207515  69.0994584  29.2312417
  51.5787087  69.5848656  29.7325804  57.6824557  76.2315560  28.3077602
  57.2552165  76.1441909  27.5525702  57.0450610  76.3393336  28.8932446
  57.5254165  76.2348220  28.2823044  51.1745634  71.3391085  34.2474572
  52.0019064  71.0676234  34.3033186  51.1953480  72.1351927  34.6038390
  51.2998484  71.4170840  34.3089754  45.7515124  78.4854948  27.4344832
  44.9103131  78.3858822  27.6423726  45.9605132  79.2550429  27.7859153
  45.6579817  78.5846992  27.5172147  43.2290691  76.1074485  25.2629583
  42.8347389  76.1817497  24.4879692  42.6730808  76.4932432  25.8137945
  43.0893503  76.1756260  25.2297243  54.8655638  69.0855779  24.9433462
  55.0705231  69.0178087  25.7890459  54.5382062  69.8914600  24.8754639
  54.8470886  69.1941720  25.0593117  49.5631789  76.4136347  26.6842430
  49.2594927  75.8592336  27.2852837  48.8611210  76.5928557  26.1970464
  49.4147999  76.3581130  26.7012135  48.6197886  73.7236867  21.2487132
  48.8957620  73.0055780  20.8364699  49.2196555  74.3221787  21.0408238
  48.7491151  73.7057238  21.1567893  58.1189326  69.6387544  24.4236227
  57.5063639  70.1257946  24.8089959  58.2153501  68.9631034  24.9673878
  58.0427223  69.6105852  24.5615085  52.1208407  71.3950385  19.5233727
  52.5752153  71.5660945  20.2481571  52.5948452  70.7818495  19.1231502
  52.2576727  71.3301270  19.5707488  45.6423932  80.8798711  28.8536465
  45.0511865  81.5208209  28.8239480  46.4044956  81.3036328  28.8267765
  45.6672193  81.0374549  28.8451612  46.0384555  72.0400708  29.5204483
  46.4986036  72.1139638  30.2579606  46.0840662  72.8381962  29.1704304
  46.1135110  72.1694855  29.5777239  47.6867905  72.7067403  34.0876510
  47.2953470  72.0600750  34.5232288  47.8553767  73.2978839  34.7070765
  47.6538815  72.6981671  34.2439216  49.4621427  78.0992919  20.6278734
  50.2063472  78.4867195  20.8661684  49.6082123  77.2550344  20.7919222
  49.5932012  78.0323392  20.6872704  51.3801002  69.8943178  25.6610595
  50.5337047  70.0665986  25.5351945  51.3772135  69.0892522  25.9976424
  51.2548152  69.8004207  25.6921722  52.4499303  73.6718392  26.5272653
  51.9759257  73.1460154  27.0377964  52.8217438  73.1247865  25.9587515
  52.4349191  73.5134389  26.5187800  42.8272333  75.6689899  31.8956199
  43.6897946  75.5685608  31.8093529  42.4964116  75.0884608  31.3341771
  42.9057529  75.5681526  31.8001605  58.7136033  78.7320768  27.9379434
  58.4734256  77.8927183  27.9421860  59.1928040  78.8120935  28.6620207
  58.7488217  78.6202168  28.0454236  60.7141220  75.5122225  25.8908693
  60.4750990  75.4718059  25.0529477  60.8775121  76.3593377  26.0174414
  60.7031524  75.6314310  25.7862175  57.3187250  79.8972174  31.8213738
  58.0421449  79.4444701  31.6424758  57.0537213  80.1776840  31.0386066
  57.3868524  79.8723143  31.6792453  46.1874119  74.4932348  28.5566617
  45.5627189  74.5050740  27.9492570  45.8519713  74.9692523  29.2057857
  46.0459610  74.5650865  28.5623186  46.3715867  72.8357467  14.6139302
  46.0228672  73.4877192  15.0770851  45.8912313  72.8214580  13.8863173
  46.2486111  72.9300520  14.5750393  53.1006040  79.9956053  29.9708753
  52.4863033  79.4514103  30.2657388  53.6173325  79.4820289  29.4914569
  53.0861702  79.8392462  29.9432981  52.3402337  81.0660323  27.7053052
  51.9129945  80.4410041  27.2718487  52.3327281  80.7835245  28.5312059
  52.2761478  80.9313103  27.7632879  45.4564864  76.1025496  30.7741486
  45.6158351  75.3468820  31.1793208  45.2757758  76.6516435  31.4282223
  45.4530223  76.0719310  30.9304192  53.3985167  68.2686731  31.3292275
  52.9025728  68.4650406  30.6383842  54.1554229  68.6679400  31.1581077
  53.4371992  68.3564465  31.2012412  50.6688047  71.9429077  27.9195586
  50.6930534  71.4089190  27.2308366  50.9199520  71.4346386  28.5821176
  50.7097965  71.7889981  27.9160230  38.1795636  79.2260572  27.3538730
  38.0739085  79.1807417  26.4890814  37.4295856  79.5714353  27.6353015
  38.0531239  79.2701480  27.2676059  46.9489369  70.6699896  27.3001330
  46.9887740  71.1709102  28.0136037  46.1239033  70.7610289  27.0307253
  46.8328895  70.7581712  27.3651868  49.1318982  80.2360636  35.4021624
  48.2814612  80.3732350  35.5379269  49.2947109  79.5024414  35.8469326
  49.0302845  80.1474737  35.4877224  48.3703732  77.1860405  29.5975229
  47.5395662  77.3534223  29.3910477  48.3155249  76.8096356  30.3824114
  48.2393147  77.1550137  29.6823757  46.1787515  70.6769298  35.2331640
  46.8040219  70.1331431  35.5061072  45.7237995  70.1964216  34.6639430
  46.2035776  70.5258780  35.1893233  46.7439776  75.4615997  20.1265347
  46.8842737  75.9588461  20.8293988  47.2422309  74.7602291  20.2679560
  46.8380857  75.4317976  20.2516926  46.7739998  76.3283108  17.4557923
  47.4085078  76.9243533  17.3907385  46.8565609  76.0286566  18.2703794
  46.8796549  76.3724016  17.5661010  59.7522564  78.8598585  30.3244288
  60.3440404  79.4995836  30.3562486  60.1881559  78.1621622  30.6136354
  59.9040995  78.8516936  30.3725120  48.3518981  72.2597083  17.4303365
  48.6734822  71.7800166  16.7762628  48.6145925  73.0696729  17.2394177
  48.4385007  72.3086981  17.3058858  51.5815954  83.2815958  30.9502182
  51.0741045  83.8351805  31.3942812  51.2842600  83.3424248  30.1320956
  51.4620839  83.3722269  30.8950638  53.7478136  71.6469277  29.7926845
  54.1733208  71.1941804  29.1810371  53.1335129  71.0929348  30.0691632
  53.7206782  71.4983254  29.7431870  43.2792986  78.5250949  20.7247469
  43.7885216  79.1215456  21.1058775  43.7527259  78.2576922  20.0423889
  43.4236362  78.5736764  20.6801992  52.1872359  68.1184377  23.2017422
  51.5440677  67.9682023  23.7702560  51.8471766  67.8726722  22.4366526
  52.0417436  68.0596500  23.1720437  56.7771706  76.0743804  22.6247430
  56.1062895  76.6173506  22.4960496  57.4711456  76.5438659  22.3829125
  56.7800573  76.2242075  22.5702958  56.9399833  72.5299688  25.5337803
  57.2927443  72.1029410  26.2083602  56.0814635  72.4450531  25.6638880
  56.8649278  72.4544428  25.6532814  45.6383518  75.1607207  23.5920650
  44.9195507  75.5771340  23.8593513  46.0095880  75.7261446  23.0412288
  45.5875450  75.3056489  23.5503457  54.9383099  75.7935056  29.4822646
  54.9181026  75.6118351  30.3357424  54.9862300  76.6647075  29.4582229
  54.9417740  75.8951594  29.6045940  52.8829429  82.3822248  35.4071122
  52.8425284  81.7371925  34.8216278  53.6952747  82.3258866  35.7196534
  52.9972582  82.2781215  35.3668071  51.4130092  74.2005207  18.9294029
  50.8194932  74.5222204  18.3778596  51.4505370  73.3546303  18.7215135
  51.3304482  74.1229535  18.8176801  58.3723893  67.6518099  26.4622116
  57.8654758  66.9447239  26.3943293  59.1691327  67.3211288  26.5923192
  58.4151132  67.4991251  26.4721111  54.2887909  74.1584712  22.3595780
  54.0601602  74.1817413  21.5174138  54.5485985  73.3342179  22.4790790
  54.2934097  74.0400792  22.2520977  48.5707137  76.0119185  31.9620880
  48.0586040  75.4040368  32.3205911  48.3986634  76.7275777  32.4294856
  48.4696774  76.0282484  32.0837103  43.4172852  74.4556760  34.6123242
  43.2475442  75.1158135  34.0671448  42.9738802  74.6663321  35.3335731
  43.3272186  74.5842742  34.6384871  47.3432671  72.6961258  23.6549975
  47.8190038  73.0578338  23.0200156  46.8421271  73.3517726  23.9350118
  47.3398030  72.8455447  23.6026716  52.4476208  73.9343429  34.4023135
  53.0047638  73.7057239  33.7701601  52.1237273  74.6949095  34.1258348
  52.4822618  74.0127266  34.2679632  40.3174917  77.3603626  29.8711731
  39.7701636  76.6904271  29.9892600  41.1067295  76.9933473  29.9355199
  40.3527100  77.2068612  29.8980432  50.1659325  77.0211083  35.3675142
  50.9170652  77.3362759  35.6814697  50.3581902  76.8190254  34.5409064
  50.3050739  77.0378464  35.2918538  49.3859325  74.8402458  17.0223359
  49.7658289  74.8582087  16.2374474  48.6451921  75.2856447  16.9014207
  49.3328162  74.9084232  16.8886927  57.0144615  73.1484649  22.6098938
  57.0138842  72.9933306  23.4683214  56.8100795  73.9947636  22.5540323
  56.9844393  73.2505270  22.7286877  39.0761886  76.5724433  27.0257754
  38.8983647  76.1201042  27.7512670  38.7880908  77.3750595  27.2096232
  39.0074839  76.6246991  27.1601257  54.7385467  77.8282151  26.2635145
  55.2339133  77.1105146  26.2239165  53.9285243  77.5252948  26.1489632
  54.6929360  77.6779797  26.2408871  56.8037286  80.5785838  28.9512274
  57.2292358  80.0560260  28.3982699  56.4394206  81.1766676  28.4300896
  56.8123889  80.5896065  28.7921283  53.3915886  84.2920102  25.2813431
  53.8627064  85.0060365  25.4503416  53.7276064  83.6918853  25.8173300
  53.5111001  84.3091567  25.3845807  50.3085380  69.0647573  32.2371526
  50.4413286  68.2678566  32.5652501  50.6930533  69.5913976  32.8169801
  50.3841709  69.0247490  32.3715029  54.0289832  84.0838037  32.0441124
  53.4810778  83.4595920  31.7761189  54.4902861  84.2732309  31.3285203
  54.0157041  84.0197087  31.8991555  56.8383696  72.1523391  29.4292316
  56.2546685  72.6532598  29.0169883  57.1587990  71.6452947  28.7956639
  56.7996872  72.1515226  29.2750823  49.3778495  71.0663986  19.7050991
  50.1994190  71.2362299  19.4632686  48.9148146  71.2211247  18.9817288
  49.4309658  71.1145719  19.5622635  47.9673827  69.0606748  30.4849420
  48.5118240  68.7197875  31.0753761  48.0210763  69.9192210  30.6270704
  48.0562947  69.1362008  30.5931293  22.3775700  12.9653037  22.8346775
  23.0842467  12.4705068  22.9633709  22.5663635  13.4062119  22.1049433
  22.5103605  12.9571387  22.7455820  19.5167994  16.3880574  20.7260850
  19.6051340  16.2006714  21.5739060  19.9457706  15.7418003  20.3265697
  19.5930096  16.2643581  20.7932601  17.0838454  15.6711734  19.7078512
  16.5209288  15.2584343  20.2318173  17.8459477  15.5964639  20.1271655
  17.1132902  15.5989134  19.8471512  13.6913352   7.8985342  21.4395557
  13.8633855   7.7891236  22.2880839  14.2282709   8.5439747  21.2026750
  13.7958356   7.9777343  21.5300654  19.6288053  15.8189593  23.3904633
  20.4128470  15.9320440  23.7560376  19.4284648  14.9930730  23.5863319
  19.7154079  15.7136312  23.4739019  19.7858447  17.7299695  17.0371089
  18.9873692  17.4899195  17.2944958  20.2344458  17.7814088  17.7838137
  19.7333058  17.7022086  17.1856013  18.8459183  11.4760140  24.9291277
  18.0532164  11.7903652  25.1143897  18.9608110  11.6911608  24.0912062
  18.7454594  11.5543976  24.8329612  19.7742976  11.3780343  19.8676574
  20.3481838  10.7407588  20.0225138  19.6957780  11.3784426  18.9986232
  19.8476211  11.2845455  19.7622985  25.0963124  12.7489321  19.8761427
  24.8601761  11.9177386  19.7573488  25.7406353  12.6974928  20.4616271
  25.1557795  12.6187009  19.9447321  26.1199545  12.5333770  15.9389722
  25.8145362  13.2661827  16.3003037  25.4005760  12.1271699  15.6582508
  25.9686887  12.5815503  15.9502859  31.8201337   9.1726770  15.2658066
  31.7525837   9.1922730  14.3960652  31.8056999  10.0157098  15.4913736
  31.8080093   9.3000505  15.1710543  16.2582345  11.7809754  18.0864554
  15.7594039  12.4925522  18.1649442  17.0682569  12.1010421  18.0482716
  16.3038452  11.9336603  18.0921122  15.1849403   4.6390798  23.3826852
  14.3749179   4.9448578  23.2716694  15.6624090   5.3596381  23.4979436
  15.1352882   4.7905400  23.3833923  21.8088800   9.6417544  20.4764764
  21.8036838   8.7697360  20.4807190  22.5149793   9.8405713  20.0034219
  21.9133804   9.5421418  20.4071799  15.5359693   9.3694528  19.8478584
  15.6803069   9.9495736  19.2121694  15.8835341   9.7470824  20.5528438
  15.6087154   9.5115232  19.8577579  14.6087448  17.5597299  16.7139611
  14.7577012  17.0000215  16.0613015  15.3887450  17.6389301  17.0972129
  14.7461542  17.4882865  16.6736560  17.1340749  17.7311942  17.9924101
  17.0584420  17.0620753  18.5474890  17.0630608  18.4329730  18.5064768
  17.1121355  17.7356850  18.1500949  16.5232383  21.1380262  16.4502102
  17.0128313  20.4391051  16.2677767  15.9516615  20.8404132  17.0378160
  16.5116913  20.9906486  16.5103143  22.7199386  13.7042331  25.4028893
  23.5334252  13.4327480  25.5634025  22.5594353  13.4049871  24.5989089
  22.8169335  13.6197257  25.3074299  22.1610636   5.9965054  19.2807588
  21.3487318   5.6890944  19.3620761  22.6200571   5.5164054  19.8450300
  22.1091021   5.8801546  19.3762182  19.2564144   7.4025125  24.0636290
  19.7263775   8.0267242  24.4504165  19.3026024   6.7342101  24.6229505
  19.3332020   7.3959805  24.2036362  22.7320630  14.7648622  20.6751733
  23.3700351  14.2708817  20.3414189  22.0894722  14.6926022  20.0903960
  22.7314857  14.6807630  20.5394088  22.7874887  15.4568430  17.3157090
  23.5767265  15.1057495  17.4359172  22.9618485  16.2704818  17.0533724
  22.9295169  15.5254287  17.2944958  14.4003213  14.0108276  18.3254574
  14.2923568  14.0210338  19.1916632  14.6098995  14.8363056  18.1359528
  14.4153324  14.1349350  18.4258666  28.5367427  11.0926688  16.7853790
  28.5950551  11.5413336  17.5313767  27.9033894  11.5025500  16.3483870
  28.4518722  11.2200422  16.8306338  22.1766522  16.7130230  13.2208536
  21.9786210  17.2021044  12.5264748  21.5554233  16.9171471  13.7992670
  22.0554086  16.8146768  13.2031760  24.0940323  10.2794382  18.7553785
  24.8174522   9.8266908  18.5764805  23.8290286  10.5599048  17.9726113
  24.1621597  10.2545350  18.6132500  15.9072055  10.6182843  22.3361671
  15.0567685  10.7554557  22.4719316  16.0700183   9.8846621  22.7809373
  15.8055918  10.5296944  22.4217270  26.5275637   9.2420793  17.2584334
  27.1193478   9.8818043  17.2902533  26.9634632   8.5443829  17.5476401
  26.6794069   9.2339143  17.3065167  18.3569027  13.6638165  17.8842228
  17.8494118  14.2174012  18.3282859  18.0595673  13.7246455  17.0661003
  18.2373912  13.7544476  17.8290685  17.6011513  18.5962723  14.7899235
  17.3777167  17.8381553  15.1583262  17.1121356  18.6260745  14.0679675
  17.4954962  18.4884948  14.7375976  19.6582502  12.7644456  22.3411169
  19.6178357  12.1194133  21.7556325  20.4705820  12.7081073  22.6536581
  19.7725655  12.6603422  22.3008118  19.2229281   4.3165637  21.3363182
  19.7800711   4.0879446  20.7041648  18.8990346   5.0771302  21.0598395
  19.2575691   4.3949473  21.2019679  16.9412398   7.4033290  22.3015189
  17.6923725   7.7184967  22.6154743  17.1334975   7.2012461  21.4749111
  17.0803812   7.4200672  22.2258585  23.5790359  10.9608046  15.8852320
  24.0045431  10.4382467  15.3322745  23.2147279  11.5588883  15.3640943
  23.5876962  10.9718273  15.7261330  13.2144439  19.2572263  14.6449666
  13.5290998  20.0708652  14.6527448  13.6237852  18.8722482  15.3131825
  13.3212537  19.3200966  14.7453758  22.2545943  16.2843623  24.3945550
  22.3642909  15.4952184  24.7502297  22.5836840  16.1949559  23.5919888
  22.3198349  16.1549476  24.3287941  20.8042905  14.4660244  18.9781170
  20.2563851  13.8418128  18.7101236  21.2655934  14.6554516  18.2625250
  20.7910115  14.4019294  18.8331602  20.3701231  15.4711317  15.5090512
  21.1899605  15.3274283  15.7706807  20.0895309  16.0957516  16.0506950
  20.4497975  15.5421669  15.6278451  36.8414882  23.1276168   8.4733388
  36.8108886  23.9820805   8.6451657  37.4396230  22.8271461   9.0319532
  36.9252040  23.2092665   8.5808190  30.0414567  22.2151819  13.2286318
  29.1852462  22.3760318  13.2795435  30.0882220  21.3443883  13.2491379
  29.9213678  22.1102621  13.2392384  24.4255706  31.7514537   8.9923550
  23.6738606  31.3730076   8.7639595  24.8741718  31.7832971   8.2442360
  24.3805373  31.7000144   8.8481052  29.8780666  32.1739907   4.4209097
  29.5432035  32.8516828   3.9853319  30.3907537  31.7845218   3.8325969
  29.9046247  32.2164485   4.2695889  29.4184957  34.1254176  10.3620209
  29.8024337  34.6941074   9.8224984  29.3544099  33.4003686   9.8826025
  29.4658385  34.1029639  10.2114071  32.8866388  24.2743863  15.8717970
  33.4322348  24.9528950  15.9311940  32.8283264  24.1331324  15.0119552
  32.9582302  24.3535865  15.7530031  26.0040462  31.7632929  11.2586322
  26.1050825  30.9533283  11.5683450  25.4082208  31.6689876  10.6286001
  25.9313001  31.6297958  11.2112561  34.6631456  25.7028470   6.7451698
  34.5470982  26.4536157   7.1743836  35.4587343  25.4452424   6.9947785
  34.7636046  25.7763317   6.8455790  25.8441202  36.6810519  12.6601179
  26.4878658  37.1223683  13.0497337  26.1697458  35.8763945  12.5731437
  25.9873031  36.6275713  12.7046656  19.2005507  27.7853216  10.8838656
  18.9655691  26.9520868  10.7770925  19.3391147  28.0657882  10.0699857
  19.1861169  27.7036719  10.7481011  21.4995594  19.9538947  13.7822964
  20.8800626  19.3631594  13.6132979  21.3979458  20.5450382  13.1487287
  21.3933270  19.9543029  13.6627953  26.5461782  29.6922493   8.0321040
  26.8677623  30.2327701   7.4282348  27.1933878  29.1219265   8.1643330
  26.6887837  29.6881669   7.9628076  28.5963490  21.6938488   8.1155427
  29.2943655  21.8726616   8.6076890  28.9115822  21.1708828   7.4925816
  28.7458827  21.6432261   8.0957437  21.2264727  23.4991228  16.0266533
  21.1023424  24.0853674  16.6616352  21.8783012  23.0051424  16.3278808
  21.3038377  23.5130033  16.1652462  28.7851425  28.0808933   8.1035218
  29.2245061  27.4726034   8.5489991  28.6356088  27.7016307   7.3320683
  28.8272891  27.9347405   8.0554386  26.2523068  26.6752945  15.3054044
  26.8972071  26.1825388  14.9864992  26.4924845  26.8177732  16.1320122
  26.3833653  26.6230388  15.3803577  28.7909160  29.5207851  14.9560936
  29.0732402  28.7259257  14.7347692  29.5195320  29.9988439  14.9765998
  28.9398723  29.4742448  14.9263952  26.7690353  17.0630885  12.1976702
  26.4393683  17.5142029  11.5280400  26.0935355  16.9847048  12.7449708
  26.6200790  17.1182020  12.1799925  32.3860762  26.4336115   5.0565988
  32.3012057  27.2897081   5.2015557  32.8745145  26.1580439   5.7248147
  32.4449659  26.5193436   5.1768069  33.9766761  13.0516408  10.4426312
  33.6620202  13.7419887  10.8746735  33.4593703  12.9961190   9.7411813
  33.8531232  13.1451297  10.4023261  33.3179195  23.0520909   6.5563723
  32.7890666  23.2680542   7.2161029  33.8404215  23.7457047   6.4764692
  33.3167648  23.1864046   6.6419322  38.7727248  28.6267213  11.9296767
  37.9424951  28.8377857  12.0930184  38.7236500  27.8004268  11.6539051
  38.6433983  28.5356820  11.9134133  20.7622831  32.6638887  12.1594862
  20.2790410  33.3889376  12.1354446  21.5746150  32.9615017  12.2705020
  20.8113579  32.8141241  12.1722142  26.8336985  31.4571068  14.7644677
  26.3163927  31.0978483  14.1605985  27.5311377  30.9333242  14.7750743
  26.8602567  31.3268755  14.6774935  30.4900577  31.9065882  20.7260850
  30.5783923  31.7192022  21.5739060  30.9190290  31.2603311  20.3265697
  30.5662680  31.7828889  20.7932601  28.0571037  31.1897042  19.7078512
  27.4941872  30.7769651  20.2318173  28.8192061  31.1149947  20.1271655
  28.0865486  31.1174442  19.8471512  23.6167029  33.1795063  12.3115142
  24.3187608  32.6647052  12.3687899  23.5364512  33.5069214  13.1162017
  23.7090789  33.1509289  12.4387934  38.2681206  21.2737614  15.7247189
  37.4309627  21.3439801  15.9594783  38.2369437  21.2762109  14.8521491
  38.1399489  21.2847841  15.6306737  24.6645935  23.4170650  21.4395557
  24.8366439  23.3076544  22.2880839  25.2015293  24.0625055  21.2026750
  24.7690939  23.4962651  21.5300654  22.9417804  29.3701415  11.8200750
  23.7806704  29.6024348  11.8674512  22.9729573  28.5005726  11.7507786
  23.0699522  29.2758361  11.8165395  23.5670507  29.7902290  16.1214056
  24.1068732  29.6473421  16.7917428  22.8840453  30.1899041  16.4898082
  23.5462661  29.8281961  16.2748477  32.9911392  25.4693291  11.3159080
  33.7468907  25.9024805  11.3547989  33.0973716  24.8198060  11.8893716
  33.1181563  25.4370774  11.4057106  36.0291563  29.2966568  12.0661483
  35.5926795  29.3003310  12.8220455  35.6954479  29.9772067  11.6341061
  35.9154183  29.3979024  12.1142316  18.9707652  26.0102581  16.2748477
  18.7046067  25.1941697  16.4339468  18.9846216  26.0555736  15.4043993
  18.9332375  25.8959486  16.1701959  35.9489046  16.3380396  14.3090911
  36.5914954  16.4078500  14.8952826  36.2012067  15.6709619  13.8070453
  36.0811178  16.2506744  14.3218190  23.7206259  19.5480959  18.9215485
  23.0278055  19.0777939  19.1676217  24.3366586  19.3219264  19.4957192
  23.7090789  19.4448091  19.0424638  30.7591030  33.2485003  17.0371089
  29.9606276  33.0084503  17.2944958  31.2077042  33.2999396  17.7838137
  30.7065641  33.2207394  17.1856013  39.1635909  26.0147488  10.9581120
  39.8252343  25.4538156  10.8577029  38.5227321  25.5199518  11.2833811
  39.1664777  25.8583897  10.9913461  30.0512717  29.3117619   3.2662044
  30.4663866  28.9802643   2.5746539  29.2204647  29.0786521   3.1382180
  29.9900726  29.2288875   3.1452891  19.3801066  26.7961360  13.5560222
  19.1976639  26.7708246  12.7032514  20.1150735  27.2660298  13.5949130
  19.4615130  26.8622722  13.4358140  35.4500740  27.0312870  10.6993109
  35.6856329  27.1758069   9.8719960  35.5990304  27.7955278  11.0924623
  35.5066543  27.1651924  10.6356713  22.4446818  23.5146363  20.0642330
  23.1686790  23.4999394  20.5507225  22.5462954  24.2241718  19.5664298
  22.5665027  23.6171066  20.0621117  37.2791197  25.8714536   8.5362713
  37.6099414  26.4042176   7.9302808  37.8524285  25.9253424   9.1924664
  37.4124876  25.9584105   8.5440495  32.4923086  23.7179439   9.2186293
  32.5869940  24.4568733   9.6725919  31.8681929  23.2896914   9.6520858
  32.4132116  23.7640759   9.3494441  30.7475560  26.8965651  19.8676574
  31.3214421  26.2592896  20.0225138  30.6690363  26.8969734  18.9986232
  30.8208795  26.8030763  19.7622985  19.3471976  23.6754861  13.7059288
  19.9245479  23.5391312  14.3451533  18.6486038  23.2190645  13.9604872
  19.3292998  23.5877127  13.8381578  26.1039278  25.3288916  11.9197771
  25.8458523  24.4960651  11.8929071  26.1587761  25.5546529  11.0790272
  26.0739056  25.2386688  11.7917908  31.1840329  17.4317367  12.0201864
  30.4796655  16.9426553  12.1785783  31.2325303  17.4439842  11.1490308
  31.0870380  17.3607015  11.9141204  25.0773991  22.8826679  12.4062666
  24.5023582  23.0418847  13.0426627  24.7009667  22.2462088  11.9431117
  24.9376803  22.8124492  12.4317224  28.7447279  21.3550028  17.2655045
  28.3561712  20.9304246  16.6107236  28.0801978  21.6032178  17.7732071
  28.5894207  21.3288749  17.2442912  38.3870548  21.1125033  10.0402875
  38.1307113  20.3004974   9.8500757  39.2299862  21.1202600   9.8133062
  38.4736574  20.9937030   9.9787692  32.5673641  15.0524657  14.7779029
  32.9484152  14.3702828  15.1646903  31.7636925  14.7634259  14.5954693
  32.5050102  14.9091705  14.8083085  29.8486217  25.5848633   5.4631851
  30.6626856  25.8763526   5.3514623  29.7845359  24.9308495   4.8890144
  29.9588956  25.5313828   5.3620689  36.0695708  28.2674629  19.8761427
  35.8334345  27.4362694  19.7573488  36.7138937  28.2160236  20.4616271
  36.1290378  28.1372317  19.9447321  25.7194126  29.0570150  10.5904164
  26.3568073  28.8181898  11.1355957  26.1449197  29.2607309   9.8557324
  25.8770292  29.0521160  10.5621321  20.4106768  31.2958487  14.4738467
  20.4510913  31.5673338  13.6458247  20.9701292  31.8200395  14.8896255
  20.4990114  31.4134242  14.4130356  26.5265481  17.5578855  24.6441637
  26.2118922  18.3278418  24.3811200  26.2055414  16.9949111  24.0593864
  26.4324400  17.5889124  24.5182987  37.0932128  28.0519078  15.9389722
  36.7877945  28.7847135  16.3003037  36.3738344  27.6457007  15.6582508
  36.9419471  28.1000811  15.9502859  28.1015598  29.5342573  12.2697950
  28.1754606  29.3717745  13.1239800  28.9185104  29.7232762  12.0258431
  28.2331956  29.5379315  12.3595975  42.7933920  24.6912078  15.2658066
  42.7258421  24.7108038  14.3960652  42.7789583  25.5342406  15.4913736
  42.7812677  24.8185813  15.1710543  21.8621354  29.8800436   9.2992393
  21.0359472  30.1262173   9.1726672  21.9233346  29.8012517  10.1654451
  21.7495521  29.9045385   9.4081338  33.2030267  16.0947236  18.5899155
  33.9483859  15.9057046  18.1762581  32.7867571  16.6205474  18.0313012
  33.2515241  16.1449381  18.4463729  26.6420183  32.4977316   7.0011423
  26.9318482  32.1066297   6.2770650  27.3723664  32.6794021   7.4416699
  26.7927068  32.4671130   6.9594230  40.5792538  23.4656465  13.5404660
  41.1300459  22.8324534  13.7801752  40.5636653  23.9971857  14.2320165
  40.6577734  23.4505413  13.6783518  27.2314929  27.2995062  18.0864554
  26.7326622  28.0110830  18.1649442  28.0415153  27.6195728  18.0482716
  27.2771035  27.4521910  18.0921122  24.5826099  34.4744698  10.0671573
  24.3626394  34.1842053  10.8598240  24.3620621  33.8159653   9.5389485
  24.5173693  34.3344407  10.1060482  23.4943046  26.5618015  12.3327275
  23.2056295  25.9355486  12.8673002  24.3626394  26.5038302  12.3991955
  23.5803298  26.4605559  12.4218229  34.2820944  21.7052798  12.6509256
  33.9385710  20.9843133  13.0016506  34.3813986  21.4966649  11.8087615
  34.2462987  21.5677002  12.5780936  26.7494055  35.8474088   8.8502265
  27.4018113  35.3150531   9.0793291  26.0519663  35.4942741   9.2370139
  26.7424773  35.7163611   8.9414433  23.6975319  28.2013266   8.2569640
  24.4521287  28.5826305   8.4705102  23.1045932  28.6524410   8.7116336
  23.7212033  28.3242093   8.3552518  34.7433973  28.1678502   8.1933245
  35.3092006  28.8271712   8.1091788  34.0961876  28.5128200   8.6649647
  34.7312729  28.3160444   8.2506001  26.1581987  20.1576106  23.3826852
  25.3481762  20.4633886  23.2716694  26.6356673  20.8781689  23.4979436
  26.1085465  20.3090707  23.3833923  25.0173546  29.3721827  13.6309755
  24.4954300  29.5122119  14.3161620  25.4047566  28.6132492  13.8211872
  24.9977247  29.2807351  13.7610832  31.2140551  31.1117287   7.6170324
  30.9727227  30.3785147   7.2097389  31.3941884  31.6604144   6.9636657
  31.2048175  31.0839678   7.4600547  26.4439872  26.4025846   9.0291246
  26.2482654  27.0100581   8.4351549  26.6674217  25.7093790   8.5482920
  26.4474513  26.3903372   8.8707327  24.8418402  23.2880584   9.1472114
  25.5641054  23.4521742   8.6875920  24.3626395  24.0090249   9.0411454
  24.8782132  23.4178814   9.0637728  32.8011909  19.6244383  14.5268799
  31.9623010  19.6505662  14.2907063  32.8716277  20.2715118  15.1074146
  32.6880303  19.7240509  14.5777916  22.4926018  25.6938657  18.2526254
  23.0047115  25.9722910  17.6035014  22.2062361  26.4327951  18.6189067
  22.5260882  25.8441010  18.2116132  31.2481188  16.5229760   9.2596415
  31.9507540  16.3237508   8.7816374  30.9825376  15.7505702   9.5665259
  31.3127820  16.3792726   9.2341857  36.6769433  24.8312370  11.8130041
  36.5903408  24.9867796  12.6664820  36.2219913  25.4750445  11.4389446
  36.5972690  24.9488125  11.8837148  26.0109744  17.7865045  18.3127296
  25.8192941  17.8020180  19.1626719  26.8608340  17.9828720  18.2893951
  26.1085466  17.8179396  18.4350591  20.3956657  20.3156027  16.2911112
  20.2542149  19.4639967  16.4155620  20.6797220  20.3584687  15.4673318
  20.4164503  20.1955777  16.1878736  30.5495249  22.1523117  10.4355601
  30.3029963  22.0718868  11.2692390  30.8780372  21.3676585  10.2418128
  30.5616493  22.0249382  10.5303124  34.4443298  28.8606476  14.2242382
  34.3057657  29.5587522  14.7291124  33.6643296  28.7055133  13.8678564
  34.3086525  28.9406643  14.2468656  26.5092276  24.8879835  19.8478584
  26.6535652  25.4681044  19.2121694  26.8567925  25.2656132  20.5528438
  26.5819738  25.0300540  19.8577579  28.6812194  24.0870004  17.6303715
  27.9335508  24.2801018  17.2251993  28.8353719  23.2615223  17.3927837
  28.5934621  23.9935115  17.5349121  25.5820031  33.0782607  16.7139611
  25.7309595  32.5185523  16.0613015  26.3620034  33.1574609  17.0972129
  25.7194125  33.0068173  16.6736560  35.9396671  28.2184730   4.9858881
  35.5603480  27.4321868   4.9788170  35.2762916  28.7671587   4.8430525
  35.7855146  28.1829554   4.9639678  28.1073332  33.2497250  17.9924101
  28.0317003  32.5806061  18.5474890  28.0363191  33.9515038  18.5064768
  28.0853939  33.2542158  18.1500949  28.9213971  17.9820555  18.5199119
  29.3786585  18.7144529  18.6471911  28.9970300  17.5587020  19.2786375
  29.0004941  18.0277793  18.6500196  21.1646962  18.2286374  19.6088563
  20.6289152  17.6166732  19.9249330  21.2264727  18.8034510  20.2622229
  21.0942595  18.2233302  19.7523989  33.3941297  11.1610430  12.3892962
  33.5124865  11.6186893  11.6560265  33.2203473  10.3555691  12.1029180
  33.3860468  11.1104202  12.2393896  28.7643579  31.7698249   8.8247707
  29.5293470  31.5007893   8.5030372  28.6621669  31.2848259   9.5417770
  28.8625075  31.6587814   8.8827535  26.7996349  19.9722659  15.3640943
  26.0092424  19.7914119  15.6858279  27.1956972  19.1949611  15.3471238
  26.7413225  19.8310119  15.4093491  32.1840035  27.6065089  13.0900389
  31.5085037  27.3750321  13.5913776  32.1932411  26.9986272  12.4642494
  32.0858540  27.4824014  13.0716541  29.3134179  22.4482918  19.8464442
  29.2493320  23.3092874  19.7184579  29.4531367  22.1314911  19.0459993
  29.3249649  22.5283084  19.7092655  34.1856770  30.4630221   5.3210567
  34.2676607  31.2697207   4.9972018  34.6706512  30.4826180   6.0451340
  34.2693928  30.5850883   5.3797466  27.9953273  25.1415057  13.9880645
  27.5715522  25.3419556  13.2519663  27.8198128  24.2943905  14.1004945
  27.9064154  25.0463838  13.8954335  27.4964966  36.6565570  16.4502102
  27.9860897  35.9576359  16.2677767  26.9249199  36.3589440  17.0378160
  27.4849496  36.5091794  16.5103143  23.2835718  25.6367108   9.4208617
  23.4400337  25.5713911  10.2764609  23.6236311  26.4115661   9.2087297
  23.3568953  25.7416307   9.5163212  29.8214863  25.0124992   8.2901981
  30.3630408  24.5095373   8.7540601  30.1361422  24.9590187   7.4791466
  29.9479260  24.9304413   8.2385793  27.9901312  30.4042344   5.5742009
  28.0594133  29.5456882   5.7135009  28.7689767  30.6214224   5.2461033
  28.1154162  30.3095207   5.5459166  30.9704132  19.9061296  18.3424281
  31.1846101  19.2672211  17.7887635  30.3538031  20.3507120  17.9132143
  30.9109461  19.8771440  18.1974712  32.3808800  32.8280045   9.7878502
  31.9888592  32.5246760   9.0701368  32.5361872  33.6649135   9.5983456
  32.3462390  32.9063882   9.6534999  33.1343220  21.5150362  19.2807588
  32.3219902  21.2076252  19.3620761  33.5933155  21.0349362  19.8450300
  33.0823605  21.3986854  19.3762182  32.5448475  29.3930034   9.7284533
  32.1863129  29.5644677  10.5048565  32.0587185  29.8543239   9.1712531
  32.4207172  29.4869005   9.7609802  30.3618861  13.0161232  13.3311624
  29.4912419  12.9899953  13.2844933  30.6159202  12.8438424  12.5137470
  30.2712421  12.9871376  13.2031761  30.2296727  22.9210433  24.0636290
  30.6996359  23.5452550  24.4504165  30.2758608  22.2527409  24.6229505
  30.3064603  22.9145113  24.2036362  27.3868001  15.0267461  14.7885094
  26.8706490  14.3347652  14.9136673  26.8261930  15.6938238  14.7347693
  27.2274514  15.0230718  14.7991160  29.4560235  15.5660421  16.6177947
  29.0691988  15.5909452  17.3991477  28.9693172  15.0002099  16.1652463
  29.3272743  15.4856171  16.6665851  35.4310214  22.1323076  15.2417649
  35.0037822  22.0449424  14.4865749  34.7936267  22.2400851  15.8272493
  35.2739821  22.1355735  15.2163091  29.1217376  12.4527406  18.9088207
  29.7510494  12.9887706  18.6309277  29.2903239  12.3604765  19.7601772
  29.2395171  12.5188768  18.9936735  28.9231291  17.2398601  21.1814618
  29.7504720  16.9683750  21.2373233  28.9439137  18.0359443  21.5378436
  29.0484141  17.3178355  21.2429801  33.7607471  30.9753738  17.3157090
  34.5499849  30.6242803  17.4359172  33.9351068  31.7890126  17.0533724
  33.9027752  31.0439595  17.2944958  23.5000781  24.3862464  14.3684879
  22.6588788  24.2866338  14.5763773  23.7090789  25.1557944  14.7199200
  23.4065474  24.4854507  14.4512194  20.9776348  22.0082001  12.1969630
  20.5833046  22.0825012  11.4219739  20.4216465  22.3939947  12.7477991
  20.8379160  22.0763775  12.1637289  32.6141295  14.9863295  11.8773509
  32.8190888  14.9185602  12.7230506  32.2867719  15.7922116  11.8094686
  32.5956543  15.0949235  11.9933164  27.3117446  22.3143863  13.6182477
  27.0080583  21.7599851  14.2192884  26.6096867  22.4936073  13.1310511
  27.1633656  22.2588645  13.6352182  25.3735797  29.5293584  18.3254574
  25.2656152  29.5395646  19.1916632  25.5831578  30.3548364  18.1359528
  25.3885908  29.6534658  18.4258666  35.8674982  15.5395059  11.3576274
  35.2549296  16.0265461  11.7430006  35.9639157  14.8638550  11.9013925
  35.7912880  15.5113368  11.4955132  23.3909589  26.7806226  15.7876512
  22.7997522  27.4215724  15.7579527  24.1530612  27.2043843  15.7607811
  23.4157849  26.9382064  15.7791659  23.7870212  17.9408224  16.4544529
  24.2471693  18.0147153  17.1919653  23.8326318  18.7389478  16.1044351
  23.8620767  18.0702371  16.5117286  25.4353561  18.6074919  21.0216557
  25.0439127  17.9608266  21.4572334  25.6039424  19.1986354  21.6410812
  25.4024472  18.5989186  21.1779263  39.5100010  26.6111996  16.7853790
  39.5683134  27.0598644  17.5313767  38.8766478  27.0210808  16.3483870
  39.4251306  26.7385730  16.8306338  33.1499105  32.2315538  13.2208536
  32.9518794  32.7206352  12.5264748  32.5286816  32.4356779  13.7992670
  33.0286670  32.3332076  13.2031760  27.2107083  24.0000434   7.5618781
  27.9549128  24.3874711   7.8001731  27.3567780  23.1557860   7.7259268
  27.3417669  23.9330907   7.6212750  29.1286659  15.7950693  12.5950642
  28.2822704  15.9673501  12.4691992  29.1257791  14.9900037  12.9316470
  29.0033809  15.7011722  12.6261769  30.1984959  19.5725908  13.4612700
  29.7244914  19.0467670  13.9718011  30.5703095  19.0255380  12.8927561
  30.1834848  19.4141904  13.4527847  20.5757989  21.5697414  18.8296246
  21.4383602  21.4693124  18.7433576  20.2449772  20.9892124  18.2681818
  20.6543186  21.4689041  18.7341652  36.4621690  24.6328283  14.8719480
  36.2219913  23.7934698  14.8761907  36.9413697  24.7128450  15.5960254
  36.4973874  24.5209683  14.9794283  38.4626877  21.4129741  12.8248740
  38.2236647  21.3725575  11.9869524  38.6260778  22.2600893  12.9514461
  38.4517180  21.5321826  12.7202222  35.0672907  25.7979690  18.7553785
  35.7907106  25.3452216  18.5764805  34.8022869  26.0784355  17.9726113
  35.1354180  25.7730658  18.6132500  23.9359775  20.3939863  15.4906664
  23.3112846  20.4058255  14.8832617  23.6005370  20.8700038  16.1397904
  23.7945267  20.4658380  15.4963232  20.6485451  28.4540323  16.9310428
  20.1185375  27.7632762  16.9805403  20.9210544  28.4450509  16.1023137
  20.6110173  28.3507455  16.8157844  31.6805541  29.0366026   5.6548111
  32.4039740  29.5024139   5.5112684  31.2406132  29.1039635   4.9045708
  31.7221234  29.1149863   5.5232892  30.8491697  25.8963568  16.9048800
  30.2348690  25.3521618  17.1997435  31.3658981  25.3827805  16.4254616
  30.8347359  25.7399977  16.8773028  30.0887994  26.9667838  14.6393098
  29.6615602  26.3417557  14.2058534  30.0812938  26.6842760  15.4652106
  30.0247135  26.8320619  14.6972926  23.2050521  22.0033011  17.7081532
  23.3644007  21.2476335  18.1133254  23.0243414  22.5523951  18.3622270
  23.2015880  21.9726825  17.8644238  31.1470824  14.1694247  18.2632322
  30.6511385  14.3657921  17.5723889  31.9039886  14.5686915  18.0921124
  31.1857648  14.2571981  18.1352459  28.4173703  17.8436593  14.8535632
  28.4416191  17.3096705  14.1648412  28.6685177  17.3353901  15.5161223
  28.4583622  17.6897497  14.8500277  15.9281293  25.1268088  14.2878776
  15.8224742  25.0814932  13.4230861  15.1781513  25.4721868  14.5693061
  15.8016896  25.1708996  14.2016106  24.6975026  16.5707411  14.2341377
  24.7373397  17.0716617  14.9476084  23.8724690  16.6617805  13.9647300
  24.5814552  16.6589227  14.2991915  26.8804638  26.1368151  22.3361671
  26.0300269  26.2739865  22.4719316  27.0432766  25.4031929  22.7809373
  26.7788502  26.0482252  22.4217270  26.1189389  23.0867921  16.5315276
  25.2881319  23.2541739  16.3250524  26.0640906  22.7103871  17.3164161
  25.9878804  23.0557652  16.6163804  23.9273172  16.5776814  22.1671686
  24.5525876  16.0338946  22.4401119  23.4723652  16.0971731  21.5979477
  23.9521433  16.4266295  22.1233280  37.5008221  24.7606101  17.2584334
  38.0926061  25.4003351  17.2902533  37.9367215  24.0629137  17.5476401
  37.6526652  24.7524451  17.3065167  29.3301611  29.1823473  17.8842228
  28.8226702  29.7359320  18.3282859  29.0328257  29.2431763  17.0661003
  29.2106496  29.2729784  17.8290685  31.4963793  17.5476793  16.7266891
  31.9218865  17.0949319  16.1150418  30.8820786  16.9936863  17.0031679
  31.4692438  17.3990769  16.6771917  31.9409391  33.0986731   5.8146172
  31.2238701  32.9247593   5.3493409  32.5916129  32.8639303   5.2821658
  31.9311242  33.0382523   5.6675390  34.5257362  21.9751319   9.5587477
  33.8548552  22.5181022   9.4300542  35.2197113  22.4446175   9.3169172
  34.5286230  22.1249590   9.5043005  28.5744096  34.1148031  14.7899235
  28.3509751  33.3566861  15.1583262  28.0853939  34.1446052  14.0679675
  28.4687545  34.0070256  14.7375976  34.6885490  18.4307203  12.4677850
  35.0413100  18.0036926  13.1423649  33.8300291  18.3458046  12.5978927
  34.6134934  18.3551944  12.5872861  23.3869175  21.0614723  10.5260697
  22.6681164  21.4778855  10.7933560  23.7581537  21.6268961   9.9752335
  23.3361107  21.2064004  10.4843504  30.6315085  28.2829763  22.3411169
  30.5910940  27.6379440  21.7556325  31.4438404  28.2266381  22.6536581
  30.7458239  28.1788730  22.3008118  27.2222553  34.3348489  12.2436320
  26.8082952  33.6722620  11.8540162  27.9069927  34.4826348  11.7232014
  27.2620925  34.2589148  12.1092817  30.5887847  33.4938575  12.9959936
  30.1904130  33.6040845  12.2280757  29.9739067  33.7020641  13.5786496
  30.4386736  33.5412143  12.9691236  36.1209550  13.5525615  13.3962163
  35.6140415  12.8454754  13.3283340  36.9176984  13.2218804  13.5263239
  36.1636789  13.3998766  13.4061158  32.0373566  20.0592227   9.2935826
  31.8087259  20.0824928   8.4514185  32.2971642  19.2349694   9.4130837
  32.0419754  19.9408307   9.1861024  26.3192794  21.9126700  18.8960927
  25.8071697  21.3047883  19.2545958  26.1472290  22.6283293  19.3634902
  26.2182431  21.9289999  19.0177150  21.1658509  20.3564275  21.5463288
  20.9961099  21.0165650  21.0011495  20.7224459  20.5670837  22.2675778
  21.0757842  20.4850257  21.5724918  25.0918328  18.5968773  10.5890022
  25.5675695  18.9585853   9.9540203  24.5906928  19.2525241  10.8690165
  25.0883687  18.7462962  10.5366763  38.3229690  28.0690541   6.3803027
  38.7063296  28.8181898   6.6101124  37.5273803  28.3156361   6.1215016
  38.2623472  28.2160235   6.3760601  30.1961865  19.8350945  21.3363182
  30.7533295  19.6064754  20.7041648  29.8722930  20.5956610  21.0598395
  30.2308275  19.9134781  21.2019679  18.0660573  23.2611141  16.8051778
  17.5187293  22.5911786  16.9232647  18.8552952  22.8940989  16.8695246
  18.1012757  23.1076127  16.8320479  27.9144982  22.9218598  22.3015189
  28.6656309  23.2370275  22.6154743  28.1067558  22.7197769  21.4749111
  28.0536396  22.9385980  22.2258585  34.7630272  19.0492164   9.5438985
  34.7624498  18.8940821  10.4023261  34.5586452  19.8955151   9.4880370
  34.7330050  19.1512785   9.6626924  16.8247543  22.4731949  13.9597801
  16.6469304  22.0208558  14.6852717  16.5366565  23.2758110  14.1436279
  16.7560496  22.5254507  14.0941304  32.4871124  23.7289666  13.1975192
  32.9824789  23.0112661  13.1579212  31.6770900  23.4260464  13.0829679
  32.4415017  23.5787312  13.1748917  27.9329736  27.5787479   5.3472196
  27.1241058  27.2554153   5.3005506  28.4404644  26.8720701   5.2800445
  27.8879402  27.4268796   5.3302490  18.5620013  25.0059672  11.0719560
  17.6965532  24.9945363  10.9602332  18.6618829  24.8189895  11.9190700
  18.4494180  24.9765734  11.1808505  34.5522943  26.4793354  15.8852320
  34.9778014  25.9567775  15.3322745  34.1879863  27.0774191  15.3640943
  34.5609545  26.4903581  15.7261330  24.1877023  34.7757571  14.6449666
  24.5023582  35.5893959  14.6527448  24.5970436  34.3907790  15.3131825
  24.2945121  34.8386273  14.7453758  31.1401542  30.1927618  12.2153478
  31.6112720  30.9067880  12.3843463  31.4761721  29.5926368  12.7513347
  31.2596657  30.2099082  12.3185854  28.0571037  14.9655088  19.1711573
  28.1898943  14.1686082  19.4992548  28.4416190  15.4921491  19.7509848
  28.1327366  14.9255005  19.3055076  31.7775489  29.9845552  18.9781170
  31.2296435  29.3603436  18.7101236  32.2388517  30.1739824  18.2625250
  31.7642698  29.9204602  18.8331602  31.1303392  11.8885415  15.7692666
  30.3249356  11.7783144  16.0860504  31.0010128  11.9897870  14.9122532
  30.9923525  11.8869085  15.6900706  34.5869353  18.0530906  16.3632363
  34.0032342  18.5540113  15.9509930  34.9073647  17.5460463  15.7296686
  34.5482528  18.0522741  16.2090870  25.7159484  14.9614263  17.4189466
  26.2603897  14.6205390  18.0093808  25.7696420  15.8199725  17.5610751
  25.8048603  15.0369523  17.5271340  21.5290043  28.7230680  14.2928274
  22.1334900  28.6826514  13.6642095  21.3217355  29.5701832  14.3232330
  21.5878940  28.8418682  14.2044391  31.3433815  30.9896625  15.5090512
  32.1632189  30.8459591  15.7706807  31.0627893  31.6142824  16.0506950
  31.4230558  31.0606977  15.6278451  16.7641325  27.7065297  14.1627197
  16.6665603  26.8961569  14.4717254  17.5470195  27.6857090  13.7773466
  16.8657462  27.5832387  14.1514060  47.8147465  38.6461476   8.4733388
  47.7841470  39.5006113   8.6451657  48.4128814  38.3456769   9.0319532
  47.8984623  38.7277973   8.5808190  41.0147150  37.7337127  13.2286318
  40.1585046  37.8945626  13.2795435  41.0614804  36.8629191  13.2491379
  40.8946262  37.6287929  13.2392384  35.3988290  47.2699845   8.9923550
  34.6471189  46.8915384   8.7639595  35.8474302  47.3018279   8.2442360
  35.3537957  47.2185452   8.8481052  40.8513250  47.6925215   4.4209097
  40.5164618  48.3702136   3.9853319  41.3640120  47.3030526   3.8325969
  40.8778831  47.7349793   4.2695889  40.3917541  49.6439483  10.3620209
  40.7756920  50.2126382   9.8224984  40.3276682  48.9188994   9.8826025
  40.4390968  49.6214947  10.2114071  43.8598971  39.7929171  15.8717970
  44.4054931  40.4714258  15.9311940  43.8015847  39.6516632  15.0119552
  43.9314886  39.8721173  15.7530031  36.9773046  47.2818237  11.2586322
  37.0783409  46.4718591  11.5683450  36.3814791  47.1875184  10.6286001
  36.9045585  47.1483266  11.2112561  45.6364040  41.2213778   6.7451698
  45.5203566  41.9721464   7.1743836  46.4319927  40.9637732   6.9947785
  45.7368629  41.2948625   6.8455790  36.8173786  52.1995827  12.6601179
  37.4611241  52.6408991  13.0497337  37.1430041  51.3949253  12.5731437
  36.9605614  52.1461021  12.7046656  30.1738090  43.3038524  10.8838656
  29.9388275  42.4706176  10.7770925  30.3123731  43.5843190  10.0699857
  30.1593753  43.2222027  10.7481011  32.4728178  35.4724255  13.7822964
  31.8533209  34.8816902  13.6132979  32.3712041  36.0635690  13.1487287
  32.3665853  35.4728337  13.6627953  37.5194365  45.2107801   8.0321040
  37.8410206  45.7513009   7.4282348  38.1666462  44.6404573   8.1643330
  37.6620421  45.2066977   7.9628076  39.5696073  37.2123796   8.1155427
  40.2676238  37.3911924   8.6076890  39.8848406  36.6894136   7.4925816
  39.7191411  37.1617568   8.0957437  32.1997311  39.0176536  16.0266533
  32.0756008  39.6038982  16.6616352  32.8515595  38.5236732  16.3278808
  32.2770960  39.0315341  16.1652462  39.7584009  43.5994241   8.1035218
  40.1977644  42.9911342   8.5489991  39.6088672  43.2201615   7.3320683
  39.8005474  43.4532713   8.0554386  37.2255652  42.1938253  15.3054044
  37.8704654  41.7010696  14.9864992  37.4657429  42.3363040  16.1320122
  37.3566237  42.1415695  15.3803577  39.7641743  45.0393159  14.9560936
  40.0464986  44.2444565  14.7347692  40.4927904  45.5173747  14.9765998
  39.9131307  44.9927756  14.9263952  37.7422937  32.5816193  12.1976702
  37.4126267  33.0327337  11.5280400  37.0667939  32.5032356  12.7449708
  37.5933373  32.6367328  12.1799925  43.3593345  41.9521423   5.0565988
  43.2744640  42.8082389   5.2015557  43.8477729  41.6765747   5.7248147
  43.4182243  42.0378744   5.1768069  44.9499345  28.5701716  10.4426312
  44.6352786  29.2605195  10.8746735  44.4326286  28.5146498   9.7411813
  44.8263815  28.6636604  10.4023261  44.2911779  38.5706217   6.5563723
  43.7623250  38.7865850   7.2161029  44.8136799  39.2642355   6.4764692
  44.2900232  38.7049354   6.6419322  49.7459832  44.1452521  11.9296767
  48.9157535  44.3563165  12.0930184  49.6969084  43.3189576  11.6539051
  49.6166567  44.0542128  11.9134133  36.1811386  42.4669434   5.3571191
  35.5968602  42.9719465   5.7637055  35.7781482  42.2411821   4.6167783
  36.0350690  42.5077682   5.3076216  31.7355415  48.1824195  12.1594862
  31.2522993  48.9074684  12.1354446  32.5478733  48.4800325  12.2705020
  31.7846163  48.3326548  12.1722142  37.8069569  46.9756375  14.7644677
  37.2896511  46.6163790  14.1605985  38.5043960  46.4518550  14.7750743
  37.8335150  46.8454063  14.6774935  39.0303621  46.7082350  19.7078512
  38.4674456  46.2954959  20.2318173  39.7924644  46.6335255  20.1271655
  39.0598069  46.6359750  19.8471512  40.6388601  38.7135086   3.8340111
  40.8784604  38.9213069   3.0215454  40.9604442  37.9092594   3.9429056
  40.7225759  38.6249187   3.7300664  35.9478891  30.6428481   7.6799649
  36.7024859  31.0106799   7.4416700  35.7706426  31.0168036   8.4478829
  36.0333369  30.7526669   7.7584538  34.5899612  48.6980371  12.3115142
  35.2920192  48.1832360  12.3687899  34.5097095  49.0254522  13.1162017
  34.6823373  48.6694597  12.4387934  49.2413790  36.7922922  15.7247189
  48.4042211  36.8625109  15.9594783  49.2102021  36.7947417  14.8521491
  49.1132072  36.8033149  15.6306737  35.6378519  38.9355958  21.4395557
  35.8099023  38.8261852  22.2880839  36.1747876  39.5810363  21.2026750
  35.7423523  39.0147959  21.5300654  34.3035956  33.0498800   4.3777762
  34.1211529  33.2670681   3.5518755  35.1661569  33.1637813   4.4336377
  34.4040545  33.0988698   4.2632249  33.9150388  44.8886723  11.8200750
  34.7539287  45.1209655  11.8674512  33.9462157  44.0191034  11.7507786
  34.0432105  44.7943669  11.8165395  34.5403091  45.3087598  16.1214056
  35.0801316  45.1658729  16.7917428  33.8573037  45.7084349  16.4898082
  34.5195245  45.3467269  16.2748477  39.9835675  30.0525211   7.4126786
  40.7121835  29.8741166   6.9664942  40.0730568  30.8943291   7.6233964
  40.1042337  30.1509090   7.3780304  43.9643976  40.9878598  11.3159080
  44.7201491  41.4210113  11.3547989  44.0706300  40.3383368  11.8893716
  44.0914146  40.9556082  11.4057106  47.0024147  44.8151876  12.0661483
  46.5659379  44.8188618  12.8220455  46.6687062  45.4957375  11.6341061
  46.8886767  44.9164332  12.1142316  29.9440236  41.5287889  16.2748477
  29.6778651  40.7127005  16.4339468  29.9578800  41.5741044  15.4043993
  29.9064958  41.4144793  16.1701959  46.9221630  31.8565704  14.3090911
  47.5647538  31.9263808  14.8952826  47.1744650  31.1894926  13.8070453
  47.0543762  31.7692052  14.3218190  33.8497983  36.3272973   2.8900235
  33.1356160  36.0411153   3.3022668  34.3341951  36.6669599   3.5306623
  33.8157346  36.3354623   3.0455870  34.6938842  35.0666267  18.9215485
  34.0010639  34.5963247  19.1676217  35.3099169  34.8404571  19.4957192
  34.6823372  34.9633399  19.0424638  41.7323614  48.7670311  17.0371089
  40.9338859  48.5269811  17.2944958  42.1809625  48.8184704  17.7838137
  41.6798225  48.7392702  17.1856013  50.1368493  41.5332796  10.9581120
  50.7984927  40.9723464  10.8577029  49.4959905  41.0384826  11.2833811
  50.1397360  41.3769205  10.9913461  41.0245301  44.8302927   3.2662044
  41.4396449  44.4987951   2.5746539  40.1937230  44.5971829   3.1382180
  40.9633309  44.7474183   3.1452891  30.3533649  42.3146668  13.5560222
  30.1709223  42.2893554  12.7032514  31.0883318  42.7845606  13.5949130
  30.4347713  42.3808030  13.4358140  46.4233324  42.5498178  10.6993109
  46.6588913  42.6943377   9.8719960  46.5722887  43.3140586  11.0924623
  46.4799127  42.6837232  10.6356713  33.4179401  39.0331671  20.0642330
  34.1419373  39.0184702  20.5507225  33.5195538  39.7427026  19.5664298
  33.5397610  39.1356374  20.0621117  48.2523780  41.3899844   8.5362713
  48.5831997  41.9227484   7.9302808  48.8256868  41.4438732   9.1924664
  48.3857459  41.4769413   8.5440495  43.4655669  39.2364747   9.2186293
  43.5602524  39.9754041   9.6725919  42.8414513  38.8082222   9.6520858
  43.3864700  39.2826067   9.3494441  41.7208143  42.4150959  19.8676574
  42.2947005  41.7778203  20.0225138  41.6422947  42.4155042  18.9986232
  41.7941378  42.3216071  19.7622985  30.3204560  39.1940169  13.7059288
  30.8978062  39.0576620  14.3451533  29.6218621  38.7375953  13.9604872
  30.3025581  39.1062435  13.8381578  43.7178691  41.0813486   2.4523245
  43.6358853  41.1515674   3.3178232  44.3558411  41.6443230   2.2606986
  43.7998528  41.1752458   2.5513195  37.0771862  40.8474224  11.9197771
  36.8191106  40.0145959  11.8929071  37.1320345  41.0731837  11.0790272
  37.0471640  40.7571996  11.7917908  42.1572912  32.9502675  12.0201864
  41.4529239  32.4611861  12.1785783  42.2057886  32.9625150  11.1490308
  42.0602964  32.8792323  11.9141204  36.0506574  38.4011987  12.4062666
  35.4756165  38.5604155  13.0426627  35.6742250  37.7647396  11.9431117
  35.9109386  38.3309800  12.4317224  39.7179863  36.8735336  17.2655045
  39.3294295  36.4489554  16.6107236  39.0534561  37.1217486  17.7732071
  39.5626791  36.8474057  17.2442912  49.3603132  36.6310341  10.0402875
  49.1039697  35.8190282   9.8500757  50.2032446  36.6387908   9.8133062
  49.4469157  36.5122338   9.9787692  25.7963393  38.0452062  10.4207107
  25.8823645  37.6683930  11.2020637  26.4239190  37.6712507   9.9427065
  25.9019944  37.9337544  10.4652584  43.5406224  30.5709965  14.7779029
  43.9216736  29.8888136  15.1646903  42.7369509  30.2819567  14.5954693
  43.4782686  30.4277013  14.8083085  40.8218801  41.1033941   5.4631851
  41.6359440  41.3948834   5.3514623  40.7577942  40.4493803   4.8890144
  40.9321540  41.0499135   5.3620689  47.0428291  43.7859937  19.8761427
  46.8066929  42.9548002  19.7573488  47.6871520  43.7345544  20.4616271
  47.1022962  43.6557625  19.9447321  36.6926709  44.5755458  10.5904164
  37.3300656  44.3367206  11.1355957  37.1181781  44.7792617   9.8557324
  36.8502876  44.5706468  10.5621321  31.3839352  46.8143795  14.4738467
  31.4243497  47.0858646  13.6458247  31.9433876  47.3385703  14.8896255
  31.4722698  46.9319550  14.4130356  37.3329524  39.7957748   4.9279053
  37.7174677  39.5765455   5.6795598  37.0841145  40.6220693   5.0580129
  37.3531597  39.8855894   5.0580129  48.0664712  43.5704386  15.9389722
  47.7610529  44.3032442  16.3003037  47.3470927  43.1642315  15.6582508
  47.9152054  43.6186119  15.9502859  39.0748181  45.0527881  12.2697950
  39.1487189  44.8903053  13.1239800  39.8917688  45.2418070  12.0258431
  39.2064540  45.0564623  12.3595975  53.7666504  40.2097386  15.2658066
  53.6991004  40.2293345  14.3960652  53.7522166  41.0527714  15.4913736
  53.7545260  40.3371121  15.1710543  32.8353938  45.3985744   9.2992393
  32.0092056  45.6447481   9.1726672  32.8965929  45.3197825  10.1654451
  32.7228105  45.4230693   9.4081338  35.0529962  31.4654685  10.2587833
  34.1852387  31.5377284  10.3245443  35.3405166  32.2676764  10.4475809
  34.9669710  31.5948832  10.2962600  44.1762850  31.6132544  18.5899155
  44.9216442  31.4242354  18.1762581  43.7600155  32.1390782  18.0313012
  44.2247825  31.6634689  18.4463729  37.6152767  48.0162624   7.0011423
  37.9051065  47.6251605   6.2770650  38.3456248  48.1979329   7.4416699
  37.7659651  47.9856438   6.9594230  51.5525121  38.9841773  13.5404660
  52.1033043  38.3509842  13.7801752  51.5369237  39.5157165  14.2320165
  51.6310318  38.9690721  13.6783518  38.2047512  42.8180370  18.0864554
  37.7059206  43.5296138  18.1649442  39.0147736  43.1381036  18.0482716
  38.2503619  42.9707218  18.0921122  35.5558683  49.9930006  10.0671573
  35.3358978  49.7027361  10.8598240  35.3353205  49.3344961   9.5389485
  35.4906277  49.8529715  10.1060482  34.4675630  42.0803323  12.3327275
  34.1788878  41.4540794  12.8673002  35.3358978  42.0223610  12.3991955
  34.5535882  41.9790867  12.4218229  45.2553527  37.2238106  12.6509256
  44.9118293  36.5028441  13.0016506  45.3546570  37.0151957  11.8087615
  45.2195570  37.0862309  12.5780936  37.7226638  51.3659396   8.8502265
  38.3750696  50.8335839   9.0793291  37.0252247  51.0128049   9.2370139
  37.7157356  51.2348919   8.9414433  34.6707903  43.7198574   8.2569640
  35.4253871  44.1011613   8.4705102  34.0778516  44.1709718   8.7116336
  34.6944617  43.8427401   8.3552518  45.7166557  43.6863810   8.1933245
  46.2824589  44.3457020   8.1091788  45.0694460  44.0313508   8.6649647
  45.7045313  43.8345752   8.2506001  37.1314570  35.6761414  23.3826852
  36.3214346  35.9819194  23.2716694  37.6089257  36.3966997  23.4979436
  37.0818049  35.8276015  23.3833923  35.9906130  44.8907135  13.6309755
  35.4686883  45.0307427  14.3161620  36.3780150  44.1317799  13.8211872
  35.9709831  44.7992659  13.7610832  32.9797314  34.9412944   7.7004710
  32.6922109  34.5714214   6.9636657  33.6667782  35.4107799   7.4388415
  33.0386211  34.9559913   7.5519785  42.1873135  46.6302594   7.6170324
  41.9459811  45.8970455   7.2097389  42.3674468  47.1789451   6.9636657
  42.1780759  46.6024986   7.4600547  37.4172455  41.9211154   9.0291246
  37.2215238  42.5285889   8.4351549  37.6406801  41.2279098   8.5482920
  37.4207096  41.9088680   8.8707327  35.8150985  38.8065892   9.1472114
  36.5373637  38.9707050   8.6875920  35.3358978  39.5275557   9.0411454
  35.8514716  38.9364122   9.0637728  43.7744493  35.1429691  14.5268799
  42.9355594  35.1690970  14.2907063  43.8448860  35.7900426  15.1074146
  43.6612886  35.2425817  14.5777916  33.4658602  41.2123965  18.2526254
  33.9779699  41.4908218  17.6035014  33.1794945  41.9513259  18.6189067
  33.4993465  41.3626318  18.2116132  42.2213771  32.0415068   9.2596415
  42.9240124  31.8422816   8.7816374  41.9557960  31.2691010   9.5665259
  42.2860403  31.8978034   9.2341857  47.6502017  40.3497678  11.8130041
  47.5635991  40.5053104  12.6664820  47.1952497  40.9935753  11.4389446
  47.5705273  40.4673433  11.8837148  30.5525508  35.7194156   8.5489991
  30.6541645  36.5220318   8.8770966  31.3481395  35.5181492   8.2513071
  30.6853414  35.8080055   8.5525346  36.9842327  33.3050353  18.3127296
  36.7925524  33.3205488  19.1626719  37.8340923  33.5014027  18.2893951
  37.0818049  33.3364704  18.4350591  31.3689240  35.8341335  16.2911112
  31.2274732  34.9825275  16.4155620  31.6529804  35.8769995  15.4673318
  31.3897087  35.7141085  16.1878736  41.5227833  37.6708425  10.4355601
  41.2762547  37.5904176  11.2692390  41.8512956  36.8861893  10.2418128
  41.5349076  37.5434690  10.5303124  45.4175882  44.3791784  14.2242382
  45.2790241  45.0772830  14.7291124  44.6375879  44.2240441  13.8678564
  45.2819108  44.4591951  14.2468656  43.7553967  40.6788160  20.4764764
  43.7502005  39.8067976  20.4807190  44.4614961  40.8776329  20.0034219
  43.8598971  40.5792034  20.4071799  37.4824860  40.4065143  19.8478584
  37.6268236  40.9866352  19.2121694  37.8300509  40.7841440  20.5528438
  37.5552321  40.5485847  19.8577579  39.6544777  39.6055312  17.6303715
  38.9068091  39.7986326  17.2251993  39.8086303  38.7800531  17.3927837
  39.5667205  39.5120423  17.5349121  36.5552615  48.5967915  16.7139611
  36.7042179  48.0370831  16.0613015  37.3352617  48.6759917  17.0972129
  36.6926709  48.5253481  16.6736560  46.9129254  43.7370038   4.9858881
  46.5336063  42.9507176   4.9788170  46.2495500  44.2856895   4.8430525
  46.7587729  43.7014862   4.9639678  39.0805916  48.7682558  17.9924101
  39.0049587  48.0991369  18.5474890  39.0095775  49.4700346  18.5064768
  39.0586523  48.7727465  18.1500949  39.8946554  33.5005862  18.5199119
  40.3519169  34.2329837  18.6471911  39.9702883  33.0772328  19.2786375
  39.9737524  33.5463101  18.6500196  32.1379546  33.7471682  19.6088563
  31.6021735  33.1352040  19.9249330  32.1997310  34.3219818  20.2622229
  32.0675178  33.7418610  19.7523989  44.3673880  26.6795738  12.3892962
  44.4857449  27.1372201  11.6560265  44.1936056  25.8740999  12.1029180
  44.3593051  26.6289510  12.2393896  39.7376163  47.2883557   8.8247707
  40.5026054  47.0193201   8.5030372  39.6354253  46.8033567   9.5417770
  39.8357658  47.1773122   8.8827535  37.7728932  35.4907966  15.3640943
  36.9825007  35.3099427  15.6858279  38.1689555  34.7134919  15.3471238
  37.7145809  35.3495427  15.4093491  42.2594823  44.3195741   0.8047657
  43.0267808  44.3795866   0.3953508  41.8126132  43.7476182   0.3203975
  42.3068250  44.2432316   0.6725367  43.1572619  43.1250397  13.0900389
  42.4817620  42.8935629  13.5913776  43.1664995  42.5171580  12.4642494
  43.0591123  43.0009322  13.0716541  40.2866763  37.9668226  19.8464442
  40.2225904  38.8278182  19.7184579  40.4263950  37.6500219  19.0459993
  40.2982233  38.0468392  19.7092655  45.1589353  45.9815529   5.3210567
  45.2409191  46.7882515   4.9972018  45.6439095  46.0011488   6.0451340
  45.2426511  46.1036191   5.3797466  38.9685857  40.6600365  13.9880645
  38.5448106  40.8604864  13.2519663  38.7930712  39.8129213  14.1004945
  38.8796737  40.5649146  13.8954335  34.2568302  41.1552416   9.4208617
  34.4132921  41.0899219  10.2764609  34.5968895  41.9300969   9.2087297
  34.3301536  41.2601614   9.5163212  40.7947446  40.5310300   8.2901981
  41.3362992  40.0280681   8.7540601  41.1094005  40.4775495   7.4791466
  40.9211843  40.4489721   8.2385793  38.9633896  45.9227651   5.5742009
  39.0326716  45.0642190   5.7135009  39.7422351  46.1399532   5.2461033
  39.0886746  45.8280515   5.5459166  41.9436716  35.4246604  18.3424281
  42.1578685  34.7857519  17.7887635  41.3270615  35.8692428  17.9132143
  41.8842045  35.3956748  18.1974712  43.3541383  48.3465353   9.7878502
  42.9621175  48.0432068   9.0701368  43.5094456  49.1834443   9.5983456
  43.3194973  48.4249189   9.6534999  30.8302563  38.3387367   9.7369385
  31.2101528  38.7571912   9.0729652  30.2557928  38.9200822  10.0438228
  30.8013888  38.4865226   9.6846126  44.1075804  37.0335670  19.2807588
  43.2952485  36.7261560  19.3620761  44.5665738  36.5534670  19.8450300
  44.0556188  36.9172162  19.3762182  43.5181058  44.9115342   9.7284533
  43.1595713  45.0829984  10.5048565  43.0319769  45.3728547   9.1712531
  43.3939755  45.0054313   9.7609802  41.3351444  28.5346540  13.3311624
  40.4645002  28.5085261  13.2844933  41.5891785  28.3623732  12.5137470
  41.2445004  28.5056684  13.2031761  38.3069424  40.5914507   2.2684767
  38.5961948  41.3679389   2.5428341  38.3941222  40.0803238   2.9699266
  38.3623680  40.6306425   2.4127265  38.3600585  30.5452768  14.7885094
  37.8439073  29.8532960  14.9136673  37.7994514  31.2123546  14.7347693
  38.2007098  30.5416026  14.7991160  40.4292818  31.0845729  16.6177947
  40.0424571  31.1094760  17.3991477  39.9425755  30.5187407  16.1652463
  40.3005327  31.0041479  16.6665851  46.4042798  37.6508383  15.2417649
  45.9770406  37.5634732  14.4865749  45.7668851  37.7586159  15.8272493
  46.2472405  37.6541043  15.2163091  40.0949960  27.9712714  18.9088207
  40.7243078  28.5073014  18.6309277  40.2635823  27.8790073  19.7601772
  40.2127754  28.0374076  18.9936735  39.8963875  32.7583909  21.1814618
  40.7237304  32.4869058  21.2373233  39.9171721  33.5544750  21.5378436
  40.0216725  32.8363663  21.2429801  34.4733365  39.9047772  14.3684879
  33.6321371  39.8051646  14.5763773  34.6823373  40.6743252  14.7199200
  34.3798057  40.0039815  14.4512194  31.9508932  37.5267308  12.1969630
  31.5565629  37.6010320  11.4219739  31.3949048  37.9125255  12.7477991
  31.8111744  37.5949083  12.1637289  43.5873878  30.5048602  11.8773509
  43.7923472  30.4370910  12.7230506  43.2600302  31.3107424  11.8094686
  43.5689126  30.6134543  11.9933164  38.2850029  37.8329171  13.6182477
  37.9813167  37.2785159  14.2192884  37.5829450  38.0121381  13.1310511
  38.1366239  37.7773953  13.6352182  37.3416127  35.1429691   8.1827178
  37.6175861  34.4248603   7.7704746  37.9414796  35.7414610   7.9748284
  37.4709391  35.1250061   8.0907940  36.3468380  45.0478891  18.3254574
  36.2388735  45.0580954  19.1916632  36.5564162  45.8733672  18.1359528
  36.3618491  45.1719966  18.4258666  46.8407566  31.0580367  11.3576274
  46.2281880  31.5450769  11.7430006  46.9371741  30.3823858  11.9013925
  46.7645464  31.0298675  11.4955132  40.8426647  32.8143208   6.4573773
  41.2970394  32.9853768   7.1821618  41.3166693  32.2011319   6.0571549
  40.9794967  32.7494093   6.5047535  34.3642172  42.2991534  15.7876512
  33.7730106  42.9401032  15.7579527  35.1263196  42.7229151  15.7607811
  34.3890433  42.4567372  15.7791659  34.7602795  33.4593532  16.4544529
  35.2204277  33.5332461  17.1919653  34.8058902  34.2574786  16.1044351
  34.8353351  33.5887679  16.5117286  36.4086145  34.1260226  21.0216557
  36.0171710  33.4793574  21.4572334  36.5772008  34.7171662  21.6410812
  36.3757055  34.1174494  21.1779263  50.4832594  42.1297304  16.7853790
  50.5415718  42.5783952  17.5313767  49.8499062  42.5396116  16.3483870
  50.3983889  42.2571038  16.8306338  44.1231689  47.7500845  13.2208536
  43.9251377  48.2391660  12.5264748  43.5019400  47.9542087  13.7992670
  44.0019253  47.8517384  13.2031760  38.1839667  39.5185742   7.5618781
  38.9281712  39.9060019   7.8001731  38.3300363  38.6743168   7.7259268
  38.3150252  39.4516215   7.6212750  40.1019242  31.3136001  12.5950642
  39.2555288  31.4858809  12.4691992  40.0990375  30.5085345  12.9316470
  39.9766392  31.2197030  12.6261769  41.1717543  35.0911216  13.4612700
  40.6977497  34.5652978  13.9718011  41.5435679  34.5440688  12.8927561
  41.1567432  34.9327212  13.4527847  31.5490573  37.0882722  18.8296246
  32.4116186  36.9878431  18.7433576  31.2182356  36.5077432  18.2681818
  31.6275769  36.9874349  18.7341652  47.4354273  40.1513591  14.8719480
  47.1952496  39.3120006  14.8761907  47.9146281  40.2313758  15.5960254
  47.4706457  40.0394991  14.9794283  43.1001043  35.9847770   6.5238454
  42.5724061  36.0676514   5.8344163  43.5596751  36.7265642   6.5203098
  43.0902893  36.1068433   6.4213149  49.4359460  36.9315048  12.8248740
  49.1969230  36.8910883  11.9869524  49.5993362  37.7786200  12.9514461
  49.4249764  37.0507133  12.7202222  46.0405491  41.3164998  18.7553785
  46.7639689  40.8637524  18.5764805  45.7755453  41.5969663  17.9726113
  46.1086764  41.2915966  18.6132500  34.9092359  35.9125171  15.4906664
  34.2845429  35.9243563  14.8832617  34.5737954  36.3885346  16.1397904
  34.7677851  35.9843688  15.4963232  35.0934108  34.2550290   1.5479349
  34.7446912  34.9070015   2.0110898  34.6130553  34.2407403   0.8203220
  34.9704352  34.3493343   1.5090440  31.6218035  43.9725631  16.9310428
  31.0917959  43.2818070  16.9805403  31.8943128  43.9635817  16.1023137
  31.5842757  43.8692763  16.8157844  42.6538125  44.5551334   5.6548111
  43.3772324  45.0209447   5.5112684  42.2138716  44.6224943   4.9045708
  42.6953817  44.6335170   5.5232892  41.8224280  41.4148876  16.9048800
  41.2081273  40.8706926  17.1997435  42.3391565  40.9013112  16.4254616
  41.8079943  41.2585285  16.8773028  41.0620577  42.4853146  14.6393098
  40.6348185  41.8602865  14.2058534  41.0545522  42.2028068  15.4652106
  40.9979718  42.3505927  14.6972926  34.1783104  37.5218319  17.7081532
  34.3376591  36.7661643  18.1133254  33.9975998  38.0709259  18.3622270
  34.1748463  37.4912133  17.8644238  42.1203407  29.6879555  18.2632322
  41.6243969  29.8843229  17.5723889  42.8772469  30.0872223  18.0921124
  42.1590232  29.7757288  18.1352459  39.3906287  33.3621901  14.8535632
  39.4148774  32.8282013  14.1648412  39.6417761  32.8539209  15.5161223
  39.4316206  33.2082804  14.8500277  26.9013877  40.6453396  14.2878776
  26.7957326  40.6000240  13.4230861  26.1514097  40.9907176  14.5693061
  26.7749480  40.6894304  14.2016106  35.6707609  32.0892719  14.2341377
  35.7105981  32.5901925  14.9476084  34.8457274  32.1803112  13.9647300
  35.5547135  32.1774535  14.2991915  37.8537222  41.6553459  22.3361671
  37.0032853  41.7925173  22.4719316  38.0165350  40.9217237  22.7809373
  37.7521086  41.5667560  22.4217270  37.0921973  38.6053229  16.5315276
  36.2613902  38.7727047  16.3250524  37.0373490  38.2289179  17.3164161
  36.9611387  38.5742960  16.6163804  35.4658016  36.8808820   7.0605393
  35.6060977  37.3781284   7.7634035  35.9640549  36.1795115   7.2019607
  35.5599097  36.8510799   7.1856972  35.4958239  37.7475931   4.3897970
  36.1303318  38.3436356   4.3247432  35.5783850  37.4479389   5.2043840
  35.6014790  37.7916839   4.5001057  48.4740805  40.2791409  17.2584334
  49.0658645  40.9188659  17.2902533  48.9099799  39.5814445  17.5476401
  48.6259236  40.2709759  17.3065167  37.0737222  33.6789907   4.3643412
  37.3953063  33.1992989   3.7102675  37.3364165  34.4889553   4.1734224
  37.1603247  33.7279805   4.2398904  40.3034194  44.7008781  17.8842228
  39.7959286  45.2544628  18.3282859  40.0060841  44.7617071  17.0661003
  40.1839079  44.7915092  17.8290685  42.4696377  33.0662101  16.7266891
  42.8951448  32.6134627  16.1150418  41.8553370  32.5122171  17.0031679
  42.4425022  32.9176077  16.6771917  32.0011227  39.9443772   7.6587516
  32.5103456  40.5408279   8.0398822  32.4745499  39.6769746   6.9763936
  32.1454602  39.9929587   7.6142039  42.9141975  48.6172039   5.8146172
  42.1971284  48.4432901   5.3493409  43.5648712  48.3824611   5.2821658
  42.9043825  48.5567831   5.6675390  40.9090599  29.5377200  10.1357468
  40.2658917  29.3874847  10.7042607  40.5690006  29.2919546   9.3706573
  40.7635677  29.4789323  10.1060484  45.4989946  37.4936627   9.5587477
  44.8281136  38.0366329   9.4300542  46.1929696  37.9631483   9.3169172
  45.5018813  37.6434898   9.5043005  39.5476680  49.6333339  14.7899235
  39.3242334  48.8752168  15.1583262  39.0586523  49.6631360  14.0679675
  39.4420129  49.5255564  14.7375976  45.6618073  33.9492511  12.4677850
  46.0145683  33.5222234  13.1423649  44.8032875  33.8643354  12.5978927
  45.5867518  33.8737251  12.5872861  34.3601758  36.5800031  10.5260697
  33.6413748  36.9964163  10.7933560  34.7314121  37.1454269   9.9752335
  34.3093690  36.7249312  10.4843504  43.6601339  37.2127879  16.4162692
  43.6399267  37.0311175  17.2697471  43.7080540  38.0839898  16.3922276
  43.6635980  37.3144418  16.5385987  41.6047669  43.8015071  22.3411169
  41.5643524  43.1564748  21.7556325  42.4170987  43.7451689  22.6536581
  41.7190823  43.6974038  22.3008118  38.1955137  49.8533797  12.2436320
  37.7815535  49.1907928  11.8540162  38.8802511  50.0011656  11.7232014
  38.2353508  49.7774455  12.1092817  41.5620431  49.0123883  12.9959936
  41.1636714  49.1226153  12.2280757  40.9471650  49.2205949  13.5786496
  41.4119320  49.0597451  12.9691236  40.1348333  35.6198030   5.8634076
  39.5413172  35.9415027   5.3118643  40.1723610  34.7739126   5.6555182
  40.0522722  35.5422359   5.7516847  47.0942133  29.0710923  13.3962163
  46.5872998  28.3640062  13.3283340  47.8909567  28.7404111  13.5263239
  47.1369373  28.9184074  13.4061158  43.0106149  35.5777535   9.2935826
  42.7819842  35.6010236   8.4514185  43.2704226  34.7535002   9.4130837
  43.0152337  35.4593615   9.1861024  37.2925378  37.4312008  18.8960927
  36.7804281  36.8233191  19.2545958  37.1204874  38.1468600  19.3634902
  37.1915015  37.4475307  19.0177150  36.0650912  34.1154081  10.5890022
  36.5408278  34.4771161   9.9540203  35.5639511  34.7710549  10.8690165
  36.0616271  34.2648270  10.5366763  49.2962273  43.5875849   6.3803027
  49.6795879  44.3367205   6.6101124  48.5006387  43.8341669   6.1215016
  49.2356056  43.7345543   6.3760601  41.1694448  35.3536253  21.3363182
  41.7265878  35.1250062  20.7041648  40.8455513  36.1141918  21.0598395
  41.2040858  35.4320089  21.2019679  29.0393157  38.7796449  16.8051778
  28.4919876  38.1097094  16.9232647  29.8285535  38.4126297  16.8695246
  29.0745341  38.6261435  16.8320479  38.8877565  38.4403906  22.3015189
  39.6388892  38.7555583  22.6154743  39.0800142  38.2383077  21.4749111
  39.0268980  38.4571288  22.2258585  38.1077565  36.2595281   3.9563406
  38.4876530  36.2774910   3.1714521  37.3670161  36.7049270   3.8354253
  38.0546403  36.3277056   3.8226974  45.7362856  34.5677472   9.5438985
  45.7357082  34.4126129  10.4023261  45.5319036  35.4140459   9.4880370
  45.7062633  34.6698093   9.6626924  27.7980126  37.9917257  13.9597801
  27.6201888  37.5393866  14.6852717  27.5099149  38.7943418  14.1436279
  27.7293080  38.0439814  14.0941304  43.4603708  39.2474974  13.1975192
  43.9557373  38.5297969  13.1579212  42.6503483  38.9445772  13.0829679
  43.4147601  39.0972620  13.1748917  38.9062319  43.0972787   5.3472196
  38.0973642  42.7739461   5.3005506  39.4137228  42.3906009   5.2800445
  38.8611986  42.9454104   5.3302490  29.5352596  40.5244980  11.0719560
  28.6698116  40.5130671  10.9602332  29.6351412  40.3375203  11.9190700
  29.4226763  40.4951042  11.1808505  45.5255526  41.9978661  15.8852320
  45.9510598  41.4753083  15.3322745  45.1612446  42.5959499  15.3640943
  45.5342129  42.0088889  15.7261330  35.1609606  50.2942879  14.6449666
  35.4756165  51.1079267  14.6527448  35.5703020  49.9093098  15.3131825
  35.2677704  50.3571581  14.7453758  42.1134126  45.7112926  12.2153478
  42.5845304  46.4253188  12.3843463  42.4494304  45.1111676  12.7513347
  42.2329241  45.7284390  12.3185854  39.0303621  30.4840396  19.1711573
  39.1631526  29.6871390  19.4992548  39.4148774  31.0106799  19.7509848
  39.1059950  30.4440313  19.3055076  42.7508072  45.5030860  18.9781170
  42.2029018  44.8788744  18.7101236  43.2121101  45.6925132  18.2625250
  42.7375282  45.4389910  18.8331602  42.1035976  27.4070722  15.7692666
  41.2981940  27.2968452  16.0860504  41.9742711  27.5083178  14.9122532
  41.9656109  27.4054393  15.6900706  45.5601937  33.5716214  16.3632363
  44.9764925  34.0725421  15.9509930  45.8806231  33.0645771  15.7296686
  45.5215112  33.5708049  16.2090870  38.0996736  32.4856809   6.6391038
  38.9212430  32.6555122   6.3972732  37.6366387  32.6404070   5.9157335
  38.1527898  32.5338542   6.4962682  36.6892068  30.4799571  17.4189466
  37.2336481  30.1390698  18.0093808  36.7429003  31.3385033  17.5610751
  36.7781187  30.5554831  17.5271340  32.5022626  44.2415987  14.2928274
  33.1067484  44.2011822  13.6642095  32.2949939  45.0887139  14.3232330
  32.5611524  44.3603990  14.2044391  42.3166399  46.5081933  15.5090512
  43.1364772  46.3644899  15.7706807  42.0360476  47.1328131  16.0506950
  42.3963142  46.5792285  15.6278451  27.7373909  43.2250605  14.1627197
  27.6398187  42.4146876  14.4717254  28.5202778  43.2042398  13.7773466
  27.8390045  43.1017695  14.1514060  58.7880049  54.1646784   8.4733388
  58.7574053  55.0191421   8.6451657  59.3861398  53.8642077   9.0319532
  58.8717207  54.2463281   8.5808190  51.9879734  53.2522435  13.2286318
  51.1317629  53.4130934  13.2795435  52.0347387  52.3814499  13.2491379
  51.8678845  53.1473237  13.2392384  46.3720873  62.7885153   8.9923550
  45.6203773  62.4100692   8.7639595  46.8206885  62.8203587   8.2442360
  46.3270540  62.7370760   8.8481052  55.2973450  59.5208961  22.8346775
  56.0040218  59.0260992  22.9633709  55.4861386  59.9618042  22.1049433
  55.4301356  59.5127311  22.7455820  54.8331555  55.3114479  15.8717970
  55.3787515  55.9899566  15.9311940  54.7748431  55.1701940  15.0119552
  54.9047469  55.3906481  15.7530031  47.9505630  62.8003545  11.2586322
  48.0515993  61.9903899  11.5683450  47.3547375  62.7060492  10.6286001
  47.8778168  62.6668573  11.2112561  47.7906369  67.7181135  12.6601179
  48.4343825  68.1594299  13.0497337  48.1162625  66.9134561  12.5731437
  47.9338198  67.6646329  12.7046656  41.1470674  58.8223832  10.8838656
  40.9120858  57.9891484  10.7770925  41.2856315  59.1028498  10.0699857
  41.1326336  58.7407335  10.7481011  43.4460761  50.9909563  13.7822964
  42.8265793  50.4002210  13.6132979  43.3444625  51.5820998  13.1487287
  43.3398437  50.9913645  13.6627953  50.5428657  52.7309104   8.1155427
  51.2408822  52.9097232   8.6076890  50.8580990  52.2079444   7.4925816
  50.6923994  52.6802876   8.0957437  43.1729894  54.5361844  16.0266533
  43.0488591  55.1224290  16.6616352  43.8248179  54.0422040  16.3278808
  43.2503544  54.5500649  16.1652462  50.7316592  59.1179549   8.1035218
  51.1710228  58.5096650   8.5489991  50.5821255  58.7386923   7.3320683
  50.7738058  58.9718020   8.0554386  48.1988235  57.7123561  15.3054044
  48.8437238  57.2196004  14.9864992  48.4390012  57.8548348  16.1320122
  48.3298820  57.6601003  15.3803577  50.7374327  60.5578467  14.9560936
  51.0197570  59.7629873  14.7347692  51.4660487  61.0359054  14.9765998
  50.8863890  60.5113064  14.9263952  48.7155521  48.1001501  12.1976702
  48.3858851  48.5512645  11.5280400  48.0400522  48.0217664  12.7449708
  48.5665957  48.1552636  12.1799925  55.9231928  44.0887024  10.4426312
  55.6085369  44.7790502  10.8746735  55.4058870  44.0331806   9.7411813
  55.7996399  44.1821912  10.4023261  60.7192415  59.6637829  11.9296767
  59.8890118  59.8748473  12.0930184  60.6701667  58.8374884  11.6539051
  60.5899150  59.5727436  11.9134133  42.7087999  63.7009503  12.1594862
  42.2255577  64.4259992  12.1354446  43.5211317  63.9985633  12.2705020
  42.7578746  63.8511856  12.1722142  48.7802153  62.4941683  14.7644677
  48.2629094  62.1349098  14.1605985  49.4776544  61.9703858  14.7750743
  48.8067734  62.3639371  14.6774935  52.4365745  62.9436497  20.7260850
  52.5249090  62.7562638  21.5739060  52.8655457  62.2973927  20.3265697
  52.5127847  62.8199505  20.7932601  50.0036204  62.2267657  19.7078512
  49.4407039  61.8140267  20.2318173  50.7657228  62.1520563  20.1271655
  50.0330653  62.1545058  19.8471512  46.9211475  46.1613789   7.6799649
  47.6757443  46.5292106   7.4416700  46.7439009  46.5353344   8.4478829
  47.0065953  46.2711977   7.7584538  45.5632196  64.2165679  12.3115142
  46.2652775  63.7017668  12.3687899  45.4829679  64.5439830  13.1162017
  45.6555956  64.1879905  12.4387934  60.2146373  52.3108230  15.7247189
  59.3774794  52.3810417  15.9594783  60.1834604  52.3132725  14.8521491
  60.0864656  52.3218457  15.6306737  45.2768539  48.5684108   4.3777762
  45.0944113  48.7855989   3.5518755  46.1394152  48.6823121   4.4336377
  45.3773129  48.6174006   4.2632249  44.8882971  60.4072031  11.8200750
  45.7271871  60.6394963  11.8674512  44.9194740  59.5376342  11.7507786
  45.0164689  60.3128977  11.8165395  45.5135674  60.8272906  16.1214056
  46.0533899  60.6844037  16.7917428  44.8305621  61.2269657  16.4898082
  45.4927828  60.8652577  16.2748477  50.9568258  45.5710519   7.4126786
  51.6854419  45.3926474   6.9664942  51.0463151  46.4128599   7.6233964
  51.0774921  45.6694397   7.3780304  54.9376559  56.5063906  11.3159080
  55.6934074  56.9395421  11.3547989  55.0438884  55.8568676  11.8893716
  55.0646730  56.4741390  11.4057106  57.9756730  60.3337184  12.0661483
  57.5391962  60.3373926  12.8220455  57.6419646  61.0142683  11.6341061
  57.8619350  60.4349639  12.1142316  40.9172819  57.0473197  16.2748477
  40.6511235  56.2312313  16.4339468  40.9311383  57.0926352  15.4043993
  40.8797542  56.9330101  16.1701959  57.8954213  47.3751011  14.3090911
  58.5380122  47.4449116  14.8952826  58.1477234  46.7080234  13.8070453
  58.0276345  47.2877360  14.3218190  44.8230566  51.8458281   2.8900235
  44.1088743  51.5596461   3.3022668  45.3074535  52.1854907   3.5306623
  44.7889930  51.8539931   3.0455870  52.7056197  64.2855619  17.0371089
  51.9071443  64.0455119  17.2944958  53.1542209  64.3370011  17.7838137
  52.6530808  64.2578010  17.1856013  61.1101076  57.0518104  10.9581120
  61.7717511  56.4908772  10.8577029  60.4692488  56.5570134  11.2833811
  61.1129944  56.8954513  10.9913461  41.3266233  57.8331976  13.5560222
  41.1441806  57.8078862  12.7032514  42.0615902  58.3030914  13.5949130
  41.4080297  57.8993338  13.4358140  57.3965907  58.0683486  10.6993109
  57.6321496  58.2128685   9.8719960  57.5455471  58.8325894  11.0924623
  57.4531710  58.2022540  10.6356713  54.4388253  54.7550055   9.2186293
  54.5335107  55.4939349   9.6725919  53.8147097  54.3267530   9.6520858
  54.3597283  54.8011375   9.3494441  52.6940727  57.9336267  19.8676574
  53.2679589  57.2963511  20.0225138  52.6155531  57.9340350  18.9986232
  52.7673962  57.8401379  19.7622985  41.2937143  54.7125477  13.7059288
  41.8710646  54.5761927  14.3451533  40.5951205  54.2561261  13.9604872
  41.2758165  54.6247743  13.8381578  48.0504446  56.3659532  11.9197771
  47.7923690  55.5331267  11.8929071  48.1052928  56.5917145  11.0790272
  48.0204223  56.2757304  11.7917908  53.1305496  48.4687983  12.0201864
  52.4261822  47.9797169  12.1785783  53.1790470  48.4810457  11.1490308
  53.0335547  48.3977631  11.9141204  47.0239158  53.9197295  12.4062666
  46.4488749  54.0789463  13.0426627  46.6474834  53.2832704  11.9431117
  46.8841970  53.8495108  12.4317224  50.6912446  52.3920644  17.2655045
  50.3026879  51.9674862  16.6107236  50.0267145  52.6402794  17.7732071
  50.5359374  52.3659365  17.2442912  60.3335715  52.1495649  10.0402875
  60.0772280  51.3375590   9.8500757  61.1765029  52.1573216   9.8133062
  60.4201741  52.0307646   9.9787692  36.7695977  53.5637370  10.4207107
  36.8556228  53.1869238  11.2020637  37.3971774  53.1897815   9.9427065
  36.8752528  53.4522852  10.4652584  54.5138808  46.0895273  14.7779029
  54.8949320  45.4073444  15.1646903  53.7102092  45.8004875  14.5954693
  54.4515270  45.9462321  14.8083085  58.0160875  59.3045245  19.8761427
  57.7799512  58.4733310  19.7573488  58.6604104  59.2530852  20.4616271
  58.0755545  59.1742933  19.9447321  47.6659293  60.0940766  10.5904164
  48.3033240  59.8552514  11.1355957  48.0914364  60.2977925   9.8557324
  47.8235459  60.0891776  10.5621321  42.3571935  62.3329103  14.4738467
  42.3976080  62.6043954  13.6458247  42.9166459  62.8571011  14.8896255
  42.4455281  62.4504858  14.4130356  48.3062108  55.3143056   4.9279053
  48.6907261  55.0950763   5.6795598  48.0573728  56.1406001   5.0580129
  48.3264180  55.4041202   5.0580129  59.0397295  59.0889694  15.9389722
  58.7343112  59.8217750  16.3003037  58.3203511  58.6827623  15.6582508
  58.8884638  59.1371427  15.9502859  50.0480765  60.5713189  12.2697950
  50.1219773  60.4088361  13.1239800  50.8650271  60.7603378  12.0258431
  50.1797123  60.5749931  12.3595975  64.7399088  55.7282694  15.2658066
  64.6723588  55.7478653  14.3960652  64.7254750  56.5713021  15.4913736
  64.7277844  55.8556429  15.1710543  43.8086521  60.9171052   9.2992393
  42.9824639  61.1632789   9.1726672  43.8698513  60.8383132  10.1654451
  43.6960688  60.9416001   9.4081338  46.0262545  46.9839993  10.2587833
  45.1584971  47.0562592  10.3245443  46.3137750  47.7862072  10.4475809
  45.9402293  47.1134140  10.2962600  55.1495434  47.1317852  18.5899155
  55.8949026  46.9427662  18.1762581  54.7332739  47.6576090  18.0313012
  55.1980408  47.1819997  18.4463729  62.5257705  54.5027080  13.5404660
  63.0765626  53.8695149  13.7801752  62.5101820  55.0342473  14.2320165
  62.6042901  54.4876029  13.6783518  49.1780096  58.3365678  18.0864554
  48.6791789  59.0481445  18.1649442  49.9880320  58.6566344  18.0482716
  49.2236202  58.4892526  18.0921122  46.5291266  65.5115314  10.0671573
  46.3091561  65.2212669  10.8598240  46.3085788  64.8530269   9.5389485
  46.4638860  65.3715023  10.1060482  45.4408213  57.5988631  12.3327275
  45.1521462  56.9726102  12.8673002  46.3091561  57.5408918  12.3991955
  45.5268465  57.4976175  12.4218229  56.2286111  52.7423414  12.6509256
  55.8850877  52.0213749  13.0016506  56.3279154  52.5337265  11.8087615
  56.1928154  52.6047617  12.5780936  45.6440487  59.2383882   8.2569640
  46.3986455  59.6196921   8.4705102  45.0511099  59.6895025   8.7116336
  45.6677200  59.3612709   8.3552518  46.9638713  60.4092443  13.6309755
  46.4419467  60.5492735  14.3161620  47.3512734  59.6503107  13.8211872
  46.9442414  60.3177967  13.7610832  43.9529897  50.4598252   7.7004710
  43.6654693  50.0899522   6.9636657  44.6400366  50.9293107   7.4388415
  44.0118795  50.4745221   7.5519785  48.3905039  57.4396462   9.0291246
  48.1947822  58.0471197   8.4351549  48.6139384  56.7464406   8.5482920
  48.3939680  57.4273988   8.8707327  46.7883569  54.3251200   9.1472114
  47.5106221  54.4892358   8.6875920  46.3091562  55.0460865   9.0411454
  46.8247300  54.4549430   9.0637728  54.7477076  50.6614999  14.5268799
  53.9088177  50.6876278  14.2907063  54.8181444  51.3085734  15.1074146
  54.6345470  50.7611125  14.5777916  53.1946355  47.5600376   9.2596415
  53.8972708  47.3608124   8.7816374  52.9290543  46.7876318   9.5665259
  53.2592987  47.4163342   9.2341857  58.6234600  55.8682986  11.8130041
  58.5368575  56.0238412  12.6664820  58.1685080  56.5121061  11.4389446
  58.5437857  55.9858741  11.8837148  41.5258092  51.2379464   8.5489991
  41.6274228  52.0405626   8.8770966  42.3213979  51.0366800   8.2513071
  41.6585998  51.3265363   8.5525346  42.3421824  51.3526643  16.2911112
  42.2007316  50.5010583  16.4155620  42.6262387  51.3955303  15.4673318
  42.3629670  51.2326393  16.1878736  52.4960416  53.1893733  10.4355601
  52.2495131  53.1089484  11.2692390  52.8245539  52.4047201  10.2418128
  52.5081660  53.0619998  10.5303124  56.3908465  59.8977092  14.2242382
  56.2522824  60.5958138  14.7291124  55.6108463  59.7425749  13.8678564
  56.2551692  59.9777259  14.2468656  54.7286550  56.1973467  20.4764764
  54.7234589  55.3253284  20.4807190  55.4347544  56.3961637  20.0034219
  54.8331554  56.0977342  20.4071799  50.6277361  55.1240620  17.6303715
  49.8800675  55.3171634  17.2251993  50.7818886  54.2985839  17.3927837
  50.5399789  55.0305731  17.5349121  47.5285199  64.1153223  16.7139611
  47.6774762  63.5556139  16.0613015  48.3085201  64.1945225  17.0972129
  47.6659292  64.0438789  16.6736560  50.0538499  64.2867866  17.9924101
  49.9782170  63.6176677  18.5474890  49.9828358  64.9885654  18.5064768
  50.0319106  64.2912773  18.1500949  50.8679138  49.0191170  18.5199119
  51.3251752  49.7515145  18.6471911  50.9435467  48.5957636  19.2786375
  50.9470108  49.0648409  18.6500196  55.3406464  42.1981046  12.3892962
  55.4590032  42.6557509  11.6560265  55.1668640  41.3926307  12.1029180
  55.3325635  42.1474818  12.2393896  48.7461516  51.0093274  15.3640943
  47.9557591  50.8284734  15.6858279  49.1422139  50.2320227  15.3471238
  48.6878392  50.8680735  15.4093491  51.2599346  53.4853533  19.8464442
  51.1958487  54.3463490  19.7184579  51.3996534  53.1685527  19.0459993
  51.2714816  53.5653700  19.7092655  49.9418440  56.1785673  13.9880645
  49.5180689  56.3790172  13.2519663  49.7663295  55.3314521  14.1004945
  49.8529321  56.0834454  13.8954335  49.4430134  67.6936186  16.4502102
  49.9326064  66.9946975  16.2677767  48.8714366  67.3960056  17.0378160
  49.4314664  67.5462409  16.5103143  45.2300885  56.6737724   9.4208617
  45.3865504  56.6084527  10.2764609  45.5701478  57.4486277   9.2087297
  45.3034120  56.7786922   9.5163212  51.7680030  56.0495608   8.2901981
  52.3095575  55.5465989   8.7540601  52.0826589  55.9960803   7.4791466
  51.8944427  55.9675029   8.2385793  55.6397137  60.2598255  25.4028893
  56.4532002  59.9883404  25.5634025  55.4792103  59.9605795  24.5989089
  55.7367086  60.1753181  25.3074299  52.9169299  50.9431912  18.3424281
  53.1311269  50.3042827  17.7887635  52.3003198  51.3877736  17.9132143
  52.8574628  50.9142056  18.1974712  41.8035147  53.8572675   9.7369385
  42.1834111  54.2757220   9.0729652  41.2290511  54.4386130  10.0438228
  41.7746471  54.0050534   9.6846126  55.0808387  52.5520978  19.2807588
  54.2685069  52.2446868  19.3620761  55.5398322  52.0719978  19.8450300
  55.0288772  52.4357470  19.3762182  52.3084028  44.0531848  13.3311624
  51.4377586  44.0270569  13.2844933  52.5624369  43.8809040  12.5137470
  52.2177588  44.0241992  13.2031761  49.3333168  46.0638076  14.7885094
  48.8171657  45.3718268  14.9136673  48.7727097  46.7308853  14.7347693
  49.1739681  46.0601334  14.7991160  51.4025402  46.6031036  16.6177947
  51.0157155  46.6280068  17.3991477  50.9158339  46.0372715  16.1652463
  51.2737911  46.5226787  16.6665851  55.6518381  61.3204545  20.6751733
  56.2898102  60.8264741  20.3414189  55.0092473  61.2481946  20.0903960
  55.6512608  61.2363554  20.5394088  57.3775381  53.1693691  15.2417649
  56.9502989  53.0820040  14.4865749  56.7401434  53.2771467  15.8272493
  57.2204988  53.1726351  15.2163091  51.0682543  43.4898022  18.9088207
  51.6975661  44.0258322  18.6309277  51.2368406  43.3975381  19.7601772
  51.1860338  43.5559384  18.9936735  55.7072638  62.0124354  17.3157090
  56.4965016  61.6613418  17.4359172  55.8816236  62.8260742  17.0533724
  55.8492919  62.0810211  17.2944958  45.4465948  55.4233079  14.3684879
  44.6053955  55.3236954  14.5763773  45.6555956  56.1928560  14.7199200
  45.3530641  55.5225123  14.4512194  42.9241515  53.0452616  12.1969630
  42.5298213  53.1195628  11.4219739  42.3681632  53.4310563  12.7477991
  42.7844327  53.1134391  12.1637289  54.5606462  46.0233910  11.8773509
  54.7656055  45.9556218  12.7230506  54.2332886  46.8292732  11.8094686
  54.5421710  46.1319851  11.9933164  49.2582613  53.3514479  13.6182477
  48.9545751  52.7970467  14.2192884  48.5562034  53.5306689  13.1310511
  49.1098823  53.2959261  13.6352182  48.3148710  50.6614998   8.1827178
  48.5908444  49.9433911   7.7704746  48.9147379  51.2599918   7.9748284
  48.4441975  50.6435369   8.0907940  47.3200964  60.5664199  18.3254574
  47.2121319  60.5766261  19.1916632  47.5296745  61.3918980  18.1359528
  47.3351075  60.6905274  18.4258666  57.8140150  46.5765675  11.3576274
  57.2014463  47.0636077  11.7430006  57.9104324  45.9009166  11.9013925
  57.7378047  46.5483983  11.4955132  51.8159231  48.3328516   6.4573773
  52.2702977  48.5039076   7.1821618  52.2899276  47.7196626   6.0571549
  51.9527551  48.2679401   6.5047535  45.3374756  57.8176842  15.7876512
  44.7462689  58.4586340  15.7579527  46.0995780  58.2414459  15.7607811
  45.3623017  57.9752680  15.7791659  45.7335379  48.9778840  16.4544529
  46.1936860  49.0517769  17.1919653  45.7791486  49.7760094  16.1044351
  45.8085934  49.1072987  16.5117286  61.4565178  57.6482611  16.7853790
  61.5148301  58.0969260  17.5313767  60.8231645  58.0581424  16.3483870
  61.3716473  57.7756346  16.8306338  55.0964272  63.2686153  13.2208536
  54.8983961  63.7576968  12.5264748  54.4751983  63.4727395  13.7992670
  54.9751837  63.3702692  13.2031760  49.1572251  55.0371050   7.5618781
  49.9014296  55.4245326   7.8001731  49.3032947  54.1928476   7.7259268
  49.2882836  54.9701523   7.6212750  51.0751826  46.8321309  12.5950642
  50.2287871  47.0044117  12.4691992  51.0722959  46.0270653  12.9316470
  50.9498976  46.7382338  12.6261769  52.1450126  50.6096523  13.4612700
  51.6710081  50.0838286  13.9718011  52.5168262  50.0625996  12.8927561
  52.1300015  50.4512520  13.4527847  58.4086857  55.6698899  14.8719480
  58.1685080  54.8305314  14.8761907  58.8878864  55.7499066  15.5960254
  58.4439041  55.5580299  14.9794283  54.0733626  51.5033078   6.5238454
  53.5456645  51.5861822   5.8344163  54.5329334  52.2450950   6.5203098
  54.0635477  51.6253740   6.4213149  60.4092044  52.4500356  12.8248740
  60.1701814  52.4096191  11.9869524  60.5725945  53.2971508  12.9514461
  60.3982348  52.5692441  12.7202222  57.0138074  56.8350306  18.7553785
  57.7372273  56.3822832  18.5764805  56.7488036  57.1154971  17.9726113
  57.0819347  56.8101274  18.6132500  45.8824943  51.4310479  15.4906664
  45.2578013  51.4428871  14.8832617  45.5470537  51.9070654  16.1397904
  45.7410434  51.5028996  15.4963232  46.0666691  49.7735598   1.5479349
  45.7179496  50.4255323   2.0110898  45.5863137  49.7592711   0.8203220
  45.9436935  49.8678651   1.5090440  42.5950618  59.4910939  16.9310428
  42.0650543  58.8003378  16.9805403  42.8675711  59.4821125  16.1023137
  42.5575340  59.3878071  16.8157844  52.7956864  56.9334184  16.9048800
  52.1813857  56.3892234  17.1997435  53.3124149  56.4198420  16.4254616
  52.7812526  56.7770593  16.8773028  52.0353161  58.0038454  14.6393098
  51.6080769  57.3788173  14.2058534  52.0278105  57.7213376  15.4652106
  51.9712302  57.8691235  14.6972926  45.1515688  53.0403627  17.7081532
  45.3109175  52.2846951  18.1133254  44.9708582  53.5894567  18.3622270
  45.1481047  53.0097441  17.8644238  53.0935991  45.2064863  18.2632322
  52.5976552  45.4028537  17.5723889  53.8505053  45.6057531  18.0921124
  53.1322816  45.2942596  18.1352459  50.3638871  48.8807208  14.8535632
  50.3881358  48.3467321  14.1648412  50.6150344  48.3724517  15.5161223
  50.4048789  48.7268112  14.8500277  37.8746460  56.1638703  14.2878776
  37.7689909  56.1185548  13.4230861  37.1246680  56.5092484  14.5693061
  37.7482063  56.2079612  14.2016106  46.6440193  47.6078027  14.2341377
  46.6838564  48.1087233  14.9476084  45.8189857  47.6988420  13.9647300
  46.5279719  47.6959843  14.2991915  48.0654556  54.1238537  16.5315276
  47.2346486  54.2912355  16.3250524  48.0106073  53.7474487  17.3164161
  47.9343971  54.0928268  16.6163804  46.4390600  52.3994128   7.0605393
  46.5793561  52.8966592   7.7634035  46.9373133  51.6980422   7.2019607
  46.5331681  52.3696107   7.1856972  46.4690822  53.2661239   4.3897970
  47.1035902  53.8621664   4.3247432  46.5516433  52.9664697   5.2043840
  46.5747373  53.3102147   4.5001057  59.4473388  55.7976716  17.2584334
  60.0391228  56.4373967  17.2902533  59.8832383  55.0999753  17.5476401
  59.5991819  55.7895067  17.3065167  48.0469805  49.1975214   4.3643412
  48.3685646  48.7178297   3.7102675  48.3096749  50.0074861   4.1734224
  48.1335831  49.2465112   4.2398904  51.2766778  60.2194089  17.8842228
  50.7691869  60.7729936  18.3282859  50.9793424  60.2802379  17.0661003
  51.1571663  60.3100400  17.8290685  53.4428960  48.5847408  16.7266891
  53.8684032  48.1319935  16.1150418  52.8285953  48.0307479  17.0031679
  53.4157606  48.4361385  16.6771917  42.9743810  55.4629080   7.6587516
  43.4836040  56.0593587   8.0398822  43.4478083  55.1955054   6.9763936
  43.1187186  55.5114895   7.6142039  51.8823183  45.0562508  10.1357468
  51.2391501  44.9060155  10.7042607  51.5422590  44.8104854   9.3706573
  51.7368260  44.9974631  10.1060484  56.4722530  53.0121935   9.5587477
  55.8013719  53.5551637   9.4300542  57.1662280  53.4816790   9.3169172
  56.4751397  53.1620206   9.5043005  50.5209263  65.1518647  14.7899235
  50.2974918  64.3937476  15.1583262  50.0319107  65.1816668  14.0679675
  50.4152712  65.0440872  14.7375976  56.6350657  49.4677819  12.4677850
  56.9878267  49.0407542  13.1423649  55.7765458  49.3828662  12.5978927
  56.5600102  49.3922559  12.5872861  45.3334342  52.0985338  10.5260697
  44.6146331  52.5149471  10.7933560  45.7046704  52.6639577   9.9752335
  45.2826274  52.2434620  10.4843504  54.6333923  52.7313187  16.4162692
  54.6131850  52.5496482  17.2697471  54.6813124  53.6025206  16.3922276
  54.6368564  52.8329726  16.5385987  52.5780253  59.3200379  22.3411169
  52.5376107  58.6750056  21.7556325  53.3903571  59.2636997  22.6536581
  52.6923406  59.2159346  22.3008118  49.1687720  65.3719105  12.2436320
  48.7548119  64.7093235  11.8540162  49.8535094  65.5196964  11.7232014
  49.2086092  65.2959763  12.1092817  52.5353014  64.5309190  12.9959936
  52.1369298  64.6411461  12.2280757  51.9204234  64.7391257  13.5786496
  52.3851904  64.5782759  12.9691236  51.1080916  51.1383338   5.8634076
  50.5145756  51.4600335   5.3118643  51.1456194  50.2924434   5.6555182
  51.0255305  51.0607667   5.7516847  58.0674717  44.5896231  13.3962163
  57.5605582  43.8825370  13.3283340  58.8642151  44.2589419  13.5263239
  58.1101956  44.4369382  13.4061158  53.9838733  51.0962843   9.2935826
  53.7552426  51.1195544   8.4514185  54.2436809  50.2720310   9.4130837
  53.9884921  50.9778923   9.1861024  47.0383495  49.6339389  10.5890022
  47.5140862  49.9956469   9.9540203  46.5372095  50.2895857  10.8690165
  47.0348854  49.7833578  10.5366763  52.1427032  50.8721561  21.3363182
  52.6998462  50.6435370  20.7041648  51.8188097  51.6327226  21.0598395
  52.1773442  50.9505397  21.2019679  49.0810149  51.7780589   3.9563406
  49.4609113  51.7960218   3.1714521  48.3402745  52.2234578   3.8354253
  49.0278986  51.8462364   3.8226974  56.7095439  50.0862780   9.5438985
  56.7089666  49.9311437  10.4023261  56.5051619  50.9325767   9.4880370
  56.6795217  50.1883401   9.6626924  38.7712710  53.5102565  13.9597801
  38.5934471  53.0579174  14.6852717  38.4831732  54.3128726  14.1436279
  38.7025663  53.5625122  14.0941304  54.4336291  54.7660282  13.1975192
  54.9289956  54.0483277  13.1579212  53.6236067  54.4631080  13.0829679
  54.3880184  54.6157928  13.1748917  40.5085180  56.0430288  11.0719560
  39.6430699  56.0315979  10.9602332  40.6083996  55.8560511  11.9190700
  40.3959347  56.0136350  11.1808505  56.4988110  57.5163969  15.8852320
  56.9243182  56.9938391  15.3322745  56.1345030  58.1144807  15.3640943
  56.5074713  57.5274196  15.7261330  46.1342190  65.8128187  14.6449666
  46.4488749  66.6264575  14.6527448  46.5435603  65.4278406  15.3131825
  46.2410288  65.8756889  14.7453758  53.0866709  61.2298234  12.2153478
  53.5577888  61.9438496  12.3843463  53.4226888  60.6296984  12.7513347
  53.2061825  61.2469698  12.3185854  55.1743694  62.8399547  24.3945550
  55.2840660  62.0508108  24.7502297  55.5034591  62.7505483  23.5919888
  55.2396100  62.7105400  24.3287941  53.7240656  61.0216168  18.9781170
  53.1761602  60.3974051  18.7101236  54.1853685  61.2110440  18.2625250
  53.7107865  60.9575218  18.8331602  53.0768560  42.9256030  15.7692666
  52.2714523  42.8153760  16.0860504  52.9475295  43.0268486  14.9122532
  52.9388692  42.9239700  15.6900706  56.5334520  49.0901522  16.3632363
  55.9497509  49.5910729  15.9509930  56.8538814  48.5831078  15.7296686
  56.4947695  49.0893357  16.2090870  49.0729319  48.0042117   6.6391038
  49.8945014  48.1740430   6.3972732  48.6098970  48.1589378   5.9157335
  49.1260482  48.0523850   6.4962682  47.6624651  45.9984879  17.4189466
  48.2069064  45.6576006  18.0093808  47.7161587  46.8570341  17.5610751
  47.7513771  46.0740139  17.5271340  43.4755210  59.7601295  14.2928274
  44.0800067  59.7197130  13.6642095  43.2682522  60.6072447  14.3232330
  43.5344107  59.8789298  14.2044391  53.2898982  62.0267241  15.5090512
  54.1097356  61.8830207  15.7706807  53.0093060  62.6513439  16.0506950
  53.3695725  62.0977593  15.6278451  38.7106492  58.7435913  14.1627197
  38.6130770  57.9332184  14.4717254  39.4935362  58.7227706  13.7773466
  38.8122629  58.6203003  14.1514060  54.1462478  70.0547152  16.0266533
  54.0221175  70.6409598  16.6616352  54.7980762  69.5607348  16.3278808
  54.2236127  70.0685957  16.1652462  57.5843686  69.9726573  21.4395557
  57.7564190  69.8632468  22.2880839  58.1213043  70.6180979  21.2026750
  57.6888690  70.0518575  21.5300654  56.6404009  66.1036883  18.9215485
  55.9475806  65.6333863  19.1676217  57.2564337  65.8775187  19.4957192
  56.6288539  66.0004015  19.0424638  55.3644568  70.0702287  20.0642330
  56.0884541  70.0555317  20.5507225  55.4660705  70.7797642  19.5664298
  55.4862777  70.1726990  20.0621117  62.7389518  73.5501371  24.9291277
  61.9462498  73.8644883  25.1143897  62.8538445  73.7652840  24.0912062
  62.6384928  73.6285208  24.8329612  61.6645030  67.9105952  17.2655045
  61.2759463  67.4860170  16.6107236  60.9999728  68.1588102  17.7732071
  61.5091958  67.8844673  17.2442912  59.4463232  64.1134779  24.6441637
  59.1316673  64.8834342  24.3811200  59.1253164  63.5505035  24.0593864
  59.3522151  64.1445048  24.5182987  66.1228018  62.6503160  18.5899155
  66.8681610  62.4612970  18.1762581  65.7065322  63.1761398  18.0313012
  66.1712992  62.7005305  18.4463729  59.0779737  66.7132030  23.3826852
  58.2679513  67.0189810  23.2716694  59.5554424  67.4337612  23.4979436
  59.0283216  66.8646631  23.3833923  55.4123769  72.2494580  18.2526254
  55.9244866  72.5278834  17.6035014  55.1260112  72.9883874  18.6189067
  55.4458632  72.3996934  18.2116132  58.9307495  64.3420969  18.3127296
  58.7390692  64.3576103  19.1626719  59.7806091  64.5384643  18.2893951
  59.0283216  64.3735320  18.4350591  53.3154408  66.8711950  16.2911112
  53.1739899  66.0195891  16.4155620  53.5994971  66.9140611  15.4673318
  53.3362254  66.7511700  16.1878736  59.4290027  71.4435759  19.8478584
  59.5733403  72.0236967  19.2121694  59.7765676  71.8212056  20.5528438
  59.5017489  71.5856463  19.8577579  61.8411722  64.5376478  18.5199119
  62.2984336  65.2700453  18.6471911  61.9168050  64.1142944  19.2786375
  61.9202691  64.5833716  18.6500196  54.0844713  64.7842298  19.6088563
  53.5486902  64.1722656  19.9249330  54.1462478  65.3590434  20.2622229
  54.0140345  64.7789226  19.7523989  59.7194100  66.5278582  15.3640943
  58.9290174  66.3470042  15.6858279  60.1154722  65.7505535  15.3471238
  59.6610976  66.3866043  15.4093491  62.2331930  69.0038841  19.8464442
  62.1691071  69.8648798  19.7184579  62.3729118  68.6870835  19.0459993
  62.2447400  69.0839008  19.7092655  63.8901883  66.4617220  18.3424281
  64.1043852  65.8228134  17.7887635  63.2735782  66.9063044  17.9132143
  63.8307212  66.4327364  18.1974712  66.0540971  68.0706285  19.2807588
  65.2417652  67.7632176  19.3620761  66.5130905  67.5905286  19.8450300
  66.0021355  67.9542778  19.3762182  63.1494478  69.4766357  24.0636290
  63.6194109  70.1008473  24.4504165  63.1956358  68.8083332  24.6229505
  63.2262354  69.4701037  24.2036362  60.3065752  61.5823384  14.7885094
  59.7904240  60.8903576  14.9136673  59.7459681  62.2494161  14.7347693
  60.1472265  61.5786642  14.7991160  62.3757985  62.1216344  16.6177947
  61.9889738  62.1465376  17.3991477  61.8890923  61.5558023  16.1652463
  62.2470494  62.0412095  16.6665851  62.0415127  59.0083330  18.9088207
  62.6708245  59.5443630  18.6309277  62.2100990  58.9160689  19.7601772
  62.1592922  59.0744692  18.9936735  61.8429042  63.7954525  21.1814618
  62.6702471  63.5239673  21.2373233  61.8636888  64.5915366  21.5378436
  61.9681892  63.8734279  21.2429801  56.7067962  64.4964147  16.4544529
  57.1669444  64.5703077  17.1919653  56.7524069  65.2945401  16.1044351
  56.7818518  64.6258295  16.5117286  58.3551312  65.1630842  21.0216557
  57.9636877  64.5164189  21.4572334  58.5237175  65.7542278  21.6410812
  58.3222222  65.1545110  21.1779263  53.4955740  68.1253338  18.8296246
  54.3581353  68.0249047  18.7433576  53.1647523  67.5448047  18.2681818
  53.5740937  68.0244965  18.7341652  56.8557526  66.9495787  15.4906664
  56.2310596  66.9614179  14.8832617  56.5203121  67.4255962  16.1397904
  56.7143018  67.0214304  15.4963232  56.1248272  68.5588935  17.7081532
  56.2841758  67.8032259  18.1133254  55.9441165  69.1079874  18.3622270
  56.1213630  68.5282749  17.8644238  64.0668574  60.7250170  18.2632322
  63.5709136  60.9213845  17.5723889  64.8237637  61.1242839  18.0921124
  64.1055399  60.8127904  18.1352459  57.6172776  63.1263335  14.2341377
  57.6571148  63.6272541  14.9476084  56.7922441  63.2173728  13.9647300
  57.5012302  63.2145151  14.2991915  59.8002389  72.6924075  22.3361671
  58.9498020  72.8295789  22.4719316  59.9630517  71.9587853  22.7809373
  59.6986253  72.6038176  22.4217270  56.8470923  63.1332737  22.1671686
  57.4723626  62.5894870  22.4401119  56.3921403  62.6527655  21.5979477
  56.8719184  62.9822219  22.1233280  63.5512836  74.8385687  22.3411169
  63.5108691  74.1935364  21.7556325  64.3636154  74.7822305  22.6536581
  63.6655990  74.7344654  22.3008118  59.2390545  68.4682624  18.8960927
  58.7269448  67.8603807  19.2545958  59.0670041  69.1839216  19.3634902
  59.1380182  68.4845923  19.0177150  54.0856260  66.9120199  21.5463288
  53.9158850  67.5721574  21.0011495  53.6422210  67.1226760  22.2675778
  53.9955593  67.0406181  21.5724918  63.1159615  66.3906868  21.3363182
  63.6731045  66.1620678  20.7041648  62.7920680  67.1512534  21.0598395
  63.1506025  66.4690705  21.2019679  50.9858324  69.8167065  16.8051778
  50.4385044  69.1467710  16.9232647  51.7750702  69.4496913  16.8695246
  51.0210508  69.6632051  16.8320479  60.8342733  69.4774522  22.3015189
  61.5854060  69.7926199  22.6154743  61.0265309  69.2753693  21.4749111
  60.9734147  69.4941904  22.2258585  49.7445294  69.0287872  13.9597801
  49.5667055  68.5764481  14.6852717  49.4564316  69.8314034  14.1436279
  49.6758247  69.0810430  14.0941304  60.9768788  61.5211012  19.1711573
  61.1096694  60.7242006  19.4992548  61.3613941  62.0477415  19.7509848
  61.0525117  61.4810929  19.3055076  64.0501143  58.4441338  15.7692666
  63.2447107  58.3339068  16.0860504  63.9207879  58.5453794  14.9122532
  63.9121276  58.4425008  15.6900706  58.6357235  61.5170187  17.4189466
  59.1801648  61.1761314  18.0093808  58.6894170  62.3755649  17.5610751
  58.7246354  61.5925447  17.5271340  44.0191691  20.9401784   9.7686821
  44.7258458  20.4453815   9.8973756  44.2079626  21.3810866   9.0389479
  44.1519596  20.9320135   9.6795867  36.5124610  29.1373958  -0.4058775
  37.1562065  29.5787122  -0.0162616  36.8380865  28.3327384  -0.4928516
  36.6556438  29.0839152  -0.3613297  41.1583985  24.3629321   7.6600897
  41.2467331  24.1755461   8.5079107  41.5873698  23.7166750   7.2605743
  41.2346087  24.2392328   7.7272648  38.7254445  23.6460481   6.6418559
  38.1625280  23.2333090   7.1658220  39.4875468  23.5713386   7.0611702
  38.7548893  23.5737881   6.7811559  35.3329343  15.8734089   8.3735604
  35.5049846  15.7639983   9.2220885  35.8698700  16.5188494   8.1366796
  35.4374347  15.9526090   8.4640701  41.2704044  23.7938340  10.3244680
  42.0544461  23.9069188  10.6900422  41.0700639  22.9679477  10.5203366
  41.3570070  23.6885059  10.4079066  40.4875174  19.4508887  11.8631324
  39.6948155  19.7652399  12.0483944  40.6024102  19.6660355  11.0252109
  40.3870585  19.5292723  11.7669659  41.4158967  19.3529090   6.8016621
  41.9897829  18.7156335   6.9565185  41.3373771  19.3533173   5.9326278
  41.4892202  19.2594202   6.6963032  46.7379115  20.7238068   6.8101474
  46.5017752  19.8926133   6.6913535  47.3822344  20.6723675   7.3956318
  46.7973786  20.5935756   6.8787368  37.1948889  10.0142294  11.5781684
  36.8802330  10.7841857  11.3151247  36.8738821   9.4512550  10.9933911
  37.1007808  10.0452563  11.4523034  47.7615536  20.5082517   2.8729768
  47.4561353  21.2410574   3.2343084  47.0421751  20.1020446   2.5922554
  47.6102878  20.5564250   2.8842906  53.4617328  17.1475518   2.1998113
  53.3941828  17.1671477   1.3300699  53.4472990  17.9905845   2.4253783
  53.4496084  17.2749252   2.1050590  37.8998336  19.7558501   5.0204601
  37.4010030  20.4674269   5.0989489  38.7098560  20.0759168   4.9822763
  37.9454443  19.9085350   5.0261169  36.8265394  12.6139545  10.3166899
  36.0165170  12.9197325  10.2056741  37.3040081  13.3345128  10.4319483
  36.7768873  12.7654147  10.3173970  45.1126706  21.3169915   1.1582429
  44.9741065  22.0150961   1.6631171  44.3326703  21.1618572   0.8018610
  44.9769932  21.3970082   1.1808703  43.4504791  17.6166291   7.4104810
  43.4452829  16.7446107   7.4147237  44.1565785  17.8154460   6.9374266
  43.5549795  17.5170165   7.3411846  37.1775684  17.3443275   6.7818631
  37.3219060  17.9244483   6.1461741  37.5251333  17.7219571   7.4868485
  37.2503145  17.4863979   6.7917625  36.2503439  25.5346046   3.6479657
  36.3993003  24.9748962   2.9953062  37.0303441  25.6138048   4.0312176
  36.3877533  25.4631612   3.6076607  38.7756740  25.7060689   4.9264148
  38.7000411  25.0369500   5.4814936  38.7046599  26.4078477   5.4404814
  38.7537347  25.7105597   5.0840996  38.1648374  29.1129009   3.3842149
  38.6544304  28.4139798   3.2017814  37.5932606  28.8152879   3.9718206
  38.1532904  28.9655233   3.4443190  44.3615377  21.6791078  12.3368940
  45.1750243  21.4076227  12.4974072  44.2010344  21.3798618  11.5329136
  44.4585326  21.5946004  12.2414346  43.8026627  13.9713801   6.2147635
  42.9903309  13.6639691   6.2960808  44.2616562  13.4912801   6.7790347
  43.7507012  13.8550293   6.3102229  40.8980135  15.3773872  10.9976337
  41.3679766  16.0015989  11.3844211  40.9442015  14.7090848  11.5569552
  40.9748011  15.3708553  11.1376409  44.3736621  22.7397369   7.6091780
  45.0116342  22.2457564   7.2754236  43.7310713  22.6674769   7.0244007
  44.3730848  22.6556377   7.4734135  44.4290878  23.4317177   4.2497137
  45.2183256  23.0806242   4.3699219  44.6034476  24.2453565   3.9873771
  44.5711160  23.5003034   4.2285005  36.0419204  21.9857023   5.2594621
  35.9339559  21.9959085   6.1256679  36.2514986  22.8111803   5.0699575
  36.0569315  22.1098097   5.3598713  50.1783418  19.0675435   3.7193837
  50.2366542  19.5162083   4.4653813  49.5449886  19.4774248   3.2823917
  50.0934713  19.1949169   3.7646385  43.8182513  24.6878977   0.1548583
  43.6202201  25.1769791  -0.5395206  43.1970224  24.8920218   0.7332717
  43.6970077  24.7895515   0.1371806  45.7356315  18.2543129   5.6893832
  46.4590513  17.8015655   5.5104851  45.4706277  18.5347795   4.9066159
  45.8037588  18.2294097   5.5472547  41.5175104  18.3527007   3.8388847
  40.9032097  17.8085057   4.1337482  42.0342389  17.8391244   3.3594663
  41.5030766  18.1963416   3.8113075  37.5488046  18.5931590   9.2701718
  36.6983677  18.7303304   9.4059363  37.7116174  17.8595368   9.7149420
  37.4471910  18.5045691   9.3557317  48.1691629  17.2169540   4.1924381
  48.7609469  17.8566790   4.2242579  48.6050623  16.5192576   4.4816448
  48.3210060  17.2087890   4.2405214  39.9985018  21.6386912   4.8182275
  39.4910109  22.1922759   5.2622906  39.7011665  21.6995202   4.0001050
  39.8789903  21.7293223   4.7630732  39.2427504  26.5711470   1.7239282
  39.0193158  25.8130300   2.0923308  38.7537347  26.6009492   1.0019722
  39.1370953  26.4633695   1.6716023  41.2998493  20.7393203   9.2751216
  41.2594348  20.0942880   8.6896372  42.1121811  20.6829820   9.5876628
  41.4141647  20.6352169   9.2348165  41.2571255  25.9502014  -0.0700017
  40.8587538  26.0604284  -0.8379196  40.6422474  26.1584080   0.5126543
  41.1070144  25.9975582  -0.0968717  40.8645272  12.2914384   8.2703229
  41.4216702  12.0628193   7.6381694  40.5406337  13.0520049   7.9938441
  40.8991682  12.3698220   8.1359726  38.5828389  15.3782037   9.2355236
  39.3339716  15.6933714   9.5494790  38.7750966  15.1761208   8.4089158
  38.7219803  15.3949419   9.1598632  45.2206350  18.9356793   2.8192367
  45.6461422  18.4131215   2.2662792  44.8563270  19.5337630   2.2980990
  45.2292953  18.9467020   2.6601377  34.8560430  27.2321010   1.5789713
  35.1706989  28.0457399   1.5867494  35.2653844  26.8471229   2.2471872
  34.9628528  27.2949713   1.6793804  43.8961934  24.2592370  11.3285597
  44.0058900  23.4700931  11.6842344  44.2252831  24.1698307  10.5259935
  43.9614340  24.1298223  11.2627987  42.4458896  22.4408991   5.9121217
  41.8979842  21.8166875   5.6441283  42.9071925  22.6303263   5.1965297
  42.4326106  22.3768041   5.7671648  42.0117222  23.4460064   2.4430558
  42.8315596  23.3023030   2.7046854  41.7311300  24.0706263   2.9846996
  42.0913966  23.5170416   2.5618498  51.6830558  30.1900566   0.1626365
  50.8268453  30.3509065   0.2135482  51.7298211  29.3192630   0.1831426
  51.5629669  30.0851368   0.1732431  46.0671697  39.7263284  -4.0736403
  45.3154597  39.3478823  -4.3020358  46.5157709  39.7581718  -4.8217593
  46.0221364  39.6748892  -4.2178901  54.9924274  36.4587092   9.7686821
  55.6991041  35.9639123   9.8973756  55.1812210  36.8996174   9.0389479
  55.1252180  36.4505442   9.6795867  54.5282379  32.2492610   2.8058017
  55.0738339  32.9277697   2.8651987  54.4699255  32.1080071   1.9459598
  54.5998293  32.3284612   2.6870077  47.6456454  39.7381677  -1.8073631
  47.7466816  38.9282030  -1.4976503  47.0498199  39.6438623  -2.4373952
  47.5728992  39.6046705  -1.8547392  47.4857193  44.6559266  -0.4058775
  48.1294649  45.0972430  -0.0162616  47.8113449  43.8512692  -0.4928516
  47.6289022  44.6024460  -0.3613297  40.8421498  35.7601963  -2.1821297
  40.6071682  34.9269615  -2.2889028  40.9807139  36.0406629  -2.9960096
  40.8277160  35.6785466  -2.3178942  43.1411585  27.9287694   0.7163011
  42.5216617  27.3380341   0.5473025  43.0395449  28.5199129   0.0827334
  43.0349261  27.9291776   0.5968000  50.2379481  29.6687235  -4.9504526
  50.9359646  29.8475363  -4.4583063  50.5531813  29.1457575  -5.5734137
  50.3874818  29.6181008  -4.9702516  42.8680718  31.4739975   2.9606580
  42.7439415  32.0602421   3.5956399  43.5199003  30.9800171   3.2618855
  42.9454368  31.4878780   3.0992509  50.4267416  36.0557681  -4.9624735
  50.8661052  35.4474781  -4.5169962  50.2772079  35.6765054  -5.7339270
  50.4688882  35.9096152  -5.0105567  47.8939059  34.6501692   2.2394091
  48.5388062  34.1574135   1.9205039  48.1340836  34.7926479   3.0660169
  48.0249644  34.5979135   2.3143624  50.4325151  37.4956598   1.8900983
  50.7148394  36.7008004   1.6687739  51.1611311  37.9737186   1.9106044
  50.5814714  37.4491195   1.8603998  48.4106345  25.0379632  -0.8683252
  48.0809675  25.4890776  -1.5379553  47.7351346  24.9595795  -0.3210245
  48.2616781  25.0930767  -0.8860028  60.4143239  36.6015960  -1.1363186
  59.5840942  36.8126604  -0.9729769  60.3652491  35.7753015  -1.4120902
  60.2849974  36.5105567  -1.1525820  42.4038823  40.6387634  -0.9065091
  41.9206401  41.3638124  -0.9305507  43.2162141  40.9363764  -0.7954933
  42.4529570  40.7889988  -0.8937812  48.4752977  39.4319815   1.6984724
  47.9579918  39.0727230   1.0946032  49.1727368  38.9081989   1.7090790
  48.5018558  39.3017503   1.6114982  52.1316569  39.8814629   7.6600897
  52.2199914  39.6940769   8.5079107  52.5606281  39.2352058   7.2605743
  52.2078671  39.7577636   7.7272648  49.6987028  39.1645789   6.6418559
  49.1357863  38.7518398   7.1658220  50.4608052  39.0898694   7.0611702
  49.7281477  39.0923189   6.7811559  45.2583020  41.1543810  -0.7544811
  45.9603599  40.6395799  -0.6972054  45.1780503  41.4817961   0.0502064
  45.3506780  41.1258036  -0.6272019  59.9097197  29.2486361   2.6587235
  59.0725618  29.3188548   2.8934830  59.8785428  29.2510856   1.7861538
  59.7815480  29.2596588   2.5646783  46.3061926  31.3919397   8.3735604
  46.4782430  31.2825291   9.2220885  46.8431284  32.0373802   8.1366796
  46.4106930  31.4711398   8.4640701  44.5833795  37.3450162  -1.2459203
  45.4222695  37.5773095  -1.1985441  44.6145564  36.4754473  -1.3152168
  44.7115513  37.2507108  -1.2494558  45.2086498  37.7651037   3.0554103
  45.7484723  37.6222168   3.7257475  44.5256445  38.1647788   3.4238129
  45.1878652  37.8030708   3.2088524  54.6327383  33.4442038  -1.7500873
  55.3884898  33.8773552  -1.7111964  54.7389708  32.7946807  -1.1766237
  54.7597554  33.4119521  -1.6602847  57.6707554  37.2715315  -0.9998470
  57.2342786  37.2752057  -0.2439499  57.3370470  37.9520814  -1.4318893
  57.5570174  37.3727771  -0.9517638  52.2436628  39.3123648  10.3244680
  53.0277044  39.4254495  10.6900422  52.0433222  38.4864785  10.5203366
  52.3302653  39.2070367  10.4079066  40.6123643  33.9851328   3.2088524
  40.3462059  33.1690444   3.3679514  40.6262207  34.0304483   2.3384040
  40.5748366  33.8708233   3.1042006  57.5905037  24.3129143   1.2430958
  58.2330946  24.3827247   1.8292873  57.8428058  23.6458366   0.7410500
  57.7227169  24.2255491   1.2558237  45.3622250  27.5229706   5.8555532
  44.6694046  27.0526686   6.1016263  45.9782577  27.2968011   6.4297239
  45.3506780  27.4196838   5.9764684  52.4007021  41.2233750   3.9711136
  51.6022267  40.9833250   4.2285004  52.8493033  41.2748143   4.7178183
  52.3481632  41.1956141   4.1196060  60.8051900  33.9896235  -2.1078833
  61.4668335  33.4286903  -2.2082924  60.1643312  33.4948265  -1.7826142
  60.8080768  33.8332644  -2.0746493  41.0217057  34.7710107   0.4900268
  40.8392630  34.7456993  -0.3627439  41.7566726  35.2409045   0.5289177
  41.1031121  34.8371469   0.3698187  57.0916731  35.0061617  -2.3666844
  57.3272320  35.1506816  -3.1939993  57.2406295  35.7704025  -1.9735330
  57.1482534  35.1400672  -2.4303240  44.0862809  31.4895110   6.9982377
  44.8102781  31.4748141   7.4847272  44.1878945  32.1990465   6.5004345
  44.2081018  31.5919813   6.9961164  51.4607758  34.9694195  11.8631324
  50.6680739  35.2837706  12.0483944  51.5756685  35.1845663  11.0252109
  51.3603169  35.0478031  11.7669659  54.1339077  31.6928186  -3.8473660
  54.2285931  32.4317480  -3.3934035  53.5097921  31.2645661  -3.4139096
  54.0548107  31.7389506  -3.7165513  52.3891551  34.8714398   6.8016621
  52.9630413  34.2341643   6.9565185  52.3106355  34.8718481   5.9326278
  52.4624786  34.7779510   6.6963032  40.9887967  31.6503608   0.6399335
  41.5661470  31.5140059   1.2791580  40.2902029  31.1939392   0.8944919
  40.9708989  31.5625874   0.7721625  47.7455269  33.3037664  -1.1462182
  47.4874514  32.4709398  -1.1730882  47.8003752  33.5295276  -1.9869681
  47.7155047  33.2135435  -1.2742045  52.8256320  25.4066114  -1.0458089
  52.1212646  24.9175300  -0.8874170  52.8741294  25.4188589  -1.9169645
  52.7286371  25.3355762  -1.1518749  46.7189982  30.8575426  -0.6597287
  46.1439573  31.0167594  -0.0233326  46.3425658  30.2210835  -1.1228837
  46.5792794  30.7873239  -0.6342729  50.3863270  29.3298775   4.1995091
  49.9977703  28.9052993   3.5447283  49.7217969  29.5780925   4.7072118
  50.2310198  29.3037496   4.1782959  54.2089632  23.0273404   1.7119076
  54.5900144  22.3451575   2.0986950  53.4052916  22.7383006   1.5294740
  54.1466094  22.8840453   1.7423131  57.7111699  36.2423376   6.8101474
  57.4750336  35.4111441   6.6913535  58.3554928  36.1908983   7.3956318
  57.7706369  36.1121064   6.8787368  47.3610117  37.0318897  -2.4755790
  47.9984064  36.7930645  -1.9303996  47.7865188  37.2356056  -3.2102629
  47.5186283  37.0269908  -2.5038632  42.0522759  39.2707234   1.4078514
  42.0926904  39.5422085   0.5798294  42.6117283  39.7949142   1.8236302
  42.1406105  39.3882989   1.3470402  48.1681472  25.5327602  11.5781684
  47.8534913  26.3027165  11.3151247  47.8471405  24.9697858  10.9933911
  48.0740391  25.5637871  11.4523034  58.7348119  36.0267825   2.8729768
  58.4293936  36.7595882   3.2343084  58.0154335  35.6205754   2.5922554
  58.5835462  36.0749558   2.8842906  49.7431589  37.5091320  -0.7962003
  49.8170597  37.3466492   0.0579847  50.5601095  37.6981509  -1.0401522
  49.8747947  37.5128062  -0.7063978  64.4349911  32.6660825   2.1998113
  64.3674412  32.6856785   1.3300699  64.4205574  33.5091153   2.4253783
  64.4228668  32.7934560   2.1050590  43.5037345  37.8549183  -3.7667560
  42.6775463  38.1010920  -3.8933281  43.5649337  37.7761264  -2.9005502
  43.3911512  37.8794132  -3.6578615  54.8446258  24.0695983   5.5239202
  55.5899850  23.8805794   5.1102628  54.4283563  24.5954221   4.9653058
  54.8931232  24.1198129   5.3803775  62.2208529  31.4405212   0.4744707
  62.7716450  30.8073281   0.7141799  62.2052644  31.9720604   1.1660211
  62.2993725  31.4254160   0.6123565  48.8730920  35.2743809   5.0204601
  48.3742613  35.9859577   5.0989489  49.6831144  35.5944475   4.9822763
  48.9187026  35.4270658   5.0261169  46.2242090  42.4493445  -2.9988380
  46.0042385  42.1590800  -2.2061713  46.0036612  41.7908400  -3.5270468
  46.1589684  42.3093154  -2.9599472  45.1359037  34.5366762  -0.7332679
  44.8472286  33.9104233  -0.1986951  46.0042385  34.4787049  -0.6667998
  45.2219289  34.4354306  -0.6441724  55.9236935  29.6801545  -0.4150697
  55.5801701  28.9591881  -0.0643447  56.0229978  29.4715396  -1.2572338
  55.8878978  29.5425749  -0.4879017  45.3391311  36.1762013  -4.8090314
  46.0937279  36.5575052  -4.5954851  44.7461923  36.6273157  -4.3543617
  45.3628024  36.2990840  -4.7107435  47.7997978  28.1324853  10.3166899
  46.9897753  28.4382633  10.2056741  48.2772664  28.8530436  10.4319483
  47.7501456  28.2839454  10.3173970  46.6589537  37.3470574   0.5649802
  46.1370291  37.4870866   1.2501667  47.0463558  36.5881239   0.7551919
  46.6393238  37.2556098   0.6950878  48.0855863  34.3774593  -4.0368707
  47.8898645  34.9849328  -4.6308404  48.3090208  33.6842537  -4.5177033
  48.0890504  34.3652119  -4.1952626  46.4834393  31.2629331  -3.9187839
  47.2057045  31.4270489  -4.3784033  46.0042386  31.9838996  -4.0248499
  46.5198124  31.3927561  -4.0022225  54.4427900  27.5993130   1.4608846
  53.6039001  27.6254409   1.2247109  54.5132268  28.2463865   2.0414193
  54.3296294  27.6989256   1.5117963  44.1342010  33.6687404   5.1866301
  44.6463106  33.9471657   4.5375061  43.8478352  34.4076698   5.5529114
  44.1676873  33.8189757   5.1456179  58.3185424  32.8061117  -1.2529912
  58.2319399  32.9616543  -0.3995133  57.8635904  33.4499192  -1.6270507
  58.2388681  32.9236872  -1.1822805  47.6525735  25.7613792   5.2467343
  47.4608932  25.7768927   6.0966766  48.5024331  25.9577467   5.2233998
  47.7501457  25.7928143   5.3690637  42.0372648  28.2904774   3.2251159
  41.8958140  27.4388714   3.3495667  42.3213211  28.3333434   2.4013365
  42.0580494  28.1704524   3.1218783  52.1911240  30.1271864  -2.6304353
  51.9445955  30.0467615  -1.7967564  52.5196363  29.3425332  -2.8241825
  52.2032484  29.9998129  -2.5356829  56.0859289  36.8355223   1.1582429
  55.9473648  37.5336269   1.6631171  55.3059287  36.6803880   0.8018610
  55.9502516  36.9155390   1.1808703  54.4237374  33.1351599   7.4104810
  54.4185413  32.2631415   7.4147237  55.1298368  33.3339768   6.9374266
  54.5282378  33.0355473   7.3411846  48.1508268  32.8628582   6.7818631
  48.2951643  33.4429791   6.1461741  48.4983916  33.2404879   7.4868485
  48.2235729  33.0049287   6.7917625  50.3228185  32.0618751   4.5643762
  49.5751499  32.2549765   4.1592040  50.4769710  31.2363970   4.3267883
  50.2350613  31.9683862   4.4689168  47.2236023  41.0531354   3.6479657
  47.3725586  40.4934270   2.9953062  48.0036025  41.1323356   4.0312176
  47.3610116  40.9816920   3.6076607  49.7489323  41.2245997   4.9264148
  49.6732994  40.5554808   5.4814936  49.6779182  41.9263785   5.4404814
  49.7269930  41.2290905   5.0840996  50.5629962  25.9569302   5.4539166
  51.0202576  26.6893276   5.5811958  50.6386291  25.5335767   6.2126422
  50.6420932  26.0026540   5.5840242  42.8062953  26.2035121   6.5428610
  42.2705143  25.5915479   6.8589377  42.8680718  26.7783257   7.1962276
  42.7358586  26.1982049   6.6864036  48.4412340  27.9471406   2.2980990
  47.6508415  27.7662866   2.6198326  48.8372963  27.1698358   2.2811284
  48.3829216  27.8058866   2.3433538  53.8256026  35.5813836   0.0240436
  53.1501028  35.3499068   0.5253823  53.8348402  34.9735019  -0.6017459
  53.7274531  35.4572761   0.0056588  50.9550170  30.4231665   6.7804489
  50.8909311  31.2841621   6.6524625  51.0947358  30.1063658   5.9800040
  50.9665640  30.5031831   6.6432702  49.6369264  33.1163804   0.9220692
  49.2131513  33.3168303   0.1859710  49.4614119  32.2692652   1.0344992
  49.5480145  33.0212585   0.8294382  49.1380958  44.6314317   3.3842149
  49.6276888  43.9325106   3.2017814  48.5665190  44.3338187   3.9718206
  49.1265487  44.4840541   3.4443190  51.4630854  32.9873739  -4.7757973
  52.0046399  32.4844120  -4.3119352  51.7777413  32.9338934  -5.5868487
  51.5895251  32.9053160  -4.8274160  55.3347961  37.1976386  12.3368940
  56.1482826  36.9261535  12.4974072  55.1742927  36.8983926  11.5329136
  55.4317910  37.1131312  12.2414346  52.6120123  27.8810044   5.2764328
  52.8262093  27.2420958   4.7227682  51.9954022  28.3255867   4.8472190
  52.5525452  27.8520187   5.1314759  41.4985971  30.7950806  -3.3290569
  41.8784935  31.2135351  -3.9930301  40.9241335  31.3764262  -3.0221725
  41.4697295  30.9428665  -3.3813828  54.7759211  29.4899109   6.2147635
  53.9635893  29.1824999   6.2960808  55.2349146  29.0098109   6.7790347
  54.7239596  29.3735601   6.3102229  52.0034852  20.9909979   0.2651671
  51.1328410  20.9648700   0.2184980  52.2575193  20.8187171  -0.5522484
  51.9128412  20.9620123   0.1371807  51.8712719  30.8959180  10.9976337
  52.3412350  31.5201297  11.3844211  51.9174599  30.2276156  11.5569552
  51.9480594  30.8893860  11.1376409  49.0283992  23.0016208   1.7225141
  48.5122481  22.3096399   1.8476720  48.4677921  23.6686985   1.6687740
  48.8690505  22.9979465   1.7331207  51.0976226  23.5409168   3.5517994
  50.7107979  23.5658199   4.3331524  50.6109163  22.9750846   3.0992510
  50.9688735  23.4604919   3.6005897  55.3469205  38.2582677   7.6091780
  55.9848926  37.7642872   7.2754236  54.7043297  38.1860077   7.0244007
  55.3463432  38.1741685   7.4734135  57.0726205  30.1071823   2.1757696
  56.6453813  30.0198171   1.4205795  56.4352258  30.2149598   2.7612540
  56.9155812  30.1104482   2.1503137  50.7633367  20.4276153   5.8428254
  51.3926485  20.9636453   5.5649324  50.9319230  20.3353512   6.6941819
  50.8811162  20.4937515   5.9276782  50.5647282  25.2147348   8.1154665
  51.3920712  24.9432497   8.1713280  50.5855128  26.0108190   8.4718483
  50.6900132  25.2927102   8.1769848  55.4023462  38.9502485   4.2497137
  56.1915840  38.5991550   4.3699219  55.5767059  39.7638873   3.9873771
  55.5443743  39.0188342   4.2285005  45.1416772  32.3611211   1.3024926
  44.3004779  32.2615085   1.5103820  45.3506780  33.1306691   1.6539246
  45.0481465  32.4603254   1.3852241  42.6192339  29.9830748  -0.8690324
  42.2249037  30.0573759  -1.6440214  42.0632456  30.3688694  -0.3181962
  42.4795151  30.0512522  -0.9022664  54.2557286  22.9612042  -1.1886445
  54.4606879  22.8934349  -0.3429447  53.9283710  23.7670863  -1.2565267
  54.2372534  23.0697982  -1.0726789  48.9533437  30.2892610   0.5522523
  48.6496574  29.7348598   1.1532931  48.2512858  30.4684820   0.0650558
  48.8049647  30.2337392   0.5692229  47.0151788  37.5042331   5.2594621
  46.9072143  37.5144393   6.1256679  47.2247569  38.3297111   5.0699575
  47.0301899  37.6283405   5.3598713  45.0325580  34.7554973   2.7216559
  44.4413513  35.3964471   2.6919574  45.7946603  35.1792590   2.6947858
  45.0573841  34.9130811   2.7131706  45.4286203  25.9156971   3.3884576
  45.8887684  25.9895900   4.1259700  45.4742309  26.7138225   3.0384398
  45.5036758  26.0451118   3.4457333  47.0769552  26.5823666   7.9556603
  46.6855118  25.9357013   8.3912381  47.2455415  27.1735101   8.5750859
  47.0440463  26.5737933   8.1119309  61.1516001  34.5860743   3.7193837
  61.2099125  35.0347391   4.4653813  60.5182469  34.9959555   3.2823917
  61.0667297  34.7134477   3.7646385  54.7915096  40.2064285   0.1548583
  54.5934785  40.6955099  -0.5395206  54.1702807  40.4105526   0.7332717
  54.6702661  40.3080823   0.1371806  48.8523075  31.9749181  -5.5041173
  49.5965119  32.3623458  -5.2658223  48.9983771  31.1306607  -5.3400685
  48.9833660  31.9079654  -5.4447203  50.7702650  23.7699440  -0.4709311
  49.9238695  23.9422248  -0.5967961  50.7673782  22.9648784  -0.1343483
  50.6449800  23.6760469  -0.4398184  51.8400950  27.5474655   0.3952747
  51.3660905  27.0216417   0.9058058  52.2119086  27.0004128  -0.1732392
  51.8250839  27.3890651   0.3867894  42.2173981  29.5446161   5.7636293
  43.0799594  29.4441871   5.6773622  41.8865764  28.9640871   5.2021865
  42.2959177  29.4437788   5.6681698  58.1037681  32.6077030   1.8059527
  57.8635904  31.7683445   1.8101954  58.5829688  32.6877197   2.5300301
  58.1389865  32.4958430   1.9134330  60.1042868  29.3878488  -0.2411214
  59.8652638  29.3474322  -1.0790429  60.2676769  30.2349640  -0.1145493
  60.0933171  29.5070573  -0.3457732  56.7088898  33.7728437   5.6893832
  57.4323097  33.3200963   5.5104851  56.4438860  34.0533103   4.9066159
  56.7770171  33.7479405   5.5472547  45.5775767  28.3688610   2.4246711
  44.9528837  28.3807002   1.8172663  45.2421361  28.8448786   3.0737951
  45.4361258  28.4407127   2.4303279  42.2901442  36.4289070   3.8650475
  41.7601367  35.7381509   3.9145450  42.5626535  36.4199256   3.0363184
  42.2526164  36.3256202   3.7497891  52.4907688  33.8712315   3.8388847
  51.8764681  33.3270365   4.1337482  53.0074973  33.3576552   3.3594663
  52.4763350  33.7148724   3.8113075  51.7303985  34.9416585   1.5733145
  51.3031593  34.3166304   1.1398581  51.7228929  34.6591507   2.3992152
  51.6663126  34.8069366   1.6312973  44.8466512  29.9781758   4.6421579
  45.0059999  29.2225082   5.0473301  44.6659405  30.5272698   5.2962317
  44.8431871  29.9475572   4.7984285  52.7886815  22.1442994   5.1972369
  52.2927376  22.3406668   4.5063935  53.5455877  22.5435662   5.0261170
  52.8273640  22.2320728   5.0692505  50.0589694  25.8185340   1.7875679
  50.0832182  25.2845452   1.0988459  50.3101168  25.3102648   2.4501270
  50.0999613  25.6646244   1.7840324  37.5697284  33.1016835   1.2218823
  37.4640733  33.0563679   0.3570907  36.8197504  33.4470615   1.5033108
  37.4432887  33.1457743   1.1356153  46.3391017  24.5456158   1.1681424
  46.3789388  25.0465364   1.8816131  45.5140681  24.6366552   0.8987347
  46.2230543  24.6337974   1.2331962  48.5220630  34.1116898   9.2701718
  47.6716260  34.2488612   9.4059363  48.6848757  33.3780676   9.7149420
  48.4204493  34.0230999   9.3557317  47.7605380  31.0616668   3.4655323
  46.9297310  31.2290486   3.2590571  47.7056897  30.6852619   4.2504208
  47.6294795  31.0306399   3.5503851  45.5689163  24.5525561   9.1011733
  46.1941867  24.0087693   9.3741166  45.1139643  24.0720478   8.5319524
  45.5937424  24.4015042   9.0573327  59.1424212  32.7354848   4.1924381
  59.7342052  33.3752098   4.2242579  59.5783207  32.0377884   4.4816448
  59.2942643  32.7273198   4.2405214  50.9717602  37.1572220   4.8182275
  50.4642693  37.7108067   5.2622906  50.6744248  37.2180510   4.0001050
  50.8522487  37.2478531   4.7630732  53.1379784  25.5225540   3.6606938
  53.5634856  25.0698066   3.0490465  52.5236777  24.9685610   3.9371726
  53.1108430  25.3739516   3.6111963  56.1673353  29.9500066  -3.5072476
  55.4964543  30.4929769  -3.6359411  56.8613104  30.4194922  -3.7490781
  56.1702221  30.0998338  -3.5616948  50.2160087  42.0896778   1.7239282
  49.9925742  41.3315608   2.0923308  49.7269930  42.1194799   1.0019722
  50.1103536  41.9819003   1.6716023  56.3301481  26.4055950  -0.5982103
  56.6829091  25.9785673   0.0763696  55.4716282  26.3206793  -0.4681027
  56.2550926  26.3300691  -0.4787093  45.0285166  29.0363470  -2.5399256
  44.3097155  29.4527602  -2.2726393  45.3997528  29.6017708  -3.0907618
  44.9777098  29.1812751  -2.5816449  54.3284747  29.6691319   3.3502739
  54.3082674  29.4874614   4.2037518  54.3763947  30.5403337   3.3262323
  54.3319388  29.7707857   3.4726034  52.2731077  36.2578511   9.2751216
  52.2326931  35.6128187   8.6896372  53.0854395  36.2015128   9.5876628
  52.3874230  36.1537477   9.2348165  48.8638544  42.3097236  -0.8223633
  48.4498943  41.6471367  -1.2119792  49.5485918  42.4575095  -1.3427939
  48.9036916  42.2337895  -0.9567136  52.2303838  41.4687322  -0.0700017
  51.8320121  41.5789592  -0.8379196  51.6155058  41.6769388   0.5126543
  52.0802728  41.5160890  -0.0968717  53.6789557  28.0340974  -3.7724127
  53.4503250  28.0573675  -4.6145769  53.9387633  27.2098441  -3.6529116
  53.6835745  27.9157054  -3.8798929  47.9608785  29.8875447   5.8300973
  47.4487688  29.2796630   6.1886005  47.7888281  30.6032040   6.2974949
  47.8598422  29.9038746   5.9517197  42.8074500  28.3313022   8.4803335
  42.6377090  28.9914397   7.9351542  42.3640450  28.5419584   9.2015824
  42.7173834  28.4599004   8.5064965  46.7334319  26.5717520  -2.4769931
  47.2091686  26.9334600  -3.1119750  46.2322919  27.2273988  -2.1969788
  46.7299678  26.7211709  -2.5293190  51.8377856  27.8099692   8.2703229
  52.3949286  27.5813501   7.6381694  51.5138921  28.5705357   7.9938441
  51.8724266  27.8883528   8.1359726  39.7076565  31.2359888   3.7391825
  39.1603284  30.5660533   3.8572693  40.4968943  30.8689736   3.8035292
  39.7428748  31.0824874   3.7660526  49.5560973  30.8967345   9.2355236
  50.3072300  31.2119022   9.5494790  49.7483549  30.6946516   8.4089158
  49.6952387  30.9134727   9.1598632  38.4663534  30.4480696   0.8937848
  38.2885295  29.9957305   1.6192764  38.1782556  31.2506857   1.0776326
  38.3976487  30.5003254   1.0281351  54.1287115  31.7038413   0.1315238
  54.6240780  30.9861408   0.0919259  53.3186891  31.4009211   0.0169725
  54.0831008  31.5536059   0.1088964  40.2036004  32.9808419  -1.9940393
  39.3381523  32.9694110  -2.1057622  40.3034820  32.7938642  -1.1469254
  40.0910171  32.9514481  -1.8851448  56.1938934  34.4542101   2.8192367
  56.6194006  33.9316522   2.2662792  55.8295854  35.0522938   2.2980990
  56.2025537  34.4652328   2.6601377  45.8293014  42.7506318   1.5789713
  46.1439573  43.5642707   1.5867494  46.2386427  42.3656537   2.2471872
  45.9361112  42.8135020   1.6793804  52.7817533  38.1676365  -0.8506475
  53.2528712  38.8816627  -0.6816490  53.1177712  37.5675115  -0.3146606
  52.9012648  38.1847829  -0.7474099  54.8694518  39.7777678  11.3285597
  54.9791483  38.9886239  11.6842344  55.1985415  39.6883614  10.5259935
  54.9346924  39.6483531  11.2627987  49.6987028  22.9403835   6.1051619
  49.8314934  22.1434829   6.4332595  50.0832181  23.4670238   6.6849895
  49.7743357  22.9003752   6.2395122  53.4191480  37.9594299   5.9121217
  52.8712426  37.3352183   5.6441283  53.8804508  38.1488571   5.1965297
  53.4058689  37.8953349   5.7671648  52.7719384  19.8634162   2.7032713
  51.9665347  19.7531891   3.0200551  52.6426119  19.9646617   1.8462578
  52.6339516  19.8617832   2.6240753  56.2285344  26.0279653   3.2972410
  55.6448333  26.5288860   2.8849977  56.5489638  25.5209210   2.6636733
  56.1898519  26.0271488   3.1430917  47.3575475  22.9363011   4.3529513
  47.9019888  22.5954137   4.9433855  47.4112411  23.7948472   4.4950798
  47.4464595  23.0118270   4.4611387  43.1706034  36.6979427   1.2268321
  43.7750891  36.6575261   0.5982142  42.9633346  37.5450579   1.2572377
  43.2294931  36.8167429   1.1384438  52.9849806  38.9645372   2.4430558
  53.8048180  38.8208338   2.7046854  52.7043884  39.5891571   2.9846996
  53.0646549  39.0355724   2.5618498  38.4057316  35.6814044   1.0967244
  38.3081594  34.8710316   1.4057301  39.1886186  35.6605837   0.7113512
  38.5073453  35.5581134   1.0854107  54.1144169  43.4473002   0.7163011
  53.4949201  42.8565649   0.5473025  54.0128032  44.0384437   0.0827334
  54.0081844  43.4477084   0.5968000  53.8413302  46.9925283   2.9606580
  53.7171999  47.5787729   3.5956399  54.4931586  46.4985479   3.2618855
  53.9186951  47.0064088   3.0992509  57.2794510  46.9104705   8.3735604
  57.4515014  46.8010599   9.2220885  57.8163867  47.5559110   8.1366796
  57.3839514  46.9896706   8.4640701  63.2169211  54.8308956  10.3244680
  64.0009628  54.9439803  10.6900422  63.0165806  54.0050093  10.5203366
  63.3035237  54.7255675  10.4079066  51.5856227  49.5036636   3.2088524
  51.3194642  48.6875752   3.3679514  51.5994791  49.5489791   2.3384040
  51.5480949  49.3893540   3.1042006  56.3354833  43.0415014   5.8555532
  55.6426630  42.5711994   6.1016263  56.9515161  42.8153318   6.4297239
  56.3239363  42.9382146   5.9764684  55.0595392  47.0080418   6.9982377
  55.7835365  46.9933449   7.4847272  55.1611529  47.7175773   6.5004345
  55.1813601  47.1105121   6.9961164  62.4340342  50.4879503  11.8631324
  61.6413322  50.8023014  12.0483944  62.5489269  50.7030971  11.0252109
  62.3335752  50.5663339  11.7669659  61.3595854  44.8484083   4.1995091
  60.9710287  44.4238301   3.5447283  60.6950552  45.0966233   4.7072118
  61.2042782  44.8222804   4.1782959  65.1822215  38.5458712   1.7119076
  65.5632727  37.8636883   2.0986950  64.3785500  38.2568314   1.5294740
  65.1198677  38.4025760   1.7423131  59.1414056  41.0512910  11.5781684
  58.8267497  41.8212473  11.3151247  58.8203988  40.4883166  10.9933911
  59.0472975  41.0823179  11.4523034  65.8178841  39.5881291   5.5239202
  66.5632434  39.3991101   5.1102628  65.4016146  40.1139529   4.9653058
  65.8663816  39.6383436   5.3803775  58.7730561  43.6510161  10.3166899
  57.9630337  43.9567941  10.2056741  59.2505248  44.3715744  10.4319483
  58.7234040  43.8024762  10.3173970  55.1074593  49.1872712   5.1866301
  55.6195690  49.4656965   4.5375061  54.8210936  49.9262006   5.5529114
  55.1409456  49.3375065   5.1456179  58.6258318  41.2799100   5.2467343
  58.4341516  41.2954235   6.0966766  59.4756914  41.4762774   5.2233998
  58.7234040  41.3113451   5.3690637  53.0105231  43.8090082   3.2251159
  52.8690723  42.9574022   3.3495667  53.2945795  43.8518742   2.4013365
  53.0313078  43.6889832   3.1218783  59.1240851  48.3813890   6.7818631
  59.2684227  48.9615099   6.1461741  59.4716500  48.7590187   7.4868485
  59.1968313  48.5234594   6.7917625  61.5362546  41.4754610   5.4539166
  61.9935160  42.2078584   5.5811958  61.6118874  41.0521075   6.2126422
  61.6153515  41.5211848   5.5840242  53.7795537  41.7220429   6.5428610
  53.2437726  41.1100787   6.8589377  53.8413301  42.2968565   7.1962276
  53.7091169  41.7167357   6.6864036  59.4144923  43.4656713   2.2980990
  58.6240998  43.2848174   2.6198326  59.8105546  42.6883666   2.2811284
  59.3561800  43.3244174   2.3433538  61.9282754  45.9416973   6.7804489
  61.8641895  46.8026929   6.6524625  62.0679941  45.6248966   5.9800040
  61.9398224  46.0217139   6.6432702  66.3080545  52.7161694  12.3368940
  67.1215410  52.4446843  12.4974072  66.1475511  52.4169234  11.5329136
  66.4050493  52.6316620  12.2414346  63.5852707  43.3995351   5.2764328
  63.7994676  42.7606266   4.7227682  62.9686606  43.8441175   4.8472190
  63.5258036  43.3705495   5.1314759  65.7491795  45.0084417   6.2147635
  64.9368476  44.7010307   6.2960808  66.2081729  44.5283417   6.7790347
  65.6972179  44.8920909   6.3102229  62.9767435  36.5095287   0.2651671
  62.1060993  36.4834008   0.2184980  63.2307777  36.3372479  -0.5522484
  62.8860995  36.4805431   0.1371807  62.8445302  46.4144488  10.9976337
  63.3144933  47.0386604  11.3844211  62.8907182  45.7461464  11.5569552
  62.9213178  46.4079168  11.1376409  60.0016576  38.5201516   1.7225141
  59.4855064  37.8281707   1.8476720  59.4410505  39.1872293   1.6687740
  59.8423089  38.5164773   1.7331207  62.0708809  39.0594476   3.5517994
  61.6840562  39.0843507   4.3331524  61.5841746  38.4936154   3.0992510
  61.9421318  38.9790226   3.6005897  61.7365951  35.9461461   5.8428254
  62.3659069  36.4821761   5.5649324  61.9051814  35.8538820   6.6941819
  61.8543745  36.0122823   5.9276782  61.5379866  40.7332656   8.1154665
  62.3653295  40.4617805   8.1713280  61.5587712  41.5293497   8.4718483
  61.6632716  40.8112410   8.1769848  56.4018786  41.4342279   3.3884576
  56.8620268  41.5081208   4.1259700  56.4474893  42.2323533   3.0384398
  56.4769342  41.5636426   3.4457333  58.0502136  42.1008974   7.9556603
  57.6587701  41.4542321   8.3912381  58.2187999  42.6920409   8.5750859
  58.0173046  42.0923241   8.1119309  53.1906564  45.0631469   5.7636293
  54.0532177  44.9627179   5.6773622  52.8598347  44.4826179   5.2021865
  53.2691760  44.9623096   5.6681698  56.5508350  43.8873918   2.4246711
  55.9261420  43.8992310   1.8172663  56.2153945  44.3634093   3.0737951
  56.4093842  43.9592435   2.4303279  55.8199095  45.4967066   4.6421579
  55.9792582  44.7410390   5.0473301  55.6391989  46.0458006   5.2962317
  55.8164454  45.4660880   4.7984285  63.7619398  37.6628302   5.1972369
  63.2659960  37.8591976   4.5063935  64.5188460  38.0620970   5.0261170
  63.8006223  37.7506035   5.0692505  61.0322278  41.3370648   1.7875679
  61.0564765  40.8030760   1.0988459  61.2833752  40.8287956   2.4501270
  61.0732197  41.1831552   1.7840324  48.5429868  48.6202143   1.2218823
  48.4373317  48.5748987   0.3570907  47.7930088  48.9655923   1.5033108
  48.4165471  48.6643051   1.1356153  57.3123600  40.0641466   1.1681424
  57.3521972  40.5650672   1.8816131  56.4873265  40.1551860   0.8987347
  57.1963126  40.1523282   1.2331962  59.4953213  49.6302206   9.2701718
  58.6448844  49.7673920   9.4059363  59.6581341  48.8965984   9.7149420
  59.3937077  49.5416307   9.3557317  58.7337964  46.5801976   3.4655323
  57.9029893  46.7475794   3.2590571  58.6789481  46.2037926   4.2504208
  58.6027379  46.5491707   3.5503851  56.5421747  40.0710869   9.1011733
  57.1674450  39.5273001   9.3741166  56.0872227  39.5905786   8.5319524
  56.5670008  39.9200350   9.0573327  64.1112368  41.0410848   3.6606938
  64.5367439  40.5883374   3.0490465  63.4969361  40.4870918   3.9371726
  64.0841013  40.8924824   3.6111963  63.2463660  51.7763818   9.2751216
  63.2059515  51.1313495   8.6896372  64.0586978  51.7200436   9.5876628
  63.3606814  51.6722785   9.2348165  58.9341369  45.4060755   5.8300973
  58.4220272  44.7981938   6.1886005  58.7620865  46.1217348   6.2974949
  58.8331006  45.4224054   5.9517197  53.7807084  43.8498330   8.4803335
  53.6109674  44.5099705   7.9351542  53.3373033  44.0604892   9.2015824
  53.6906417  43.9784312   8.5064965  62.8110439  43.3285000   8.2703229
  63.3681869  43.0998809   7.6381694  62.4871504  44.0890665   7.9938441
  62.8456849  43.4068836   8.1359726  50.6809148  46.7545196   3.7391825
  50.1335868  46.0845841   3.8572693  51.4701526  46.3875044   3.8035292
  50.7161332  46.6010182   3.7660526  60.5293556  46.4152653   9.2355236
  61.2804883  46.7304330   9.5494790  60.7216133  46.2131824   8.4089158
  60.6684971  46.4320035   9.1598632  49.4396118  45.9666004   0.8937848
  49.2617879  45.5142613   1.6192764  49.1515140  46.7692165   1.0776326
  49.3709071  46.0188561   1.0281351  60.6719612  38.4589143   6.1051619
  60.8047518  37.6620137   6.4332595  61.0564765  38.9855546   6.6849895
  60.7475941  38.4189060   6.2395122  63.7451967  35.3819470   2.7032713
  62.9397931  35.2717199   3.0200551  63.6158703  35.4831925   1.8462578
  63.6072100  35.3803140   2.6240753  58.3308059  38.4548318   4.3529513
  58.8752472  38.1139445   4.9433855  58.3844994  39.3133780   4.4950798
  58.4197178  38.5303578   4.4611387   2.0532896  58.9026801  36.3011579
   1.7386337  59.5930279  36.7332001   1.5359838  58.8471583  35.5997080
   1.9297366  58.9961689  36.2608528   6.3447341  67.1248007  41.5832455
   5.5075762  67.1950194  41.8180050   6.3135572  67.1272502  40.7106758
   6.2165623  67.1358234  41.4892003   4.0255181  62.1890788  40.1676178
   4.6681089  62.2588893  40.7538093   4.2778201  61.5220011  39.6655720
   4.1577313  62.1017137  40.1803457   6.4636683  66.9635426  35.8988141
   6.2073248  66.1515367  35.7086024   7.3065997  66.9712993  35.6718329
   6.5502708  66.8447423  35.8372958   1.2796401  61.9457629  44.4484422
   2.0249994  61.7567439  44.0347848   0.8633706  62.4715867  43.8898278
   1.3281376  61.9959774  44.3048995   8.6558672  69.3166857  39.3989927
   9.2066594  68.6834926  39.6387019   8.6402788  69.8482250  40.0905431
   8.7343869  69.3015806  39.5368785   2.3587079  67.5563191  38.5094523
   2.0151844  66.8353526  38.8601773   2.4580121  67.3477042  37.6672882
   2.3229121  67.4187394  38.4366203   1.4707431  57.0120823  38.2478229
   1.5891000  57.4697286  37.5145531   1.2969607  56.2066084  37.9614446
   1.4626602  56.9614595  38.0979162   3.9441117  61.3905452  37.2161541
   3.3315431  61.8775854  37.6015273   4.0405292  60.7148943  37.7599192
   3.8679015  61.3623760  37.3540399   6.5393012  67.2640133  38.6834006
   6.3002782  67.2235967  37.8454791   6.7026913  68.1111285  38.8099727
   6.5283315  67.3832218  38.5787488   2.7651625  64.2817596  38.3263117
   3.1179235  63.8547319  39.0008916   1.9066426  64.1968439  38.4564193
   2.6901069  64.2062336  38.4458127   4.1975685  59.4036008  39.2547429
   3.6906549  58.6965147  39.1868607   4.9943118  59.0729196  39.3848506
   4.2402924  59.2509159  39.2646424   2.8396407  64.9002557  35.4024252
   2.8390633  64.7451214  36.2608528   2.6352587  65.7465544  35.3465637
   2.8096184  65.0023178  35.5212191   2.6635488  63.9041299  42.2217630
   2.0798476  64.4050506  41.8095197   2.9839782  63.3970855  41.5881953
   2.6248663  63.9033134  42.0676137   4.6131840  45.9164692  21.2658702
   4.5825845  46.7709329  21.4376971   5.2113189  45.6159985  21.8244845
   4.6968998  45.9981189  21.3733504   1.1225242  51.2726869  35.6272088
   1.8292009  50.7778900  35.7559023   1.3113177  51.7135951  34.8974746
   1.2553147  51.2645219  35.5381134   2.4348415  48.4916994  19.5377012
   2.3187941  49.2424681  19.9669150   3.2304302  48.2340948  19.7873099
   2.5353004  48.5651841  19.6381103   1.7483720  35.8404932  23.2351626
   1.4337161  36.5308411  23.6672048   1.2310661  35.7849714  22.5337127
   1.6248190  35.9339821  23.1948575   6.5444207  51.4155737  24.7222081
   5.7141910  51.6266381  24.8855497   6.4953459  50.5892792  24.4464365
   6.4150942  51.3245344  24.7059446   6.0398165  44.0626138  28.5172502
   5.2026586  44.1328325  28.7520097   6.0086396  44.0650633  27.6446805
   5.9116447  44.0736365  28.4232050   0.7628351  48.2581815  24.1084394
   1.5185866  48.6913329  24.1473302   0.8690675  47.6086584  24.6819030
   0.8898521  48.2259298  24.1982419   3.8008522  52.0855092  24.8586797
   3.3643754  52.0891834  25.6145768   3.4671437  52.7660591  24.4266374
   3.6871142  52.1867548  24.9067629   3.7206005  39.1268920  27.1016225
   4.3631913  39.1967024  27.6878140   3.9729025  38.4598143  26.5995767
   3.8528137  39.0395268  27.1143504   6.9352868  48.8036012  23.7506434
   7.5969302  48.2426680  23.6502342   6.2944280  48.3088042  24.0759125
   6.9381735  48.6472421  23.7838774   3.2217699  49.8201394  23.4918423
   3.4573288  49.9646593  22.6645273   3.3707262  50.5843802  23.8849936
   3.2783502  49.9540449  23.4282027   5.0508155  48.6603060  21.3288027
   5.3816372  49.1930700  20.7228121   5.6241244  48.7141948  21.9849978
   5.1841835  48.7472629  21.3365808   6.1587507  43.9013557  22.8328188
   5.9024072  43.0893498  22.6426071   7.0016821  43.9091124  22.6058375
   6.2453532  43.7825554  22.7713005   3.8412666  51.0563153  32.6686741
   3.6051304  50.2251218  32.5498801   4.4855895  51.0048760  33.2541585
   3.9007337  50.9260841  32.7372634   4.8649087  50.8407602  28.7315035
   4.5594904  51.5735659  29.0928351   4.1455302  50.4345531  28.4507821
   4.7136429  50.8889335  28.7428172  10.5650879  47.4800602  28.0583379
  10.4975379  47.4996562  27.1885966  10.5506541  48.3230930  28.2839050
  10.5529635  47.6074337  27.9635856   8.3509496  46.2544989  26.3329974
   8.9017418  45.6213058  26.5727066   8.3353612  46.7860381  27.0245478
   8.4294693  46.2393937  26.4708832   2.0537903  44.4941322  25.4434570
   1.7102668  43.7731657  25.7941820   2.1530945  44.2855173  24.6012928
   2.0179945  44.3565526  25.3706250   2.5150932  50.9567026  20.9858558
   3.0808964  51.6160236  20.9017101   1.8678835  51.3016724  21.4574960
   2.5029688  51.1048968  21.0431315   4.4486392  47.6200894  24.6055355
   4.3620366  47.7756320  25.4590134   3.9936872  48.2638969  24.2314760
   4.3689648  47.7376649  24.6762462   2.2160257  51.6495000  27.0167696
   2.0774616  52.3476046  27.5216438   1.4360255  51.4943657  26.6603877
   2.0803484  51.7295167  27.0393970   3.7113629  51.0073254  17.7784195
   3.3320438  50.2210392  17.7713484   3.0479875  51.5560111  17.6355839
   3.5572104  50.9718078  17.7564992   1.1658255  33.9498954  25.1818276
   1.2841824  34.4075417  24.4485578   0.9920431  33.1444215  24.8954493
   1.1577426  33.8992726  25.0319209   1.9573728  53.2518745  18.1135881
   2.0393566  54.0585731  17.7897331   2.4423470  53.2714704  18.8376654
   2.0410886  53.3739407  18.1722779   1.4648929  52.0116163  38.1954206
   2.2783794  51.7401312  38.3559339   1.3043895  51.7123703  37.3914402
   1.5618877  51.9271089  38.0999612   1.4770173  53.0722454  33.4677047
   2.1149893  52.5782649  33.1339503   0.8344264  52.9999854  32.8829274
   1.4764399  52.9881462  33.3319402   3.2027173  44.9211600  28.0342963
   2.7754781  44.8337948  27.2791062   2.5653226  45.0289375  28.6197807
   3.0456780  44.9244259  28.0088404   1.5324429  53.7642262  30.1082404
   2.3216807  53.4131327  30.2284485   1.7068027  54.5778650  29.8459038
   1.6744711  53.8328119  30.0870272   3.6391941  38.3283583  24.1501588
   3.0266255  38.8153985  24.5355320   3.7356116  37.6527074  24.6939239
   3.5629839  38.3001892  24.2880446   7.2816969  49.4000520  29.5779104
   7.3400093  49.8487168  30.3239080   6.6483437  49.8099332  29.1409184
   7.1968264  49.5274254  29.6231652   4.2338648  47.4216807  27.6644794
   3.9936871  46.5823222  27.6687221   4.7130656  47.5016974  28.3885568
   4.2690832  47.3098207  27.7719596   6.2343836  44.2018265  25.6174053
   5.9953605  44.1614099  24.7794838   6.3977737  45.0489417  25.7439774
   6.2234139  44.3210350  25.5127535   2.8389866  48.5868214  31.5479098
   3.5624065  48.1340740  31.3690118   2.5739828  48.8672880  30.7651426
   2.9071139  48.5619182  31.4057814   5.2725180  47.5494625  30.0509648
   5.8643020  48.1891875  30.0827846   5.7084174  46.8517661  30.3401715
   5.4243611  47.5412975  30.0990481   2.2974321  44.7639843  22.3512791
   1.6265511  45.3069546  22.2225856   2.9914071  45.2334699  22.1094485
   2.3003188  44.9138115  22.2968318   2.4602448  41.2195727  25.2603164
   2.8130059  40.7925450  25.9348963   1.6017250  41.1346570  25.3904240
   2.3851893  41.1440468  25.3798174   3.8926509  36.3414139  26.1887476
   3.3857373  35.6343278  26.1208654   4.6893942  36.0107328  26.3188553
   3.9353748  36.1887290  26.1986471   6.0946648  50.8579065  19.1728341
   6.4780254  51.6070422  19.4026438   5.2990762  51.1044885  18.9140330
   6.0340431  51.0048759  19.1685914   2.5347231  41.8380688  22.3364298
   2.5341457  41.6829345  23.1948575   2.3303411  42.6843675  22.2805684
   2.5047008  41.9401309  22.4552238   2.3239901  49.2681878  28.6777634
   2.7494973  48.7456299  28.1248059   1.9596821  49.8662715  28.1566257
   2.3326504  49.2792105  28.5186644   0.9995486  54.5917455  37.1870864
   1.1092451  53.8026016  37.5427611   1.3286382  54.5023391  36.3845202
   1.0647891  54.4623308  37.1213254   2.3586312  40.8419430  29.1557676
   1.7749300  41.3428637  28.7435244   2.6790606  40.3348987  28.5222000
   2.3199487  40.8411265  29.0016184  15.5864424  61.4350000  21.2658702
  15.5558428  62.2894637  21.4376971  16.1845773  61.1345293  21.8244845
  15.6701582  61.5166497  21.3733504   8.7864109  60.5225651  26.0211632
   7.9302004  60.6834150  26.0720749   8.8331762  59.6517715  26.0416693
   8.6663220  60.4176453  26.0317698  12.0957825  66.7912177  35.6272088
  12.8024593  66.2964208  35.7559023  12.2845761  67.2321259  34.8974746
  12.2285731  66.7830527  35.5381134  11.6315930  62.5817695  28.6643284
  12.1771890  63.2602782  28.7237253  11.5732806  62.4405156  27.8044865
  11.7031844  62.6609697  28.5455344  13.4080998  64.0102302  19.5377012
  13.2920524  64.7609989  19.9669150  14.2036885  63.7526256  19.7873099
  13.5085588  64.0837149  19.6381103   7.3413032  60.0012320  20.9080741
   8.0393197  60.1800448  21.4002204   7.6565365  59.4782660  20.2851130
   7.4908369  59.9506093  20.8882751   7.5300967  66.3882765  20.8960532
   7.9694603  65.7799866  21.3415305   7.3805630  66.0090139  20.1245997
   7.5722433  66.2421237  20.8479699   4.9972610  64.9826777  28.0979358
   5.6421613  64.4899220  27.7790306   5.2374387  65.1251564  28.9245436
   5.1283196  64.9304219  28.1728891   7.5358702  67.8281683  27.7486250
   7.8181945  67.0333089  27.5273006   8.2644862  68.3062271  27.7691311
   7.6848265  67.7816280  27.7189265   5.5139896  55.3704717  24.9902015
   5.1843226  55.8215861  24.3205714   4.8384897  55.2920880  25.5375022
   5.3650332  55.4255852  24.9725239  11.1310304  64.7409947  17.8491301
  11.0461599  65.5970913  17.9940870  11.6194687  64.4654271  18.5173460
  11.1899201  64.8267268  17.9693383  12.7216303  51.3590240  23.2351626
  12.4069744  52.0493719  23.6672048  12.2043245  51.3035022  22.5337127
  12.5980774  51.4525129  23.1948575  12.0628737  61.3594741  19.3489036
  11.5340209  61.5754374  20.0086343  12.5853757  62.0530879  19.2690006
  12.0617190  61.4937878  19.4344636  17.5176790  66.9341045  24.7222081
  16.6874493  67.1451689  24.8855497  17.4686042  66.1078100  24.4464365
  17.3883526  66.8430652  24.7059446   9.2350120  70.2139714  33.5186163
   9.3233465  70.0265854  34.3664374   9.6639832  69.5677143  33.1191010
   9.3112222  70.0902721  33.5857915   8.4105559  61.5023610  16.6265425
   8.6501563  61.7101593  15.8140768   8.7321400  60.6981118  16.7354370
   8.4942717  61.4137711  16.5225978   3.7195850  53.4317005  20.4724963
   4.4741818  53.7995323  20.2342013   3.5423384  53.8056560  21.2404143
   3.8050328  53.5415193  20.5509851  17.0130748  59.5811446  28.5172502
  16.1759169  59.6513633  28.7520097  16.9818979  59.5835941  27.6446805
  16.8849031  59.5921673  28.4232050   2.0752914  55.8387324  17.1703076
   1.8928488  56.0559205  16.3444069   2.9378527  55.9526337  17.2261690
   2.1757504  55.8877222  17.0557563   7.7552634  52.8413735  20.2052100
   8.4838794  52.6629690  19.7590256   7.8447526  53.6831815  20.4159278
   7.8759296  52.9397614  20.1705617  11.7360934  63.7767123  24.1084394
  12.4918449  64.2098637  24.1473302  11.8423259  63.1271892  24.6819030
  11.8631105  63.7444606  24.1982419  14.7741105  67.6040400  24.8586797
  14.3376337  67.6077142  25.6145768  14.4404021  68.2845899  24.4266374
  14.6603725  67.7052856  24.9067629   9.3470179  69.6448733  36.1829947
  10.1310596  69.7579580  36.5485689   9.1466773  68.8189870  36.3788633
   9.4336204  69.5395452  36.2664333  14.6938588  54.6454228  27.1016225
  15.3364497  54.7152332  27.6878140  14.9461609  53.9783450  26.5995767
  14.8260720  54.5580576  27.1143504   2.4655801  57.8554791  31.7140799
   1.7727598  57.3851771  31.9601530   3.0816128  57.6293095  32.2882506
   2.4540331  57.7521923  31.8349951  17.9085452  64.3221320  23.7506434
  18.5701886  63.7611988  23.6502342  17.2676864  63.8273350  24.0759125
  17.9114319  64.1657729  23.7838774  14.1950282  65.3386702  23.4918423
  14.4305871  65.4831901  22.6645273  14.3439846  66.1029110  23.8849936
  14.2516086  65.4725756  23.4282027   1.1896360  61.8220195  32.8567644
   1.9136332  61.8073226  33.3432539   1.2912496  62.5315550  32.3589612
   1.3114569  61.9244898  32.8546431  16.0240739  64.1788368  21.3288027
  16.3548956  64.7116008  20.7228121  16.5973827  64.2327256  21.9849978
  16.1574418  64.2657937  21.3365808   8.5641309  65.3019280  37.7216591
   7.7714290  65.6162791  37.9069210   8.6790236  65.5170748  36.8837375
   8.4636720  65.3803116  37.6254926  11.2372628  62.0253271  22.0111607
  11.3319482  62.7642565  22.4651232  10.6131472  61.5970746  22.4446171
  11.1581658  62.0714591  22.1419754   9.4925102  65.2039483  32.6601888
  10.0663964  64.5666728  32.8150451   9.4139906  65.2043566  31.7911545
   9.5658337  65.1104595  32.5548298  11.4895649  63.8702010  15.2448559
  11.4075812  63.9404198  16.1103546  12.1275370  64.4331754  15.0532299
  11.5715487  63.9640982  15.3438508   4.8488821  63.6362748  24.7123085
   4.5908065  62.8034483  24.6854384   4.9037303  63.8620361  23.8715585
   4.8188598  63.5460520  24.5843222   9.9289871  55.7391199  24.8127178
   9.2246197  55.2500385  24.9711097   9.9774845  55.7513674  23.9415622
   9.8319922  55.6680847  24.7066517   3.8223533  61.1900511  25.1987980
   3.2473124  61.3492679  25.8351941   3.4459209  60.5535920  24.7356430
   3.6826345  61.1198324  25.2242538  17.1320090  59.4198865  22.8328188
  16.8756655  58.6078806  22.6426071  17.9749404  59.4276432  22.6058375
  17.2186116  59.3010862  22.7713005  11.3123183  53.3598489  27.5704342
  11.6933695  52.6776660  27.9572217  10.5086467  53.0708091  27.3880007
  11.2499645  53.2165537  27.6008398   8.5935760  63.8922465  18.2557165
   9.4076398  64.1837358  18.1439936   8.5294901  63.2382327  17.6815458
   8.7038499  63.8387660  18.1546002  14.8145250  66.5748461  32.6686741
  14.5783887  65.7436526  32.5498801  15.4588479  66.5234068  33.2541585
  14.8739921  66.4446149  32.7372634   4.4643668  67.3643982  23.3829477
   5.1017615  67.1255730  23.9281271   4.8898739  67.5681141  22.6482638
   4.6219834  67.3594992  23.3546635   5.2715023  55.8652687  37.4366951
   4.9568464  56.6352250  37.1736514   4.9504956  55.3022943  36.8519178
   5.1773942  55.8962956  37.3108301  15.8381670  66.3592910  28.7315035
  15.5327487  67.0920967  29.0928351  15.1187886  65.9530839  28.4507821
  15.6869013  66.4074643  28.7428172   6.8465140  67.8416405  25.0623263
   6.9204148  67.6791577  25.9165113   7.6634646  68.0306594  24.8183745
   6.9781498  67.8453147  25.1521289  21.5383463  62.9985910  28.0583379
  21.4707963  63.0181869  27.1885966  21.5239125  63.8416238  28.2839050
  21.5262219  63.1259645  27.9635856   2.8246920  54.2543209  23.0513147
   1.9569346  54.3265808  23.1170756   3.1122125  55.0565288  23.2401122
   2.7386668  54.3837356  23.0887914  11.9479809  54.4021068  31.3824469
  12.6933401  54.2130878  30.9687894  11.5317114  54.9279306  30.8238325
  11.9964783  54.4523213  31.2389042  19.3242080  61.7730297  26.3329974
  19.8750001  61.1398366  26.5727066  19.3086195  62.3045689  27.0245478
  19.4027276  61.7579245  26.4708832   5.9764471  65.6068894  30.8789867
   5.4776164  66.3184662  30.9574756   6.7864695  65.9269560  30.8408030
   6.0220577  65.7595742  30.8846436   2.2392588  64.8691847  25.1252588
   1.9505837  64.2429318  25.6598316   3.1075936  64.8112134  25.1917269
   2.3252840  64.7679391  25.2143543  13.0270486  60.0126630  25.4434570
  12.6835252  59.2916965  25.7941820  13.1263529  59.8040481  24.6012928
  12.9912529  59.8750833  25.3706250  13.4883515  66.4752334  20.9858558
  14.0541548  67.1345544  20.9017101  12.8411419  66.8202032  21.4574960
  13.4762272  66.6234276  21.0431315   4.9031529  58.4649938  36.1752166
   4.0931304  58.7707718  36.0642008   5.3806215  59.1855521  36.2904750
   4.8535007  58.6164539  36.1759237   3.7623088  67.6795659  26.4235069
   3.2403842  67.8195951  27.1086933   4.1497109  66.9206324  26.6137186
   3.7426789  67.5881183  26.5536145   9.9590093  69.4191118  20.4095637
   9.7176769  68.6858979  20.0022702  10.1391426  69.9677975  19.7561971
   9.9497717  69.3913510  20.2525860   5.1889414  64.7099678  21.8216560
   4.9932197  65.3174413  21.2276863   5.4123759  64.0167622  21.3408234
   5.1924055  64.6977204  21.6632641   3.5867944  61.5954416  21.9397428
   4.3090596  61.7595574  21.4801234   3.1075937  62.3164081  21.8336768
   3.6231675  61.7252646  21.8563042  11.5461452  57.9318215  27.3194113
  10.7072552  57.9579494  27.0832376  11.6165819  58.5788950  27.8999460
  11.4329845  58.0314341  27.3703230   1.2375561  64.0012489  31.0451568
   1.7496658  64.2796742  30.3960328   0.9511903  64.7401783  31.4114381
   1.2710424  64.1514842  31.0041446  15.4218975  63.1386202  24.6055355
  15.3352950  63.2941628  25.4590134  14.9669455  63.7824277  24.2314760
  15.3422232  63.2561957  24.6762462   4.7559286  56.0938877  31.1052610
   4.5642483  56.1094012  31.9552033   5.6057882  56.2902551  31.0819264
   4.8535008  56.1253228  31.2275904   9.2944791  60.4596949  23.2280914
   9.0479506  60.3792700  24.0617703   9.6229914  59.6750417  23.0343442
   9.3066035  60.3323214  23.3228437  13.1892840  67.1680308  27.0167696
  13.0507200  67.8661354  27.5216438  12.4092838  67.0128965  26.6603877
  13.0536067  67.2480475  27.0393970  11.5270925  63.4676684  33.2690077
  11.5218964  62.5956500  33.2732504  12.2331919  63.6664853  32.7959533
  11.6315929  63.3680558  33.1997113   5.2541819  63.1953667  32.6403897
   5.3985194  63.7754876  32.0047007   5.6017467  63.5729964  33.3453752
   5.3269280  63.3374371  32.6502892   7.4261736  62.3943836  30.4229029
   6.6785050  62.5874850  30.0177307   7.5803261  61.5689055  30.1853150
   7.3384164  62.3008947  30.3274435  14.6846213  66.5258562  17.7784195
  14.3053022  65.7395700  17.7713484  14.0212458  67.0745419  17.6355839
  14.5304688  66.4903386  17.7564992   7.6663513  56.2894387  31.3124433
   8.1236127  57.0218361  31.4397225   7.7419842  55.8660852  32.0711688
   7.7454483  56.3351625  31.4425509  12.1390839  49.4684262  25.1818276
  12.2574407  49.9260725  24.4485578  11.9653015  48.6629523  24.8954493
  12.1310010  49.4178034  25.0319209   5.5445891  58.2796490  28.1566257
   4.7541966  58.0987951  28.4783593   5.9406514  57.5023443  28.1396551
   5.4862767  58.1383951  28.2018805  10.9289577  65.9138921  25.8825703
  10.2534579  65.6824153  26.3839090  10.9381953  65.3060104  25.2567808
  10.8308082  65.7897846  25.8641855   8.0583721  60.7556750  32.6389756
   7.9942862  61.6166706  32.5109892   8.1980909  60.4388743  31.8385307
   8.0699191  60.8356916  32.5017968  12.9306312  68.7704053  18.1135881
  13.0126149  69.5771039  17.7897331  13.4156054  68.7900012  18.8376654
  13.0143470  68.8924715  18.1722779   6.7402815  63.4488889  26.7805959
   6.3165064  63.6493388  26.0444977   6.5647670  62.6017737  26.8930258
   6.6513696  63.3537670  26.6879649   2.0285260  63.9440940  22.2133931
   2.1849879  63.8787743  23.0689923   2.3685853  64.7189493  22.0012611
   2.1018495  64.0490138  22.3088525   8.5664405  63.3198824  21.0827294
   9.1079950  62.8169205  21.5465915   8.8810964  63.2664019  20.2716780
   8.6928802  63.2378245  21.0311106  12.4381512  67.5301471  38.1954206
  13.2516377  67.2586620  38.3559339  12.2776478  67.2309011  37.3914402
  12.5351461  67.4456397  38.0999612   9.7153674  58.2135128  31.1349595
   9.9295644  57.5746043  30.5812949   9.0987573  58.6580952  30.7057456
   9.6559003  58.1845272  30.9900026  11.8792762  59.8224194  32.0732902
  11.0669444  59.5150084  32.1546075  12.3382697  59.3423194  32.6375614
  11.8273147  59.7060686  32.1687496  11.2898017  67.7003866  22.5209846
  10.9312672  67.8718508  23.2973879  10.8036728  68.1617071  21.9637845
  11.1656714  67.7942837  22.5535115   9.1068403  51.3235064  26.1236938
   8.2361961  51.2973785  26.0770247   9.3608744  51.1512256  25.3062783
   9.0161963  51.2945208  25.9957074   8.9746270  61.2284265  36.8561604
   9.4445901  61.8526381  37.2429478   9.0208150  60.5601241  37.4154819
   9.0514145  61.2218945  36.9961676   6.1317543  53.3341293  27.5810408
   5.6156032  52.6421484  27.7061987   5.5711472  54.0012070  27.5273007
   5.9724057  53.3304550  27.5916474   8.2009777  53.8734253  29.4103260
   7.8141530  53.8983284  30.1916790   7.7142714  53.3075931  28.9577777
   8.0722286  53.7930003  29.4591164  12.4502756  68.5907762  33.4677047
  13.0882477  68.0967957  33.1339503  11.8076848  68.5185162  32.8829274
  12.4496983  68.5066770  33.3319402  14.1759756  60.4396908  28.0342963
  13.7487364  60.3523256  27.2791062  13.5385809  60.5474683  28.6197807
  14.0189363  60.4429567  28.0088404   7.8666918  50.7601238  31.7013520
   8.4960036  51.2961538  31.4234591   8.0352781  50.6678597  32.5527086
   7.9844713  50.8262600  31.7862049   7.6680833  55.5472433  33.9739932
   8.4954263  55.2757582  34.0298546   7.6888679  56.3433274  34.3303750
   7.7933683  55.6252187  34.0355115  12.5057013  69.2827570  30.1082404
  13.2949391  68.9316635  30.2284485  12.6800611  70.0963958  29.8459038
  12.6477294  69.3513427  30.0870272   2.2450323  62.6936296  27.1610193
   1.4038330  62.5940170  27.3689086   2.4540331  63.4631776  27.5124513
   2.1515016  62.7928339  27.2437508  11.3590837  53.2937127  24.6698822
  11.5640430  53.2259434  25.5155819  11.0317261  54.0995948  24.6020000
  11.3406085  53.4023067  24.7858477   6.0566988  60.6217695  26.4107790
   5.7530126  60.0673683  27.0118198   5.3546409  60.8009905  25.9235824
   5.9083198  60.5662477  26.4277496   5.1133085  57.9318215  20.9752492
   5.3892819  57.2137127  20.5630060   5.7131754  58.5303134  20.7673598
   5.2426350  57.9138585  20.8833253  14.6124525  53.8468891  24.1501588
  13.9998838  54.3339293  24.5355320  14.7088700  53.1712382  24.6939239
  14.5362422  53.8187200  24.2880446   8.6143606  55.6031732  19.2499087
   9.0687352  55.7742292  19.9746932   9.0883651  54.9899843  18.8496863
   8.7511926  55.5382617  19.2972849   2.1359131  65.0880058  28.5801826
   1.5447064  65.7289556  28.5504841   2.8980155  65.5117675  28.5533125
   2.1607392  65.2455896  28.5716973   2.5319754  56.2482056  29.2469843
   2.9921235  56.3220985  29.9844967   2.5775861  57.0463310  28.8969665
   2.6070309  56.3776203  29.3042600   4.1803104  56.9148750  33.8141870
   3.7888669  56.2682098  34.2497648   4.3488966  57.5060186  34.4336126
   4.1474014  56.9063018  33.9704576  18.2549553  64.9185828  29.5779104
  18.3132676  65.3672476  30.3239080  17.6216020  65.3284640  29.1409184
  18.1700848  65.0459562  29.6231652  11.8948647  70.5389369  26.0133850
  11.6968336  71.0280184  25.3190061  11.2736358  70.7430611  26.5917983
  11.7736212  70.6405908  25.9957073   5.9556626  62.3074266  20.3544094
   6.6998671  62.6948543  20.5927044   6.1017322  61.4631692  20.5184582
   6.0867211  62.2404739  20.4138064   7.8736201  54.1024525  25.3875956
   7.0272246  54.2747333  25.2617306   7.8707334  53.2973869  25.7241784
   7.7483351  54.0085554  25.4187083   8.9434501  57.8799740  26.2538014
   8.4694456  57.3541502  26.7643325   9.3152637  57.3329212  25.6852875
   8.9284390  57.7215736  26.2453161  15.2071232  62.9402115  27.6644794
  14.9669455  62.1008530  27.6687221  15.6863239  63.0202282  28.3885568
  15.2423416  62.8283515  27.7719596  10.8718001  58.7736294  19.3163767
  10.3441020  58.8565038  18.6269476  11.3313709  59.5154166  19.3128412
  10.8619852  58.8956957  19.2138463  17.2076419  59.7203572  25.6174053
  16.9686189  59.6799407  24.7794838  17.3710320  60.5674725  25.7439774
  17.1966723  59.8395657  25.5127535  13.8122449  64.1053522  31.5479098
  14.5356648  63.6526048  31.3690118  13.5472412  64.3858187  30.7651426
  13.8803723  64.0804490  31.4057814   2.6809318  58.7013695  28.2831978
   2.0562388  58.7132087  27.6757930   2.3454912  59.1773870  28.9323218
   2.5394809  58.7732212  28.2888546  10.4255084  67.3439858  18.4473424
  11.1489283  67.8097971  18.3037998   9.9855675  67.4113467  17.6971021
  10.4670776  67.4223694  18.3158206   9.5941239  64.2037400  29.6974113
   8.9798232  63.6595450  29.9922749  10.1108524  63.6901636  29.2179930
   9.5796901  64.0473809  29.6698342   8.8337536  65.2741670  27.4318412
   8.4065144  64.6491389  26.9983847   8.8262480  64.9916592  28.2577419
   8.7696677  65.1394451  27.4898240   1.9500063  60.3106843  30.5006846
   2.1093550  59.5550167  30.9058568   1.7692957  60.8597783  31.1547584
   1.9465422  60.2800657  30.6569552   9.8920366  52.4768079  31.0557636
   9.3960927  52.6731753  30.3649202  10.6489428  52.8760747  30.8846437
   9.9307191  52.5645812  30.9277772   7.1623246  56.1510425  27.6460946
   7.1865733  55.6170537  26.9573726   7.4134719  55.6427733  28.3086537
   7.2033164  55.9971329  27.6425591   3.4424568  54.8781243  27.0266690
   3.4822939  55.3790449  27.7401398   2.6174232  54.9691636  26.7572613
   3.3264094  54.9663059  27.0917229   5.6254181  64.4441983  35.1286985
   4.7749811  64.5813697  35.2644630   5.7882308  63.7105761  35.5734687
   5.5238044  64.3556084  35.2142584   4.8638931  61.3941753  29.3240589
   4.0330861  61.5615571  29.1175838   4.8090448  61.0177703  30.1089475
   4.7328346  61.3631484  29.4089118   2.6722714  54.8850646  34.9597000
   3.2975418  54.3412778  35.2326432   2.2173194  54.4045563  34.3904790
   2.6970975  54.7340127  34.9158594   3.2374975  59.6697344  19.8530707
   3.3777936  60.1669808  20.5559348   3.7357508  58.9683639  19.9944921
   3.3316056  59.6399323  19.9782286  16.2457763  63.0679933  30.0509648
  16.8375603  63.7077183  30.0827846  16.6816758  62.3702969  30.3401715
  16.3976194  63.0598283  30.0990481   4.8454180  56.4678431  17.1568726
   5.1670021  55.9881513  16.5027988   5.1081124  57.2778077  16.9659538
   4.9320206  56.5168329  17.0324218   8.0751153  67.4897305  30.6767542
   7.5676244  68.0433152  31.1208173   7.7777799  67.5505595  29.8586317
   7.9556038  67.5803616  30.6215999  10.2413335  55.8550625  29.5192205
  10.6668407  55.4023151  28.9075731   9.6270328  55.3010695  29.7956992
  10.2141981  55.7064601  29.4697230   8.6807558  52.3265724  22.9282782
   8.0375876  52.1763371  23.4967920   8.3406965  52.0808070  22.1631887
   8.5352635  52.2677847  22.8985797  13.2706905  60.2825151  22.3512791
  12.5998094  60.8254853  22.2225856  13.9646655  60.7520007  22.1094485
  13.2735772  60.4323422  22.2968318  13.4335032  56.7381035  25.2603164
  13.7862642  56.3110758  25.9348963  12.5749834  56.6531878  25.3904240
  13.3584477  56.6625775  25.3798174   2.1318717  59.3688555  23.3186010
   1.4130706  59.7852687  23.5858874   2.5031079  59.9342793  22.7677649
   2.0810649  59.5137836  23.2768817  11.4318298  60.0016403  29.2088006
  11.4116225  59.8199699  30.0622785  11.4797499  60.8728422  29.1847590
  11.4352939  60.1032942  29.3311301   9.3764628  66.5903595  35.1336483
   9.3360483  65.9453272  34.5481639  10.1887946  66.5340213  35.4461895
   9.4907781  66.4862562  35.0933432   7.9065291  58.4086554  18.6559390
   7.3130131  58.7303551  18.1043957   7.9440569  57.5627650  18.4480496
   7.8239681  58.3310883  18.5442161  14.8659092  51.8599447  26.1887476
  14.3589957  51.1528586  26.1208654  15.6626526  51.5292636  26.3188553
  14.9086331  51.7072598  26.1986471  10.7823108  58.3666059  22.0861140
  10.5536801  58.3898760  21.2439498  11.0421184  57.5423526  22.2056151
  10.7869296  58.2482139  21.9786338   5.0642336  60.2200532  31.6886240
   4.5521239  59.6121715  32.0471272   4.8921833  60.9357125  32.1560216
   4.9631973  60.2363831  31.8102464   3.8367870  56.9042605  23.3815336
   4.3125237  57.2659685  22.7465517   3.3356470  57.5599073  23.6615478
   3.8333229  57.0536794  23.3292077  17.0679232  66.3764373  19.1728341
  17.4512838  67.1255729  19.4026438  16.2723345  66.6230193  18.9140330
  17.0073014  66.5234067  19.1685914   8.9411407  58.1424777  34.1288496
   9.4982837  57.9138586  33.4966961   8.6172472  58.9030442  33.8523708
   8.9757817  58.2208613  33.9944993   6.6594524  61.2292430  35.0940503
   7.4105851  61.5444107  35.4080057   6.8517100  61.0271601  34.2674425
   6.7985938  61.2459812  35.0183899   5.8794524  59.0483805  16.7488720
   6.2593488  59.0663434  15.9639834   5.1387120  59.4937794  16.6279567
   5.8263361  59.1165580  16.6152288  13.5079814  57.3565996  22.3364298
  13.5074041  57.2014653  23.1948575  13.3035994  58.2028983  22.2805684
  13.4779592  57.4586617  22.4552238  11.2320666  62.0363498  25.9900505
  11.7274332  61.3186493  25.9504526  10.4220442  61.7334296  25.8754992
  11.1864559  61.8861144  25.9674231  13.2972485  64.7867186  28.6777634
  13.7227557  64.2641607  28.1248059  12.9329405  65.3848023  28.1566257
  13.3059088  64.7977413  28.5186644   9.8851085  68.5001450  25.0078791
  10.3562263  69.2141712  25.1768777  10.2211263  67.9000200  25.5438661
  10.0046200  68.5172914  25.1111167  11.9728069  70.1102763  37.1870864
  12.0825035  69.3211324  37.5427611  12.3018966  70.0208699  36.3845202
  12.0380475  69.9808616  37.1213254   6.8020579  53.2728920  31.9636886
   6.9348485  52.4759914  32.2917862   7.1865732  53.7995323  32.5435162
   6.8776908  53.2328837  32.0980389  10.5225031  68.2919384  31.7706484
   9.9745977  67.6677268  31.5026549  10.9838060  68.4813656  31.0550564
  10.5092240  68.2278434  31.6256915   9.8752935  50.1959246  28.5617980
   9.0698898  50.0856976  28.8785818   9.7459670  50.2971702  27.7047845
   9.7373067  50.1942917  28.4826020  13.3318895  56.3604738  29.1557676
  12.7481884  56.8613945  28.7435244  13.6523189  55.8534295  28.5222000
  13.2932071  56.3596573  29.0016184   5.8713694  55.2745333  19.4316351
   6.6929389  55.4443646  19.1898046   5.4083345  55.4292594  18.7082649
   5.9244857  55.3227066  19.2887996   4.4609026  53.2688095  30.2114780
   5.0053439  52.9279222  30.8019122   4.5145962  54.1273557  30.3536065
   4.5498146  53.3443355  30.3196653  10.0883357  69.2970457  28.3015825
  10.9081731  69.1533423  28.5632120   9.8077435  69.9216656  28.8432263
  10.1680100  69.3680809  28.4203765  16.4872479  70.8890025  24.9902015
  16.1575809  71.3401169  24.3205714  15.8117481  70.8106188  25.5375022
  16.3382916  70.9441160  24.9725239  23.6948887  66.8775548  23.2351626
  23.3802328  67.5679026  23.6672048  23.1775829  66.8220330  22.5337127
  23.5713357  66.9710436  23.1948575  14.6928433  68.9502313  20.4724963
  15.4474401  69.3180630  20.2342013  14.5155968  69.3241868  21.2404143
  14.7782912  69.0600501  20.5509851  27.9863332  75.0996754  28.5172502
  27.1491753  75.1698941  28.7520097  27.9551563  75.1021249  27.6446805
  27.8581614  75.1106981  28.4232050  13.0485498  71.3572632  17.1703076
  12.8661071  71.5744513  16.3444069  13.9111111  71.4711645  17.2261690
  13.1490087  71.4062530  17.0557563  18.7285217  68.3599043  20.2052100
  19.4571378  68.1814998  19.7590256  18.8180110  69.2017123  20.4159278
  18.8491879  68.4582921  20.1705617  25.6671172  70.1639536  27.1016225
  26.3097080  70.2337640  27.6878140  25.9194193  69.4968758  26.5995767
  25.7993304  70.0765884  27.1143504  20.9022454  71.2576507  24.8127178
  20.1978781  70.7685693  24.9711097  20.9507429  71.2698981  23.9415622
  20.8052506  71.1866155  24.7066517  28.1052674  74.9384173  22.8328188
  27.8489239  74.1264114  22.6426071  28.9481988  74.9461740  22.6058375
  28.1918699  74.8196170  22.7713005  22.2855766  68.8783797  27.5704342
  22.6666278  68.1961968  27.9572217  21.4819051  68.5893399  27.3880007
  22.2232228  68.7350845  27.6008398  16.2447607  71.3837995  37.4366951
  15.9301048  72.1537558  37.1736514  15.9237539  70.8208251  36.8519178
  16.1506526  71.4148264  37.3108301  13.7979504  69.7728517  23.0513147
  12.9301929  69.8451116  23.1170756  14.0854708  70.5750596  23.2401122
  13.7119252  69.9022664  23.0887914  22.9212393  69.9206376  31.3824469
  23.6665985  69.7316186  30.9687894  22.5049697  70.4464614  30.8238325
  22.9697367  69.9708521  31.2389042  24.0003070  75.5311938  25.4434570
  23.6567836  74.8102273  25.7941820  24.0996112  75.3225789  24.6012928
  23.9645113  75.3936141  25.3706250  22.5194035  73.4503523  27.3194113
  21.6805136  73.4764802  27.0832376  22.5898402  74.0974258  27.8999460
  22.4062429  73.5499649  27.3703230  20.9663313  70.3488900  22.0521729
  21.6689666  70.1496648  21.5741687  20.7007502  69.5764842  22.3590572
  21.0309946  70.2051866  22.0267171  15.7291870  71.6124185  31.1052610
  15.5375067  71.6279320  31.9552033  16.5790466  71.8087859  31.0819264
  15.8267592  71.6438536  31.2275904  18.6396097  71.8079694  31.3124433
  19.0968711  72.5403669  31.4397225  18.7152425  71.3846160  32.0711688
  18.7187066  71.8536933  31.4425509  23.1123423  64.9869570  25.1818276
  23.2306991  65.4446033  24.4485578  22.9385598  64.1814831  24.8954493
  23.1042594  64.9363342  25.0319209  20.0800986  66.8420372  26.1236938
  19.2094544  66.8159093  26.0770247  20.3341328  66.6697564  25.3062783
  19.9894546  66.8130516  25.9957074  17.1050127  68.8526600  27.5810408
  16.5888615  68.1606792  27.7061987  16.5444056  69.5197378  27.5273007
  16.9456640  68.8489858  27.5916474  19.1742360  69.3919560  29.4103260
  18.7874113  69.4168592  30.1916790  18.6875298  68.8261239  28.9577777
  19.0454869  69.3115311  29.4591164  18.8399502  66.2786546  31.7013520
  19.4692620  66.8146846  31.4234591  19.0085365  66.1863905  32.5527086
  18.9577297  66.3447908  31.7862049  18.6413417  71.0657741  33.9739932
  19.4686846  70.7942890  34.0298546  18.6621263  71.8618582  34.3303750
  18.7666267  71.1437495  34.0355115  22.3323420  68.8122434  24.6698822
  22.5373014  68.7444742  25.5155819  22.0049844  69.6181256  24.6020000
  22.3138668  68.9208375  24.7858477  25.5857108  69.3654199  24.1501588
  24.9731422  69.8524601  24.5355320  25.6821283  68.6897690  24.6939239
  25.5095006  69.3372507  24.2880446  19.5876189  71.1217040  19.2499087
  20.0419936  71.2927600  19.9746932  20.0616235  70.5085151  18.8496863
  19.7244509  71.0567925  19.2972849  18.8468785  69.6209833  25.3875956
  18.0004830  69.7932641  25.2617306  18.8439917  68.8159177  25.7241784
  18.7215935  69.5270862  25.4187083  19.9167085  73.3985048  26.2538014
  19.4427039  72.8726810  26.7643325  20.2885221  72.8514520  25.6852875
  19.9016974  73.2401044  26.2453161  28.1809003  75.2388880  25.6174053
  27.9418773  75.1984715  24.7794838  28.3442904  76.0860032  25.7439774
  28.1699306  75.3580965  25.5127535  20.8652950  67.9953387  31.0557636
  20.3693511  68.1917061  30.3649202  21.6222012  68.3946055  30.8846437
  20.9039774  68.0831120  30.9277772  18.1355829  71.6695732  27.6460946
  18.1598316  71.1355845  26.9573726  18.3867303  71.1613041  28.3086537
  18.1765748  71.5156636  27.6425591  14.4157151  70.3966551  27.0266690
  14.4555523  70.8975757  27.7401398  13.5906816  70.4876944  26.7572613
  14.2996677  70.4848367  27.0917229  13.6455298  70.4035953  34.9597000
  14.2708001  69.8598086  35.2326432  13.1905778  69.9230871  34.3904790
  13.6703559  70.2525435  34.9158594  21.2145919  71.3735933  29.5192205
  21.6400990  70.9208459  28.9075731  20.6002912  70.8196003  29.7956992
  21.1874564  71.2249909  29.4697230  19.6540142  67.8451032  22.9282782
  19.0108460  67.6948679  23.4967920  19.3139549  67.5993378  22.1631887
  19.5085219  67.7863155  22.8985797  24.4067616  72.2566343  25.2603164
  24.7595226  71.8296066  25.9348963  23.5482417  72.1717186  25.3904240
  24.3317060  72.1811083  25.3798174  25.8391676  67.3784755  26.1887476
  25.3322540  66.6713894  26.1208654  26.6359109  67.0477943  26.3188553
  25.8818915  67.2257906  26.1986471  21.7555692  73.8851367  22.0861140
  21.5269385  73.9084068  21.2439498  22.0153768  73.0608834  22.2056151
  21.7601880  73.7667447  21.9786338  24.4812398  72.8751304  22.3364298
  24.4806624  72.7199961  23.1948575  24.2768578  73.7214291  22.2805684
  24.4512176  72.9771925  22.4552238  17.7753163  68.7914228  31.9636886
  17.9081069  67.9945222  32.2917862  18.1598316  69.3180631  32.5435162
  17.8509492  68.7514145  32.0980389  20.8485518  65.7144554  28.5617980
  20.0431482  65.6042284  28.8785818  20.7192254  65.8157010  27.7047845
  20.7105651  65.7128224  28.4826020  24.3051479  71.8790046  29.1557676
  23.7214468  72.3799253  28.7435244  24.6255773  71.3719603  28.5222000
  24.2664654  71.8781881  29.0016184  16.8446278  70.7930641  19.4316351
  17.6661972  70.9628954  19.1898046  16.3815929  70.9477902  18.7082649
  16.8977440  70.8412374  19.2887996  15.4341610  68.7873403  30.2114780
  15.9786023  68.4464530  30.8019122  15.4878546  69.6458865  30.3536065
  15.5230729  68.8628663  30.3196653   0.8176066  28.2105000  22.5612135
   1.5242833  27.7157031  22.6899069   1.0064001  28.6514082  21.8314793
   0.9503971  28.2023351  22.4721180   3.5363490  27.9941284  19.6026788
   3.3002128  27.1629349  19.4838848   4.1806719  27.9426891  20.1881632
   3.5958161  27.8638972  19.6712681   4.5599911  27.7785733  15.6655082
   4.2545728  28.5113790  16.0268398   3.8406126  27.3723662  15.3847868
   4.4087253  27.8267466  15.6768219  10.2601703  24.4178734  14.9923426
  10.1926203  24.4374693  14.1226013  10.2457365  25.2609061  15.2179097
  10.2480459  24.5452468  14.8975903   1.1599753  28.9494295  25.1294253
   1.9734618  28.6779443  25.2899386   0.9994719  28.6501834  24.3254449
   1.2569701  28.8649221  25.0339659   1.2275253  30.7020393  17.0422451
   2.0167631  30.3509458  17.1624532   1.4018851  31.5156782  16.7799084
   1.3695535  30.7706250  17.0210319   6.9767793  26.3378651  16.5119151
   7.0350917  26.7865300  17.2579127   6.3434261  26.7477464  16.0749231
   6.8919088  26.4652385  16.5571699   2.5340690  25.5246345  18.4819145
   3.2574888  25.0718871  18.3030165   2.2690652  25.8051011  17.6991473
   2.6021963  25.4997314  18.3397861   4.9676004  24.4872756  16.9849695
   5.5593844  25.1270007  17.0167893   5.4034998  23.7895793  17.2741762
   5.1194435  24.4791106  17.0330528   2.0190725  26.2060009  15.6117681
   2.4445797  25.6834431  15.0588106   1.6547645  26.8040846  15.0906304
   2.0277328  26.2170236  15.4526691   0.6946309  31.5295586  24.1210910
   0.8043275  30.7404147  24.4767658   1.0237206  31.4401523  23.3185248
   0.7598715  31.4001439  24.0553301  15.2815248  38.3728132   8.1998748
  15.2509252  39.2272768   8.3717018  15.8796597  38.0723424   8.7584892
  15.3652406  38.4544628   8.3073551   8.4814933  37.4603783  12.9551679
   7.6252828  37.6212281  13.0060796   8.5282586  36.5895847  12.9756740
   8.3614044  37.3554584  12.9657745  11.7908649  43.7290308  22.5612135
  12.4975417  43.2342339  22.6899069  11.9796585  44.1699390  21.8314793
  11.9236555  43.7208659  22.4721180   7.8585324  49.3706139  10.0885569
   8.2424703  49.9393037   9.5490344   7.7944465  48.6455649   9.6091385
   7.9058751  49.3481602   9.9379432  11.3266754  39.5195827  15.5983331
  11.8722714  40.1980913  15.6577300  11.2683630  39.3783287  14.7384912
  11.3982668  39.5987828  15.4795391   4.4440829  47.0084893  10.9851683
   4.5451192  46.1985247  11.2948811   3.8482574  46.9141839  10.3551361
   4.3713367  46.8749921  10.9377921  13.1031822  40.9480434   6.4717058
  12.9871348  41.6988120   6.9009196  13.8987709  40.6904387   6.7213145
  13.2036412  41.0215281   6.5721150   4.2841568  51.9262482  12.3866539
   4.9279024  52.3675646  12.7762697   4.6097824  51.1215908  12.2996798
   4.4273397  51.8727677  12.4312016   7.0363856  36.9390452   7.8420787
   7.7344021  37.1178579   8.3342251   7.3516188  36.4160791   7.2191177
   7.1859193  36.8884224   7.8222798   7.2251791  43.3260897   7.8300579
   7.6645427  42.7177997   8.2755352   7.0756454  42.9468270   7.0586044
   7.2673257  43.1799368   7.7819746   4.6923434  41.9204908  15.0319404
   5.3372437  41.4277352  14.7130353   4.9325211  42.0629695  15.8585483
   4.8234019  41.8682351  15.1068938   7.2309526  44.7659814  14.6826297
   7.5132769  43.9711220  14.4613053   7.9595686  45.2440402  14.7031358
   7.3799089  44.7194411  14.6529312   5.2090720  32.3082848  11.9242062
   4.8794050  32.7593992  11.2545761   4.5335721  32.2299012  12.4715068
   5.0601156  32.3633983  11.9065285  10.8261128  41.6788078   4.7831348
  10.7412423  42.5349045   4.9280917  11.3145511  41.4032402   5.4513507
  10.8850025  41.7645399   4.9033430  11.7579561  38.2972872   6.2829083
  11.2291033  38.5132506   6.9426389  12.2804581  38.9909011   6.2030053
  11.7568014  38.4316009   6.3684682  17.2127614  43.8719177  11.6562128
  16.3825317  44.0829820  11.8195544  17.1636866  43.0456231  11.3804411
  17.0834349  43.7808783  11.6399493   5.2737352  46.7023031  14.4910037
   4.7564293  46.3430446  13.8871345   5.9711743  46.1785205  14.5016103
   5.3002933  46.5720719  14.4040296   8.9300944  47.1517845  20.4526210
   9.0184289  46.9643985  21.3004421   9.3590656  46.5055274  20.0531057
   9.0063046  47.0280852  20.5197962   6.4971403  46.4349005  19.4343872
   5.9342238  46.0221615  19.9583534   7.2592427  46.3601910  19.8537016
   6.5265852  46.3626405  19.5736873   2.0567395  48.4247026  12.0380503
   2.7587974  47.9099015  12.0953259   1.9764878  48.7521177  12.8427378
   2.1491155  48.3961252  12.1653295  16.7081572  36.5189577  15.4512549
  15.8709993  36.5891764  15.6860144  16.6769803  36.5214072  14.5786851
  16.5799855  36.5299804  15.3572097   3.1046301  38.6622613  21.1660918
   3.2766805  38.5528507  22.0146199   3.6415659  39.3077018  20.9292110
   3.2091305  38.7414614  21.2566014   1.3818170  44.6153378  11.5466111
   2.2207070  44.8476311  11.5939872   1.4129939  43.7457689  11.4773146
   1.5099888  44.5210324  11.5430755   2.0070873  45.0354253  15.8479416
   2.5469098  44.8925384  16.5182789   1.3240820  45.4351004  16.2163442
   1.9863027  45.0733924  16.0013838  11.4311758  40.7145254  11.0424441
  12.1869273  41.1476768  11.0813349  11.5374083  40.0650023  11.6159077
  11.5581929  40.6822738  11.1322466  14.4691929  44.5418531  11.7926844
  14.0327161  44.5455273  12.5485815  14.1354845  45.2224030  11.3606421
  14.3554549  44.6430987  11.8407676   9.0421003  46.5826864  23.1169994
   9.8261419  46.6957712  23.4825736   8.8417597  45.7568001  23.3128680
   9.1287028  46.4773583  23.2004380  14.3889412  31.5832359  14.0356271
  15.0315321  31.6530463  14.6218187  14.6412433  30.9161582  13.5335813
  14.5211544  31.4958707  14.0483551   2.1606625  34.7932922  18.6480845
   1.4678421  34.3229902  18.8941577   2.7766952  34.5671227  19.2222553
   2.1491155  34.6900054  18.7689998   9.1991396  48.4936966  16.7636449
   8.4006642  48.2536466  17.0210318   9.6477408  48.5451359  17.5103497
   9.1466007  48.4659357  16.9121374  17.6036275  41.2599451  10.6846481
  18.2652710  40.6990119  10.5842389  16.9627687  40.7651482  11.0099172
  17.6065143  41.1035860  10.7178821  13.8901106  42.2764833  10.4258470
  14.1256695  42.4210032   9.5985320  14.0390670  43.0407241  10.8189983
  13.9466909  42.4103888  10.3622073   0.8847184  38.7598326  19.7907691
   1.6087156  38.7451357  20.2772585   0.9863320  39.4693681  19.2929659
   1.0065393  38.8623029  19.7886477  15.7191563  41.1166499   8.2628073
  16.0499780  41.6494139   7.6568168  16.2924651  41.1705387   8.9190024
  15.8525242  41.2036068   8.2705855   8.2592133  42.2397411  24.6556638
   7.4665114  42.5540923  24.8409257   8.3741060  42.4548879  23.8177422
   8.1587544  42.3181247  24.5594972  10.9323452  38.9631402   8.9451653
  11.0270306  39.7020696   9.3991279  10.3082296  38.5348877   9.3786218
  10.8532482  39.0092722   9.0759801   9.1875926  42.1417614  19.5941934
   9.7614788  41.5044859  19.7490498   9.1090730  42.1421697  18.7251592
   9.2609161  42.0482726  19.4888345   4.5439644  40.5740880  11.6463132
   4.2858889  39.7412614  11.6194431   4.5988127  40.7998493  10.8055632
   4.5139422  40.4838651  11.5183269   9.6240695  32.6769330  11.7467224
   8.9197021  32.1878516  11.9051144   9.6725669  32.6891805  10.8755669
   9.5270746  32.6058978  11.6406564   3.5174357  38.1278642  12.1328027
   2.9423948  38.2870810  12.7691987   3.1410033  37.4914051  11.6696477
   3.3777169  38.0576455  12.1582585   7.1847645  36.6001991  16.9920405
   6.7962078  36.1756209  16.3372596   6.5202344  36.8484141  17.4997432
   7.0294573  36.5740712  16.9708273  16.8270914  36.3576996   9.7668235
  16.5707479  35.5456938   9.5766118  17.6700228  36.3654563   9.5398422
  16.9136940  36.2388994   9.7053052  11.0074007  30.2976620  14.5044389
  11.3884519  29.6154791  14.8912263  10.2037291  30.0086222  14.3220054
  10.9450469  30.1543669  14.5348445   8.2886584  40.8300596   5.1897212
   9.1027222  41.1215489   5.0779983   8.2245725  40.1760458   4.6155505
   8.3989323  40.7765791   5.0886049  14.5096074  43.5126592  19.6026788
  14.2734711  42.6814657  19.4838848  15.1539303  43.4612199  20.1881632
  14.5690744  43.3824280  19.6712681   4.1594492  44.3022113  10.3169524
   4.7968439  44.0633861  10.8621317   4.5849563  44.5059272   9.5822685
   4.3170658  44.2973124  10.2886681   4.9665847  32.8030818  24.3706998
   4.6519288  33.5730381  24.1076560   4.6455780  32.2401074  23.7859225
   4.8724766  32.8341087  24.2448348  15.5332494  43.2971041  15.6655082
  15.2278311  44.0299098  16.0268398  14.8138710  42.8908970  15.3847868
  15.3819837  43.3452774  15.6768219   6.5415964  44.7794536  11.9963310
   6.6154972  44.6169708  12.8505160   7.3585470  44.9684726  11.7523792
   6.6732322  44.7831278  12.0861336  21.2334286  39.9364042  14.9923426
  21.1658787  39.9560001  14.1226013  21.2189949  40.7794369  15.2179097
  21.2213043  40.0637776  14.8975903  11.6430633  31.3399199  18.3164516
  12.3884225  31.1509010  17.9027941  11.2267938  31.8657437  17.7578372
  11.6915607  31.3901345  18.1729089  19.0192904  38.7108428  13.2670021
  19.5700825  38.0776497  13.5067113  19.0037019  39.2423821  13.9585525
  19.0978100  38.6957376  13.4048879   5.6715295  42.5447025  17.8129914
   5.1726988  43.2562793  17.8914803   6.4815519  42.8647692  17.7748077
   5.7171401  42.6973874  17.8186483   1.9343412  41.8069978  12.0592635
   1.6456661  41.1807449  12.5938362   2.8026760  41.7490265  12.1257316
   2.0203664  41.7057522  12.1483590  12.7221310  36.9504761  12.3774617
  12.3786076  36.2295097  12.7281867  12.8214353  36.7418613  11.5352975
  12.6863353  36.8128965  12.3046297  13.1834339  43.4130465   7.9198605
  13.7492372  44.0723675   7.8357148  12.5362243  43.7580164   8.3915007
  13.1713096  43.5612407   7.9771362   4.5982353  35.4028069  23.1092212
   3.7882128  35.7085849  22.9982055   5.0757039  36.1233652  23.2244796
   4.5485831  35.5542671  23.1099283   3.4573912  44.6173790  13.3575116
   2.9354666  44.7574082  14.0426980   3.8447933  43.8584455  13.5477233
   3.4377613  44.5259314  13.4876192   9.6540917  46.3569250   7.3435684
   9.4127593  45.6237110   6.9362749   9.8342250  46.9056107   6.6902018
   9.6448541  46.3291641   7.1865907   4.8840238  41.6477809   8.7556607
   4.6883020  42.2552544   8.1616910   5.1074583  40.9545753   8.2748280
   4.8874879  41.6355335   8.5972687   3.2818768  38.5332547   8.8737475
   4.0041420  38.6973705   8.4141281   2.8026761  39.2542212   8.7676815
   3.3182499  38.6630777   8.7903089  11.2412275  34.8696346  14.2534160
  10.4023376  34.8957625  14.0172423  11.3116643  35.5167082  14.8339506
  11.1280669  34.9692472  14.3043277   9.6881554  31.7681723   8.9861776
  10.3907907  31.5689471   8.5081734   9.4225742  30.9957666   9.2930619
   9.7528186  31.6244689   8.9607217  15.1169799  40.0764333  11.5395402
  15.0303774  40.2319759  12.3930180  14.6620279  40.7202408  11.1654807
  15.0373056  40.1940088  11.6102508   4.4510110  33.0317008  18.0392656
   4.2593307  33.0472143  18.8892080   5.3008706  33.2280683  18.0159311
   4.5485832  33.0631360  18.1615951   8.9895615  37.3975080  10.1620961
   8.7430330  37.3170831  10.9957750   9.3180738  36.6128548   9.9683489
   9.0016859  37.2701345  10.2568484  12.8843664  44.1058439  13.9507742
  12.7458023  44.8039485  14.4556485  12.1043662  43.9507096  13.5943924
  12.7486891  44.1858606  13.9734017  11.2221749  40.4054815  20.2030124
  11.2169788  39.5334631  20.2072550  11.9282743  40.6042984  19.7299580
  11.3266753  40.3058689  20.1337159   4.9492643  40.1331799  19.5743944
   5.0936018  40.7133007  18.9387054   5.2968291  40.5108095  20.2793799
   5.0220104  40.2752503  19.5842939   7.1212560  39.3321967  17.3569076
   6.3735874  39.5252981  16.9517354   7.2754085  38.5067187  17.1193197
   7.0334988  39.2387078  17.2614482   4.0220398  48.3234570  16.4404971
   4.1709961  47.7637486  15.7878375   4.8020400  48.4026572  16.8237490
   4.1594491  48.2520136  16.4001920  14.3797037  43.4636693   4.7124242
  14.0003846  42.6773831   4.7053531  13.7163282  44.0123550   4.5695886
  14.2255512  43.4281517   4.6905038   6.5473698  48.4949213  17.7189462
   6.4717369  47.8258024  18.2740250   6.4763557  49.1967001  18.2330128
   6.5254305  48.4994121  17.8766310   7.3614337  33.2272518  18.2464480
   7.8186951  33.9596492  18.3737272   7.4370666  32.8038983  19.0051735
   7.4405307  33.2729756  18.3765556  11.8341663  26.4062393  12.1158322
  11.9525231  26.8638856  11.3825625  11.6603839  25.6007654  11.8294540
  11.8260834  26.3556165  11.9659256   7.2043945  47.0150212   8.5513068
   7.9693836  46.7459856   8.2295732   7.1022035  46.5300223   9.2683131
   7.3025441  46.9039777   8.6092895   5.2396715  35.2174622  15.0906304
   4.4492790  35.0366082  15.4123639   5.6357338  34.4401574  15.0736598
   5.1813591  35.0762083  15.1358852  10.6240401  42.8517052  12.8165749
   9.9485403  42.6202284  13.3179136  10.6332777  42.2438235  12.1907854
  10.5258906  42.7275977  12.7981902   7.7534545  37.6934881  19.5729802
   7.6893686  38.5544837  19.4449939   7.8931733  37.3766874  18.7725354
   7.7650015  37.7735047  19.4358015  12.6257136  45.7082184   5.0475927
  12.7076973  46.5149170   4.7237378  13.1106878  45.7278143   5.7716701
  12.7094294  45.8302847   5.1062826   6.4353639  40.3867020  13.7146005
   6.0115888  40.5871519  12.9785024   6.2598494  39.5395868  13.8270305
   6.3464520  40.2915802  13.6219695   5.9365333  51.9017533  16.1767463
   6.4261263  51.2028322  15.9943127   5.3649565  51.6041403  16.7643520
   5.9249862  51.7543757  16.2368503   1.7236084  40.8819072   9.1473978
   1.8800703  40.8165874  10.0029970   2.0636677  41.6567624   8.9352657
   1.7969319  40.9868270   9.2428572   8.2615229  40.2576955   8.0167341
   8.8030774  39.7547336   8.4805962   8.5761788  40.2042150   7.2056826
   8.3879626  40.1756376   7.9651153  12.1332336  44.4679602  25.1294253
  12.9467201  44.1964751  25.2899386  11.9727302  44.1687142  24.3254449
  12.2302285  44.3834528  25.0339659   9.4104498  35.1513260  18.0689642
   9.6246468  34.5124174  17.5152996   8.7938397  35.5959083  17.6397503
   9.3509827  35.1223403  17.9240073  10.8209166  48.0732008   9.5143862
  10.4288958  47.7698723   8.7966729  10.9762238  48.9101098   9.3248816
  10.7862756  48.1515845   9.3800360  11.5743586  36.7602325  19.0072949
  10.7620268  36.4528215  19.0886121  12.0333521  36.2801325  19.5715661
  11.5223971  36.6438817  19.1027543  10.9848841  44.6381997   9.4549893
  10.6263495  44.8096640  10.2313925  10.4987552  45.0995202   8.8977891
  10.8607538  44.7320968   9.4875162   8.8019227  28.2613195  13.0576984
   7.9312785  28.2351916  13.0110294   9.0559568  28.0890387  12.2402830
   8.7112787  28.2323339  12.9297121   8.6697094  38.1662396  23.7901651
   9.1396725  38.7904513  24.1769525   8.7158974  37.4979372  24.3494866
   8.7464969  38.1597077  23.9301722   5.8268367  30.2719424  14.5150455
   5.3106856  29.5799615  14.6402034   5.2662296  30.9390201  14.4613053
   5.6674880  30.2682681  14.5256521   7.8960601  30.8112384  16.3443307
   7.5092354  30.8361415  17.1256837   7.4093538  30.2454062  15.8917824
   7.7673110  30.7308135  16.3931211  12.1453580  45.5285893  20.4017094
  12.7833301  45.0346088  20.0679550  11.5027672  45.4563293  19.8169321
  12.1447807  45.4444901  20.2659449  13.8710580  37.3775039  14.9683009
  13.4438188  37.2901387  14.2131109  13.2336633  37.4852814  15.5537854
  13.7140187  37.3807699  14.9428451   7.5617742  27.6979369  18.6353567
   8.1910860  28.2339669  18.3574638   7.7303605  27.6056728  19.4867133
   7.6795537  27.7640731  18.7202095   7.3631657  32.4850564  20.9079979
   8.1905087  32.2135713  20.9638593   7.3839503  33.2811406  21.2643797
   7.4884507  32.5630318  20.9695162  12.2007837  46.2205701  17.0422451
  12.9900215  45.8694766  17.1624532  12.3751435  47.0342089  16.7799084
  12.3428118  46.2891558  17.0210319   1.9401147  39.6314427  14.0950239
   1.0989154  39.5318301  14.3029133   2.1491155  40.4009907  14.4464560
   1.8465840  39.7306470  14.1777554  11.0541661  30.2315258  11.6038869
  11.2591254  30.1637566  12.4495866  10.7268085  31.0374079  11.5360046
  11.0356909  30.3401198  11.7198524   5.7517812  37.5595826  13.3447837
   5.4480949  37.0051814  13.9458245   5.0497233  37.7388036  12.8575871
   5.6034022  37.5040608  13.3617543   3.8136163  44.7745547  18.0519935
   3.7056518  44.7847609  18.9181993   4.0231944  45.6000327  17.8624889
   3.8286274  44.8986621  18.1524026  14.3075349  30.7847022  11.0841634
  13.6949662  31.2717424  11.4695366  14.4039523  30.1090513  11.6279286
  14.2313246  30.7565331  11.2220493   1.8309955  42.0258189  15.5141872
   1.2397888  42.6667687  15.4844887   2.5930979  42.4495806  15.4873172
   1.8558216  42.1834027  15.5057020   2.2270578  33.1860187  16.1809890
   2.6872059  33.2599116  16.9185014   2.2726685  33.9841441  15.8309711
   2.3021133  33.3154334  16.2382646   3.8753928  33.8526882  20.7481917
   3.4839493  33.2060229  21.1837695   4.0439790  34.4438317  21.3676172
   3.8424838  33.8441150  20.9044623  17.9500377  41.8563959  16.5119151
  18.0083500  42.3050607  17.2579127  17.3166844  42.2662772  16.0749231
  17.8651672  41.9837693  16.5571699  11.5899471  47.4767501  12.9473897
  11.3919160  47.9658315  12.2530108  10.9687182  47.6808742  13.5258030
  11.4687036  47.5784039  12.9297120   5.6507450  39.2452397   7.2884141
   6.3949495  39.6326674   7.5267091   5.7968146  38.4009823   7.4524629
   5.7818035  39.1782870   7.3478111   7.5687025  31.0402656  12.3216002
   6.7223070  31.2125464  12.1957352   7.5658157  30.2352000  12.6581831
   7.4434175  30.9463685  12.3527129   8.6385325  34.8177871  13.1878060
   8.1645280  34.2919633  13.6983371   9.0103461  34.2707344  12.6192922
   8.6235214  34.6593867  13.1793208  14.9022056  39.8780246  14.5984841
  14.6620279  39.0386662  14.6027267  15.3814063  39.9580413  15.3225614
  14.9374240  39.7661646  14.7059643  16.9027243  36.6581704  12.5514100
  16.6637013  36.6177538  11.7134885  17.0661144  37.5052856  12.6779821
  16.8917546  36.7773789  12.4467582  13.5073273  41.0431653  18.4819145
  14.2307472  40.5904179  18.3030165  13.2423235  41.3236319  17.6991473
  13.5754546  41.0182621  18.3397861   2.3760142  35.6391826  15.2172024
   1.7513212  35.6510218  14.6097977   2.0405736  36.1152002  15.8663265
   2.2345633  35.7110343  15.2228593  10.1205908  44.2817989   5.3813471
  10.8440106  44.7476102   5.2378045   9.6806499  44.3491599   4.6311068
  10.1621600  44.3601826   5.2498253   9.2892063  41.1415531  16.6314160
   8.6749056  40.5973581  16.9262796   9.8059348  40.6279768  16.1519976
   9.2747725  40.9851940  16.6038389   8.5288360  42.2119801  14.3658459
   8.1015968  41.5869520  13.9323894   8.5213304  41.9294723  15.1917466
   8.4647501  42.0772582  14.4238286   1.6450887  37.2484974  17.4346893
   1.8044374  36.4928298  17.8398615   1.4643781  37.7975914  18.0887631
   1.6416246  37.2178788  17.5909599   9.5871190  29.4146210  17.9897682
   9.0911751  29.6109884  17.2989249  10.3440252  29.8138878  17.8186484
   9.6258015  29.5023944  17.8617819   6.8574069  33.0888556  14.5800993
   6.8816557  32.5548668  13.8913773   7.1085543  32.5805865  15.2426583
   6.8983988  32.9349460  14.5765638   3.1375392  31.8159374  13.9606737
   3.1773763  32.3168581  14.6741445   2.3125056  31.9069768  13.6912660
   3.0214918  31.9041190  14.0257275   5.3205005  41.3820114  22.0627032
   4.4700635  41.5191828  22.1984677   5.4833132  40.6483892  22.5074733
   5.2188868  41.2934215  22.1482631   4.5589755  38.3319884  16.2580636
   3.7281685  38.4993702  16.0515884   4.5041272  37.9555835  17.0429522
   4.4279170  38.3009615  16.3429164   2.3673538  31.8228777  21.8937047
   2.9926242  31.2790910  22.1666479   1.9124018  31.3423694  21.3244837
   2.3921799  31.6718258  21.8498641  15.9408587  40.0058064  16.9849695
  16.5326427  40.6455314  17.0167893  16.3767582  39.3081100  17.2741762
  16.0927018  39.9976414  17.0330528   7.7701977  44.4275436  17.6107589
   7.2627068  44.9811283  18.0548219   7.4728623  44.4883726  16.7926363
   7.6506862  44.5181747  17.5556046   9.9364159  32.7928756  16.4532252
  10.3619231  32.3401282  15.8415778   9.3221152  32.2388826  16.7297039
   9.9092805  32.6442732  16.4037277  12.9657728  37.2203282   9.2852837
  12.2948918  37.7632985   9.1565903  13.6597479  37.6898138   9.0434532
  12.9686596  37.3701554   9.2308365   7.0144462  49.3599994  14.5164596
   6.7910117  48.6018824  14.8848622   6.5254306  49.3898016  13.7945035
   6.9087911  49.2522219  14.4641337  13.1285856  33.6759166  12.1943211
  13.4813466  33.2488889  12.8689009  12.2700657  33.5910010  12.3244287
  13.0535301  33.6003907  12.3138221   1.8269541  36.3066686  10.2526057
   1.1081530  36.7230818  10.5198921   2.1981903  36.8720924   9.7017695
   1.7761473  36.4515967  10.2108864  11.1269122  36.9394535  16.1428053
  11.1067049  36.7577830  16.9962832  11.1748322  37.8106553  16.1187637
  11.1303763  37.0411073  16.2651348   9.0715452  43.5281727  22.0676529
   9.0311306  42.8831404  21.4821685   9.8838770  43.4718344  22.3801941
   9.1858605  43.4240693  22.0273479   5.6622919  49.5800453  11.9701680
   5.2483318  48.9174583  11.5805522   6.3470293  49.7278311  11.4497375
   5.7021291  49.5041111  11.8358177   9.0288213  48.7390538  12.7225297
   8.6304497  48.8492808  11.9546117   8.4139433  48.9472604  13.3051857
   8.8787103  48.7864106  12.6956596  14.5609916  28.7977578  13.1227523
  14.0540781  28.0906717  13.0548701  15.3577350  28.4670767  13.2528600
  14.6037155  28.6450729  13.1326518  10.4773932  35.3044190   9.0201187
  10.2487625  35.3276892   8.1779545  10.7372008  34.4801657   9.1396197
  10.4820120  35.1860270   8.9126385   4.7593160  37.1578663  18.6226287
   4.2472063  36.5499846  18.9811318   4.5872656  37.8735256  19.0900263
   4.6582797  37.1741962  18.7442511   3.5318694  33.8420736  10.3155383
   4.0076061  34.2037816   9.6805564   3.0307294  34.4977204  10.5955525
   3.5284053  33.9914925  10.2632124  16.7630056  43.3142504   6.1068388
  17.1463662  44.0633861   6.3366485  15.9674169  43.5608324   5.8480377
  16.7023838  43.4612198   6.1025961   8.6362231  35.0802908  21.0628543
   9.1933661  34.8516717  20.4307008   8.3123296  35.8408573  20.7863755
   8.6708641  35.1586744  20.9285040   6.3545348  38.1670561  22.0280550
   7.1056675  38.4822238  22.3420104   6.5467924  37.9649732  21.2014472
   6.4936762  38.1837943  21.9523945  13.2030638  34.2944127   9.2704345
  13.2024865  34.1392784  10.1288622  12.9986818  35.1407114   9.2145731
  13.1730416  34.3964748   9.3892285  10.9271490  38.9741629  12.9240552
  11.4225155  38.2564624  12.8844572  10.1171266  38.6712427  12.8095039
  10.8815383  38.8239275  12.9014278  12.9923309  41.7245317  15.6117681
  13.4178381  41.2019739  15.0588106  12.6280229  42.3226154  15.0906304
  13.0009912  41.7355544  15.4526691   2.6277389  50.0209534  14.3715026
   2.9423948  50.8345923  14.3792808   3.0370802  49.6359753  15.0397185
   2.7345487  50.0838237  14.4719118   9.5801908  45.4379581  11.9418838
  10.0513087  46.1519844  12.1108823   9.9162087  44.8378331  12.4778708
   9.6997023  45.4551045  12.0451214  11.6678893  47.0480894  24.1210910
  11.7775858  46.2589455  24.4767658  11.9969790  46.9586831  23.3185248
  11.7331299  46.9186747  24.0553301   6.4971403  30.2107052  18.8976933
   6.6299309  29.4138045  19.2257909   6.8816556  30.7373455  19.4775209
   6.5727732  30.1706968  19.0320436  10.2175855  45.2297515  18.7046531
   9.6696801  44.6055399  18.4366596  10.6788883  45.4191787  17.9890610
  10.2043064  45.1656565  18.5596962   9.5703759  27.1337378  15.4958026
   8.7649722  27.0235107  15.8125865   9.4410494  27.2349833  14.6387892
   9.4323891  27.1321048  15.4166067  13.0269719  33.2982870  16.0897723
  12.4432708  33.7992076  15.6775291  13.3474013  32.7912426  15.4562047
  12.9882894  33.2974705  15.9356230   4.1559850  30.2066227  17.1454827
   4.7004263  29.8657353  17.7359169   4.2096786  31.0651688  17.2876111
   4.2448970  30.2821486  17.2536700   9.7834181  46.2348588  15.2355872
  10.6032555  46.0911554  15.4972167   9.5028259  46.8594787  15.7772310
   9.8630924  46.3058940  15.3543812  26.2547831  53.8913439   8.1998748
  26.2241836  54.7458076   8.3717018  26.8529180  53.5908732   8.7584892
  26.3384989  53.9729936   8.3073551  19.4547516  52.9789091  12.9551679
  18.5985412  53.1397589  13.0060796  19.5015170  52.1081154  12.9756740
  19.3346628  52.8739892  12.9657745  22.7641233  59.2475616  22.5612135
  23.4708000  58.7527647  22.6899069  22.9529168  59.6884698  21.8314793
  22.8969138  59.2393966  22.4721180  18.8317907  64.8891447  10.0885569
  19.2157287  65.4578345   9.5490344  18.7677048  64.1640957   9.6091385
  18.8791334  64.8666910   9.9379432  22.2999337  55.0381134  15.5983331
  22.8455297  55.7166221  15.6577300  22.2416214  54.8968595  14.7384912
  22.3715252  55.1173136  15.4795391  15.4173412  62.5270201  10.9851683
  15.5183775  61.7170554  11.2948811  14.8215157  62.4327147  10.3551361
  15.3445951  62.3935229  10.9377921  24.0764406  56.4665742   6.4717058
  23.9603932  57.2173428   6.9009196  24.8720293  56.2089695   6.7213145
  24.1768995  56.5400588   6.5721150  15.2574152  67.4447790  12.3866539
  15.9011607  67.8860954  12.7762697  15.5830407  66.6401216  12.2996798
  15.4005980  67.3912984  12.4312016  10.9128544  50.7176218  13.5088324
  10.2933576  50.1268865  13.3398339  10.8112408  51.3087653  12.8752648
  10.8066219  50.7180300  13.3893314  18.0096440  52.4575759   7.8420787
  18.7076604  52.6363887   8.3342251  18.3248772  51.9346099   7.2191177
  18.1591777  52.4069532   7.8222798  10.6397677  54.2628499  15.7531893
  10.5156374  54.8490945  16.3881712  11.2915961  53.7688695  16.0544168
  10.7171326  54.2767304  15.8917823  18.1984375  58.8446205   7.8300579
  18.6378010  58.2363305   8.2755352  18.0489038  58.4653578   7.0586044
  18.2405841  58.6984676   7.7819746  15.6656018  57.4390216  15.0319404
  16.3105020  56.9462659  14.7130353  15.9057795  57.5815003  15.8585483
  15.7966603  57.3867659  15.1068938  18.2042109  60.2845122  14.6826297
  18.4865352  59.4896528  14.4613053  18.9328270  60.7625710  14.7031358
  18.3531673  60.2379719  14.6529312  16.1823303  47.8268156  11.9242062
  15.8526633  48.2779300  11.2545761  15.5068305  47.7484319  12.4715068
  16.0333739  47.8819291  11.9065285  21.7993712  57.1973386   4.7831348
  21.7145007  58.0534352   4.9280917  22.2878095  56.9217710   5.4513507
  21.8582609  57.2830707   4.9033430  23.3899711  43.8153679  10.1691673
  23.0753152  44.5057158  10.6012095  22.8726653  43.7598461   9.4677173
  23.2664181  43.9088568  10.1288622  22.7312145  53.8158180   6.2829083
  22.2023616  54.0317814   6.9426389  23.2537165  54.5094318   6.2030053
  22.7300598  53.9501317   6.3684682  28.1860198  59.3904484  11.6562128
  27.3557901  59.6015128  11.8195544  28.1369450  58.5641539  11.3804411
  28.0566933  59.2994091  11.6399493  16.2469935  62.2208339  14.4910037
  15.7296877  61.8615754  13.8871345  16.9444326  61.6970513  14.5016103
  16.2735516  62.0906027  14.4040296  19.9033527  62.6703153  20.4526210
  19.9916873  62.4829293  21.3004421  20.3323240  62.0240582  20.0531057
  19.9795630  62.5466160  20.5197962  17.4703987  61.9534313  19.4343872
  16.9074822  61.5406922  19.9583534  18.2325010  61.8787218  19.8537016
  17.4998436  61.8811713  19.5736873  19.0788967  53.9587049   3.5605472
  19.3184971  54.1665033   2.7480815  19.4004808  53.1544558   3.6694416
  19.1626125  53.8701150   3.4566025  14.3879257  45.8880445   7.4065010
  15.1425225  46.2558762   7.1682060  14.2106792  46.2619999   8.1744189
  14.4733736  45.9978632   7.4849898  13.0299978  63.9432334  12.0380503
  13.7320558  63.4284323  12.0953259  12.9497461  64.2706485  12.8427378
  13.1223739  63.9146560  12.1653295  27.6814156  52.0374885  15.4512549
  26.8442577  52.1077072  15.6860144  27.6502387  52.0399380  14.5786851
  27.5532438  52.0485112  15.3572097  14.0778885  54.1807921  21.1660918
  14.2499389  54.0713815  22.0146199  14.6148242  54.8262326  20.9292110
  14.1823889  54.2599922  21.2566014  12.7436322  48.2950764   4.1043123
  12.5611895  48.5122644   3.2784116  13.6061935  48.4089776   4.1601737
  12.8440911  48.3440661   3.9897610  12.3550754  60.1338686  11.5466111
  13.1939653  60.3661619  11.5939872  12.3862523  59.2642997  11.4773146
  12.4832471  60.0395632  11.5430755  12.9803457  60.5539561  15.8479416
  13.5201682  60.4110692  16.5182789  12.2973403  60.9536312  16.2163442
  12.9595611  60.5919232  16.0013838  18.4236041  45.2977174   7.1392147
  19.1522201  45.1193129   6.6930303  18.5130934  46.1395254   7.3499325
  18.5442703  45.3961053   7.1045664  22.4044342  56.2330562  11.0424441
  23.1601857  56.6662076  11.0813349  22.5106666  55.5835331  11.6159077
  22.5314512  56.2008045  11.1322466  25.4424513  60.0603839  11.7926844
  25.0059745  60.0640581  12.5485815  25.1087428  60.7409338  11.3606421
  25.3287133  60.1616295  11.8407676  20.0153586  62.1012172  23.1169994
  20.7994003  62.2143019  23.4825736  19.8150181  61.2753309  23.3128680
  20.1019612  61.9958891  23.2004380   8.3840602  56.7739852  16.0013838
   8.1179017  55.9578968  16.1604828   8.3979166  56.8193007  15.1309353
   8.3465324  56.6596757  15.8967320  25.3621996  47.1017667  14.0356271
  26.0047904  47.1715771  14.6218187  25.6145016  46.4346890  13.5335813
  25.4944128  47.0144015  14.0483551  13.1339208  50.3118230  18.6480845
  12.4411005  49.8415210  18.8941577  13.7499536  50.0856535  19.2222553
  13.1223738  50.2085362  18.7689998  20.1723980  64.0122274  16.7636449
  19.3739226  63.7721774  17.0210318  20.6209991  64.0636667  17.5103497
  20.1198591  63.9844665  16.9121374  28.5768859  56.7784759  10.6846481
  29.2385293  56.2175427  10.5842389  27.9360271  56.2836789  11.0099172
  28.5797727  56.6221168  10.7178821   8.7934016  57.5598631  13.2825582
   8.6109589  57.5345517  12.4297874   9.5283684  58.0297569  13.3214491
   8.8748079  57.6259993  13.1623500  24.8633690  57.7950141  10.4258470
  25.0989279  57.9395340   9.5985320  25.0123253  58.5592549  10.8189983
  24.9199493  57.9289196  10.3622073  11.8579767  54.2783634  19.7907691
  12.5819740  54.2636665  20.2772585  11.9595904  54.9878989  19.2929659
  11.9797976  54.3808337  19.7886477  26.6924146  56.6351807   8.2628073
  27.0232364  57.1679447   7.6568168  27.2657235  56.6890695   8.9190024
  26.8257826  56.7221376   8.2705855  19.2324717  57.7582719  24.6556638
  18.4397697  58.0726231  24.8409257  19.3473644  57.9734187  23.8177422
  19.1320127  57.8366555  24.5594972  21.9056036  54.4816710   8.9451653
  22.0002890  55.2206004   9.3991279  21.2814879  54.0534185   9.3786218
  21.8265066  54.5278030   9.0759801  20.1608509  57.6602922  19.5941934
  20.7347371  57.0230167  19.7490498  20.0823313  57.6607005  18.7251592
  20.2341744  57.5668034  19.4888345   8.7604926  54.4392132  13.4324649
   9.3378429  54.3028583  14.0716894   8.0618988  53.9827916  13.6870233
   8.7425947  54.3514398  13.5646938  22.1579057  56.3265450   2.1788605
  22.0759219  56.3967637   3.0443592  22.7958777  56.8895194   1.9872346
  22.2398894  56.4204421   2.2778555  20.5973278  48.1954638  11.7467224
  19.8929605  47.7063824  11.9051144  20.6458253  48.2077113  10.8755669
  20.5003330  48.1244286  11.6406564  14.4906940  53.6463950  12.1328027
  13.9156531  53.8056118  12.7691987  14.1142617  53.0099359  11.6696477
  14.3509753  53.5761763  12.1582585  18.1580229  52.1187299  16.9920405
  17.7694662  51.6941517  16.3372596  17.4934927  52.3669449  17.4997432
  18.0027157  52.0926020  16.9708273  27.8003498  51.8762304   9.7668235
  27.5440063  51.0642245   9.5766118  28.6432812  51.8839871   9.5398422
  27.8869523  51.7574301   9.7053052  21.9806590  45.8161928  14.5044389
  22.3617102  45.1340099  14.8912263  21.1769875  45.5271530  14.3220054
  21.9183052  45.6728977  14.5348445  19.2619167  56.3485904   5.1897212
  20.0759806  56.6400797   5.0779983  19.1978308  55.6945766   4.6155505
  19.3721906  56.2951099   5.0886049  25.4828657  59.0311900  19.6026788
  25.2467295  58.1999965  19.4838848  26.1271886  58.9797507  20.1881632
  25.5423328  58.9009588  19.6712681  15.1327075  59.8207421  10.3169524
  15.7701022  59.5819169  10.8621317  15.5582147  60.0244580   9.5822685
  15.2903242  59.8158432  10.2886681   9.8239718  62.0595758  14.2003828
   9.8643863  62.3310609  13.3723607  10.3834242  62.5837666  14.6161616
   9.9123064  62.1771513  14.1395716  15.9398431  48.3216126  24.3706998
  15.6251872  49.0915689  24.1076560  15.6188363  47.7586382  23.7859225
  15.8457350  48.3526395  24.2448348  26.5065078  58.8156349  15.6655082
  26.2010895  59.5484406  16.0268398  25.7871294  58.4094278  15.3847868
  26.3552420  58.8638082  15.6768219  17.5148547  60.2979844  11.9963310
  17.5887556  60.1355016  12.8505160  18.3318054  60.4870034  11.7523792
  17.6464906  60.3016586  12.0861336  32.2066870  55.4549349  14.9923426
  32.1391370  55.4745309  14.1226013  32.1922532  56.2979677  15.2179097
  32.1945627  55.5823084  14.8975903  13.4930328  46.7106648   9.9853194
  12.6252753  46.7829247  10.0510803  13.7805532  47.5128727  10.1741169
  13.4070076  46.8400795  10.0227961  22.6163217  46.8584507  18.3164516
  23.3616809  46.6694318  17.9027941  22.2000521  47.3842745  17.7578372
  22.6648191  46.9086653  18.1729089  29.9925487  54.2293736  13.2670021
  30.5433409  53.5961805  13.5067113  29.9769603  54.7609128  13.9585525
  30.0710684  54.2142684  13.4048879  16.6447878  58.0632333  17.8129914
  16.1459572  58.7748101  17.8914803  17.4548103  58.3833000  17.7748077
  16.6903985  58.2159182  17.8186483  12.9075996  57.3255286  12.0592635
  12.6189244  56.6992757  12.5938362  13.7759344  57.2675573  12.1257316
  12.9936248  57.2242830  12.1483590  23.6953894  52.4690069  12.3774617
  23.3518659  51.7480405  12.7281867  23.7946936  52.2603920  11.5352975
  23.6595936  52.3314273  12.3046297  24.1566923  58.9315773   7.9198605
  24.7224955  59.5908983   7.8357148  23.5094826  59.2765471   8.3915007
  24.1445679  59.0797715   7.9771362  15.5714936  50.9213377  23.1092212
  14.7614712  51.2271157  22.9982055  16.0489623  51.6418960  23.2244796
  15.5218415  51.0727979  23.1099283  14.4306496  60.1359098  13.3575116
  13.9087249  60.2759390  14.0426980  14.8180516  59.3769763  13.5477233
  14.4110197  60.0444622  13.4876192  11.4197680  50.1864907   7.4270070
  11.1322476  49.8166178   6.6902018  12.1068148  50.6559762   7.1653775
  11.4786577  50.2011876   7.2785146  20.6273501  61.8754558   7.3435684
  20.3860177  61.1422418   6.9362749  20.8074834  62.4241415   6.6902018
  20.6181125  61.8476949   7.1865907  15.8572821  57.1663117   8.7556607
  15.6615604  57.7737852   8.1616910  16.0807167  56.4731061   8.2748280
  15.8607462  57.1540643   8.5972687  14.2551351  54.0517855   8.8737475
  14.9774003  54.2159013   8.4141281  13.7759344  54.7727520   8.7676815
  14.2915082  54.1816085   8.7903089  22.2144859  50.3881654  14.2534160
  21.3755960  50.4142933  14.0172423  22.2849226  51.0352390  14.8339506
  22.1013253  50.4877780  14.3043277  11.9058968  56.4575928  17.9791615
  12.4180065  56.7360181  17.3300375  11.6195311  57.1965222  18.3454428
  11.9393831  56.6078281  17.9381493  20.6614137  47.2867031   8.9861776
  21.3640490  47.0874779   8.5081734  20.3958326  46.5142973   9.2930619
  20.7260770  47.1429997   8.9607217  26.0902383  55.5949641  11.5395402
  26.0036357  55.7505067  12.3930180  25.6352863  56.2387716  11.1654807
  26.0105639  55.7125396  11.6102508   8.9925874  50.9646120   8.2755351
   9.0942011  51.7672281   8.6036327   9.7881761  50.7633455   7.9778432
   9.1253780  51.0532018   8.2790707  15.4242694  48.5502316  18.0392656
  15.2325891  48.5657451  18.8892080  16.2741289  48.7465991  18.0159311
  15.5218415  48.5816667  18.1615951   9.8089607  51.0793298  16.0176473
   9.6675098  50.2277238  16.1420981  10.0930170  51.1221958  15.1938679
   9.8297453  50.9593048  15.9144097  19.9628199  52.9160388  10.1620961
  19.7162913  52.8356139  10.9957750  20.2913322  52.1313856   9.9683489
  19.9749442  52.7886653  10.2568484  23.8576248  59.6243747  13.9507742
  23.7190607  60.3224793  14.4556485  23.0776246  59.4692404  13.5943924
  23.7219475  59.7043914  13.9734017  22.1954333  55.9240123  20.2030124
  22.1902371  55.0519939  20.2072550  22.9015327  56.1228292  19.7299580
  22.2999337  55.8243997  20.1337159  15.9225226  55.6517107  19.5743944
  16.0668602  56.2318315  18.9387054  16.2700875  56.0293403  20.2793799
  15.9952688  55.7937811  19.5842939  18.0945144  54.8507275  17.3569076
  17.3468458  55.0438289  16.9517354  18.2486669  54.0252494  17.1193197
  18.0067571  54.7572386  17.2614482  14.9952981  63.8419878  16.4404971
  15.1442545  63.2822794  15.7878375  15.7752983  63.9211880  16.8237490
  15.1327075  63.7705444  16.4001920  25.3529621  58.9822001   4.7124242
  24.9736429  58.1959139   4.7053531  24.6895866  59.5308858   4.5695886
  25.1988095  58.9466825   4.6905038  17.5206282  64.0134521  17.7189462
  17.4449953  63.3443332  18.2740250  17.4496141  64.7152309  18.2330128
  17.4986889  64.0179429  17.8766310  18.3346921  48.7457826  18.2464480
  18.7919535  49.4781800  18.3737272  18.4103249  48.3224291  19.0051735
  18.4137890  48.7915064  18.3765556  10.5779912  48.9923645  19.3353923
  10.0422101  48.3804004  19.6514690  10.6397677  49.5671781  19.9887590
  10.5075544  48.9870573  19.4789350  22.8074247  41.9247701  12.1158322
  22.9257815  42.3824164  11.3825625  22.6336422  41.1192962  11.8294540
  22.7993417  41.8741473  11.9659256  18.1776529  62.5335520   8.5513068
  18.9426420  62.2645164   8.2295732  18.0754619  62.0485530   9.2683131
  18.2758024  62.4225085   8.6092895  16.2129298  50.7359930  15.0906304
  15.4225373  50.5551390  15.4123639  16.6089921  49.9586882  15.0736598
  16.1546175  50.5947390  15.1358852  21.5972985  58.3702360  12.8165749
  20.9217987  58.1387592  13.3179136  21.6065361  57.7623543  12.1907854
  21.4991489  58.2461285  12.7981902  18.7267129  53.2120189  19.5729802
  18.6626270  54.0730145  19.4449939  18.8664317  52.8952182  18.7725354
  18.7382599  53.2920355  19.4358015  23.5989719  61.2267492   5.0475927
  23.6809557  62.0334478   4.7237378  24.0839462  61.2463451   5.7716701
  23.6826877  61.3488154   5.1062826  17.4086223  55.9052328  13.7146005
  16.9848472  56.1056827  12.9785024  17.2331078  55.0581176  13.8270305
  17.3197103  55.8101109  13.6219695  16.9097916  67.4202841  16.1767463
  17.3993846  66.7213630  15.9943127  16.3382148  67.1226711  16.7643520
  16.8982446  67.2729065  16.2368503  12.6968668  56.4004379   9.1473978
  12.8533287  56.3351182  10.0029970  13.0369261  57.1752932   8.9352657
  12.7701902  56.5053578   9.2428572  19.2347812  55.7762263   8.0167341
  19.7763358  55.2732644   8.4805962  19.5494371  55.7227458   7.2056826
  19.3612209  55.6941684   7.9651153  23.1064920  59.9864910  25.1294253
  23.9199785  59.7150059  25.2899386  22.9459886  59.6872450  24.3254449
  23.2034868  59.9019836  25.0339659  20.3837082  50.6698568  18.0689642
  20.5979051  50.0309482  17.5152996  19.7670981  51.1144391  17.6397503
  20.3242411  50.6408711  17.9240073  21.7941750  63.5917316   9.5143862
  21.4021541  63.2884031   8.7966729  21.9494822  64.4286406   9.3248816
  21.7595339  63.6701153   9.3800360   9.2702929  53.5839330   9.4634745
   9.6501894  54.0023875   8.7995012   8.6958294  54.1652786   9.7703588
   9.2414254  53.7317189   9.4111486  22.5476170  52.2787633  19.0072949
  21.7352851  51.9713523  19.0886121  23.0066104  51.7986633  19.5715661
  22.4956554  52.1624125  19.1027543  21.9581424  60.1567305   9.4549893
  21.5996079  60.3281948  10.2313925  21.4720135  60.6180510   8.8977891
  21.8340121  60.2506276   9.4875162  19.7751810  43.7798503  13.0576984
  18.9045368  43.7537224  13.0110294  20.0292152  43.6075695  12.2402830
  19.6845370  43.7508647  12.9297121  19.6429677  53.6847704  23.7901651
  20.1129308  54.3089821  24.1769525  19.6891557  53.0164680  24.3494866
  19.7197553  53.6782384  23.9301722  16.8000951  45.7904732  14.5150455
  16.2839439  45.0984923  14.6402034  16.2394880  46.4575509  14.4613053
  16.6407464  45.7867989  14.5256521  18.8693184  46.3297692  16.3443307
  18.4824937  46.3546723  17.1256837  18.3826122  45.7639370  15.8917824
  18.7405693  46.2493443  16.3931211  23.1186164  61.0471201  20.4017094
  23.7565884  60.5531396  20.0679550  22.4760255  60.9748601  19.8169321
  23.1180390  60.9630209  20.2659449  24.8443164  52.8960347  14.9683009
  24.4170772  52.8086695  14.2131109  24.2069217  53.0038122  15.5537854
  24.6872771  52.8993006  14.9428451  18.5350326  43.2164677  18.6353567
  19.1643444  43.7524977  18.3574638  18.7036189  43.1242036  19.4867133
  18.6528121  43.2826039  18.7202095  18.3364241  48.0035872  20.9079979
  19.1637670  47.7321021  20.9638593  18.3572087  48.7996714  21.2643797
  18.4617091  48.0815626  20.9695162  23.1740420  61.7391009  17.0422451
  23.9632798  61.3880074  17.1624532  23.3484018  62.5527397  16.7799084
  23.3160702  61.8076866  17.0210319  10.3909298  52.7719272  11.9234990
   9.9965995  52.8462283  11.1485100   9.8349414  53.1577218  12.4743352
  10.2512110  52.8401046  11.8902650  22.0274244  45.7500566  11.6038869
  22.2323838  45.6822874  12.4495866  21.7000668  46.5559387  11.5360046
  22.0089492  45.8586506  11.7198524  16.7250396  53.0781134  13.3447837
  16.4213533  52.5237122  13.9458245  16.0229816  53.2573344  12.8575871
  16.5766605  53.0225916  13.3617543  15.7816493  50.3881654   7.9092539
  16.0576227  49.6700566   7.4970106  16.3815162  50.9866574   7.7013645
  15.9109757  50.3702024   7.8173300  14.7868747  60.2930855  18.0519935
  14.6789101  60.3032917  18.9181993  14.9964528  61.1185635  17.8624889
  14.8018858  60.4171929  18.1524026  25.2807932  46.3032330  11.0841634
  24.6682246  46.7902732  11.4695366  25.3772107  45.6275821  11.6279286
  25.2045830  46.2750639  11.2220493  19.2827013  48.0595171   6.1839134
  19.7370760  48.2305731   6.9086978  19.7567059  47.4463282   5.7836910
  19.4195333  47.9946056   6.2312895  12.8042539  57.5443497  15.5141872
  12.2130472  58.1852995  15.4844887  13.5663562  57.9681114  15.4873172
  12.8290799  57.7019335  15.5057020  13.2003161  48.7045495  16.1809890
  13.6604643  48.7784424  16.9185014  13.2459268  49.5026749  15.8309711
  13.2753717  48.8339642  16.2382646  14.8486511  49.3712190  20.7481917
  14.4572076  48.7245537  21.1837695  15.0172374  49.9623625  21.3676172
  14.8157421  49.3626457  20.9044623  28.9232960  57.3749267  16.5119151
  28.9816084  57.8235915  17.2579127  28.2899428  57.7848079  16.0749231
  28.8384255  57.5023001  16.5571699  22.5632055  62.9952809  12.9473897
  22.3651743  63.4843623  12.2530108  21.9419766  63.1994050  13.5258030
  22.4419619  63.0969347  12.9297120  16.6240033  54.7637705   7.2884141
  17.3682078  55.1511982   7.5267091  16.7700729  53.9195131   7.4524629
  16.7550618  54.6968178   7.3478111  18.5419609  46.5587964  12.3216002
  17.6955654  46.7310772  12.1957352  18.5390741  45.7537308  12.6581831
  18.4166759  46.4648993  12.3527129  19.6117909  50.3363179  13.1878060
  19.1377863  49.8104941  13.6983371  19.9836045  49.7892652  12.6192922
  19.5967798  50.1779175  13.1793208   9.9890939  52.3334685  18.5561606
  10.8516552  52.2330395  18.4698936   9.6582722  51.7529395  17.9947178
  10.0676136  52.2326312  18.4607012  25.8754640  55.3965554  14.5984841
  25.6352862  54.5571970  14.6027267  26.3546647  55.4765721  15.3225614
  25.9106823  55.2846954  14.7059643  21.5401409  51.2299733   6.2503814
  21.0124427  51.3128477   5.5609523  21.9997117  51.9717605   6.2468459
  21.5303259  51.3520396   6.1478509  27.8759827  52.1767012  12.5514100
  27.6369597  52.1362846  11.7134885  28.0393728  53.0238164  12.6779821
  27.8650130  52.2959097  12.4467582  24.4805857  56.5616961  18.4819145
  25.2040056  56.1089487  18.3030165  24.2155819  56.8421627  17.6991473
  24.5487130  56.5367929  18.3397861  13.3492725  51.1577134  15.2172024
  12.7245795  51.1695526  14.6097977  13.0138320  51.6337310  15.8663265
  13.2078217  51.2295651  15.2228593  10.0618401  59.2177595  16.6575789
   9.5318325  58.5270033  16.7070763  10.3343494  59.2087780  15.8288497
  10.0243123  59.1144726  16.5423205  21.0938491  59.8003297   5.3813471
  21.8172690  60.2661410   5.2378045  20.6539082  59.8676906   4.6311068
  21.1354183  59.8787134   5.2498253  20.2624646  56.6600839  16.6314160
  19.6481639  56.1158889  16.9262796  20.7791931  56.1465076  16.1519976
  20.2480309  56.5037248  16.6038389  19.5020943  57.7305109  14.3658459
  19.0748551  57.1054828  13.9323894  19.4945888  57.4480031  15.1917466
  19.4380085  57.5957890  14.4238286  12.6183470  52.7670282  17.4346893
  12.7776957  52.0113606  17.8398615  12.4376364  53.3161222  18.0887631
  12.6148829  52.7364096  17.5909599  20.5603773  44.9331518  17.9897682
  20.0644335  45.1295192  17.2989249  21.3172836  45.3324186  17.8186484
  20.5990598  45.0209252  17.8617819  17.8306653  48.6073864  14.5800993
  17.8549140  48.0733976  13.8913773  18.0818127  48.0991172  15.2426583
  17.8716572  48.4534768  14.5765638  14.1107975  47.3344682  13.9606737
  14.1506347  47.8353889  14.6741445  13.2857640  47.4255076  13.6912660
  13.9947501  47.4226498  14.0257275  16.2937588  56.9005422  22.0627032
  15.4433219  57.0377136  22.1984677  16.4565716  56.1669200  22.5074733
  16.1921452  56.8119523  22.1482631  15.5322339  53.8505192  16.2580636
  14.7014268  54.0179010  16.0515884  15.4773856  53.4741143  17.0429522
  15.4011754  53.8194923  16.3429164  13.3406122  47.3414085  21.8937047
  13.9658825  46.7976217  22.1666479  12.8856602  46.8609002  21.3244837
  13.3654383  47.1903566  21.8498641  13.9058383  52.1260783   6.7870754
  14.0461344  52.6233248   7.4899395  14.4040915  51.4247078   6.9284968
  13.9999463  52.0962762   6.9122333  26.9141171  55.5243372  16.9849695
  27.5059011  56.1640622  17.0167893  27.3500165  54.8266408  17.2741762
  27.0659602  55.5161722  17.0330528  15.5137588  48.9241870   4.0908773
  15.8353429  48.4444952   3.4368035  15.7764532  49.7341516   3.8999584
  15.6003613  48.9731768   3.9664265  18.7434561  59.9460744  17.6107589
  18.2359652  60.4996591  18.0548219  18.4461207  60.0069034  16.7926363
  18.6239445  60.0367055  17.5556046  20.9096743  48.3114064  16.4532252
  21.3351814  47.8586590  15.8415778  20.2953736  47.7574134  16.7297039
  20.8825388  48.1628040  16.4037277  19.3490966  44.7829164   9.8622829
  18.7059284  44.6326810  10.4307967  19.0090373  44.5371509   9.0971933
  19.2036043  44.7241286   9.8325844  23.9390312  52.7388590   9.2852837
  23.2681502  53.2818293   9.1565903  24.6330062  53.2083446   9.0434532
  23.9419180  52.8886862   9.2308365  17.9877046  64.8785302  14.5164596
  17.7642700  64.1204132  14.8848622  17.4986889  64.9083324  13.7945035
  17.8820495  64.7707527  14.4641337  24.1018440  49.1944474  12.1943211
  24.4546050  48.7674197  12.8689009  23.2433241  49.1095317  12.3244287
  24.0267884  49.1189215  12.3138221  12.8002125  51.8251994  10.2526057
  12.0814114  52.2416126  10.5198921  13.1714487  52.3906232   9.7017695
  12.7494056  51.9701275  10.2108864  20.0448035  59.0467035  22.0676529
  20.0043890  58.4016711  21.4821685  20.8571353  58.9903652  22.3801941
  20.1591189  58.9426001  22.0273479  16.6355503  65.0985760  11.9701680
  16.2215901  64.4359891  11.5805522  17.3202877  65.2463619  11.4497375
  16.6753874  65.0226419  11.8358177  20.0020797  64.2575846  12.7225297
  19.6037080  64.3678116  11.9546117  19.3872016  64.4657912  13.3051857
  19.8519686  64.3049414  12.6956596  18.5748699  50.8649994   5.5899437
  17.9813538  51.1866990   5.0384004  18.6123977  50.0191089   5.3820543
  18.4923088  50.7874322   5.4782208  25.5342500  44.3162886  13.1227523
  25.0273364  43.6092025  13.0548701  26.3309933  43.9856075  13.2528600
  25.5769739  44.1636037  13.1326518  21.4506515  50.8229498   9.0201187
  21.2220208  50.8462199   8.1779545  21.7104592  49.9986965   9.1396197
  21.4552704  50.7045578   8.9126385  15.7325744  52.6763971  18.6226287
  15.2204647  52.0685154  18.9811318  15.5605240  53.3920564  19.0900263
  15.6315381  52.6927270  18.7442511  10.5791459  51.1201546  21.2728649
  10.4094049  51.7802921  20.7276856  10.1357408  51.3308108  21.9941138
  10.4890792  51.2487529  21.2990278  14.5051278  49.3606044  10.3155383
  14.9808644  49.7223124   9.6805564  14.0039878  50.0162512  10.5955525
  14.5016637  49.5100233  10.2632124  27.7362640  58.8327812   6.1068388
  28.1196245  59.5819169   6.3366485  26.9406753  59.0793632   5.8480377
  27.6756422  58.9797506   6.1025961  19.6094814  50.5988216  21.0628543
  20.1666244  50.3702025  20.4307008  19.2855879  51.3593881  20.7863755
  19.6441224  50.6772052  20.9285040   7.4793523  54.0248412  16.5317139
   6.9320243  53.3549058  16.6498007   8.2685901  53.6578260  16.5960606
   7.5145707  53.8713398  16.5585839  17.3277932  53.6855869  22.0280550
  18.0789258  54.0007546  22.3420104  17.5200508  53.4835040  21.2014472
  17.4669346  53.7023251  21.9523945  16.5477931  51.5047244   3.6828767
  16.9276896  51.5226873   2.8979881  15.8070527  51.9501233   3.5619614
  16.4946769  51.5729019   3.5492335  24.1763222  49.8129435   9.2704345
  24.1757448  49.6578092  10.1288622  23.9719402  50.6592422   9.2145731
  24.1463000  49.9150056   9.3892285   6.2380493  53.2369220  13.6863162
   6.0602254  52.7845829  14.4118077   5.9499515  54.0395381  13.8701639
   6.1693446  53.2891778  13.8206665  21.9004074  54.4926937  12.9240552
  22.3957739  53.7749932  12.8844572  21.0903849  54.1897735  12.8095039
  21.8547967  54.3424583  12.9014278  23.9655893  57.2430625  15.6117681
  24.3910964  56.7205046  15.0588106  23.6012812  57.8411462  15.0906304
  23.9742495  57.2540852  15.4526691  13.6009972  65.5394842  14.3715026
  13.9156531  66.3531231  14.3792808  14.0103386  65.1545061  15.0397185
  13.7078070  65.6023545  14.4719118  20.5534492  60.9564889  11.9418838
  21.0245670  61.6705151  12.1108823  20.8894671  60.3563639  12.4778708
  20.6729607  60.9736353  12.0451214  22.6411477  62.5666202  24.1210910
  22.7508442  61.7774763  24.4767658  22.9702373  62.4772138  23.3185248
  22.7063882  62.4372055  24.0553301  17.4703987  45.7292359  18.8976933
  17.6031893  44.9323353  19.2257909  17.8549140  46.2558762  19.4775209
  17.5460316  45.6892276  19.0320436  21.1908438  60.7482823  18.7046531
  20.6429384  60.1240707  18.4366596  21.6521467  60.9377095  17.9890610
  21.1775648  60.6841873  18.5596962  20.5436342  42.6522686  15.4958026
  19.7382306  42.5420415  15.8125865  20.4143078  42.7535141  14.6387892
  20.4056475  42.6506356  15.4166067  24.0002303  48.8168178  16.0897723
  23.4165292  49.3177384  15.6775291  24.3206597  48.3097734  15.4562047
  23.9615478  48.8160013  15.9356230  16.5397102  47.7308772   6.3656398
  17.3612796  47.9007085   6.1238093  16.0766753  47.8856033   5.6422696
  16.5928264  47.7790505   6.2228042  15.1292434  45.7251535  17.1454827
  15.6736847  45.3842661  17.7359169  15.1829369  46.5836996  17.2876111
  15.2181553  45.8006794  17.2536700  10.9422993  59.4867951  14.0193635
  11.5467850  59.4463785  13.3907455  10.7350305  60.3339103  14.0497691
  11.0011890  59.6055953  13.9309751  20.7566765  61.7533896  15.2355872
  21.5765138  61.6096862  15.4972167  20.4760842  62.3780095  15.7772310
  20.8363508  61.8244248  15.3543812  37.2280415  69.4098747   8.1998748
  37.1974419  70.2643384   8.3717018  37.8261764  69.1094040   8.7584892
  37.3117573  69.4915244   8.3073551  30.4280100  68.4974398  12.9551679
  29.5717995  68.6582897  13.0060796  30.4747754  67.6266462  12.9756740
  30.3079211  68.3925200  12.9657745  33.7373816  74.7660924  22.5612135
  34.4440584  74.2712955  22.6899069  33.9261752  75.2070006  21.8314793
  33.8701722  74.7579274  22.4721180  33.2731921  70.5566442  15.5983331
  33.8187881  71.2351529  15.6577300  33.2148797  70.4153903  14.7384912
  33.3447835  70.6358444  15.4795391  21.8861127  66.2361526  13.5088324
  21.2666159  65.6454173  13.3398339  21.7844991  66.8272961  12.8752648
  21.7798803  66.2365608  13.3893314  28.9829023  67.9761067   7.8420787
  29.6809188  68.1549195   8.3342251  29.2981356  67.4531407   7.2191177
  29.1324360  67.9254840   7.8222798  21.6130261  69.7813807  15.7531893
  21.4888957  70.3676253  16.3881712  22.2648545  69.2874003  16.0544168
  21.6903910  69.7952612  15.8917823  26.6388602  72.9575524  15.0319404
  27.2837604  72.4647967  14.7130353  26.8790379  73.1000311  15.8585483
  26.7699187  72.9052966  15.1068938  29.1774693  75.8030430  14.6826297
  29.4597936  75.0081836  14.4613053  29.9060853  76.2811018  14.7031358
  29.3264257  75.7565027  14.6529312  27.1555887  63.3453464  11.9242062
  26.8259217  63.7964608  11.2545761  26.4800889  63.2669627  12.4715068
  27.0066323  63.4004599  11.9065285  34.3632294  59.3338987  10.1691673
  34.0485735  60.0242466  10.6012095  33.8459236  59.2783769   9.4677173
  34.2396765  59.4273876  10.1288622  25.3611841  61.4065752   7.4065010
  26.1157809  61.7744070   7.1682060  25.1839375  61.7805307   8.1744189
  25.4466319  61.5163940   7.4849898  38.6546739  67.5560193  15.4512549
  37.8175161  67.6262380  15.6860144  38.6234970  67.5584688  14.5786851
  38.5265022  67.5670420  15.3572097  25.0511469  69.6993229  21.1660918
  25.2231972  69.5899123  22.0146199  25.5880826  70.3447634  20.9292110
  25.1556473  69.7785230  21.2566014  23.7168905  63.8136071   4.1043123
  23.5344479  64.0307952   3.2784116  24.5794518  63.9275084   4.1601737
  23.8173495  63.8625969   3.9897610  29.3968625  60.8162482   7.1392147
  30.1254785  60.6378437   6.6930303  29.4863518  61.6580562   7.3499325
  29.5175287  60.9146361   7.1045664  33.3776925  71.7515870  11.0424441
  34.1334440  72.1847384  11.0813349  33.4839250  71.1020639  11.6159077
  33.5047096  71.7193353  11.1322466  36.4157096  75.5789147  11.7926844
  35.9792328  75.5825889  12.5485815  36.0820012  76.2594646  11.3606421
  36.3019716  75.6801603  11.8407676  30.9886170  77.6197480  23.1169994
  31.7726587  77.7328327  23.4825736  30.7882765  76.7938617  23.3128680
  31.0752195  77.5144199  23.2004380  19.3573185  72.2925160  16.0013838
  19.0911601  71.4764276  16.1604828  19.3711750  72.3378315  15.1309353
  19.3197908  72.1782064  15.8967320  36.3354579  62.6202975  14.0356271
  36.9780488  62.6901079  14.6218187  36.5877600  61.9532198  13.5335813
  36.4676711  62.5329323  14.0483551  24.1071792  65.8303538  18.6480845
  23.4143589  65.3600518  18.8941577  24.7232119  65.6041843  19.2222553
  24.0956322  65.7270670  18.7689998  39.5501443  72.2970067  10.6846481
  40.2117877  71.7360735  10.5842389  38.9092855  71.8022097  11.0099172
  39.5530310  72.1406476  10.7178821  19.7666599  73.0783939  13.2825582
  19.5842172  73.0530825  12.4297874  20.5016268  73.5482877  13.3214491
  19.8480663  73.1445301  13.1623500  22.8312351  69.7968942  19.7907691
  23.5552323  69.7821973  20.2772585  22.9328487  70.5064297  19.2929659
  22.9530560  69.8993645  19.7886477  30.2057300  73.2768027  24.6556638
  29.4130281  73.5911538  24.8409257  30.3206227  73.4919495  23.8177422
  30.1052711  73.3551863  24.5594972  32.8788619  70.0002018   8.9451653
  32.9735474  70.7391312   9.3991279  32.2547463  69.5719493   9.3786218
  32.7997649  70.0463338   9.0759801  31.1341093  73.1788230  19.5941934
  31.7079955  72.5415475  19.7490498  31.0555897  73.1792313  18.7251592
  31.2074328  73.0853342  19.4888345  19.7337509  69.9577440  13.4324649
  20.3111012  69.8213891  14.0716894  19.0351571  69.5013224  13.6870233
  19.7158531  69.8699706  13.5646938  26.4904812  71.6111495  11.6463132
  26.2324056  70.7783230  11.6194431  26.5453294  71.8369108  10.8055632
  26.4604590  71.5209267  11.5183269  31.5705862  63.7139946  11.7467224
  30.8662189  63.2249132  11.9051144  31.6190836  63.7262421  10.8755669
  31.4735913  63.6429594  11.6406564  25.4639524  69.1649258  12.1328027
  24.8889115  69.3241426  12.7691987  25.0875200  68.5284667  11.6696477
  25.3242336  69.0947071  12.1582585  29.1312812  67.6372607  16.9920405
  28.7427245  67.2126825  16.3372596  28.4667511  67.8854757  17.4997432
  28.9759740  67.6111328  16.9708273  38.7736082  67.3947612   9.7668235
  38.5172646  66.5827553   9.5766118  39.6165396  67.4025179   9.5398422
  38.8602107  67.2759609   9.7053052  32.9539174  61.3347236  14.5044389
  33.3349686  60.6525407  14.8912263  32.1502458  61.0456838  14.3220054
  32.8915636  61.1914284  14.5348445  36.4561241  74.5497208  19.6026788
  36.2199878  73.7185273  19.4838848  37.1004470  74.4982815  20.1881632
  36.5155912  74.4194896  19.6712681  26.1059659  75.3392729  10.3169524
  26.7433606  75.1004477  10.8621317  26.5314731  75.5429888   9.5822685
  26.2635825  75.3343739  10.2886681  26.9131014  63.8401434  24.3706998
  26.5984455  64.6100997  24.1076560  26.5920947  63.2771690  23.7859225
  26.8189933  63.8711703  24.2448348  37.4797661  74.3341657  15.6655082
  37.1743479  75.0669714  16.0268398  36.7603877  73.9279586  15.3847868
  37.3285004  74.3823390  15.6768219  28.4881131  75.8165152  11.9963310
  28.5620139  75.6540324  12.8505160  29.3050637  76.0055341  11.7523792
  28.6197490  75.8201894  12.0861336  43.1799454  70.9734657  14.9923426
  43.1123954  70.9930617  14.1226013  43.1655116  71.8164985  15.2179097
  43.1678210  71.1008392  14.8975903  24.4662911  62.2291956   9.9853194
  23.5985337  62.3014555  10.0510803  24.7538116  63.0314035  10.1741169
  24.3802659  62.3586103  10.0227961  33.5895800  62.3769815  18.3164516
  34.3349392  62.1879625  17.9027941  33.1733105  62.9028053  17.7578372
  33.6380774  62.4271960  18.1729089  40.9658071  69.7479044  13.2670021
  41.5165993  69.1147113  13.5067113  40.9502186  70.2794436  13.9585525
  41.0443267  69.7327992  13.4048879  27.6180462  73.5817641  17.8129914
  27.1192155  74.2933409  17.8914803  28.4280686  73.9018307  17.7748077
  27.6636569  73.7344489  17.8186483  23.8808579  72.8440594  12.0592635
  23.5921828  72.2178065  12.5938362  24.7491927  72.7860881  12.1257316
  23.9668831  72.7428138  12.1483590  34.6686477  67.9875377  12.3774617
  34.3251243  67.2665712  12.7281867  34.7679520  67.7789228  11.5352975
  34.6328520  67.8499581  12.3046297  26.5447520  66.4398685  23.1092212
  25.7347296  66.7456465  22.9982055  27.0222207  67.1604268  23.2244796
  26.4950999  66.5913286  23.1099283  25.4039079  75.6544406  13.3575116
  24.8819833  75.7944698  14.0426980  25.7913100  74.8955071  13.5477233
  25.3842780  75.5629930  13.4876192  22.3930263  65.7050215   7.4270070
  22.1055059  65.3351485   6.6902018  23.0800732  66.1745070   7.1653775
  22.4519161  65.7197184   7.2785146  26.8305405  72.6848425   8.7556607
  26.6348188  73.2923160   8.1616910  27.0539751  71.9916369   8.2748280
  26.8340046  72.6725951   8.5972687  25.2283935  69.5703163   8.8737475
  25.9506587  69.7344321   8.4141281  24.7491928  70.2912828   8.7676815
  25.2647666  69.7001393   8.7903089  33.1877443  65.9066962  14.2534160
  32.3488543  65.9328241  14.0172423  33.2581810  66.5537697  14.8339506
  33.0745836  66.0063088  14.3043277  22.8791552  71.9761236  17.9791615
  23.3912649  72.2545489  17.3300375  22.5927894  72.7150530  18.3454428
  22.9126415  72.1263589  17.9381493  31.6346721  62.8052339   8.9861776
  32.3373074  62.6060087   8.5081734  31.3690910  62.0328281   9.2930619
  31.6993353  62.6615305   8.9607217  37.0634966  71.1134949  11.5395402
  36.9768941  71.2690375  12.3930180  36.6085446  71.7573024  11.1654807
  36.9838223  71.2310704  11.6102508  19.9658458  66.4831427   8.2755351
  20.0674594  67.2857589   8.6036327  20.7614345  66.2818763   7.9778432
  20.0986364  66.5717326   8.2790707  26.3975277  64.0687624  18.0392656
  26.2058474  64.0842759  18.8892080  27.2473873  64.2651298  18.0159311
  26.4950999  64.1001975  18.1615951  20.7822190  66.5978606  16.0176473
  20.6407682  65.7462546  16.1420981  21.0662754  66.6407266  15.1938679
  20.8030036  66.4778356  15.9144097  30.9360783  68.4345696  10.1620961
  30.6895497  68.3541447  10.9957750  31.2645906  67.6499164   9.9683489
  30.9482026  68.3071961  10.2568484  34.8308831  75.1429055  13.9507742
  34.6923191  75.8410101  14.4556485  34.0508829  74.9877712  13.5943924
  34.6952058  75.2229222  13.9734017  33.1686916  71.4425431  20.2030124
  33.1634955  70.5705247  20.2072550  33.8747910  71.6413600  19.7299580
  33.2731920  71.3429305  20.1337159  26.8957810  71.1702414  19.5743944
  27.0401186  71.7503623  18.9387054  27.2433458  71.5478711  20.2793799
  26.9685271  71.3123119  19.5842939  29.0677727  70.3692583  17.3569076
  28.3201041  70.5623597  16.9517354  29.2219252  69.5437802  17.1193197
  28.9800155  70.2757694  17.2614482  29.3079504  64.2643134  18.2464480
  29.7652118  64.9967108  18.3737272  29.3835833  63.8409599  19.0051735
  29.3870474  64.3100372  18.3765556  21.5512495  64.5108953  19.3353923
  21.0154685  63.8989311  19.6514690  21.6130260  65.0857089  19.9887590
  21.4808128  64.5055881  19.4789350  33.7806830  57.4433009  12.1158322
  33.8990398  57.9009472  11.3825625  33.6069006  56.6378270  11.8294540
  33.7726001  57.3926781  11.9659256  27.1861882  66.2545237  15.0906304
  26.3957957  66.0736698  15.4123639  27.5822505  65.4772190  15.0736598
  27.1278758  66.1132698  15.1358852  32.5705568  73.8887668  12.8165749
  31.8950570  73.6572900  13.3179136  32.5797944  73.2808851  12.1907854
  32.4724073  73.7646593  12.7981902  29.6999712  68.7305497  19.5729802
  29.6358854  69.5915453  19.4449939  29.8396900  68.4137490  18.7725354
  29.7115182  68.8105663  19.4358015  28.3818806  71.4237636  13.7146005
  27.9581055  71.6242135  12.9785024  28.2063661  70.5766484  13.8270305
  28.2929687  71.3286417  13.6219695  23.6701251  71.9189687   9.1473978
  23.8265870  71.8536490  10.0029970  24.0101844  72.6938240   8.9352657
  23.7434486  72.0238886   9.2428572  30.2080396  71.2947571   8.0167341
  30.7495941  70.7917952   8.4805962  30.5226955  71.2412766   7.2056826
  30.3344793  71.2126992   7.9651153  34.0797503  75.5050218  25.1294253
  34.8932369  75.2335367  25.2899386  33.9192470  75.2057758  24.3254449
  34.1767452  75.4205144  25.0339659  31.3569665  66.1883875  18.0689642
  31.5711635  65.5494790  17.5152996  30.7403564  66.6329699  17.6397503
  31.2974994  66.1594019  17.9240073  20.2435513  69.1024638   9.4634745
  20.6234478  69.5209183   8.7995012  19.6690878  69.6838094   9.7703588
  20.2146838  69.2502497   9.4111486  33.5208753  67.7972941  19.0072949
  32.7085435  67.4898831  19.0886121  33.9798688  67.3171941  19.5715661
  33.4689138  67.6809433  19.1027543  30.7484394  59.2983811  13.0576984
  29.8777952  59.2722532  13.0110294  31.0024735  59.1261003  12.2402830
  30.6577954  59.2693955  12.9297121  30.6162261  69.2033012  23.7901651
  31.0861892  69.8275128  24.1769525  30.6624141  68.5349988  24.3494866
  30.6930137  69.1967692  23.9301722  27.7733534  61.3090040  14.5150455
  27.2572023  60.6170231  14.6402034  27.2127463  61.9760817  14.4613053
  27.6140048  61.3053297  14.5256521  29.8425768  61.8483000  16.3443307
  29.4557521  61.8732031  17.1256837  29.3558705  61.2824678  15.8917824
  29.7138277  61.7678750  16.3931211  34.0918747  76.5656509  20.4017094
  34.7298468  76.0716704  20.0679550  33.4492839  76.4933909  19.8169321
  34.0912974  76.4815517  20.2659449  35.8175747  68.4145655  14.9683009
  35.3903355  68.3272003  14.2131109  35.1801800  68.5223430  15.5537854
  35.6605355  68.4178314  14.9428451  29.5082910  58.7349985  18.6353567
  30.1376028  59.2710285  18.3574638  29.6768772  58.6427344  19.4867133
  29.6260704  58.8011347  18.7202095  29.3096824  63.5221180  20.9079979
  30.1370254  63.2506329  20.9638593  29.3304670  64.3182021  21.2643797
  29.4349674  63.6000934  20.9695162  34.1473004  77.2576317  17.0422451
  34.9365382  76.9065382  17.1624532  34.3216602  78.0712705  16.7799084
  34.2893285  77.3262174  17.0210319  23.8866314  70.6685043  14.0950239
  23.0454321  70.5688917  14.3029133  24.0956322  71.4380523  14.4464560
  23.7931007  70.7677086  14.1777554  21.3641881  68.2904580  11.9234990
  20.9698579  68.3647591  11.1485100  20.8081998  68.6762526  12.4743352
  21.2244694  68.3586354  11.8902650  33.0006828  61.2685874  11.6038869
  33.2056421  61.2008181  12.4495866  32.6733252  62.0744695  11.5360046
  32.9822076  61.3771814  11.7198524  27.6982979  68.5966442  13.3447837
  27.3946117  68.0422430  13.9458245  26.9962400  68.7758652  12.8575871
  27.5499189  68.5411224  13.3617543  26.7549076  65.9066962   7.9092539
  27.0308811  65.1885874   7.4970106  27.3547746  66.5051882   7.7013645
  26.8842341  65.8887332   7.8173300  36.2540516  61.8217638  11.0841634
  35.6414829  62.3088040  11.4695366  36.3504691  61.1461129  11.6279286
  36.1778413  61.7935947  11.2220493  30.2559597  63.5780479   6.1839134
  30.7103343  63.7491039   6.9086978  30.7299642  62.9648590   5.7836910
  30.3927917  63.5131364   6.2312895  23.7775122  73.0628805  15.5141872
  23.1863055  73.7038303  15.4844887  24.5396146  73.4866422  15.4873172
  23.8023383  73.2204643  15.5057020  24.1735745  64.2230803  16.1809890
  24.6337226  64.2969732  16.9185014  24.2191852  65.0212057  15.8309711
  24.2486300  64.3524950  16.2382646  25.8219095  64.8897498  20.7481917
  25.4304660  64.2430845  21.1837695  25.9904957  65.4808933  21.3676172
  25.7890005  64.8811765  20.9044623  39.8965544  72.8934575  16.5119151
  39.9548667  73.3421223  17.2579127  39.2632011  73.3033387  16.0749231
  39.8116839  73.0208309  16.5571699  27.5972617  70.2823013   7.2884141
  28.3414662  70.6697290   7.5267091  27.7433313  69.4380439   7.4524629
  27.7283202  70.2153486   7.3478111  29.5152192  62.0773272  12.3216002
  28.6688237  62.2496080  12.1957352  29.5123325  61.2722616  12.6581831
  29.3899342  61.9834301  12.3527129  30.5850493  65.8548487  13.1878060
  30.1110447  65.3290249  13.6983371  30.9568628  65.3077959  12.6192922
  30.5700382  65.6964483  13.1793208  20.9623523  67.8519993  18.5561606
  21.8249136  67.7515703  18.4698936  20.6315306  67.2714703  17.9947178
  21.0408719  67.7511620  18.4607012  36.8487223  70.9150862  14.5984841
  36.6085446  70.0757277  14.6027267  37.3279230  70.9951029  15.3225614
  36.8839407  70.8032262  14.7059643  32.5133992  66.7485041   6.2503814
  31.9857011  66.8313785   5.5609523  32.9729700  67.4902913   6.2468459
  32.5035843  66.8705704   6.1478509  38.8492410  67.6952319  12.5514100
  38.6102180  67.6548154  11.7134885  39.0126311  68.5423472  12.6779821
  38.8382714  67.8144404  12.4467582  35.4538440  72.0802269  18.4819145
  36.1772639  71.6274795  18.3030165  35.1888403  72.3606934  17.6991473
  35.5219714  72.0553237  18.3397861  24.3225309  66.6762442  15.2172024
  23.6978379  66.6880834  14.6097977  23.9870904  67.1522617  15.8663265
  24.1810801  66.7480959  15.2228593  31.2357230  72.1786147  16.6314160
  30.6214223  71.6344197  16.9262796  31.7524515  71.6650384  16.1519976
  31.2212892  72.0222556  16.6038389  30.4753527  73.2490417  14.3658459
  30.0481135  72.6240136  13.9323894  30.4678471  72.9665339  15.1917466
  30.4112668  73.1143198  14.4238286  23.5916054  68.2855590  17.4346893
  23.7509541  67.5298914  17.8398615  23.4108948  68.8346530  18.0887631
  23.5881413  68.2549404  17.5909599  31.5336357  60.4516826  17.9897682
  31.0376918  60.6480500  17.2989249  32.2905419  60.8509494  17.8186484
  31.5723182  60.5394560  17.8617819  28.8039237  64.1259172  14.5800993
  28.8281724  63.5919284  13.8913773  29.0550710  63.6176480  15.2426583
  28.8449155  63.9720076  14.5765638  25.0840559  62.8529990  13.9606737
  25.1238930  63.3539196  14.6741445  24.2590224  62.9440384  13.6912660
  24.9680085  62.9411806  14.0257275  27.2670172  72.4190730  22.0627032
  26.4165802  72.5562444  22.1984677  27.4298299  71.6854508  22.5074733
  27.1654035  72.3304831  22.1482631  26.5054922  69.3690500  16.2580636
  25.6746852  69.5364318  16.0515884  26.4506439  68.9926450  17.0429522
  26.3744337  69.3380231  16.3429164  24.3138706  62.8599393  21.8937047
  24.9391409  62.3161525  22.1666479  23.8589185  62.3794310  21.3244837
  24.3386966  62.7088874  21.8498641  24.8790966  67.6446091   6.7870754
  25.0193927  68.1418555   7.4899395  25.3773499  66.9432386   6.9284968
  24.9732047  67.6148070   6.9122333  37.8873754  71.0428680  16.9849695
  38.4791595  71.6825930  17.0167893  38.3232749  70.3451716  17.2741762
  38.0392185  71.0347030  17.0330528  26.4870171  64.4427178   4.0908773
  26.8086012  63.9630260   3.4368035  26.7497115  65.2526824   3.8999584
  26.5736197  64.4917076   3.9664265  29.7167144  75.4646052  17.6107589
  29.2092235  76.0181899  18.0548219  29.4193790  75.5254342  16.7926363
  29.5972029  75.5552363  17.5556046  31.8829326  63.8299372  16.4532252
  32.3084398  63.3771898  15.8415778  31.2686319  63.2759442  16.7297039
  31.8557972  63.6813348  16.4037277  30.3223549  60.3014471   9.8622829
  29.6791867  60.1512118  10.4307967  29.9822956  60.0556817   9.0971933
  30.1768626  60.2426594   9.8325844  34.9122896  68.2573898   9.2852837
  34.2414086  68.8003600   9.1565903  35.6062646  68.7268754   9.0434532
  34.9151763  68.4072169   9.2308365  35.0751023  64.7129782  12.1943211
  35.4278633  64.2859505  12.8689009  34.2165825  64.6280625  12.3244287
  35.0000468  64.6374523  12.3138221  23.7734708  67.3437302  10.2526057
  23.0546697  67.7601434  10.5198921  24.1447070  67.9091540   9.7017695
  23.7226640  67.4886583  10.2108864  33.0734289  67.9765150  16.1428053
  33.0532216  67.7948446  16.9962832  33.1213490  68.8477169  16.1187637
  33.0768930  68.0781689  16.2651348  31.0180619  74.5652342  22.0676529
  30.9776474  73.9202019  21.4821685  31.8303937  74.5088960  22.3801941
  31.1323772  74.4611309  22.0273479  29.5481282  66.3835301   5.5899437
  28.9546122  66.7052298   5.0384004  29.5856560  65.5376397   5.3820543
  29.4655672  66.3059630   5.4782208  36.5075083  59.8348194  13.1227523
  36.0005948  59.1277333  13.0548701  37.3042517  59.5041383  13.2528600
  36.5502322  59.6821345  13.1326518  32.4239099  66.3414806   9.0201187
  32.1952792  66.3647507   8.1779545  32.6837175  65.5172273   9.1396197
  32.4285287  66.2230886   8.9126385  26.7058327  68.1949279  18.6226287
  26.1937231  67.5870462  18.9811318  26.5337824  68.9105872  19.0900263
  26.6047965  68.2112578  18.7442511  21.5524042  66.6386854  21.2728649
  21.3826632  67.2988229  20.7276856  21.1089992  66.8493416  21.9941138
  21.4623376  66.7672836  21.2990278  25.4783862  64.8791352  10.3155383
  25.9541228  65.2408432   9.6805564  24.9772461  65.5347820  10.5955525
  25.4749221  65.0285541  10.2632124  30.5827398  66.1173524  21.0628543
  31.1398828  65.8887333  20.4307008  30.2588463  66.8779189  20.7863755
  30.6173808  66.1957360  20.9285040  18.4526107  69.5433720  16.5317139
  17.9052826  68.8734365  16.6498007  19.2418485  69.1763568  16.5960606
  18.4878290  69.3898706  16.5585839  28.3010515  69.2041177  22.0280550
  29.0521842  69.5192854  22.3420104  28.4933092  69.0020348  21.2014472
  28.4401929  69.2208559  21.9523945  27.5210515  67.0232552   3.6828767
  27.9009480  67.0412181   2.8979881  26.7803111  67.4686541   3.5619614
  27.4679352  67.0914327   3.5492335  35.1495805  65.3314743   9.2704345
  35.1490032  65.1763400  10.1288622  34.9451985  66.1777730   9.2145731
  35.1195583  65.4335364   9.3892285  17.2113076  68.7554528  13.6863162
  17.0334837  68.3031137  14.4118077  16.9232098  69.5580689  13.8701639
  17.1426029  68.8077085  13.8206665  32.8736657  70.0112245  12.9240552
  33.3690323  69.2935240  12.8844572  32.0636433  69.7083043  12.8095039
  32.8280551  69.8609891  12.9014278  34.9388476  72.7615933  15.6117681
  35.3643548  72.2390354  15.0588106  34.5745396  73.3596770  15.0906304
  34.9475079  72.7726160  15.4526691  31.5267076  76.4750197  11.9418838
  31.9978254  77.1890459  12.1108823  31.8627254  75.8748947  12.4778708
  31.6462191  76.4921661  12.0451214  33.6144060  78.0851510  24.1210910
  33.7241026  77.2960071  24.4767658  33.9434957  77.9957446  23.3185248
  33.6796466  77.9557363  24.0553301  28.4436571  61.2477667  18.8976933
  28.5764476  60.4508661  19.2257909  28.8281723  61.7744070  19.4775209
  28.5192899  61.2077584  19.0320436  32.1641022  76.2668131  18.7046531
  31.6161968  75.6426015  18.4366596  32.6254051  76.4562403  17.9890610
  32.1508231  76.2027181  18.5596962  31.5168926  58.1707994  15.4958026
  30.7114889  58.0605723  15.8125865  31.3875661  58.2720449  14.6387892
  31.3789059  58.1691664  15.4166067  34.9734886  64.3353485  16.0897723
  34.3897875  64.8362692  15.6775291  35.2939180  63.8283042  15.4562047
  34.9348062  64.3345320  15.9356230  27.5129685  63.2494080   6.3656398
  28.3345380  63.4192393   6.1238093  27.0499336  63.4041341   5.6422696
  27.5660848  63.2975813   6.2228042  26.1025017  61.2436842  17.1454827
  26.6469430  60.9027969  17.7359169  26.1561953  62.1022304  17.2876111
  26.1914137  61.3192102  17.2536700  31.7299348  77.2719204  15.2355872
  32.5497722  77.1282170  15.4972167  31.4493426  77.8965403  15.7772310
  31.8096092  77.3429556  15.3543812  37.8863598  79.3586742  24.3706998
  37.5717039  80.1286305  24.1076560  37.5653531  78.7956998  23.7859225
  37.7922517  79.3897011  24.2448348  44.5628384  77.8955123  18.3164516
  45.3081976  77.7064933  17.9027941  44.1465688  78.4213361  17.7578372
  44.6113358  77.9457268  18.1729089  37.3707861  79.5872932  18.0392656
  37.1791058  79.6028067  18.8892080  38.2206457  79.7836606  18.0159311
  37.4683583  79.6187283  18.1615951  40.2812088  79.7828441  18.2464480
  40.7384702  80.5152416  18.3737272  40.3568417  79.3594907  19.0051735
  40.3603058  79.8285680  18.3765556  38.7466118  76.8275347  14.5150455
  38.2304607  76.1355539  14.6402034  38.1860047  77.4946125  14.4613053
  38.5872631  76.8238605  14.5256521  40.8158351  77.3668308  16.3443307
  40.4290105  77.3917339  17.1256837  40.3291289  76.8009986  15.8917824
  40.6870860  77.2864058  16.3931211  40.4815493  74.2535293  18.6353567
  41.1108611  74.7895593  18.3574638  40.6501356  74.1612652  19.4867133
  40.5993288  74.3196655  18.7202095  40.2829408  79.0406488  20.9079979
  41.1102837  78.7691637  20.9638593  40.3037254  79.8367329  21.2643797
  40.4082258  79.1186242  20.9695162  42.5068941  75.9702134  17.9897682
  42.0109502  76.1665808  17.2989249  43.2638003  76.3694802  17.8186484
  42.5455765  76.0579867  17.8617819  36.0573142  78.3715298  13.9606737
  36.0971514  78.8724504  14.6741445  35.2322807  78.4625691  13.6912660
  35.9412668  78.4597114  14.0257275  35.2871289  78.3784701  21.8937047
  35.9123992  77.8346833  22.1666479  34.8321769  77.8979618  21.3244837
  35.3119550  78.2274182  21.8498641  42.8561910  79.3484680  16.4532252
  43.2816981  78.8957206  15.8415778  42.2418903  78.7944750  16.7297039
  42.8290555  79.1998656  16.4037277  39.4169154  76.7662975  18.8976933
  39.5497060  75.9693969  19.2257909  39.8014307  77.2929378  19.4775209
  39.4925483  76.7262892  19.0320436  42.4901509  73.6893301  15.4958026
  41.6847473  73.5791031  15.8125865  42.3608245  73.7905757  14.6387892
  42.3521642  73.6876972  15.4166067  37.0757601  76.7622150  17.1454827
  37.6202014  76.4213277  17.7359169  37.1294537  77.6207612  17.2876111
  37.1646720  76.8377410  17.2536700  22.4592057  36.1853747   9.4952182
  23.1658824  35.6905778   9.6239116  22.6479992  36.6262829   8.7654840
  22.5919962  36.1772098   9.4061227  19.5984351  39.6081284   7.3866257
  19.6867697  39.4207424   8.2344467  20.0274064  38.9618713   6.9871104
  19.6746453  39.4844292   7.4538009  17.1654811  38.8912444   6.3683919
  16.6025646  38.4785054   6.8923581  17.9275834  38.8165349   6.7877063
  17.1949259  38.8189844   6.5076920  13.7729709  31.1186052   8.1000965
  13.9450213  31.0091947   8.9486246  14.3099066  31.7640457   7.8632157
  13.8774713  31.1978054   8.1906061  19.7104410  39.0390303  10.0510041
  20.4944827  39.1521151  10.4165783  19.5101005  38.2131440  10.2468726
  19.7970436  38.9337022  10.1344427  19.8674804  40.9500405   3.6976496
  19.0690049  40.7099905   3.9550365  20.3160815  41.0014798   4.4443544
  19.8149415  40.9222796   3.8461421  18.9275541  34.6960850  11.5896684
  18.1348521  35.0104362  11.7749304  19.0424468  34.9112318  10.7517469
  18.8270951  34.7744687  11.4935019  19.8559333  34.5981054   6.5281981
  20.4298195  33.9608298   6.6830545  19.7774137  34.5985136   5.6591639
  19.9292568  34.5046165   6.4228392  25.1779481  35.9690031   6.5366834
  24.9418119  35.1378096   6.4178895  25.8222710  35.9175638   7.1221679
  25.2374152  35.8387719   6.6052728  15.6349255  25.2594257  11.3047044
  15.3202696  26.0293820  11.0416607  15.3139187  24.6964514  10.7199271
  15.5408174  25.2904526  11.1788394  26.2015902  35.7534480   2.5995129
  25.8961719  36.4862537   2.9608444  25.4822118  35.3472409   2.3187915
  26.0503244  35.8016213   2.6108266  31.9017694  32.3927481   1.9263473
  31.8342194  32.4123440   1.0566060  31.8873356  33.2357808   2.1519144
  31.8896450  32.5201215   1.8315950  16.3398702  35.0010464   4.7469961
  15.8410396  35.7126232   4.8254849  17.1498926  35.3211131   4.7088123
  16.3854809  35.1537313   4.7526530  15.2665760  27.8591509  10.0432259
  14.4565536  28.1649288   9.9322102  15.7440447  28.5797091  10.1584843
  15.2169239  28.0106110  10.0439330  23.5527072  36.5621878   0.8847789
  23.4141431  37.2602924   1.3896532  22.7727070  36.4070535   0.5283971
  23.4170299  36.6422045   0.9074063  21.8905157  32.8618254   7.1370171
  21.8853195  31.9898070   7.1412597  22.5966151  33.0606423   6.6639627
  21.9950161  32.7622128   7.0677206  15.6176050  32.5895238   6.5083991
  15.7619426  33.1696446   5.8727101  15.9651699  32.9671534   7.2133846
  15.6903511  32.7315942   6.5182986  14.6903805  40.7798010   3.3745018
  14.8393369  40.2200925   2.7218422  15.4703807  40.8590011   3.7577537
  14.8277899  40.7083575   3.3341967  17.2157106  40.9512652   4.6529509
  17.1400777  40.2821463   5.2080297  17.1446965  41.6530441   5.1670175
  17.1937713  40.9557560   4.8106357  16.6048740  44.3580972   3.1107509
  17.0944670  43.6591761   2.9283174  16.0332972  44.0604842   3.6983567
  16.5933270  44.2107196   3.1708550  22.8015744  36.9243042  12.0634300
  23.6150609  36.6528190  12.2239433  22.6410710  36.6250582  11.2594496
  22.8985692  36.8397968  11.9679706  22.2426994  29.2165764   5.9412995
  21.4303675  28.9091654   6.0226168  22.7016928  28.7364764   6.5055708
  22.1907378  29.1002256   6.0367590  19.3380501  30.6225835  10.7241698
  19.8080132  31.2467952  11.1109572  19.3842381  29.9542811  11.2834912
  19.4148377  30.6160516  10.8641769  22.8136988  37.9849332   7.3357141
  23.4516708  37.4909527   7.0019597  22.1711079  37.9126732   6.7509368
  22.8131214  37.9008340   7.1999496  22.8691244  38.6769140   3.9762497
  23.6583622  38.3258205   4.0964579  23.0434842  39.4905529   3.7139131
  23.0111526  38.7454997   3.9550365  14.4819570  37.2308986   4.9859982
  14.3739925  37.2411048   5.8522040  14.6915352  38.0563766   4.7964935
  14.4969682  37.3550061   5.0864073  28.6183784  34.3127398   3.4459197
  28.6766908  34.7614047   4.1919174  27.9850252  34.7226211   3.0089277
  28.5335079  34.4401133   3.4911746  22.2582879  39.9330940  -0.1186056
  22.0602567  40.4221754  -0.8129845  21.6370590  40.1372181   0.4598077
  22.1370443  40.0347478  -0.1362833  24.1756681  33.4995092   5.4159192
  24.8990880  33.0467618   5.2370212  23.9106643  33.7799758   4.6331520
  24.2437954  33.4746061   5.2737907  15.9888412  33.8383553   8.9967079
  15.1384043  33.9755267   9.1324723  16.1516540  33.1047331   9.4414780
  15.8872276  33.7497654   9.0822678  26.6091995  32.4621503   3.9189742
  27.2009835  33.1018754   3.9507940  27.0450989  31.7644540   4.2081809
  26.7610426  32.4539853   3.9670574  18.4385384  36.8838875   4.5447636
  17.9310476  37.4374722   4.9888266  18.1412031  36.9447165   3.7266410
  18.3190269  36.9745186   4.4896092  17.6827870  41.8163433   1.4504643
  17.4593524  41.0582263   1.8188669  17.1937713  41.8461455   0.7285082
  17.5771319  41.7085658   1.3981383  19.7398859  35.9845166   9.0016576
  19.6994714  35.3394843   8.4161732  20.5522177  35.9281783   9.3141988
  19.8542013  35.8804133   8.9613525  19.3045638  27.5366347   7.9968589
  19.8617068  27.3080156   7.3647055  18.9806703  28.2972013   7.7203802
  19.3392048  27.6150184   7.8625087  17.0228755  30.6234000   8.9620597
  17.7740082  30.9385677   9.2760151  17.2151332  30.4213171   8.1354518
  17.1620170  30.6401382   8.8863992  23.6606717  34.1808756   2.5457728
  24.0861788  33.6583178   1.9928153  23.2963636  34.7789593   2.0246351
  23.6693319  34.1918983   2.3866737  13.2960796  42.4772973   1.3055073
  13.6107355  43.2909362   1.3132855  13.7054210  42.0923192   1.9737232
  13.4028894  42.5401676   1.4059165  22.3362301  39.5044333  11.0550957
  22.4459266  38.7152894  11.4107704  22.6653197  39.4150270  10.2525295
  22.4014706  39.3750186  10.9893348  20.8859262  37.6860954   5.6386578
  20.3380208  37.0618838   5.3706643  21.3472291  37.8755226   4.9230657
  20.8726472  37.6220004   5.4937009  20.4517589  38.6912027   2.1695919
  21.2715962  38.5474993   2.4312214  20.1711666  39.3158226   2.7112357
  20.5314332  38.7622379   2.2883858  36.9231239  46.3476879  -4.8661205
  36.8925243  47.2021515  -4.6942935  37.5212588  46.0472171  -4.3075061
  37.0068397  46.4293375  -4.7586402  30.1230924  45.4352530  -0.1108274
  29.2668819  45.5961028  -0.0599157  30.1698578  44.5644594  -0.0903213
  30.0030035  45.3303332  -0.1002208  33.4324640  51.7039055   9.4952182
  34.1391408  51.2091086   9.6239116  33.6212576  52.1448137   8.7654840
  33.5652546  51.6957406   9.4061227  32.9682745  47.4944574   2.5323377
  33.5138705  48.1729660   2.5917347  32.9099621  47.3532034   1.6724959
  33.0398659  47.5736575   2.4135438  26.0856820  54.9833640  -2.0808270
  26.1867183  54.1733994  -1.7711142  25.4898565  54.8890586  -2.7108592
  26.0129358  54.8498668  -2.1282032  25.9257559  59.9011229  -0.6793414
  26.5695015  60.3424393  -0.2897256  26.2513815  59.0964655  -0.7663155
  26.0689388  59.8476424  -0.6347937  21.5811951  43.1739657   0.4428371
  20.9616983  42.5832304   0.2738386  21.4795815  43.7651092  -0.1907306
  21.4749627  43.1743739   0.3233361  28.6779847  44.9139199  -5.2239166
  29.3760012  45.0927326  -4.7317702  28.9932180  44.3909538  -5.8468776
  28.8275184  44.8632971  -5.2437156  21.3081084  46.7191939   2.6871940
  21.1839781  47.3054384   3.3221759  21.9599369  46.2252134   2.9884215
  21.3854734  46.7330743   2.8257869  28.8667782  51.3009644  -5.2359374
  29.3061418  50.6926744  -4.7904601  28.7172445  50.9217017  -6.0073909
  28.9089248  51.1548115  -5.2840207  26.3339425  49.8953655   1.9659451
  26.9788428  49.4026099   1.6470400  26.5741202  50.0378442   2.7925530
  26.4650011  49.8431098   2.0408984  28.8725517  52.7408561   1.6166344
  29.1548760  51.9459967   1.3953100  29.6011677  53.2189149   1.6371405
  29.0215081  52.6943158   1.5869359  26.8506711  40.2831595  -1.1417891
  26.5210041  40.7342739  -1.8114192  26.1751712  40.2047759  -0.5944885
  26.7017147  40.3382730  -1.1594668  34.0583118  36.2717118  -2.8968280
  33.7436559  36.9620597  -2.4647858  33.5410060  36.2161900  -3.5982780
  33.9347589  36.3652007  -2.9371331  38.8543605  51.8467924  -1.4097825
  38.0241308  52.0578567  -1.2464409  38.8052857  51.0204978  -1.6855542
  38.7250341  51.7557530  -1.4260460  26.9153343  54.6771778   1.4250084
  26.3980284  54.3179193   0.8211392  27.6127734  54.1533952   1.4356150
  26.9418924  54.5469466   1.3380343  30.5716935  55.1266592   7.3866257
  30.6600281  54.9392732   8.2344467  31.0006647  54.4804021   6.9871104
  30.6479037  55.0029599   7.4538009  28.1387394  54.4097752   6.3683919
  27.5758229  53.9970362   6.8923581  28.9008418  54.3350657   6.7877063
  28.1681843  54.3375152   6.5076920  23.6983386  56.3995773  -1.0279451
  24.4003965  55.8847762  -0.9706694  23.6180869  56.7269924  -0.2232575
  23.7907146  56.3709999  -0.9006658  38.3497563  44.4938324   2.3852596
  37.5125985  44.5640511   2.6200190  38.3185794  44.4962819   1.5126898
  38.2215846  44.5048551   2.2912144  24.7462292  46.6371360   8.1000965
  24.9182796  46.5277254   8.9486246  25.2831650  47.2825765   7.8632157
  24.8507296  46.7163362   8.1906061  23.0234161  52.5902125  -1.5193843
  23.8623061  52.8225058  -1.4720081  23.0545930  51.7206436  -1.5886807
  23.1515879  52.4959071  -1.5229198  23.6486864  53.0103000   2.7819463
  24.1885089  52.8674131   3.4522835  22.9656811  53.4099751   3.1503489
  23.6279018  53.0482671   2.9353885  33.0727749  48.6894001  -2.0235513
  33.8285264  49.1225515  -1.9846604  33.1790074  48.0398770  -1.4500877
  33.1997920  48.6571485  -1.9337487  36.1107920  52.5167278  -1.2733110
  35.6743152  52.5204020  -0.5174138  35.7770836  53.1972777  -1.7053532
  35.9970540  52.6179734  -1.2252277  30.6836994  54.5575611  10.0510041
  31.4677411  54.6706459  10.4165783  30.4833589  53.7316748  10.2468726
  30.7703019  54.4522330  10.1344427  19.0524009  49.2303291   2.9353885
  18.7862425  48.4142408   3.0944875  19.0662574  49.2756446   2.0649400
  19.0148732  49.1160196   2.8307367  36.0305403  39.5581106   0.9696318
  36.6731312  39.6279210   1.5558234  36.2828424  38.8910329   0.4675860
  36.1627535  39.4707454   0.9823598  23.8022616  42.7681669   5.5820892
  23.1094413  42.2978649   5.8281624  24.4182943  42.5419974   6.1562599
  23.7907146  42.6648801   5.7030045  30.8407387  56.4685713   3.6976496
  30.0422633  56.2285213   3.9550365  31.2893399  56.5200106   4.4443544
  30.7881999  56.4408104   3.8461421  39.2452267  49.2348198  -2.3813472
  39.9068701  48.6738866  -2.4817564  38.6043679  48.7400229  -2.0560781
  39.2481134  49.0784607  -2.3481132  19.4617423  50.0162070   0.2165629
  19.2792996  49.9908956  -0.6362079  20.1967092  50.4861008   0.2554538
  19.5431487  50.0823433   0.0963547  35.5317097  50.2513580  -2.6401484
  35.7672686  50.3958779  -3.4674633  35.6806661  51.0155988  -2.2469970
  35.5882901  50.3852635  -2.7037880  22.5263175  46.7347073   6.7247737
  23.2503147  46.7200104   7.2112632  22.6279311  47.4442428   6.2269706
  22.6481384  46.8371776   6.7226524  29.9008124  50.2146158  11.5896684
  29.1081105  50.5289670  11.7749304  30.0157051  50.4297626  10.7517469
  29.8003535  50.2929994  11.4935019  32.5739443  46.9380149  -4.1208300
  32.6686298  47.6769443  -3.6668674  31.9498287  46.5097624  -3.6873735
  32.4948473  46.9841469  -3.9900152  30.8291917  50.1166362   6.5281981
  31.4030779  49.4793606   6.6830545  30.7506721  50.1170444   5.6591639
  30.9025152  50.0231473   6.4228392  19.4288333  46.8955571   0.3664695
  20.0061836  46.7592022   1.0056941  18.7302395  46.4391355   0.6210280
  19.4109355  46.8077837   0.4986985  26.1855636  48.5489627  -1.4196821
  25.9274880  47.7161362  -1.4465522  26.2404118  48.7747240  -2.2604321
  26.1555413  48.4587398  -1.5476685  31.2656686  40.6518077  -1.3192729
  30.5613012  40.1627263  -1.1608810  31.3141660  40.6640552  -2.1904284
  31.1686737  40.5807725  -1.4253389  25.1590348  46.1027389  -0.9331927
  24.5839939  46.2619557  -0.2967966  24.7826024  45.4662798  -1.3963476
  25.0193160  46.0325202  -0.9077368  28.8263636  44.5750738   3.9260452
  28.4378069  44.1504956   3.2712643  28.1618335  44.8232888   4.4337478
  28.6710564  44.5489459   3.9048320  38.4686906  44.3325743  -3.2991718
  38.2123470  43.5205685  -3.4893835  39.3116219  44.3403310  -3.5261531
  38.5552931  44.2137741  -3.3606901  32.6489998  38.2725367   1.4384436
  33.0300510  37.5903538   1.8252310  31.8453282  37.9834969   1.2560100
  32.5866460  38.1292416   1.4688492  36.1512065  51.4875339   6.5366834
  35.9150702  50.6563404   6.4178895  36.7955294  51.4360946   7.1221679
  36.2106736  51.3573027   6.6052728  25.8010483  52.2770860  -2.7490429
  26.4384430  52.0382608  -2.2038636  26.2265554  52.4808019  -3.4837269
  25.9586649  52.2721871  -2.7773272  20.4923125  54.5159197   1.1343875
  20.5327271  54.7874048   0.3063654  21.0517649  55.0401105   1.5501662
  20.5806471  54.6334952   1.0735763  26.6081838  40.7779565  11.3047044
  26.2935279  41.5479128  11.0416607  26.2871771  40.2149821  10.7199271
  26.5140757  40.8089834  11.1788394  37.1748485  51.2719788   2.5995129
  36.8694302  52.0047845   2.9608444  36.4554701  50.8657717   2.3187915
  37.0235828  51.3201521   2.6108266  28.1831955  52.7543283  -1.0696643
  28.2570963  52.5918455  -0.2154793  29.0001461  52.9433473  -1.3136161
  28.3148313  52.7580025  -0.9798617  42.8750278  47.9112789   1.9263473
  42.8074778  47.9308748   1.0566060  42.8605940  48.7543116   2.1519144
  42.8629034  48.0386523   1.8315950  33.2846624  39.3147946   5.2504563
  34.0300216  39.1257757   4.8367988  32.8683929  39.8406184   4.6918419
  33.3331598  39.3650092   5.1069136  40.6608895  46.6857175   0.2010068
  41.2116816  46.0525244   0.4407160  40.6453010  47.2172568   0.8925572
  40.7394091  46.6706123   0.3388926  27.3131286  50.5195772   4.7469961
  26.8142979  51.2311540   4.8254849  28.1231510  50.8396439   4.7088123
  27.3587392  50.6722621   4.7526530  23.5759403  49.7818725  -1.0067318
  23.2872652  49.1556196  -0.4721591  24.4442751  49.7239012  -0.9402638
  23.6619655  49.6806269  -0.9176364  34.3637301  44.9253508  -0.6885336
  34.0202067  44.2043844  -0.3378087  34.4630344  44.7167360  -1.5306978
  34.3279344  44.7877712  -0.7613656  26.2398344  43.3776816  10.0432259
  25.4298119  43.6834596   9.9322102  26.7173030  44.0982399  10.1584843
  26.1901823  43.5291418  10.0439330  25.0989903  52.5922537   0.2915162
  24.5770657  52.7322829   0.9767027  25.4863924  51.8333202   0.4817280
  25.0793604  52.5008061   0.4216239  26.5256229  49.6226556  -4.3103347
  26.3299012  50.2301291  -4.9043044  26.7490575  48.9294500  -4.7911673
  26.5290870  49.6104082  -4.4687266  24.9234759  46.5081294  -4.1922478
  25.6457411  46.6722453  -4.6518672  24.4442752  47.2290959  -4.2983139
  24.9598490  46.6379524  -4.2756864  32.8828267  42.8445093   1.1874207
  32.0439367  42.8706372   0.9512470  32.9532634  43.4915829   1.7679553
  32.7696660  42.9441219   1.2383324  22.5742376  48.9139367   4.9131662
  23.0863473  49.1923620   4.2640421  22.2878718  49.6528661   5.2794475
  22.6077239  49.0641720   4.8721540  31.3297545  39.7430470  -4.0798177
  32.0323898  39.5438219  -4.5578219  31.0641734  38.9706413  -3.7729334
  31.3944177  39.5993436  -4.1052736  36.7585790  48.0513080  -1.5264552
  36.6719765  48.2068506  -0.6729773  36.3036270  48.6951155  -1.9005147
  36.6789047  48.1688835  -1.4557445  26.0926101  41.0065755   4.9732703
  25.9009298  41.0220890   5.8232127  26.9424697  41.2029430   4.9499358
  26.1901823  41.0380107   5.0955998  20.4773014  43.5356737   2.9516520
  20.3358506  42.6840678   3.0761028  20.7613577  43.5785398   2.1278726
  20.4980860  43.4156487   2.8484144  30.6311606  45.3723827  -2.9038992
  30.3846321  45.2919578  -2.0702203  30.9596729  44.5877295  -3.0976465
  30.6432850  45.2450092  -2.8091469  34.5259655  52.0807186   0.8847789
  34.3874015  52.7788232   1.3896532  33.7459653  51.9255843   0.5283971
  34.3902882  52.1607353   0.9074063  32.8637740  48.3803562   7.1370171
  32.8585779  47.5083378   7.1412597  33.5698734  48.5791731   6.6639627
  32.9682744  48.2807436   7.0677206  26.5908634  48.1080546   6.5083991
  26.7352009  48.6881754   5.8727101  26.9384282  48.4856842   7.2133846
  26.6636095  48.2501250   6.5182986  28.7628551  47.3070714   4.2909123
  28.0151865  47.5001728   3.8857401  28.9170076  46.4815934   4.0533244
  28.6750979  47.2135825   4.1954528  25.6636389  56.2983317   3.3745018
  25.8125952  55.7386233   2.7218422  26.4436391  56.3775319   3.7577537
  25.8010482  56.2268883   3.3341967  28.1889689  56.4697960   4.6529509
  28.1133360  55.8006771   5.2080297  28.1179548  57.1715749   5.1670175
  28.1670296  56.4742868   4.8106357  29.0030328  41.2021265   5.1804526
  29.4602942  41.9345239   5.3077319  29.0786657  40.7787730   5.9391782
  29.0821298  41.2478503   5.3105603  21.2463319  41.4487084   6.2693970
  20.7105509  40.8367443   6.5854737  21.3081084  42.0235220   6.9227637
  21.1758952  41.4434012   6.4129397  33.4757654  34.3811140  -0.9501631
  33.5941222  34.8387603  -1.6834328  33.3019830  33.5756401  -1.2365413
  33.4676825  34.3304912  -1.1000697  26.8812706  43.1923369   2.0246350
  26.0908781  43.0114829   2.3463686  27.2773329  42.4150321   2.0076645
  26.8229582  43.0510830   2.0698899  32.2656392  50.8265799  -0.2494204
  31.5901394  50.5951031   0.2519183  32.2748768  50.2186982  -0.8752099
  32.1674897  50.7024724  -0.2678052  29.3950536  45.6683628   6.5069849
  29.3309678  46.5293584   6.3789986  29.5347724  45.3515621   5.7065401
  29.4066006  45.7483794   6.3698062  28.0769630  48.3615767   0.6486052
  27.6531879  48.5620266  -0.0874929  27.9014485  47.5144615   0.7610352
  27.9880511  48.2664549   0.5559742  27.5781324  59.8766280   3.1107509
  28.0677254  59.1777069   2.9283174  27.0065556  59.5790150   3.6983567
  27.5665854  59.7292504   3.1708550  23.3652075  48.8567819  -3.9185975
  23.5216694  48.7914621  -3.0629983  23.7052668  49.6316371  -4.1307296
  23.4385310  48.9617017  -3.8231381  29.9031220  48.2325702  -5.0492612
  30.4446765  47.7296083  -4.5853992  30.2177779  48.1790897  -5.8603127
  30.0295617  48.1505123  -5.1008800  33.7748327  52.4428349  12.0634300
  34.5883192  52.1713498  12.2239433  33.6143294  52.1435889  11.2594496
  33.8718276  52.3583276  11.9679706  31.0520489  43.1262007   5.0029688
  31.2662459  42.4872921   4.4493042  30.4354388  43.5707830   4.5737550
  30.9925818  43.0972150   4.8580119  19.9386337  46.0402769  -3.6025208
  20.3185301  46.4587314  -4.2664941  19.3641701  46.6216225  -3.2956365
  19.9097662  46.1880628  -3.6548467  33.2159577  44.7351072   5.9412995
  32.4036259  44.4276962   6.0226168  33.6749512  44.2550072   6.5055708
  33.1639962  44.6187564   6.0367590  30.4435218  36.2361942  -0.0082969
  29.5728776  36.2100663  -0.0549659  30.6975559  36.0639134  -0.8257123
  30.3528778  36.2072086  -0.1362832  30.3113085  46.1411143  10.7241698
  30.7812716  46.7653260  11.1109572  30.3574965  45.4728119  11.2834912
  30.3880961  46.1345824  10.8641769  27.4684358  38.2468171   1.4490502
  26.9522847  37.5548362   1.5742081  26.9078287  38.9138948   1.3953100
  27.3090872  38.2431428   1.4596568  29.5376592  38.7861131   3.2783354
  29.1508345  38.8110162   4.0596884  29.0509529  38.2202809   2.8257871
  29.4089101  38.7056882   3.3271258  33.7869571  53.5034640   7.3357141
  34.4249292  53.0094835   7.0019597  33.1443663  53.4312040   6.7509368
  33.7863798  53.4193648   7.1999496  35.5126571  45.3523786   1.9023056
  35.0854179  45.2650134   1.1471156  34.8752624  45.4601561   2.4877900
  35.3556179  45.3556446   1.8768498  29.2033733  35.6728116   5.5693614
  29.8326851  36.2088416   5.2914684  29.3719596  35.5805475   6.4207180
  29.3211528  35.7389479   5.6542142  29.0047648  40.4599311   7.8420026
  29.8321078  40.1884460   7.8978640  29.0255494  41.2560153   8.1983844
  29.1300498  40.5379065   7.9035209  33.8423828  54.1954448   3.9762497
  34.6316206  53.8443513   4.0964579  34.0167426  55.0090836   3.7139131
  33.9844109  54.2640305   3.9550365  23.5817138  47.6063174   1.0290286
  22.7405145  47.5067048   1.2369180  23.7907146  48.3758654   1.3804607
  23.4881831  47.7055217   1.1117601  21.0592705  45.2282711  -1.1424963
  20.6649403  45.3025723  -1.9174853  20.5032822  45.6140657  -0.5916601
  20.9195518  45.2964485  -1.1757303  32.6957652  38.2064005  -1.4621084
  32.9007245  38.1386313  -0.6164087  32.3684076  39.0122826  -1.5299907
  32.6772900  38.3149945  -1.3461429  27.3933803  45.5344573   0.2787884
  27.0896941  44.9800561   0.8798291  26.6913224  45.7136783  -0.2084082
  27.2450013  45.4789355   0.2957589  25.4552154  52.7494294   4.9859982
  25.3472509  52.7596356   5.8522040  25.6647936  53.5749074   4.7964935
  25.4702265  52.8735368   5.0864073  35.9491340  38.7595769  -1.9818319
  35.3365653  39.2466171  -1.5964587  36.0455515  38.0839260  -1.4380668
  35.8729237  38.7314078  -1.8439461  23.4725946  50.0006936   2.4481919
  22.8813879  50.6416434   2.4184934  24.2346970  50.4244553   2.4213219
  23.4974207  50.1582775   2.4397066  23.8686569  41.1608934   3.1149937
  24.3288050  41.2347863   3.8525061  23.9142676  41.9590188   2.7649758
  23.9437124  41.2903081   3.1722693  25.5169919  41.8275629   7.6821964
  25.1255484  41.1808976   8.1177742  25.6855781  42.4187064   8.3016219
  25.4840829  41.8189897   7.8384670  39.5916368  49.8312706   3.4459197
  39.6499491  50.2799355   4.1919174  38.9582835  50.2411519   3.0089277
  39.5067663  49.9586440   3.4911746  33.2315462  55.4516248  -0.1186056
  33.0335151  55.9407062  -0.8129845  32.6103173  55.6557489   0.4598077
  33.1103027  55.5532786  -0.1362833  27.2923441  47.2201144  -5.7775812
  28.0365486  47.6075421  -5.5392862  27.4384137  46.3758570  -5.6135324
  27.4234026  47.1531617  -5.7181842  29.2103016  39.0151403  -0.7443951
  28.3639061  39.1874211  -0.8702601  29.2074149  38.2100747  -0.4078122
  29.0850166  38.9212432  -0.7132824  30.2801317  42.7926618   0.1218107
  29.8061271  42.2668380   0.6323418  30.6519452  42.2456091  -0.4467031
  30.2651205  42.6342614   0.1133254  20.6574347  44.7898125   5.4901653
  21.5199960  44.6893834   5.4038983  20.3266130  44.2092834   4.9287225
  20.7359543  44.6889751   5.3947059  36.5438047  47.8528993   1.5324888
  36.3036270  47.0135409   1.5367314  37.0230054  47.9329160   2.2565661
  36.5790231  47.7410393   1.6399690  38.5443234  44.6330451  -0.5145853
  38.3053004  44.5926285  -1.3525069  38.7077135  45.4801603  -0.3880132
  38.5333538  44.7522536  -0.6192371  35.1489264  49.0180400   5.4159192
  35.8723463  48.5652926   5.2370212  34.8839227  49.2985066   4.6331520
  35.2170538  48.9931368   5.2737907  24.0176133  43.6140574   2.1512071
  23.3929203  43.6258965   1.5438024  23.6821728  44.0900749   2.8003311
  23.8761624  43.6859091   2.1568640  20.7301808  51.6741034   3.5915835
  20.2001733  50.9833473   3.6410810  21.0026902  51.6651219   2.7628544
  20.6926531  51.5708165   3.4763251  30.9308054  49.1164278   3.5654207
  30.3165047  48.5722329   3.8602842  31.4475339  48.6028515   3.0860023
  30.9163716  48.9600687   3.5378435  30.1704351  50.1868548   1.2998506
  29.7431959  49.5618267   0.8663941  30.1629295  49.9043470   2.1257513
  30.1063492  50.0521329   1.3578333  23.2866878  45.2233721   4.3686940
  23.4460365  44.4677045   4.7738662  23.1059772  45.7724661   5.0227677
  23.2832237  45.1927535   4.5249646  31.2287181  37.3894957   4.9237729
  30.7327742  37.5858631   4.2329296  31.9856243  37.7887625   4.7526531
  31.2674006  37.4772691   4.7957866  28.4990061  41.0637303   1.5141040
  28.5232548  40.5297415   0.8253820  28.7501534  40.5554612   2.1766630
  28.5399979  40.9098207   1.5105684  24.7791383  39.7908121   0.8946784
  24.8189754  40.2917328   1.6081491  23.9541047  39.8818515   0.6252707
  24.6630909  39.8789937   0.9597322  26.9620996  49.3568861   8.9967079
  26.1116626  49.4940575   9.1324723  27.1249123  48.6232639   9.4414780
  26.8604859  49.2682962   9.0822678  26.2005746  46.3068631   3.1920683
  25.3697676  46.4742449   2.9855931  26.1457263  45.9304582   3.9769568
  26.0695161  46.2758362   3.2769211  24.0089529  39.7977524   8.8277094
  24.6342233  39.2539657   9.1006526  23.5540009  39.3172441   8.2584884
  24.0337790  39.6467005   8.7838688  37.5824578  47.9806811   3.9189742
  38.1742418  48.6204062   3.9507940  38.0183573  47.2829848   4.2081809
  37.7343009  47.9725161   3.9670574  29.4117968  52.4024183   4.5447636
  28.9043059  52.9560030   4.9888266  29.1144614  52.4632473   3.7266410
  29.2922853  52.4930494   4.4896092  31.5780150  40.7677503   3.3872299
  32.0035222  40.3150029   2.7755825  30.9637143  40.2137574   3.6637086
  31.5508796  40.6191479   3.3377324  34.6073720  45.1952029  -3.7807116
  33.9364909  45.7381732  -3.9094050  35.3013470  45.6646885  -4.0225421
  34.6102587  45.3450301  -3.8351588  28.6560453  57.3348741   1.4504643
  28.4326108  56.5767571   1.8188669  28.1670297  57.3646763   0.7285082
  28.5503902  57.2270966   1.3981383  34.7701847  41.6507913  -0.8716743
  35.1229457  41.2237636  -0.1970944  33.9116649  41.5658757  -0.7415666
  34.6951292  41.5752654  -0.7521732  23.4685532  44.2815433  -2.8133896
  22.7497521  44.6979565  -2.5461032  23.8397894  44.8469672  -3.3642258
  23.4177464  44.4264714  -2.8551089  32.7685113  44.9143282   3.0768100
  32.7483040  44.7326577   3.9302879  32.8164314  45.7855300   3.0527683
  32.7719754  45.0159820   3.1991394  30.7131443  51.5030474   9.0016576
  30.6727298  50.8580151   8.4161732  31.5254761  51.4467091   9.3141988
  30.8274596  51.3989440   8.9613525  27.3038910  57.5549200  -1.0958273
  26.8899309  56.8923330  -1.4854431  27.9886285  57.7027058  -1.6162579
  27.3437282  57.4789858  -1.2301776  30.6704204  56.7139285  -0.3434656
  30.2720488  56.8241555  -1.1113836  30.0555424  56.9221351   0.2391904
  30.5203094  56.7612853  -0.3703357  36.2025907  36.7726325   0.0567570
  35.6956772  36.0655464  -0.0111253  36.9993341  36.4419514   0.1868647
  36.2453146  36.6199476   0.0666565  32.1189923  43.2792937  -4.0458766
  31.8903616  43.3025639  -4.8880408  32.3787999  42.4550404  -3.9263756
  32.1236111  43.1609017  -4.1533569  26.4009151  45.1327410   5.5566334
  25.8888055  44.5248593   5.9151365  26.2288648  45.8484003   6.0240310
  26.2998788  45.1490709   5.6782558  21.2474866  43.5764986   8.2068696
  21.0777456  44.2366360   7.6616902  20.8040816  43.7871547   8.9281185
  21.1574200  43.7050968   8.2330325  25.1734685  41.8169483  -2.7504571
  25.6492052  42.1786563  -3.3854390  24.6723285  42.4725951  -2.4704428
  25.1700044  41.9663672  -2.8027830  30.2778222  43.0551655   7.9968589
  30.8349652  42.8265464   7.3647055  29.9539287  43.8157320   7.7203802
  30.3124632  43.1335492   7.8625087  18.1476931  46.4811851   3.4657185
  17.6003650  45.8112497   3.5838054  18.9369309  46.1141699   3.5300653
  18.1829114  46.3276837   3.4925886  27.9961339  46.1419308   8.9620597
  28.7472666  46.4570985   9.2760151  28.1883916  45.9398479   8.1354518
  28.1352753  46.1586690   8.8863992  34.8446629  42.2692874  -3.7955608
  34.8440856  42.1141531  -2.9371332  34.6402809  43.1155861  -3.8514222
  34.8146407  42.3713495  -3.6767669  16.9063900  45.6932659   0.6203209
  16.7285661  45.2409268   1.3458124  16.6182922  46.4958820   0.8041686
  16.8376853  45.7455217   0.7546711  32.5687481  46.9490376  -0.1419401
  33.0641147  46.2313371  -0.1815381  31.7587257  46.6461174  -0.2564914
  32.5231375  46.7988023  -0.1645675  34.6339300  49.6994064   2.5457728
  35.0594372  49.1768486   1.9928153  34.2696220  50.2974901   2.0246351
  34.6425903  49.7104291   2.3866737  24.2693380  57.9958281   1.3055073
  24.5839939  58.8094670   1.3132855  24.6786793  57.6108500   1.9737232
  24.3761478  58.0586984   1.4059165  31.2217900  53.4128328  -1.1241115
  31.6929078  54.1268591  -0.9551130  31.5578078  52.8127078  -0.5881245
  31.3413015  53.4299792  -1.0208739  33.3094884  55.0229641  11.0550957
  33.4191850  54.2338202  11.4107704  33.6385781  54.9335578  10.2525295
  33.3747290  54.8935494  10.9893348  28.1387395  38.1855799   5.8316980
  28.2715300  37.3886792   6.1597955  28.5232547  38.7122202   6.4115256
  28.2143723  38.1455715   5.9660483  31.8591846  53.2046262   5.6386578
  31.3112792  52.5804146   5.3706643  32.3204875  53.3940534   4.9230657
  31.8459055  53.1405312   5.4937009  31.2119750  35.1086125   2.4298073
  30.4065713  34.9983854   2.7465911  31.0826485  35.2098580   1.5727939
  31.0739883  35.1069795   2.3506114  34.6685710  41.2731617   3.0237770
  34.0848699  41.7740823   2.6115337  34.9890004  40.7661173   2.3902093
  34.6298886  41.2723452   2.8696277  25.7975841  38.1814974   4.0794874
  26.3420254  37.8406100   4.6699215  25.8512777  39.0400435   4.2216158
  25.8864961  38.2570233   4.1876747  21.6106400  51.9431390   0.9533682
  22.2151257  51.9027224   0.3247502  21.4033713  52.7902542   0.9837737
  21.6695297  52.0619392   0.8649798  31.4250172  54.2097335   2.1695919
  32.2448546  54.0660301   2.4312214  31.1444250  54.8343534   2.7112357
  31.5046916  54.2807687   2.2883858  32.2813668  62.2377246   2.6871940
  32.1572365  62.8239692   3.3221759  32.9331953  61.7437442   2.9884215
  32.3587317  62.2516051   2.8257869  35.7194876  62.1556668   8.1000965
  35.8915380  62.0462562   8.9486246  36.2564234  62.8011073   7.8632157
  35.8239880  62.2348669   8.1906061  34.7755199  58.2866977   5.5820892
  34.0826996  57.8163957   5.8281624  35.3915527  58.0605282   6.1562599
  34.7639729  58.1834109   5.7030045  33.4995758  62.2532381   6.7247737
  34.2235731  62.2385412   7.2112632  33.6011895  62.9627736   6.2269706
  33.6213967  62.3557084   6.7226524  40.8740708  65.7331466  11.5896684
  40.0813689  66.0474978  11.7749304  40.9889635  65.9482934  10.7517469
  40.7736118  65.8115302  11.4935019  39.7996220  60.0936046   3.9260452
  39.4110653  59.6690264   3.2712643  39.1350918  60.3418196   4.4337478
  39.6443148  60.0674767   3.9048320  43.6222582  53.7910675   1.4384436
  44.0033093  53.1088846   1.8252310  42.8185866  53.5020277   1.2560100
  43.5599043  53.6477724   1.4688492  37.5814422  56.2964873  11.3047044
  37.2667863  57.0664436  11.0416607  37.2604354  55.7335129  10.7199271
  37.4873341  56.3275142  11.1788394  44.2579208  54.8333254   5.2504563
  45.0032800  54.6443065   4.8367988  43.8416512  55.3591492   4.6918419
  44.3064182  54.8835400   5.1069136  37.2130927  58.8962124  10.0432259
  36.4030703  59.2019904   9.9322102  37.6905614  59.6167707  10.1584843
  37.1634406  59.0476726  10.0439330  33.5474959  64.4324675   4.9131662
  34.0596056  64.7108928   4.2640421  33.2611302  65.1713969   5.2794475
  33.5809822  64.5827028   4.8721540  37.0658685  56.5251063   4.9732703
  36.8741882  56.5406198   5.8232127  37.9157281  56.7214738   4.9499358
  37.1634407  56.5565415   5.0955998  31.4505598  59.0542045   2.9516520
  31.3091089  58.2025985   3.0761028  31.7346161  59.0970705   2.1278726
  31.4713444  58.9341795   2.8484144  37.5641217  63.6265854   6.5083991
  37.7084593  64.2067062   5.8727101  37.9116866  64.0042150   7.2133846
  37.6368679  63.7686558   6.5182986  39.9762912  56.7206573   5.1804526
  40.4335526  57.4530547   5.3077319  40.0519240  56.2973038   5.9391782
  40.0553882  56.7663811   5.3105603  32.2195903  56.9672392   6.2693970
  31.6838092  56.3552751   6.5854737  32.2813668  57.5420528   6.9227637
  32.1491536  56.9619320   6.4129397  37.8545290  58.7108677   2.0246350
  37.0641364  58.5300137   2.3463686  38.2505912  57.9335629   2.0076645
  37.7962166  58.5696138   2.0698899  40.3683120  61.1868936   6.5069849
  40.3042261  62.0478892   6.3789986  40.5080308  60.8700929   5.7065401
  40.3798590  61.2669102   6.3698062  44.7480911  67.9613657  12.0634300
  45.5615776  67.6898806  12.2239433  44.5875877  67.6621197  11.2594496
  44.8450859  67.8768583  11.9679706  42.0253073  58.6447315   5.0029688
  42.2395042  58.0058229   4.4493042  41.4086972  59.0893138   4.5737550
  41.9658402  58.6157458   4.8580119  44.1892161  60.2536380   5.9412995
  43.3768842  59.9462270   6.0226168  44.6482095  59.7735380   6.5055708
  44.1372545  60.1372872   6.0367590  41.2845668  61.6596451  10.7241698
  41.7545299  62.2838568  11.1109572  41.3307548  60.9913427  11.2834912
  41.3613544  61.6531131  10.8641769  38.4416942  53.7653479   1.4490502
  37.9255430  53.0733670   1.5742081  37.8810871  54.4324256   1.3953100
  38.2823455  53.7616736   1.4596568  40.5109175  54.3046439   3.2783354
  40.1240928  54.3295470   4.0596884  40.0242113  53.7388117   2.8257871
  40.3821684  54.2242190   3.3271258  40.1766317  51.1913424   5.5693614
  40.8059435  51.7273724   5.2914684  40.3452180  51.0990783   6.4207180
  40.2944112  51.2574786   5.6542142  39.9780232  55.9784619   7.8420026
  40.8053661  55.7069768   7.8978640  39.9988078  56.7745461   8.1983844
  40.1033082  56.0564373   7.9035209  34.8419152  56.6794242   3.1149937
  35.3020634  56.7533171   3.8525061  34.8875259  57.4775496   2.7649758
  34.9169708  56.8088389   3.1722693  36.4902502  57.3460937   7.6821964
  36.0988067  56.6994284   8.1177742  36.6588365  57.9372372   8.3016219
  36.4573413  57.3375205   7.8384670  31.6306930  60.3083432   5.4901653
  32.4932543  60.2079142   5.4038983  31.2998713  59.7278142   4.9287225
  31.7092127  60.2075059   5.3947059  34.9908716  59.1325881   2.1512071
  34.3661786  59.1444273   1.5438024  34.6554311  59.6086057   2.8003311
  34.8494208  59.2044398   2.1568640  34.2599462  60.7419029   4.3686940
  34.4192948  59.9862353   4.7738662  34.0792355  61.2909969   5.0227677
  34.2564821  60.7112843   4.5249646  42.2019765  52.9080265   4.9237729
  41.7060326  53.1043939   4.2329296  42.9588827  53.3072933   4.7526531
  42.2406589  52.9957999   4.7957866  35.7523966  55.3093429   0.8946784
  35.7922338  55.8102636   1.6081491  34.9273631  55.4003823   0.6252707
  35.6363492  55.3975245   0.9597322  37.9353579  64.8754169   8.9967079
  37.0849210  65.0125883   9.1324723  38.0981707  64.1417947   9.4414780
  37.8337443  64.7868270   9.0822678  34.9822113  55.3162832   8.8277094
  35.6074816  54.7724964   9.1006526  34.5272593  54.8357749   8.2584884
  35.0070374  55.1652313   8.7838688  42.5512734  56.2862811   3.3872299
  42.9767805  55.8335337   2.7755825  41.9369727  55.7322881   3.6637086
  42.5241379  56.1376787   3.3377324  41.6864026  67.0215782   9.0016576
  41.6459881  66.3765459   8.4161732  42.4987345  66.9652399   9.3141988
  41.8007180  66.9174748   8.9613525  37.3741735  60.6512718   5.5566334
  36.8620638  60.0433901   5.9151365  37.2021231  61.3669311   6.0240310
  37.2731372  60.6676017   5.6782558  32.2207450  59.0950293   8.2068696
  32.0510040  59.7551668   7.6616902  31.7773400  59.3056855   8.9281185
  32.1306783  59.2236276   8.2330325  41.2510805  58.5736963   7.9968589
  41.8082236  58.3450772   7.3647055  40.9271870  59.3342628   7.7203802
  41.2857216  58.6520799   7.8625087  29.1209514  61.9997159   3.4657185
  28.5736234  61.3297805   3.5838054  29.9101892  61.6327007   3.5300653
  29.1561698  61.8462145   3.4925886  38.9693923  61.6604616   8.9620597
  39.7205250  61.9756293   9.2760151  39.1616499  61.4583787   8.1354518
  39.1085337  61.6771998   8.8863992  27.8796484  61.2117967   0.6203209
  27.7018245  60.7594576   1.3458124  27.5915506  62.0144128   0.8041686
  27.8109437  61.2640525   0.7546711  39.1119978  53.7041107   5.8316980
  39.2447884  52.9072100   6.1597955  39.4965131  54.2307510   6.4115256
  39.1876307  53.6641023   5.9660483  42.1852333  50.6271433   2.4298073
  41.3798297  50.5169162   2.7465911  42.0559069  50.7283888   1.5727939
  42.0472466  50.6255103   2.3506114  36.7708425  53.7000282   4.0794874
  37.3152838  53.3591408   4.6699215  36.8245361  54.5585743   4.2216158
  36.8597544  53.7755541   4.1876747  35.4145700  39.0934799  -4.9658989
  35.5866204  38.9840694  -4.1173707  35.9515058  39.7389204  -5.2027796
  35.5190704  39.1726801  -4.8753892  41.3520401  47.0139050  -3.0149913
  42.1360818  47.1269898  -2.6494170  41.1516996  46.1880187  -2.8191227
  41.4386427  46.9085769  -2.9315526  40.5691532  42.6709597  -1.4763269
  39.7764512  42.9853109  -1.2910649  40.6840459  42.8861065  -2.3142484
  40.4686942  42.7493434  -1.5724934  37.2765246  33.2343005  -1.7612909
  36.9618687  34.0042567  -2.0243346  36.9555178  32.6713261  -2.3460682
  37.1824165  33.2653273  -1.8871559  36.9081751  35.8340256  -3.0227694
  36.0981527  36.1398035  -3.1337852  37.3856438  36.5545838  -2.9075110
  36.8585230  35.9854857  -3.0220623  37.2592041  40.5643985  -6.5575962
  37.4035417  41.1445193  -7.1932852  37.6067690  40.9420281  -5.8526108
  37.3319503  40.7064689  -6.5476967  40.0633944  38.1247067  -6.5590104
  39.9993085  38.9857023  -6.6869967  40.2031132  37.8079060  -7.3594553
  40.0749414  38.2047234  -6.6961891  44.4431735  44.8991789  -1.0025653
  45.2566600  44.6276937  -0.8420521  44.2826701  44.5999329  -1.8065457
  44.5401683  44.8146715  -1.0980247  43.8842985  37.1914511  -7.1246958
  43.0719666  36.8840401  -7.0433785  44.3432919  36.7113511  -6.5604246
  43.8323369  37.0751003  -7.0292364  40.9796492  38.5974582  -2.3418255
  41.4496123  39.2216699  -1.9550381  41.0258372  37.9291558  -1.7825041
  41.0564368  38.5909263  -2.2018184  37.6304403  41.8132300  -4.0692875
  36.7800034  41.9504014  -3.9335230  37.7932531  41.0796078  -3.6245173
  37.5288267  41.7246401  -3.9837275  41.3814850  43.9593913  -4.0643377
  41.3410705  43.3143590  -4.6498221  42.1938168  43.9030530  -3.7517965
  41.4958004  43.8552880  -4.1046428  40.9461629  35.5115094  -5.0691364
  41.5033059  35.2828903  -5.7012898  40.6222694  36.2720760  -5.3456151
  40.9808039  35.5898931  -5.2034867  38.6644747  38.5982747  -4.1039357
  39.4156074  38.9134424  -3.7899802  38.8567323  38.3961918  -4.9305435
  38.8036161  38.6150129  -4.1795961
  79.1741276  79.1741276  79.1741276 109.4712190 109.4712190 109.4712190
