default_name
 43878
  38.5020990  30.0293913  24.0291643  39.0001585  30.4725164  24.7878987
  38.2152128  30.7394566  23.3706782  39.0357227  29.2326391  23.7120975
  37.2129678  29.4532256  24.5844110  36.3682362  29.9169158  24.0749809
  37.1297929  27.9374331  24.3891268  37.0354928  27.7588509  23.3179988
  38.0707338  27.5181480  24.7453995  35.9532026  27.2631134  25.1287544
  36.2280754  27.2436634  26.1833479  35.0921749  27.9169843  24.9902405
  35.5069058  25.5362027  24.5790839  34.5765326  25.8865158  23.0791764
  35.2131923  26.4180276  22.3718868  34.2404504  24.9507313  22.6325705
  33.7115879  26.5032903  23.3232279  37.0951001  29.7483713  26.1033463
  35.9962343  29.9666124  26.6172419  38.2163684  29.6379690  26.8019818
  39.0595093  29.2795710  26.3768187  38.2054930  29.8505614  28.2541967
  37.3553604  29.2783863  28.6256659  39.5540250  29.2625782  28.9204484
  40.4133087  29.8313076  28.5650914  39.4889663  29.3434822  30.0054931
  39.6712627  28.2155326  28.6410741  37.9029944  31.3185287  28.6161022
  37.5311818  31.6067552  29.7524709  37.9241203  32.2205335  27.6205109
  38.1354069  31.9085265  26.6834363  37.6127218  33.6426095  27.8282095
  37.7761469  33.9146397  28.8709899  38.5380092  34.5204963  26.9338521
  38.5624505  34.1122680  25.9234801  38.1549621  35.5405333  26.9038607
  39.8123893  34.5239161  27.4585585  40.3835906  35.0646696  26.9081818
  36.1940503  33.9996899  27.4401400  35.7795806  35.1597261  27.5365443
  35.4614020  33.0200998  26.8958325  35.7964769  32.0676079  26.9199857
  34.1560508  33.2812920  26.2872795  33.9957943  34.3560940  26.2023223
  34.0854676  32.6566908  24.8710393  34.8294043  33.1942650  24.2831010
  34.4022679  31.6215031  24.9980199  32.7167836  32.6928560  24.1328645
  32.8055224  32.0598573  23.2499495  31.9728358  32.2708554  24.8085541
  32.2880250  34.0823851  23.7156893  33.0777670  35.0289278  23.8915145
  31.1529376  34.1944365  23.2125462  33.0791082  32.6144546  27.1733972
  32.9847135  31.3526771  27.2418676  32.3181671  33.4186784  27.8961880
  32.5206168  34.4051868  27.9730951  31.1529392  32.8722849  28.6587017
  31.5033994  32.1601113  29.4057529  30.3918372  34.0082370  29.3782632
  30.0870854  34.7039369  28.5964530  29.5064270  33.5881804  29.8554438
  31.2369543  34.7557374  30.4304980  32.0964691  35.2153798  29.9425801
  30.3709838  35.8656473  31.1156734  29.5114686  35.4066897  31.6042329
  30.9727590  36.3903004  31.8577694  30.0249809  36.5737648  30.3627113
  31.7766309  33.7949376  31.4811592  32.4032117  33.0440156  30.9998982
  32.3685434  34.3481713  32.2103186  30.9450342  33.3038239  31.9864841
  30.1679546  32.1107433  27.7664541  29.8695942  32.5475210  26.6517904
  29.6738707  30.9779992  28.2889872  30.1095183  30.5743420  29.1059153
  28.5296217  30.2624948  27.6771402  28.6438833  30.2314738  26.5935899
  28.3912707  28.8048641  28.2045466  27.5962067  28.3053396  27.6509685
  29.7246919  28.0184234  28.0215302  30.5201809  28.5171241  28.5752399
  29.6025822  27.0026634  28.3975887  29.9850160  27.9847946  26.9636072
  28.0238848  28.8057838  29.5894415  27.9425936  27.9008869  29.8995279
  27.2327153  31.0143393  27.9374468  27.1830640  31.8861376  28.8286581
  26.1848711  30.7430975  27.1326336  26.0959015  29.9817335  25.8662429
  25.9293947  28.9256390  26.0784695  27.0189930  30.0964791  25.2980576
  24.9000965  30.6373437  25.1743587  24.4343454  29.9513177  24.4668679
  25.2013597  31.5462933  24.6536355  23.9638416  30.9600174  26.3370205
  23.3949063  30.0888091  26.6616861  23.2774125  31.7686046  26.0858203
  24.9182332  31.4103952  27.4596984  25.0782160  32.4846256  27.3673247
  24.4078745  31.0866584  28.8824599  23.9136467  32.0005890  29.5442142
  24.6206114  29.8659092  29.3912266  25.0230732  29.1363842  28.8203351
  24.2347413  29.5373666  30.7752002  23.1949445  29.8265581  30.9278115
  24.3774146  28.0509768  31.0838664  25.3333270  27.7176181  30.6798830
  24.3813761  27.9352046  32.1676935  23.2444017  27.2043815  30.4827383
  22.3159493  27.4433915  31.0013433  23.1672392  27.5124823  29.4400403
  23.4925865  25.6982043  30.5514091  24.3403257  25.2487431  31.3576868
  22.7945365  24.9483290  29.8052896  25.0602962  30.3191273  31.8015014
  24.5390549  30.7816639  32.8309072  26.3585295  30.4473902  31.5381403
  26.7998647  30.0175937  30.7377669  27.1903237  31.2035643  32.4607670
  27.0241081  30.8475983  33.4775068  28.6804835  31.0389732  32.1200640
  28.7829971  31.2085251  31.0482233  29.2192891  31.8152601  32.6633569
  29.2631841  29.6669546  32.4780680  29.3916543  29.6055050  33.5587253
  28.5531485  28.9063886  32.1532789  30.6154975  29.4326439  31.7878173
  30.9886438  30.2061957  30.8677606  31.3188028  28.4956149  32.1588002
  26.7728867  32.6829438  32.3870386  26.6758892  33.3329919  33.4187997
  26.5016010  33.2278386  31.1953122  26.4967858  32.6900042  30.3404378
  26.1742086  34.6533196  31.1206181  26.9973909  35.2041465  31.5756564
  25.9480573  35.1948943  29.6917992  25.1426873  34.6084026  29.2496387
  25.6301333  36.2330254  29.7882775  27.1375377  35.1246337  28.8272874
  27.9296244  35.7395367  29.2545975  27.4754880  34.0902936  28.7637880
  26.7927801  35.6392348  27.4170956  25.8987832  35.1536015  27.0259066
  26.6495762  36.7197817  27.4138792  27.9210358  35.3138698  26.5471750
  27.8924675  34.4251463  26.0681618  28.9720129  36.1084693  26.3505134
  29.0447522  37.3316629  26.9444540  28.2937447  37.6444862  27.5429767
  29.8493834  37.9206093  26.7837980  29.9561323  35.6726222  25.5521780
  29.8856408  34.7627316  25.1194771  30.7638581  36.2560050  25.3868228
  24.9033770  34.9473542  31.8532925  24.7956916  35.9865960  32.4974093
  23.9267315  34.0356205  31.7605178  24.0182998  33.2324872  31.1549672
  22.6680990  34.2275514  32.4669812  22.2581425  35.2106501  32.2355685
  21.6548540  33.1626384  32.0413183  21.4131215  33.2749456  30.9844116
  22.0605649  32.1662977  32.2168285  20.4832047  33.3368847  32.8135858
  19.8329006  32.6771332  32.5617278  22.8354129  34.2279657  33.9875995
  22.2833168  35.0851373  34.6923268  23.5743435  33.2505679  34.4752666
  23.8839151  32.5246031  33.8449970  23.9205589  33.1394334  35.8637633
  23.0195506  33.0804928  36.4743443  24.7271120  31.8972223  36.0801832
  24.0710399  31.0539484  35.8644106  25.5403231  31.9191359  35.3547125
  25.2929270  31.7492242  37.4600118  26.1530732  31.0833346  37.3904389
  25.6246986  32.7388599  37.7740944  24.3112164  31.2008575  38.4742604
  23.1325033  30.8850311  38.1209686  24.7542797  31.0865637  39.6420865
  24.7022143  34.3467173  36.4054555  24.5155251  34.6738208  37.5718055
  25.5726765  34.9482627  35.5822011  25.6777474  34.5855394  34.6454561
  26.4543177  36.0451203  36.0078982  26.5301309  36.0474054  37.0952557
  27.8793177  35.8874618  35.4114724  27.6501798  35.8212978  34.3478853
  28.5323841  36.7418196  35.5894528  28.5917902  34.5892931  35.8677080
  27.8816556  33.7649491  35.8023875  29.8100199  34.2818630  34.9978017
  30.5208618  35.1056073  35.0629782  30.2844118  33.3647676  35.3470710
  29.4949449  34.1556233  33.9619968  28.9063120  34.5899531  37.3666061
  27.9793775  34.6808729  37.9328441  29.4050131  33.6583839  37.6341454
  29.5587089  35.4310735  37.6011138  25.9605725  37.4645564  35.7122602
  26.6407483  38.4316742  36.1057662  24.7882550  37.5833284  35.0832015
  24.2398232  36.7546713  34.9025104  24.2493422  38.8762331  34.6640779
  24.8354571  39.2946995  33.8458759  22.8134845  38.6636267  34.1783577
  22.7609749  37.6866285  33.6979240  22.1575554  38.6756107  35.0488251
  22.3761659  39.7219057  33.2082609  22.2120564  40.6693538  33.7215943
  23.1226911  39.8577855  32.4257401  21.0684649  39.2488670  32.5855560
  21.2659260  38.8836755  31.5777151  20.6582992  38.4402798  33.1905769
  20.0588021  40.4029500  32.5224491  19.1557687  40.0381693  32.0329940
  19.8220802  40.7036714  33.5430512  20.5935809  41.5769991  31.7690593
  20.8125925  41.2986605  30.8231940  19.8995490  42.3105719  31.7520065
  21.4301163  41.9154314  32.2226793  24.2218806  39.8622521  35.8335826
  24.6989900  40.9967382  35.7342349  23.6690542  39.3921003  36.9710984
  23.1600975  38.5198397  36.9860631  23.5842648  40.2682175  38.1473197
  23.2853258  41.2634730  37.8183803  22.5650229  39.7680425  39.1989042
  22.7914094  38.7339383  39.4586673  22.6542796  40.3931819  40.0873488
  21.1320040  39.8401219  38.6960976  20.8202487  40.5678853  37.7493738
  20.2283609  39.0568138  39.3318676  19.2619522  39.0656719  39.0384812
  20.5249750  38.4673539  40.0964968  24.9161538  40.6403906  38.7508658
  25.0942261  41.7983905  39.1340727  25.8508905  39.6884789  38.8477191
  25.6222462  38.7259076  38.6445505  27.1960512  39.9950176  39.3131712
  27.1404261  40.4703966  40.2924667  28.0485412  38.7247194  39.4324626
  28.1554008  38.2583069  38.4531059  29.0341625  38.9767558  39.8237786
  27.4044528  37.8213230  40.3189219  27.9308632  37.0226326  40.4000732
  27.9226030  40.9958418  38.4320619  28.6859617  41.8026301  38.9091207
  27.6932321  40.9116517  37.1242477  27.1307772  40.1651510  36.7415200
  28.3400333  41.8284534  36.2023210  29.4021193  41.9361303  36.4224987
  28.1630280  41.3204829  34.7488568  27.1447469  40.9492729  34.6330674
  28.4267284  42.4775433  33.6956957  29.4450349  42.8489676  33.8105712
  28.2943388  42.0879434  32.6863465  27.7222274  43.2917279  33.8656396
  29.1198341  40.1302100  34.5169459  30.1330301  40.5317484  34.4995789
  29.0099256  39.4595171  35.3691141  28.8541398  39.3537432  33.2163019
  28.9643262  40.0237162  32.3636033  29.5682906  38.5349214  33.1290165
  27.8412203  38.9514866  33.2331377  27.8071030  43.2624158  36.4065054
  28.5941377  44.2340863  36.4361826  26.4963126  43.3715499  36.6077053
  25.9055547  42.5581480  36.5103309  25.8551710  44.6745065  36.8679772
  26.1722744  45.3901018  36.1093812  24.3083207  44.5225978  36.7925648
  23.9746477  43.8158989  37.5523931  23.8387368  45.4907840  36.9663658
  24.0265293  44.1545525  35.8060378  26.3370968  45.2341435  38.2103196
  26.6215403  46.4386332  38.3516362  26.5199269  44.3461582  39.1919327
  26.4466858  43.3512634  39.0340737  26.8182828  44.8088650  40.5321219
  26.1761347  45.6489476  40.7967086  26.5647545  43.6540037  41.5391019
  25.5152946  43.3706021  41.4589981  27.1913515  42.8131619  41.2416776
  26.8823862  44.0406020  42.9971468  27.9275129  44.3462631  43.0459549
  26.2443925  44.8883657  43.2468665  26.6337089  42.8955841  44.0033688
  26.4541820  41.7123524  43.5787103  26.6333677  43.1888791  45.2306568
  28.2882600  45.2721291  40.6390353  28.5514273  46.3327125  41.2199714
  29.2282453  44.4428479  40.1311405  28.9340602  43.6547873  39.5721101
  30.6802212  44.6139650  40.3989298  30.8362661  45.3817637  41.1567123
  31.2647378  43.2992893  40.9089782  30.9276305  42.4585576  40.3026547
  32.3535185  43.3470612  40.8896297  30.8762854  42.9938310  42.3149846
  31.3818683  43.7649255  43.3766420  32.0663759  44.5866152  43.1659876
  31.0138794  43.4849567  44.6892164  31.4078161  44.0918929  45.5044115
  30.1476631  42.4360623  44.9612804  29.8640500  42.2205981  45.9914448
  29.6401535  41.6584469  43.9213432  28.9699041  40.8241402  44.1282207
  30.0012066  41.9595071  42.5928929  29.5897602  41.3744752  41.7703666
  31.4994353  45.0658096  39.2153224  32.5895375  45.6210746  39.3839760
  30.9668465  44.8809280  38.0234914  30.0127442  44.5682189  37.9139418
  31.8035972  45.0367981  36.8011994  32.7759854  45.4622166  37.0493516
  32.0200051  43.6443076  36.1772011  31.0862756  43.1833364  35.8550925
  32.6885209  43.7454923  35.3222459  32.6766922  42.6719406  37.1259763
  33.9940024  42.7880177  37.5031858  34.2978183  41.8098283  38.3594727
  35.2816820  41.7723804  38.8271359  33.2465770  41.0095902  38.4785899
  33.2006028  40.1542937  39.0138041  32.2030481  41.5413511  37.7400112
  31.2311384  41.0479158  37.7362171  31.2404552  45.9988596  35.7961647
  31.6627975  45.9829810  34.5964132  30.3820363  46.9049636  36.2564131
  30.0871489  46.9030130  37.2224033  29.8254422  47.9639624  35.3423417
  30.2767607  47.8134774  34.3616454  28.2813258  47.8206891  35.2065972
  27.8244040  48.0545884  36.1681656  27.7131265  48.7921953  34.1058378
  28.1692725  48.5585835  33.1438316  26.6324773  48.6688965  34.0344664
  27.9436615  49.8227168  34.3759852  28.0075906  46.4908959  34.7731344
  27.0593281  46.3733530  34.6804948  30.1678031  49.2994964  35.9518003
  30.1606753  49.4267445  37.1548320  30.4265559  50.3125321  35.1246180
  30.2147055  50.2568781  34.1386558  31.0155677  51.5560736  35.6417366
  30.9504416  51.5771019  36.7295856  32.5028362  51.6427847  35.2346044
  32.6453106  51.6298981  34.1540331  32.8389475  52.5998750  35.6334871
  33.3052404  50.5266659  35.8613455  33.7734703  50.6503330  37.1590146
  33.5852326  51.5838902  37.6892382  34.4636484  49.6280242  37.7831082
  34.8656749  49.7515044  38.7887071  34.6893097  48.4303272  37.0764245
  35.3607849  47.4215356  37.7246942  35.6112974  47.6537939  38.6218560
  34.2077728  48.2597676  35.7996843  34.3705397  47.3246833  35.2637506
  33.4981555  49.3086660  35.1853942  33.0950792  49.1790725  34.1809864
  30.3333107  52.7716503  35.0926215  29.9757250  52.8021683  33.9063516
  30.1921621  53.7677749  35.9560443  30.2893780  53.6256677  36.9512598
  29.8928267  55.1169465  35.4736853  29.1978331  55.0633386  34.6357060
  29.2605452  55.9491915  36.5763359  28.4439419  55.3625116  36.9971268
  30.0227913  56.1092209  37.3388787  28.7246686  57.3001188  36.1003164
  28.3135191  57.2040570  35.0954139  27.9369355  57.6113604  36.7863974
  29.7979169  58.3633344  36.0832359  30.6431372  58.4303656  36.9868954
  29.7910819  59.1912057  35.0409925  30.4851571  59.9220459  34.9759261
  29.0918532  59.0847538  34.3199873  31.2305461  55.6837032  35.0636613
  32.1749577  55.7253368  35.8870959  31.3469212  56.0688902  33.7960830
  30.5771781  55.9673667  33.1501048  32.6180193  56.5916893  33.2859675
  33.3629790  56.5533932  34.0807427  33.1329952  55.7834608  32.0940722
  32.3239237  55.9000345  31.3730221  34.0327688  56.2646523  31.7107157
  33.4083775  54.2852971  32.3181589  32.5678658  53.8597820  32.8664088
  33.5819212  53.5481960  31.0125886  34.4225990  53.9728747  30.4639470
  33.7745238  52.4941658  31.2126516  32.6741511  53.6444605  30.4169487
  34.6165819  54.0821759  33.2213459  34.4316505  54.5516936  34.1874996
  34.7893356  53.0153836  33.3635129  35.4952094  54.5337853  32.7607357
  32.4822482  58.0523836  32.8949235  31.5887193  58.4433002  32.1501099
  33.3935603  58.8360397  33.4353439  33.8470115  58.5493753  34.2910920
  33.6695355  60.1482074  32.9261056  32.7483241  60.6496063  32.6293429
  34.3410197  60.9716279  34.0377102  35.2454768  60.4516326  34.3534023
  34.6079321  61.9413475  33.6175893  33.4143822  61.1760918  35.2545473
  32.1639177  61.1541054  35.0955844  33.9358729  61.3526331  36.3844648
  34.4831248  60.1388350  31.6010446  35.1121372  59.1161694  31.2222829
  34.4435592  61.2777571  30.8556347  33.5098174  62.4160463  31.0271159
  33.8372902  63.0241656  31.8703554  32.5088990  62.0319192  31.2238589
  33.5945164  63.1478503  29.7229000  33.4459141  64.2155152  29.8844799
  32.8337911  62.7753901  29.0368447  34.9843631  62.8563112  29.1985384
  35.7555026  63.4853691  29.6432057  35.0222711  62.9484428  28.1131009
  35.2048988  61.3888761  29.6091662  34.7324692  60.7082115  28.9009259
  36.7094589  61.0617556  29.7103985  37.2865659  60.6128017  28.7465635
  37.3705250  61.2619894  30.8341200  36.9920809  61.6365456  31.6923665
  38.8039911  60.8917422  30.8015961  39.1617143  61.1773879  29.8123844
  39.2878421  61.5125755  31.5556211  39.1668178  59.4141408  31.0594565
  40.3399425  59.1052924  31.2240657  38.1894644  58.5108782  31.0906162
  37.2213962  58.7613738  30.9485059  38.4981015  57.1423231  31.5536164
  39.5455336  56.9177045  31.3522916  38.2485795  57.0000431  33.0495740
  38.4652724  55.9745422  33.3487250  38.9094627  57.6815641  33.5851696
  36.9151164  57.3044073  33.3572830  36.7752108  57.2099144  34.3023212
  37.8425456  56.0409935  30.7331454  37.0352470  56.3019732  29.8422849
  38.2489547  54.7905910  30.9855047  38.8938360  54.5937389  31.7374865
  37.7828180  53.6836905  30.1716928  36.7687350  53.8947416  29.8322928
  38.6804538  53.4546210  28.9338922  38.2676572  52.6481250  28.3278704
  38.7244503  54.3680979  28.3408287  40.4270168  52.9881346  29.2833034
  40.8039256  52.8976222  28.0110434  37.7884439  52.4313385  31.0606532
  38.4232421  52.4316990  32.1238795  37.0678077  51.4176656  30.6215886
  36.5327139  51.5011311  29.7690586  36.9493276  50.1690961  31.4039451
  37.8623648  50.0192391  31.9801440  35.7521921  50.2173426  32.3794920
  35.7706341  49.3141903  32.9894715  35.8679785  51.0908897  33.0210597
  34.4982235  50.2984480  31.6820203  33.7796014  50.3265165  32.3179403
  36.8477980  48.9728820  30.4946044  36.4923333  49.0897935  29.2881436
  37.1486980  47.7987362  31.0580099  37.4227130  47.7600218  32.0293575
  36.9964500  46.5226168  30.3193964  36.2424161  46.6389474  29.5409368
  38.3185002  46.1081226  29.6628807  39.1089364  46.3236676  30.3818037
  38.2638999  45.0324621  29.4953295  38.6053185  46.7690329  28.4268108
  39.4450828  46.4551573  28.0834771  36.6775204  45.4589762  31.3536244
  37.0821346  45.5971200  32.5192425  35.9699058  44.4282218  30.8961300
  35.6095065  44.4882268  29.9545298  35.6512587  43.2567011  31.6776926
  36.0873724  43.3396807  32.6731917  34.1185330  43.1228054  31.8197130
  33.9290294  43.8723710  32.5880483  33.6294927  43.4218765  30.8926229
  33.5617559  41.7709184  32.2772924  33.9028492  40.9917184  31.5956742
  34.0654814  41.4493094  33.7374274  33.7243621  42.2278844  34.4197451
  33.6658235  40.4867023  34.0564290  35.1547660  41.4108344  33.7463144
  32.0234225  41.6914139  32.1412244  31.7425073  41.8353963  31.0979339
  31.6783708  40.7139565  32.4782964  31.5635222  42.4687694  32.7513958
  36.2571950  42.0036728  31.0041064  36.1003595  41.8190908  29.7816097
  36.9122091  41.1460369  31.8001631  37.0888740  41.3761920  32.7675914
  37.4234560  39.8546703  31.2799623  37.0916548  39.7077662  30.2521363
  38.9579249  39.8504428  31.3052828  39.2574229  40.0641833  32.3313019
  39.4239462  38.9212471  30.9773811  39.5321557  40.9404500  30.4557604
  39.5734055  40.8463933  29.0855192  40.0289644  41.9895023  28.5882327
  40.1098096  42.1318669  27.5105986  40.3182564  42.7961357  29.5926165
  40.7102598  43.7240834  29.5194990  39.9975100  42.1658051  30.7725191
  40.1433628  42.6801969  31.7223766  36.9184765  38.6521408  32.0771685
  36.7593128  38.7755699  33.2655208  36.6224627  37.5397662  31.3707263
  36.7099497  37.5473607  30.3645515  36.1793539  36.2952678  32.0241735
  36.0101661  36.4255347  33.0930539  34.8811551  35.7920284  31.3801231
  35.0373898  35.6480724  30.3110266  34.5925609  34.8446561  31.8354245
  34.0897959  36.5252822  31.5356503  37.2524002  35.2633217  31.8494629
  37.9835629  35.2360968  30.8362675  37.3438446  34.3557959  32.8170108
  36.8103981  34.4020790  33.6733940  38.2577027  33.2666311  32.6443337
  38.4160902  33.0644649  31.5850220  39.6275163  33.6456155  33.2901211
  40.0570599  34.4495288  32.6923628  39.4221697  34.0114517  34.2961513
  40.6463666  32.4455993  33.3656669  41.4447764  32.7161550  34.0566388
  40.1251021  31.5647735  33.7405421  41.2555442  32.1123796  32.0361571
  41.7790024  32.9988372  31.3173356  41.2019590  30.8147237  31.6598182
  41.5964936  30.5322941  30.7739980  40.7676437  30.1337486  32.2662375
  37.6741526  32.0228528  33.3093877  37.4677985  32.0291739  34.5140118
  37.4714513  30.9512035  32.5245094  37.6458129  31.0314857  31.5329187
  36.9845913  29.6516892  33.0502849  36.2355152  29.8203838  33.8239298
  36.3392511  28.8187437  31.9071087  35.7159680  29.4894555  31.3157010
  37.1432922  28.4269668  31.2841089  35.4539307  27.6132844  32.4498543
  36.1251503  26.8625288  32.8669050  34.8059530  27.9981557  33.2373191
  34.5911725  26.9727284  31.3410538  35.2388177  26.5673230  30.5636857
  33.9883586  26.1701953  31.7660895  33.7005285  27.9577586  30.7401489
  32.8434309  28.1640478  31.2330261  33.9192725  28.5527062  29.5719745
  35.0139104  28.2560231  28.8646338  35.6733718  27.5789342  29.2206692
  35.1765871  28.7102869  27.9773456  33.0708274  29.4755419  29.1564155
  32.2724472  29.7164332  29.7262053  33.2242734  29.9361288  28.2707447
  38.1754182  28.9141337  33.6422182  39.2828260  28.9064047  33.0525952
  37.9729205  28.3075961  34.8192657  37.0693188  28.3694619  35.2662287
  39.0222946  27.5573833  35.4879904  39.8334751  27.3647582  34.7858643
  39.5788601  28.3308395  36.7271616  38.7781337  28.4593335  37.4554658
  40.7279298  27.5539971  37.3662105  41.5292876  27.4255006  36.6386014
  41.1050058  28.1051457  38.2276917  40.3708033  26.5760908  37.6891022
  40.0604940  29.7287993  36.2431853  40.7389774  29.5856318  35.4021954
  39.1900696  30.2966418  35.9145278  40.8075306  30.5256605  37.3957832
  41.6783939  29.9586164  37.7246569  41.1282260  31.4965035  37.0180036
  40.1294862  30.6696244  38.2369907  38.4265316  26.2284562  35.9414539
  37.3784501  26.1901305  36.6121531  39.1214428  25.1439347  35.5769469
  39.9655149  25.2565843  35.0338524  38.6366547  23.7733463  35.8421131
  37.5529069  23.7766439  35.9586419  39.0032796  22.8456609  34.6640389
  40.0590620  23.0552636  34.4923134  38.8610204  21.7713361  34.7810370
  38.2765400  23.2415706  33.4090504  36.9232190  23.0517607  33.2726224
  36.5086240  23.5810125  32.1294626  35.4629165  23.5216302  31.8276869
  37.5534778  24.1257998  31.5321685  37.5471100  24.5983560  30.6395600
  38.6648944  23.9481039  32.3228937  39.6263895  24.3561264  32.0112108
  39.2086725  23.3469717  37.1914945  40.0801651  22.4938362  37.2731663
  38.7247842  24.0206112  38.2264046  38.0466466  24.7449198  38.0377095
  39.1564294  23.8167842  39.6122845  39.2863839  22.7538063  39.8154817
  40.4629136  24.5260291  39.8935524  40.3460342  25.5929232  39.7033524
  40.7436604  24.3718519  40.9354310  41.2416325  24.1250106  39.2447995
  38.0467469  24.3092113  40.5277932  37.1884061  25.0717829  40.0904050
  38.0215535  23.8354190  41.8048051  38.9787089  22.8922772  42.4360182
  39.8167761  23.4367254  42.8711273  39.3515944  22.1806000  41.6994240
  38.1140539  22.2407989  43.4738466  38.7164825  21.8121701  44.2747561
  37.4901452  21.4631912  43.0332044  37.2437580  23.4272967  43.9887234
  37.8804220  23.9920928  44.6697251  36.3046738  23.1855094  44.4864777
  36.9684616  24.2552655  42.7230645  35.9956491  24.0996914  42.2566625
  37.1418289  25.7336496  43.0546203  38.2904795  26.1979169  43.1669400
  36.0189947  26.4409394  43.2514309  34.6204310  26.0419019  42.9857438
  34.4273957  25.0712603  43.4425726  34.4608774  25.9745735  41.9095893
  33.8352142  27.1234440  43.6029919  33.6594922  26.9020175  44.6556985
  32.8793069  27.2289660  43.0899540  34.6876030  28.3798480  43.4318714
  34.4979322  29.0459405  44.2735630  34.4929319  28.9092716  42.4991799
  36.1386268  27.8996098  43.4659486  36.7218189  28.3208330  42.6470736
  36.8211989  28.2213437  44.7945365  37.4813360  29.2571055  44.8958260
  36.7002328  27.3344942  45.8057565  36.0528253  26.5595860  45.7838435
  37.4188928  27.5982030  47.0431920  37.2214560  28.6215168  47.3624830
  36.9760071  26.6235675  48.1853180  37.5477728  26.8782048  49.0776985
  35.9158409  26.7937990  48.3728520  37.2060634  25.1249230  47.8321315
  38.0975816  25.0961761  47.2056575  37.4015225  24.5974250  48.7657486
  36.0305580  24.4408175  47.0889560  35.2208044  25.1231986  46.4145852
  35.9160165  23.1803232  47.2047810  38.9203250  27.5983394  46.8003193
  39.6566324  28.3971514  47.4162291  39.4128926  26.7170439  45.9330239
  38.8420160  25.9902750  45.5255853  40.8390961  26.7399156  45.6121273
  41.4263419  26.7758177  46.5297070  41.2250258  25.4814997  44.8339365
  40.9442039  24.6799540  45.5171369  40.5558309  25.4759887  43.9735599
  42.6510657  25.2695120  44.3658121  42.8090331  25.8953822  43.4874991
  43.6967365  25.6239797  45.4445884  43.5396863  24.9981521  46.3230950
  44.6984430  25.4517950  45.0508406  43.5915010  26.6726461  45.7226616
  42.7923763  23.8016107  43.9731915  42.0906353  23.5701122  43.1719004
  43.8096989  23.6129956  43.6302916  42.5778701  23.1717720  44.8365508
  41.2562827  28.0076798  44.8218380  42.2726178  28.6595219  45.1326931
  40.4879268  28.3482840  43.7973347  39.7259027  27.7674234  43.4779296
  40.7818181  29.6000337  43.0495871  41.7700343  29.5754344  42.5903238
  39.7287322  29.8437594  41.9434850  38.7328287  29.7736564  42.3809333
  39.9173413  31.2431533  41.3139190  40.9129207  31.3138584  40.8758282
  39.1676561  31.3969978  40.5377718  39.8046126  32.0066224  42.0836649
  39.8006937  28.7452315  40.8444254  39.6135966  27.7693865  41.2925583
  39.0483426  28.9442639  40.0812390  40.7906399  28.7512115  40.3882766
  40.8274309  30.7970976  44.0171136  41.7560322  31.6363355  43.9652159
  39.8162580  30.8877132  44.8728450  39.0282797  30.2652855  44.7643392
  39.7148955  31.9850590  45.8686661  39.7771851  32.9458609  45.3577074
  38.3645485  31.9197236  46.6433463  37.5014953  32.0406160  45.9886530
  38.3002964  30.9592862  47.1547479  38.2516790  32.9838027  47.7073944
  38.2030721  32.7838645  49.0583774  38.2158532  31.7451781  49.3886303
  38.1467307  33.9769395  49.7292923  38.1149562  34.0901879  50.7324197
  38.1473368  34.9995565  48.8098038  38.0956808  36.3713855  49.0233403
  38.0490624  36.7374282  50.0489806  38.1070556  37.2023699  47.8940066
  38.0720437  38.2846192  48.0189490  38.1641027  36.6570152  46.5690489
  38.1647869  37.3004949  45.6892575  38.2213726  35.2594655  46.3687763
  38.2397613  34.8754556  45.3488259  38.2200978  34.4161050  47.5141668
  40.9547165  32.0718614  46.8117001  41.4816952  33.1419776  47.1005786
  41.3993109  30.9056991  47.3073770  40.8909402  30.0539276  47.1172617
  42.5868189  30.8304151  48.1682870  42.4197537  31.3640857  49.1039067
  42.8686175  29.3448690  48.4904228  43.3914744  29.2754376  49.4443092
  41.9243686  28.8040865  48.5540490  43.6796885  28.7694731  47.4584609
  43.8516100  27.8474722  47.6632956  43.8196531  31.4781495  47.5212005
  44.7036013  31.9683508  48.2115592  43.8857129  31.5121276  46.1821610
  43.1600581  31.0869537  45.6229190  44.9993457  32.1377555  45.5009668
  45.9217246  32.1189171  46.0814506  45.2459446  31.4651205  44.1069596
  44.3126266  31.4814106  43.5441519  46.3411326  32.2084076  43.3092702
  47.2749354  32.1921353  43.8712739  46.4878322  31.7166954  42.3476054
  46.0341946  33.2413973  43.1455011  45.5642201  29.9721483  44.3035833
  46.6225201  29.9069450  44.5562696  44.9674898  29.6323242  45.1500654
  45.2701117  29.0736069  43.0682802  45.8668689  29.4125559  42.2214661
  45.5252513  28.0398261  43.3013042  44.2118384  29.1379370  42.8152604
  44.7515623  33.6393628  45.2805463  45.6279147  34.4913834  45.5655100
  43.5866118  33.9326779  44.7040367  42.9757677  33.1739374  44.4370500
  43.1582693  35.3326380  44.3906738  43.8360330  35.8755701  43.7319172
  41.7651719  35.3154510  43.7532835  41.1937162  34.5202206  44.2319757
  40.9977837  36.6754166  43.9063511  41.5684429  37.4711042  43.4274666
  40.0188276  36.5960060  43.4336573  40.8722168  36.9052563  44.9644193
  41.9097049  34.8956780  42.3050519  42.3546732  33.9017999  42.2569738
  40.9279120  34.8769135  41.8319449  42.5506858  35.6058260  41.7826208
  43.1492740  36.2201430  45.6549835  43.4290302  37.4305306  45.5830157
  42.8328912  35.6347426  46.8051162  42.5575336  34.6633355  46.8305283
  42.7060669  36.4370953  48.0525615  42.2624252  37.4065602  47.8258040
  41.8096827  35.7125283  49.0648495  41.4993956  36.4181429  49.8355175
  40.9295250  35.3272628  48.5500750  42.5775347  34.5416240  49.7181178
  42.8560936  33.8244128  48.9460337  43.4777434  34.9290289  50.1952379
  41.6891319  33.8378619  50.7825255  40.7792055  33.4587352  50.3173418
  42.2355645  33.0115734  51.2372322  41.3183295  34.7886696  51.8317668
  40.4349131  35.2626890  51.7093727  42.0454718  35.0723487  52.9039442
  43.2285392  34.4686035  53.0942052  43.5638878  33.7972024  52.4182896
  43.7783370  34.6882927  53.9124708  41.5841305  35.9519847  53.7859423
  40.6890412  36.3940935  53.6327919  42.1305654  36.1746542  54.6056532
  44.0233019  36.8881613  48.6936865  44.0342233  37.7743117  49.5586686
  45.1204719  36.2574370  48.2807554  45.0123841  35.5199537  47.5991876
  46.4510607  36.5110650  48.8194066  46.4065323  36.6337958  49.9015589
  47.3578124  35.3233485  48.4995695  47.3063791  35.1320588  47.4277197
  48.3791958  35.5890675  48.7720939  46.9420716  34.0788583  49.2543873
  45.8749958  33.9045384  49.1163201  47.5010392  33.2198933  48.8831241
  47.2351405  34.2730275  50.7278492  46.7840454  35.1992126  51.0839296
  46.8449164  33.4343265  51.3043951  48.6836106  34.3483178  50.9306468
  49.2696752  34.1198966  50.1404244  49.2661037  34.6992794  52.0708734
  48.5152347  35.0270639  53.1222339  47.5083352  35.0066849  53.0458262
  48.9566059  35.2943203  53.9904880  50.5970492  34.7160672  52.1615663
  51.1579493  34.4613128  51.3611967  51.0376363  34.9834517  53.0301786
  47.0257447  37.8412042  48.2837287  47.9138697  37.8687469  47.4255764
  46.5418812  38.9254499  48.8673334  45.8005635  38.8318442  49.5468813
  46.9785038  40.2760307  48.4958480  46.8135592  40.4520896  47.4328825
  46.1688639  41.2974615  49.2909475  45.1053431  41.1920556  49.0766759
  46.3410139  41.1461302  50.3565756  46.5283900  42.7316002  48.9953054
  46.0560218  43.3457364  47.8301019  45.4287929  42.7845582  47.1374528
  46.3910619  44.6934454  47.5495712  46.0168924  45.1622345  46.6394423
  47.1913681  45.4174902  48.4260112  47.4555507  46.4513954  48.2038680
  47.6559591  44.8153263  49.5926919  48.2790705  45.3720609  50.2926054
  47.3106255  43.4602139  49.8681992  47.6654898  42.9821829  50.7812477
  48.4893902  40.4776822  48.6888965  49.1238115  41.1692179  47.9075400
  49.0894072  39.8023467  49.6797399  48.5423744  39.2615753  50.3342785
  50.5328618  39.8966556  49.8942480  50.8582550  40.9251564  49.7380283
  50.9093574  39.4717649  51.3361221  51.9987596  39.4733640  51.3721730
  50.5213665  40.1893371  52.0590696  50.3954928  38.0877454  51.6734974
  49.2531280  37.7121161  51.2604023  51.1100955  37.3826331  52.4041496
  51.4012580  39.1130199  48.9312791  52.6174738  39.3060492  48.9392010
  50.8127702  38.2427202  48.1180248  49.8069319  38.1512389  48.1224761
  51.5814130  37.4123461  47.1880678  52.6054458  37.7772705  47.1087812
  51.6140474  35.9682545  47.7098450  50.5824880  35.6517165  47.8640786
  52.0714606  35.3504243  46.9370844  52.3818676  35.8152461  48.9928760
  52.2528050  36.7060861  49.6075692  52.0192281  34.9432431  49.5371235
  53.8700009  35.6311478  48.6655656  54.1543840  36.3401361  47.8880306
  54.4586248  35.8214618  49.5630075  54.1363744  34.1876710  48.1701941
  54.4384951  33.6022056  49.0385569  53.1925977  33.8029234  47.7837306
  55.1948117  34.0852036  47.1028981  56.0695226  34.4412711  47.4609436
  55.3095671  33.1183589  46.8343044  54.9148544  34.6272938  46.2979998
  50.9942950  37.3582854  45.7827949  50.7145500  36.2812189  45.2854021
  50.7873437  38.5231830  45.1438240  51.2961003  39.8439220  45.5456013
  52.3147920  39.7453325  45.9206314  50.6601668  40.2588922  46.3275779
  51.2243669  40.6401584  44.2603426  52.2053802  40.6254893  43.7854776
  50.9530847  41.6680746  44.5009578  50.2211277  40.0247405  43.4192773
  50.4847671  40.1602073  42.3703531  49.2230456  40.4251077  43.5971480
  50.2588035  38.5206366  43.7810824  49.2723899  38.0582676  43.8171582
  51.1395605  37.7672465  42.7754823  50.6282226  37.2354951  41.7982925
  52.4372955  37.7003920  43.0212656  52.8277500  38.2090767  43.8015761
  53.3586967  37.0696828  42.0720787  53.1487497  37.4242121  41.0629551
  54.8261412  37.4204496  42.4248252  55.4476984  37.1135243  41.5836577
  54.8849565  38.5023548  42.5436609  55.3243691  36.7390531  43.7026534
  54.7993880  35.7879484  43.7915109  56.3939837  36.5550364  43.6018341
  55.0874737  37.5447108  44.9693192  54.0721579  38.2235386  45.1376568
  56.0540001  37.4779576  45.8737305  55.9658477  37.9877936  46.7411392
  56.8742420  36.9175584  45.6913650  53.0856063  35.5509992  41.8995488
  53.5434223  34.9352376  40.9203557  52.2814226  34.9553528  42.7829394
  51.8993460  35.4358969  43.5849333  51.9361625  33.5305477  42.5892827
  52.8571471  32.9482022  42.5617065  51.0328945  32.9519395  43.6442280
  50.7694474  31.9348772  43.3539177  51.7039086  32.9310246  44.9940563
  51.9672512  33.9478560  45.2852678  51.0231961  32.5069841  45.7322428
  52.6071294  32.3230910  44.9420031  49.8343582  33.7428781  43.7000915
  49.2463754  33.3859726  44.3697892  51.2222777  33.3447232  41.2473857
  51.3122298  32.2665473  40.6609547  50.5626491  34.3850838  40.7339531
  50.3246435  35.1830376  41.3055494  50.0120248  34.3158606  39.3600539
  50.5434352  33.5531350  38.7908861  48.5356802  33.9612680  39.3861215
  48.2497161  33.5842606  38.4041901  48.4500293  33.1609133  40.1211020
  47.6342249  35.0848395  39.7683394  46.9809519  35.8188018  38.7916621
  47.1561447  35.5781068  37.7431046  46.1312050  36.8271950  39.1251954
  45.6016113  37.3822631  38.3509009  45.9293844  37.1434135  40.4781401
  45.1063538  38.1819861  40.8086012  44.7259228  38.6175797  40.0423570
  46.5552569  36.4325919  41.4770596  46.4007984  36.6802077  42.5272641
  47.3835777  35.3990498  41.1323258  47.8626680  34.8023930  41.9085818
  50.2267718  35.5141957  38.3963409  49.9815436  35.4144254  37.1712539
  50.6743538  36.6305523  38.9187145  50.7543851  36.7622416  39.9168890
  50.9969846  37.7430700  38.0521121  50.4716167  37.6558651  37.1010689
  50.5563068  39.0443749  38.7387377  51.2469884  39.2189914  39.5637027
  50.6593689  39.8429414  38.0040475  49.1272785  39.0233534  39.2687314
  48.4206495  38.8632870  38.4543880  49.0078530  38.2358109  40.0127854
  48.8560232  40.3918924  39.9219715  49.3826938  40.3867711  40.8762727
  49.3015720  41.1394696  39.2656835  47.4309383  40.7203307  40.1472433
  46.8359407  40.4133649  39.2870977  47.0667418  40.2123540  41.0402270
  47.3062221  42.2801608  40.3425097  47.6432431  42.7510410  39.5149903
  46.3384040  42.5236742  40.4978459  47.8571463  42.5647493  41.1397493
  52.4838788  37.7658186  37.7037817  53.3528812  38.2115031  38.5449180
  52.7893473  37.4441973  36.4400386  52.0709494  37.3721641  35.7337702
  54.1865235  37.1112012  36.0600950  54.6947225  36.6642377  36.9145285
  54.2325776  36.1071951  34.8736259  53.4136869  36.2099968  34.1616223
  55.1764018  36.3291217  34.3755853  54.2831898  34.6565427  35.2643202
  55.0931556  34.1733344  36.2731819  54.9639459  32.8597723  36.3553372
  55.5088541  32.2939130  37.1109676  54.1213076  32.4649558  35.4160664
  53.8224991  31.5155737  35.2443485  53.7077204  33.5670164  34.6967145
  53.0373006  33.4425549  33.8463334  55.0780504  38.3210733  35.6882384
  56.3037368  38.1303453  35.3841368  54.4720186  39.5196158  35.7157206
  53.4790142  39.5655315  35.8944201  55.2000623  40.7713973  35.5265190
  56.0105950  40.6330994  34.8109705  54.2470124  41.8392304  34.9854070
  53.3166631  41.9410542  35.5441390  54.7899943  42.7840520  35.0095506
  53.8579301  41.5964665  33.5302748  54.8576921  41.6190287  32.5237635
  55.8899113  41.8347524  32.7996017  54.5263201  41.3657831  31.1778314
  55.2864526  41.4237947  30.3987718  53.2173939  41.0398353  30.8478871
  52.9673233  40.8308287  29.8077521  52.2059056  40.9768559  31.8508003
  51.1800826  40.7193073  31.5872551  52.5410628  41.2506482  33.1909441
  51.7770377  41.1940689  33.9662919  55.7541354  41.2694643  36.8595390
  56.3503655  42.3194914  36.8993600  55.4788297  40.5541433  37.9561244
  54.8901768  39.7344489  37.9150361  55.9778406  40.9917349  39.2741148
  56.3038036  42.0318222  39.2822226  54.8953728  40.7805550  40.3665688
  54.5434479  39.7504945  40.3097836  55.4790539  41.0667503  41.8369013
  55.8307744  42.0968298  41.8946028  54.6943549  40.9093135  42.5768756
  56.3083424  40.3884305  42.0375555  53.6860390  41.6509051  40.0191679
  54.0272772  42.6859160  40.0394089  53.3894452  41.3864499  39.0041826
  52.4756329  41.4888014  40.9684146  52.7713534  41.7535426  41.9835803
  51.6678317  42.1443863  40.6431992  52.1335228  40.4540753  40.9483555
  57.2591862  40.2703793  39.6636576  57.3032679  39.0207174  39.7611707
  58.2845528  41.0455817  39.9706833  58.2142776  42.0486245  39.8754684
  59.5365561  40.4872705  40.4203390  59.7321289  39.5377676  39.9220472
  60.6576533  41.4508135  40.0840269  60.6135918  41.6644570  39.0160783
  60.4950068  42.3710338  40.6451337  62.0589332  40.8665375  40.4394523
  62.1152013  40.8288004  41.5273451  62.0857273  39.8529621  40.0393910
  63.2512139  41.6633287  39.8932789  64.1527684  41.1381696  40.2087252
  63.1772740  41.6364175  38.8061230  63.3163727  43.0910913  40.3551474
  62.5105595  43.6342007  39.8613885  63.1508177  43.0967450  41.4324861
  64.6417018  43.7604633  40.0440303  64.7950988  43.7557132  39.0457585
  64.6238569  44.7136947  40.3773941  65.3884760  43.2576101  40.5018141
  59.5057241  40.2218931  41.9376432  59.9236202  39.1580780  42.4028855
  59.0125893  41.1842361  42.6968092  58.7463326  42.0728912  42.2974363
  58.8861489  41.0061712  44.1674814  58.6469651  39.9687928  44.4014394
  60.2269716  41.3735478  44.8569356  60.1862995  41.0698343  45.9029772
  61.0414115  40.8482972  44.3580373  60.4518565  42.7890704  44.7784275
  61.2829924  43.0053014  45.2074462  57.7447077  41.8670468  44.6868803
  57.2673931  42.8026732  44.0236933  57.2680392  41.5531182  45.8879985
  57.6365719  40.7899495  46.4374131  56.1836588  42.3331766  46.4394386
  56.1925876  43.3412876  46.0250332  54.8498231  41.6700414  46.0845513
  54.6807959  41.6841348  45.0078292  54.8172510  40.6413513  46.4434884
  53.4259055  42.5062939  46.8272991  52.5058376  41.6897677  46.3216723
  56.3762586  42.3657115  47.9492915  56.6763116  41.3332293  48.5461287
  56.2930012  43.5295616  48.5420563  56.2866685  44.4168513  48.0595875
  56.3860594  43.5346030  49.9997883  56.2631411  42.5221408  50.3843798
  57.7362648  44.0546676  50.4326487  57.9288547  43.7481641  51.4607849
  58.5075114  43.6438968  49.7810768  57.7531840  45.4554465  50.3515238
  58.6128942  45.7815829  50.6274460  55.2201241  44.2624881  50.6604654
  54.6346057  45.2174030  50.1093539  54.8726210  43.7702828  51.8506879
  55.3475483  42.9465954  52.1913966  53.8454411  44.3548334  52.6725828
  53.5021303  45.2869150  52.2237390  52.6542307  43.3888797  52.7703234
  53.0022253  42.4121231  53.1063971  51.6939572  43.9097220  53.7168249
  51.3451349  44.8863270  53.3811663  50.8472090  43.2271481  53.7890117
  52.1643548  44.0090195  54.6950721  51.9526585  43.2366475  51.4078361
  52.6597170  42.8457080  50.6761690  51.1136057  42.5477817  51.5055805
  51.5873966  44.2085563  51.0760565  54.4424874  44.6159649  54.0718437
  55.5335023  44.1614614  54.3814791  53.7035125  45.3266889  54.9017524
  52.9268117  45.8428742  54.5139536  53.9971664  45.4784665  56.3508911
  54.8893678  46.0839355  56.5105253  52.8059764  46.1854711  56.9943575
  51.8988378  45.7139907  56.6163297  52.8732022  46.0314101  58.0713189
  52.7631049  47.6883255  56.6952058  53.3969232  47.9048949  55.8352797
  51.7299380  47.9414748  56.4573387  53.2240065  48.5106812  57.8819626
  52.5311910  49.5073100  58.2319622  54.2707045  48.1353148  58.4765249
  54.3230915  44.1826805  57.1241022  53.6193969  43.1693748  56.9736652
  51.1849909  42.0789812  59.8261376  51.4853389  41.3143322  60.4136768
  49.7618219  42.4425337  59.8297108  49.3760480  42.3525001  60.8451770
  49.5273454  43.8903124  59.3384648  49.9960640  44.0137910  58.3621681
  48.4602946  44.0975312  59.2574528  50.1115625  44.9646824  60.2401390
  50.3885008  44.7101765  61.5939034  50.1803165  43.7234689  62.0076271
  50.9338199  45.7234870  62.4194221  51.1519872  45.5116825  63.4661515
  51.1947249  47.0048329  61.8897409  51.6138194  47.7843971  62.5259322
  50.9137565  47.2750361  60.5412065  51.1115841  48.2600135  60.1183779
  50.3672230  46.2511377  59.7274104  50.1357917  46.4516106  58.6812985
  48.9596373  41.4762769  58.9581481  49.4601274  41.0155325  57.9234340
  47.7263423  41.1659151  59.3739329  47.4208188  41.3998286  60.3077633
  46.8110864  40.4099938  58.5114733  47.3506871  39.6185666  57.9913068
  45.6628725  39.7748094  59.3182217  46.0734153  39.0758579  60.0469333
  45.1075603  40.5558616  59.8375346  44.7366908  39.0377308  58.3806702
  44.3253698  39.7361666  57.6519018  45.2912232  38.2561619  57.8613022
  43.5984316  38.4080563  59.1804223  42.5608997  39.1025363  59.3502051
  43.7773200  37.2385826  59.6139318  46.2956308  41.3768277  57.4263748
  46.0203393  42.5480160  57.7021001  46.1874296  40.9053402  56.1904261
  46.4953093  39.9778549  55.9353177  45.8078235  41.8242663  55.1256932
  46.2933446  42.7862690  55.2897643  46.2301978  41.2873837  53.7355950
  45.8869512  40.2545469  53.6761875  45.7067782  41.8870604  52.9909342
  47.7988068  41.3427403  53.4550394  48.2522049  40.7247695  54.2300511
  47.9350458  40.8655441  52.4845628  48.6178564  42.9909196  53.4391431
  49.4613036  43.1039152  55.0562556  50.1843531  42.2933122  55.1469267
  49.9777810  44.0608587  55.1311616  48.7255987  43.0250711  55.8566449
  44.3222268  42.2006345  55.2721423  43.4346070  41.3344406  55.3365253
  44.0801456  43.5039066  55.4083794  44.8601807  44.1426367  55.3478111
  42.7497834  44.0567897  55.6347144  41.9461662  43.3361813  55.4829839
  42.6622506  44.5951356  57.0732789  42.7758267  43.7711121  57.7776829
  43.4551489  45.3248029  57.2375894  41.3069283  45.2613603  57.2851046
  41.1928094  46.0858340  56.5813143  40.5134866  44.5321439  57.1214106
  41.2201629  45.7949884  58.7110562  41.3337407  44.9709661  59.4154611
  42.0130603  46.5246567  58.8753649  39.9153323  46.4498852  58.9538079
  39.2441411  46.4812182  58.1997389  39.5862169  46.9990327  60.1195783
  40.4162530  46.9973673  61.1587788  41.3270406  46.5693340  61.0730262
  40.1319789  47.4241416  62.0289234  38.3859285  47.5615558  60.2280970
  37.7580057  47.5611025  59.4370136  38.1078698  47.9866049  61.1010892
  42.5418569  45.2058036  54.6170421  43.5149505  45.7739505  54.1329637
  41.2886799  45.5313678  54.3009957  40.5415614  44.8780898  54.4884556
  40.9786546  46.7431618  53.5150743  41.3674759  46.6690660  52.4994824
  39.4342818  47.0345812  53.4421332  39.0449770  47.0240053  54.4601848
  39.1139056  48.3802723  52.7878493  39.5025219  48.3914313  51.7695400
  38.0339345  48.5261168  52.7656593  39.5767306  49.1831842  53.3616325
  38.7112176  45.9130636  52.6965827  38.8683766  44.9690188  53.2182938
  37.6441955  46.1319849  52.6561248  39.1047375  45.8372995  51.6829246
  41.7978729  47.9374091  53.9946290  41.8366580  48.2725071  55.2157007
  42.4718672  48.5677831  53.0298216  42.4559283  48.1623151  52.1049211
  43.2275161  49.8037115  53.2322291  43.0934081  50.4623377  52.3741348
  42.8771400  50.3064029  54.1336931  44.7053826  49.4864594  53.3857592
  45.5180842  50.4028186  53.3205372  45.0873598  48.2155790  53.6036985
  44.4180664  47.4705632  53.7344545  46.5322928  47.8722511  53.6049511
  47.0414945  48.4873970  54.3468463  46.7728979  46.4213433  53.9351671
  46.1385667  45.7721347  53.3316347  47.8179778  46.1528617  53.7808117
  46.3965535  46.0164534  55.6854594  46.7115299  44.7270716  55.6007083
  47.1103985  48.0959696  52.2060992  46.3728884  48.0238797  51.2044451
  48.4113733  48.3269071  52.1445237  48.9711965  48.4304434  52.9787764
  49.0594200  48.5578148  50.8288497  48.3712191  48.3470547  50.0102785
  49.5827109  50.0295535  50.6777148  50.1369182  50.1001138  49.7417790
  48.4187654  51.0637391  50.6704959  47.8643453  50.9940887  51.6063735
  48.8260380  52.0691707  50.5640279  47.7499343  50.8529658  49.8360259
  50.5007143  50.3088558  51.7456656  50.8261217  51.2080411  51.6609540
  50.1867387  47.5505292  50.5565514  50.7751198  46.9426880  51.5064054
  50.5100752  47.3356628  49.2710573  49.9726380  47.7371501  48.5160285
  51.6544302  46.4812134  48.9328965  52.1964145  46.2153497  49.8404584
  51.1849155  45.1998509  48.2527318  52.0698570  44.5799463  48.1088705
  50.5060319  44.7071371  48.9487565  50.4783211  45.4019348  46.9064868
  49.6583900  46.1094768  47.0297680  51.1891860  45.7935620  46.1788872
  49.9136842  44.0325352  46.3990945  50.7334526  43.3766137  46.1061000
  49.3304370  43.5548601  47.1863355  49.0449096  44.2485263  45.2350861
  49.1448406  45.1226136  44.7390169  48.1258939  43.3738464  44.8089650
  47.9508501  42.2046936  45.4466579  48.5165280  41.9834668  46.2536073
  47.2543497  41.5521179  45.1163071  47.3756438  43.6585824  43.7104554
  47.5149683  44.5302336  43.2196267  46.6826792  42.9970506  43.3906514
  52.6010890  47.2366899  48.0065390  52.1251072  48.0984734  47.2346532
  53.9041687  46.9746956  48.1073329  54.2635612  46.3856435  48.8448653
  54.8489235  47.5944599  47.2019404  54.3312263  48.3576449  46.6208747
  56.0237080  48.2537477  47.9427576  56.4488492  47.4472746  48.5402150
  56.7700823  48.6125239  47.2340228  55.6024259  49.3977396  48.8597014
  54.7111116  50.2070949  48.5417662  56.2523381  49.5273051  49.9125527
  55.3537646  46.5759713  46.2120871  56.1117092  45.6926562  46.5498078
  54.9867578  46.7671703  44.9452762  54.4707521  47.5945624  44.6821038
  55.3355041  45.7989388  43.8940498  55.6208339  44.8166679  44.2706529
  54.1242945  45.6290622  42.9260347  53.7458540  46.6218926  42.6827862
  54.5094598  44.8901504  41.6214743  54.8875817  43.8969969  41.8639016
  53.6311330  44.7979969  40.9826079  55.2812666  45.4544148  41.0980035
  52.9181672  44.9078655  43.6159118  52.5875896  45.4922753  44.4745652
  52.0973681  44.8109820  42.9052768  53.2285694  43.9174819  43.9489158
  56.5320610  46.3670876  43.1330199  56.5790667  47.6021325  42.8705994
  57.4959832  45.5076195  42.8150535  57.4839708  44.5783769  43.2106077
  58.5961748  45.8663595  41.9210960  58.5145540  46.9038594  41.5970110
  59.9943808  45.6273249  42.5356524  60.0397898  44.6112004  42.9274805
  61.1177038  45.8210542  41.4477069  61.0732198  46.8371582  41.0557192
  62.0948383  45.6487015  41.8989313  60.9631962  45.1115035  40.6348327
  60.2239458  46.5392632  43.7680090  60.3860891  47.5470305  43.3856278
  59.3028496  46.5160085  44.3503667  61.4306369  46.1266071  44.6819107
  62.3522158  46.1500789  44.1003255  61.5102378  46.8235910  45.5161627
  61.2689772  45.1190553  45.0650627  58.4043705  44.9924953  40.6649382
  58.2316166  43.7855201  40.7628459  58.3690516  45.6179508  39.4912586
  58.4044787  46.6202274  39.3717350  58.0874568  44.7876135  38.3167223
  57.6237446  43.8455161  38.6091648  57.1896818  45.4738418  37.2662259
  57.0739835  44.8275800  36.3961346  55.7733503  45.7424747  37.9146474
  55.8881918  46.3890894  38.7845910  55.1252280  46.2277682  37.1849022
  55.3285830  44.7960691  38.2222188  57.8218542  46.7152159  36.7676533
  58.7809244  46.4759746  36.3082514  57.1718956  47.1828501  36.0280781
  57.9791202  47.4026248  37.5988195  59.3658079  44.2321406  37.6764355
  60.4657851  44.6931677  37.9615481  59.1855419  43.2633461  36.8009010
  58.2614671  42.8919030  36.6329275  60.2992474  42.6933853  36.0678569
  61.1311078  42.4710167  36.7361828  59.8972159  41.3933862  35.2820528
  60.7601263  41.0206899  34.7301619  59.4172801  40.3102777  36.2837228
  58.5540453  40.6820970  36.8356980  59.1384163  39.4085282  35.7385774
  60.2216966  40.0781373  36.9816656  58.8157626  41.6722905  34.2045297
  57.9256375  42.0589281  34.7008054  59.2014019  42.4228659  33.5145888
  58.4315322  40.3167005  33.3753923  58.0453574  39.5657730  34.0646505
  57.6715767  40.5495206  32.6294958  59.3211230  39.9297094  32.8784355
  60.8357185  43.7016784  35.0725434  60.1419738  44.6788624  34.7446205
  62.0426059  43.4543548  34.5899775  62.5810242  42.6616941  34.9091861
  62.6520521  44.3598437  33.5894720  62.6395588  45.3855373  33.9581125
  64.1044461  43.9518070  33.3272098  64.5407977  44.6565253  32.6193478
  64.6529696  43.9960785  34.2680934  64.1832413  42.6301454  32.7924247
  65.1028201  42.4016149  32.6383195  61.9227472  44.3895944  32.2531014
  61.2156891  43.4340341  31.8890873  62.1500924  45.4692526  31.4964031
  62.6443281  46.2737841  31.8549552  61.6793258  45.5050203  30.1130888
  62.4313811  46.0303903  29.5244476  61.6020593  44.4745006  29.7664502
  60.3426367  46.1885495  29.9269379  59.8825324  46.3632838  28.7766206
  59.7085427  46.5883975  31.0361210  60.1316282  46.4567614  31.9437387
  58.3840904  47.2057581  30.9713826  57.9014283  46.9742440  30.0218892
  57.5083379  46.6490612  32.1201990  58.1001049  46.7661592  33.0280531
  56.6599291  47.3327632  32.1494245  56.9986729  45.2067359  32.0254819
  57.8278486  44.5374569  31.7960605  56.3660678  44.8009123  33.3941086
  55.5364680  45.4695012  33.6240037  56.0004789  43.7756827  33.3362307
  57.1190174  44.8738519  34.1788680  55.9547359  45.0683420  30.9985625
  56.3591416  45.3546971  30.0277091  55.6174245  44.0325682  30.9598961
  55.1129347  45.7150587  31.2460035  58.4778606  48.7329120  31.0917825
  59.5148686  49.2482462  31.5590672  57.3978219  49.4498233  30.7230907
  56.2298107  48.9570711  29.9666205  55.7484631  48.1500811  30.5190442
  56.5520737  48.5883005  28.9928373  55.3173627  50.2431820  29.8523285
  54.6173075  50.2929292  30.6863231  54.7635323  50.2386710  28.9135246
  56.2993843  51.3818508  29.8908763  55.7653542  52.2544741  30.2669604
  56.7769161  51.6294746  28.9428544  57.3474239  50.9428868  30.9003007
  58.3330552  51.3628207  30.6995899  56.9280179  51.2860254  32.3409202
  56.0572424  52.1433360  32.5818799  57.6236954  50.6413944  33.2859783
  58.3751131  50.0213614  33.0194638  57.3032656  50.7724858  34.7092849
  57.2436897  51.8219148  34.9978131  55.9865879  50.1078770  35.0320837
  56.0338294  49.0541785  34.7571516  55.7869167  50.1955875  36.1000437
  55.1871004  50.5933724  34.4724292  58.4253155  50.1558831  35.5029758
  59.1351936  49.2803478  35.0128075  58.5887810  50.6518906  36.7302861
  58.0949353  51.4915533  36.9970861  59.5071858  50.0579494  37.6890956
  59.9855611  49.1906546  37.2340615  60.6147396  51.0617174  38.1340488
  60.1688714  51.9165670  38.6425101  61.2586956  50.5219819  38.8283876
  61.4706887  51.5755371  36.9705569  61.7821740  52.7743938  36.8991389
  61.8852719  50.6891964  36.1072598  62.4522301  50.9790280  35.3232598
  61.6372631  49.7174818  36.2271062  58.8156006  49.5289869  38.9294719
  59.1968220  48.4845927  39.4267111  57.8359780  50.2729253  39.4329522
  57.4595107  51.0439811  38.9001815  57.2325330  49.9681990  40.7443247
  57.4196775  48.9228617  40.9899790  57.8247583  50.8515663  41.8633048
  57.3101287  50.6109432  42.7935506  59.3389045  50.6273405  42.0414903
  59.8542918  50.8682197  41.1117309  59.7105173  51.2702623  42.8393967
  59.5244367  49.5847094  42.2995579  57.6109291  52.2331586  41.5351878
  57.9775691  52.7870906  42.2282496  55.7603263  50.2791213  40.6806939
  55.3143469  51.1027847  39.8551359  55.0001869  49.7135641  41.5994927
  55.3839412  48.9898301  42.1902897  53.6179179  50.0650045  41.7642443
  53.4654477  51.0975040  41.4499249  52.7014969  49.1468120  40.9124015
  52.9336655  49.2965963  39.8580004  52.8933772  48.1083050  41.1821890
  51.2951742  49.4591208  41.1498727  50.7446075  48.8822052  40.6154154
  53.2395383  49.9634274  43.2490668  53.6671953  49.0204202  43.9313233
  52.4785133  50.9446698  43.7424007  52.2070992  51.7241347  43.1602768
  51.9519310  50.8834010  45.1201475  52.4405653  50.0655766  45.6497690
  52.2071964  52.2010331  45.8988247  51.6353871  53.0078205  45.4403179
  51.7639958  52.0299339  47.3892070  52.3357392  51.2235729  47.8485446
  51.9453229  52.9578808  47.9315483  50.7016585  51.7889523  47.4275193
  53.6034804  52.4896023  45.8380986  53.7831336  53.3031312  46.3150637
  50.4785176  50.7270284  45.0200753  49.8082411  51.5280386  44.3500924
  49.9536928  49.7043923  45.6899726  50.5295725  49.1785421  46.3318009
  48.5720398  49.3022953  45.5191575  48.0202659  50.0512147  44.9510338
  48.5381599  47.9864405  44.7516287  49.0620981  47.2115380  45.3111947
  47.5068882  47.6769600  44.5819216  49.2469552  48.2059736  43.3801942
  48.6262236  48.9201603  42.8391486  50.2092963  48.6631071  43.6104719
  49.4671366  46.9625182  42.5138918  49.2348399  45.7984998  42.9547708
  49.8931122  47.2162524  41.3570552  47.8576595  49.1209462  46.8678588
  48.4522510  48.6173672  47.8380558  46.6092583  49.5443343  46.8909491
  46.2235362  49.9320061  46.0418152  45.7438104  49.4966423  48.1021974
  46.3413365  49.2777600  48.9871563  45.0639473  50.8575251  48.2943356
  45.8631695  51.5634013  48.5203484  44.6187513  51.1095228  47.3318400
  43.9795096  50.9331622  49.4009014  43.2722453  50.1192600  49.2413980
  44.4683242  50.8050139  50.3666862  43.2154253  52.2996624  49.3803044
  43.9249803  53.1258055  49.3342784  42.5498475  52.3445953  48.5182796
  42.4064931  52.4375727  50.6114967  42.8470719  52.9462107  51.3646747
  41.1716163  51.9721848  50.7955632  40.5361858  51.2813385  49.8526484
  40.9926397  51.0991332  48.9702930  39.6002731  50.9422736  50.0235348
  40.5517306  52.1900757  51.9757793  41.0271069  52.7015282  52.7055284
  39.6156664  51.8405551  52.1231492  44.6799629  48.4085275  47.9603355
  43.9713191  48.3177489  46.9561378  44.5905189  47.5392977  48.9588315
  45.2979585  47.5084919  49.6790257  43.5137778  46.5612691  49.0070244
  43.4004229  46.0544666  48.0486919  43.8791897  45.5038352  50.0885829
  44.7969903  45.0183377  49.7568700  44.0668009  46.0358124  51.0212684
  42.7900599  44.4408951  50.3149710  41.8731578  44.9499621  50.6120267
  42.5282336  43.6132644  49.0567216  43.4446276  43.1034983  48.7593003
  41.7526265  42.8752913  49.2614898  42.2004849  44.2700182  48.2508955
  43.3166415  43.5316546  51.4711554  43.4726257  44.1344474  52.3658113
  42.5853495  42.7514434  51.6823041  44.2598634  43.0738021  51.1731581
  42.1368569  47.2180397  49.2937058  41.9841768  47.8558740  50.3289691
  41.1905260  47.1563530  48.3532619  41.3575517  46.5687662  47.5489339
  39.9077643  47.8868373  48.4333197  40.0339548  48.7769851  49.0496086
  39.4266293  48.3211095  47.0319868  39.5132959  47.4247736  46.4178450
  38.3867711  48.6472129  47.0532336  40.2915828  49.4244304  46.4428200
  40.8700870  50.2331495  47.2355036  40.3489382  49.5563210  45.1823577
  38.7982182  47.0294546  49.0308415  37.9059335  47.5229664  49.7620489
  38.8628408  45.7375927  48.7566905  39.5717091  45.3636247  48.1420744
  37.8264469  44.7872456  49.3196239  37.5759250  45.0342136  50.3512948
  36.5184553  44.7766355  48.4521646  36.0467605  45.7553759  48.5397514
  36.7984920  44.4805489  46.9944777  37.2698001  43.5016983  46.9060424
  35.8623940  44.4842890  46.4360807  37.4652370  45.2421295  46.5900703
  35.4931412  43.7921346  48.9907719  35.9097171  42.7947260  48.8502674
  35.3904133  43.9955703  50.0566802  34.1845498  43.8656441  48.3543138
  34.2864137  43.6618477  47.2883913  33.5197697  43.1274648  48.8029316
  33.7671107  44.8626935  48.4948023  38.4194483  43.4145110  49.3991851
  39.1765073  43.0450213  48.4909621  38.1256682  42.6665235  50.5021420
  37.6309579  43.0708605  51.2843649  38.5561803  41.2820551  50.6005065
  38.7117841  40.8863797  49.5968493  39.8852085  41.1371664  51.4051918
  40.5610737  41.8745510  50.9720989  39.6548597  41.4159248  52.4334589
  40.5556217  39.7566996  51.3876880  39.8370974  39.0239681  51.7550138
  41.0215880  39.3544912  49.9608124  41.7405304  40.0865551  49.5929765
  41.4903464  38.3710240  49.9948488  40.1611907  39.3233762  49.2923449
  41.7886013  39.7475765  52.3288480  41.4714871  39.9768396  53.3461859
  42.2553323  38.7627877  52.3075300  42.5066300  40.4966828  51.9951213
  37.4119907  40.5188465  51.2691766  37.4129058  40.3099219  52.5130157
  36.4151095  40.1503914  50.4753335  36.5045291  40.2538170  49.4746305
  35.1774705  39.6046376  51.0030724  35.0531546  39.9238005  52.0378573
  33.9697293  40.0839775  50.1951006  34.0816178  41.1673729  50.1522675
  34.0031746  39.6755644  49.1850609  32.6277306  39.7354349  50.8415274
  32.5182327  38.6342607  51.4358309  31.6508072  40.5388337  50.6938586
  35.2892991  38.0911310  50.9297775  34.9857852  37.5007211  49.9008346
  35.6818848  37.4693640  52.0393884  36.0310611  37.9808836  52.8372122
  35.7754868  36.0035092  52.0566368  36.2928407  35.6672054  51.1581136
  36.5532558  35.4918413  53.2972364  36.1610504  36.0206121  54.1659570
  36.3669429  34.4236193  53.4080936  38.0331715  35.7335739  53.1899047
  38.6216344  35.5086488  52.1077350  38.6464099  36.1412202  54.1957342
  34.4506859  35.2579196  51.9064778  34.4539233  34.0450821  51.5466937
  33.3216000  35.9183168  52.1390235  33.3078541  36.8887851  52.4184902
  32.0612574  35.2176002  52.0329161  32.2004730  34.1751517  52.3193062
  31.0052739  35.8379069  52.9461392  31.3869704  35.7428083  53.9626840
  30.9500721  36.8925861  52.6765015  29.6103538  35.2182120  52.8660003
  28.9540384  35.7642716  53.5436209  29.2712639  35.3598561  51.8398160
  29.5752439  33.7060771  53.2183851  30.4786801  33.2100369  53.9622589
  28.6288326  33.0599095  52.7598666  31.5581353  35.2223478  50.6149049
  31.0882175  34.1907746  50.0967592  31.6753921  36.3536752  49.9578752
  32.0592275  37.1781943  50.3971224  31.1663514  36.4690404  48.5822636
  30.3988636  35.7176426  48.3966215  30.5595686  37.8348934  48.3897921
  31.3607036  38.5670281  48.4910874  30.1569285  37.8753534  47.3776933
  29.4283217  38.1584162  49.4118858  28.7682696  37.2938423  49.4821984
  29.8841291  38.3468966  50.3839027  28.6283214  39.3698707  48.9870911
  28.0105261  39.6889731  49.8264966  29.3220082  40.1681092  48.7230579
  27.7531187  39.1030193  47.8310035  27.3009386  38.2011492  47.7834335
  27.5156180  39.9891560  46.8554497  28.1264889  41.1661962  46.8771515
  28.7655429  41.3862893  47.6276641  27.9498091  41.8370194  46.1430669
  26.6798410  39.7130338  45.8378745  26.2145909  38.8174004  45.7993618
  26.5214873  40.4026403  45.1171348  32.2550088  36.1915022  47.5048205
  31.9114832  36.0211723  46.3293416  33.5089824  36.1035007  47.9373329
  33.6590668  36.2820226  48.9200353  34.6873939  35.8265329  47.0868059
  35.5797997  35.8196015  47.7126358  34.5824440  34.4653965  46.3608416
  33.6410441  34.4410641  45.8119578  35.4133067  34.3855413  45.6598493
  34.6295122  33.3065544  47.3322425  35.5835170  33.3163910  47.8593847
  33.8165256  33.4056626  48.0515008  34.4821882  32.0034000  46.5827725
  33.5312540  31.9977127  46.0500523  35.2990126  31.9024914  45.8681293
  34.5147120  30.8585765  47.4980223  35.1956035  30.8592449  48.2440020
  33.7155053  29.7996794  47.3672294  32.7800914  29.7560043  46.4073329
  32.6760269  30.5343014  45.7720974  32.1838984  28.9450132  46.3239853
  33.8210197  28.7973482  48.2227105  34.5036225  28.8414219  48.9658195
  33.2185442  27.9921250  48.1292353  34.8149027  36.9635032  46.1056326
  34.7458818  36.7690098  44.8639171  34.9880102  38.1520533  46.6849084
  35.0347448  38.2136160  47.6919463  35.1812741  39.3911713  45.8956209
  35.3284626  39.2092380  44.8310388  34.0095083  40.3574478  46.0686081
  33.8966397  40.6030185  47.1245697  34.2787190  41.6659889  45.2552890
  34.3912463  41.4212607  44.1990946  33.4409213  42.3517362  45.3815668
  35.1918751  42.1382039  45.6175882  32.6858687  39.6875064  45.6919099
  32.5214312  38.8209841  46.3323796  31.8686460  40.3965934  45.8239796
  32.7235746  39.3671686  44.6507265  36.4205159  40.0675790  46.4586231
  36.5693262  40.2537705  47.6941967  37.3411091  40.4610163  45.5584602
  37.3092452  40.1151447  44.6100632  38.4747920  41.2485414  45.9588118
  38.1994771  41.7898403  46.8639617  39.7849390  40.4080334  46.2505427
  39.5216449  39.5647070  46.8889604  40.4193178  39.8844181  44.9409685
  40.6833197  40.7272493  44.3021899  41.3166014  39.3115287  45.1750174
  39.7057940  39.2448937  44.4213599  40.7601330  41.2085553  46.9174845
  41.5454353  40.6825055  47.0853304  38.7119553  42.3693749  44.9316006
  38.0445958  42.4242259  43.9007080  39.5857335  43.2978913  45.2633809
  40.1305393  43.2462185  46.1122718  39.7864023  44.4652642  44.3681744
  40.1005369  44.1365127  43.3775478  38.8663293  45.0435636  44.2837063
  40.8602254  45.3374916  44.9576591  41.1051114  45.3115715  46.1855418
  41.5626202  46.0826154  44.1093330  41.3971580  46.0105716  43.1155869
  42.5997434  46.9892933  44.5709612  42.3678647  47.3259387  45.5814073
  43.9885420  46.2828988  44.5878822  44.7309293  46.8878952  45.1084007
  43.8838649  45.3228431  45.0932888  44.5529855  45.9906319  43.2176203
  45.4862844  46.8664346  42.6429589  45.7866182  47.7512971  43.2041343
  46.0349264  46.6209154  41.3643811  46.7623650  47.2987968  40.9178269
  45.6194779  45.4627082  40.6598730  46.0136043  45.2678706  39.6624751
  44.6913094  44.5552463  41.2493795  44.3770286  43.6536279  40.7236306
  44.1771508  44.8391410  42.5359077  43.4756838  44.1503530  43.0066678
  42.6769590  48.2142856  43.6893306  42.1379242  48.2196029  42.5514978
  43.3530977  49.2345478  44.2299705  43.7400014  49.1592913  45.1598852
  43.5674815  50.4757887  43.4886354  43.1326954  50.4112027  42.4911943
  42.8818601  51.6214482  44.2500352  43.0736446  51.4985048  45.3159634
  43.3029464  52.5684708  43.9124934  41.4718913  51.6171546  44.0163975
  41.0651142  52.3394391  44.5005847  45.0593387  50.7337576  43.4073571
  45.7795357  50.5602297  44.4001710  45.5317591  51.2341117  42.2543269
  44.9364382  51.3522279  41.4470221  46.9122789  51.5800115  42.1340466
  47.4453076  50.9009256  42.7994953  47.3982064  51.3578767  40.6654450
  46.7799122  51.9475371  39.9886042  48.8300451  51.7826069  40.5318556
  49.4490636  51.1930269  41.2081042  49.1620943  51.6249953  39.5056964
  48.9212986  52.8389841  40.7845198  47.3669157  49.8489038  40.3617563
  48.0830440  49.3455652  41.0113032  46.3648828  49.4710429  40.5648589
  47.7574109  49.5552937  38.7763987  48.7595639  49.9324879  38.5726497
  47.7282048  48.4822372  38.5872001  47.0414034  50.0579679  38.1262051
  47.0370458  53.0329410  42.5575157  46.4624637  53.9201018  41.8786083
  47.7052988  53.2690526  43.6733554  48.1437319  52.5104998  44.1758227
  47.7342765  54.6242370  44.2790999  46.9861571  55.2597115  43.8051919
  47.4706323  54.5634418  45.7890144  47.4386538  55.5720474  46.2010733
  46.0993304  53.8610835  46.0279553  46.1306965  52.8521924  45.6165484
  45.8980221  53.8104617  47.0980081  45.3092166  54.4288701  45.5365921
  48.5597856  53.8242492  46.5467119  48.5253849  52.7765221  46.2480729
  49.5198343  54.2523606  46.2583951  48.3800725  53.9340663  48.1589397
  47.4203838  53.5057056  48.4480842  49.1843520  53.3886753  48.6526831
  48.4148310  54.9815450  48.4584062  49.0083446  55.4089444  44.0123345
  49.0819426  56.5860425  44.3575233  50.0200857  54.7279890  43.4782187
  49.9257449  53.7334950  43.3292866  51.2539527  55.3588413  43.1013374
  51.0326359  56.1592777  42.3953490  51.7149748  55.7801694  43.9946687
  52.2245305  54.3858975  42.4566174  51.8654815  53.2563423  42.0774524
  53.4503049  54.8604631  42.2991763  53.6618167  55.8096950  42.5717951
  54.5328440  54.0395289  41.7315258  55.3398587  53.9610127  42.4599911
  54.1465615  53.0447776  41.5093661  55.0757538  54.6520371  40.4596733
  54.5089240  55.6160492  39.9338991  56.1654874  54.0657164  39.9557311
  56.6007484  53.2917107  40.4369405  56.7945603  54.5620312  38.7171808
  56.5753310  55.6218422  38.5874182  58.3008803  54.3830636  38.7865755
  58.5019050  53.3246378  38.9521744  58.7154654  54.6849599  37.8247658
  58.9588591  55.2176271  39.9181910  58.8249333  56.2726895  39.6794278
  58.4010457  54.9767845  40.8231431  60.4439300  54.9309171  40.1437300
  61.1359659  54.3439574  39.2855350  60.9450671  55.3364593  41.2161470
  56.2161269  53.8301668  37.5206465  56.6997797  52.7690931  37.1732600
  55.1570342  54.3883642  36.9360446  54.8263578  55.2686589  37.3046010
  54.4610462  53.8130773  35.7856670  55.1960445  53.5651614  35.0198900
  53.6733050  52.5337396  36.1465656  53.1284551  52.1011374  35.3074630
  54.3967591  51.8097062  36.5213853  52.6865531  52.7448195  37.2281973
  51.4378304  53.3024319  37.0147168  50.8168202  53.4098282  38.1868902
  49.7975710  53.7925934  38.2390519  51.6372444  52.9921814  39.1378183
  51.4493330  53.0015929  40.1301391  52.7952468  52.5394327  38.5612959
  53.5826586  52.1125977  39.1825010  53.4774266  54.8738673  35.3004557
  53.3051519  55.9286293  35.9451599  52.8009470  54.6023526  34.1933310
  52.9718818  53.7492088  33.6804701  51.9324058  55.6143348  33.5878376
  52.1738473  56.5991820  33.9876892  52.1351571  55.6412528  32.0332533
  51.7449464  54.7115367  31.6191725  51.5738292  56.4829158  31.6275264
  53.5611236  55.7807069  31.6720149  53.9835945  56.6280514  32.2120394
  54.0901549  54.8704178  31.9541527  53.7113243  56.0135791  30.1469312
  54.7748660  56.1272019  29.9370080  53.3348612  55.1239632  29.6419969
  53.0029307  57.1835577  29.6260065  53.2223230  58.0640594  30.0694962
  52.1098995  57.1738907  28.6467927  51.7225001  56.0365628  28.0710219
  52.1129314  55.1583628  28.3815508  51.0401720  56.0578057  27.3266586
  51.5830289  58.3384305  28.2090295  51.8721914  59.2098214  28.6299369
  50.9023827  58.3323327  27.4628511  50.4361862  55.6077117  33.9249427
  49.6869271  56.4959444  33.4692120  49.9673662  54.6493687  34.7301133
  50.6100267  53.9742103  35.1190193  48.5379351  54.4897793  35.0108746
  47.9739400  54.8168063  34.1373404  48.1481162  53.0352453  35.3319603
  48.7115010  52.8573922  36.2479652  47.0810679  52.9635183  35.5425860
  48.5369688  51.9754924  34.2737115  49.5957877  52.0822943  34.0379217
  48.2663002  50.5305701  34.8172287  47.2075307  50.4228526  35.0528190
  48.5456882  49.7985350  34.0594901  48.8571755  50.3640114  35.7179090
  47.8513088  52.2279951  32.9404550  48.1398896  53.2089575  32.5629192
  48.1515737  51.4615392  32.2259708  46.7701863  52.1947761  33.0752495
  48.0496854  55.3711244  36.1320192  48.6309350  55.4089976  37.2090779
  46.9685370  56.0703114  35.8848865  46.5733770  56.1309155  34.9573764
  46.3898006  56.8938055  36.9368978  46.9043917  56.6595246  37.8687817
  46.5147951  58.4845915  36.6626460  46.0745799  59.0149767  37.5070407
  47.9586094  58.9110485  36.4961993  48.3993926  58.3813902  35.6516450
  48.0021314  59.9847932  36.3137786  48.5148060  58.6742909  37.4032228
  45.8182406  58.7929079  35.4844512  45.8848139  59.7346670  35.3105024
  44.9565613  56.4897185  37.1950219  44.1672732  56.2000443  36.2659911
  44.6280001  56.4370132  38.4776671  45.3524552  56.5759171  39.1675728
  43.2987416  56.0349080  38.9388407  43.3120454  55.8434174  40.0118055
  42.2824776  57.1786282  38.6501235  42.3447261  57.3945479  37.5835387
  41.2586060  56.9059767  38.9059516  42.6590798  58.4344207  39.4233925
  43.0560018  59.4801861  38.8315972  42.6164992  58.3379875  40.7348987
  42.8552800  59.1368140  41.3049510  42.3452285  57.4655835  41.1655080
  42.8256958  54.6957002  38.4096875  41.6195013  54.4926154  38.1691125
  43.7812574  53.7730246  38.2925815  44.7508220  54.0211284  38.4285532
  43.4556873  52.3693482  37.9914078  42.7743073  52.3099610  37.1427067
  44.7597354  51.6094642  37.6341560  45.2626747  52.1545780  36.8354056
  45.3957442  51.5940763  38.5192301  44.4890353  50.1905803  37.1832392
  44.3607705  49.8765604  35.8096845  44.4714221  50.6718286  35.0725249
  44.0903894  48.5409185  35.3837411  44.0136121  48.3002841  34.3234100
  43.9731269  47.5256332  36.3431484  43.7029070  46.1991422  35.9434012
  43.6182075  46.1039936  34.9918906  44.0749679  47.8305877  37.7201089
  43.9317750  47.0422435  38.4591013  44.3586701  49.1396655  38.1370028
  44.4811680  49.3594032  39.1975732  42.8229344  51.6785119  39.2186070
  43.3508054  51.7434923  40.3324480  41.6978514  51.0070653  38.9848983
  41.2791118  51.0220663  38.0659143  41.0211686  50.2427340  40.0491201
  41.7403926  49.9650552  40.8196462  39.9000159  51.0979594  40.7014943
  40.3648803  52.0182705  41.0550872  39.1802292  51.3330644  39.9174453
  39.1937307  50.4230816  41.8434449  38.8262869  49.4585878  41.4929631
  39.9160804  50.2667784  42.6446204  37.9891102  51.2777797  42.3835612
  38.3110974  52.3113630  42.5105603  37.1706303  51.2384572  41.6647818
  37.4957594  50.7020831  43.7791021  38.3993827  50.5442085  44.3678645
  36.9021900  51.4965420  44.2314399  36.6803395  49.4153838  43.7459275
  37.2303294  48.6789836  43.3272084  36.4274382  49.1527201  44.6878132
  35.8427662  49.5615838  43.2007711  40.4480270  49.0050330  39.4152281
  39.7961798  49.0963213  38.3697174  40.6545333  47.8387552  40.0400251
  41.2696351  47.7559157  40.8368229  40.0679338  46.6187132  39.4873122
  39.3244463  46.9006700  38.7417748  41.1197369  45.6809098  38.8134785
  40.5996717  44.8524751  38.3325134  41.6711535  46.2476687  38.0632626
  42.0187876  45.1760862  39.7753652  42.6578115  44.6024949  39.3461318
  39.2732319  45.8684132  40.5523215  39.5234862  46.0252679  41.7751491
  38.3396259  45.0460534  40.0829715  38.1365750  45.0028931  39.0945349
  37.5802628  44.1905846  40.9807303  38.0296546  44.1185358  41.9711621
  36.1367503  44.7428930  41.1298209  35.7799502  44.9873633  40.1293075
  35.1448898  43.7477465  41.8062743  35.5008049  43.5031501  42.8070730
  34.1585679  44.2067390  41.8740643  35.0810082  42.8367580  41.2111937
  36.1610625  46.0345254  41.9160243  36.7748310  46.7675980  41.3925792
  35.1457315  46.4177526  42.0177085  36.5801769  45.8505097  42.9052574
  37.5814221  42.7927446  40.3384719  37.3517703  42.6489846  39.1470936
  37.8111218  41.7730101  41.1703706  37.8824468  41.9609615  42.1601617
  37.8915086  40.3954530  40.7246538  37.7240411  40.3198079  39.6502555
  39.2791632  39.8404191  41.0428066  39.4776602  39.9685537  42.1068934
  39.3580669  38.2866931  40.6692513  39.1601225  38.1578030  39.6051531
  40.3528057  37.9066008  40.9018963  38.6151015  37.7356593  41.2458489
  40.2279241  40.5811395  40.2931433  41.1100068  40.2497993  40.4768395
  36.8474731  39.5649153  41.5530798  36.8610698  39.6135794  42.8075610
  35.9777567  38.8383222  40.8747805  35.9804131  38.8898483  39.8660995
  34.9463726  38.0412537  41.5222514  35.1246595  38.0519082  42.5975185
  33.5437027  38.5653000  41.2570449  32.8271284  37.9222618  41.7680472
  33.3906334  40.0036700  41.7634664  34.1066173  40.6474301  41.2525460
  32.3786376  40.3547140  41.5616450  33.5776267  40.0333173  42.8368978
  33.2550549  38.5593847  39.8462485  32.3668668  38.8930330  39.6999580
  35.0655388  36.5945188  41.1163416  35.3782801  36.3051858  39.9609108
  34.8353116  35.6873391  42.0772356  34.5985969  35.9827567  43.0136084
  35.0009414  34.2220052  41.8155347  35.3262828  34.0346989  40.7922222
  36.0481143  33.6265629  42.7834286  35.7027445  33.7951094  43.8034340
  36.2531728  32.1408725  42.5585242  36.5990117  31.9715648  41.5388030
  36.9974418  31.7658447  43.2610328  35.3106560  31.6158628  42.7138579
  37.3871598  34.3569281  42.6107156  37.2546158  35.4164399  42.8297340
  38.1230145  33.9343080  43.2948280  37.7360384  34.2393991  41.5847666
  33.6482450  33.5065840  41.9326840  32.9287870  33.7028059  42.9409792
  33.2776075  32.7313508  40.9157325  33.9252201  32.5780188  40.1560045
  31.9556025  32.1206101  40.8314443  31.3809516  32.3125452  41.7375549
  31.2112663  32.7403496  39.6369835  31.7682565  32.4686877  38.7402889
  30.1727018  32.4281061  39.5274948  31.2044557  34.2282217  39.6998817
  30.2477078  34.9239146  40.4250670  29.4734565  34.5052593  40.9204076
  30.5210113  36.2220368  40.3574582  29.8828046  36.9468568  40.8628564
  31.6177303  36.3878700  39.6195484  32.0758277  35.1590341  39.2110573
  32.9827040  35.0875148  38.6105895  31.9840879  30.6222088  40.6755496
  32.7182296  30.0826095  39.8284944  31.1752303  29.9419391  41.5053114
  30.7106386  30.4512818  42.2434333  30.9302620  28.4703617  41.3962414
  31.8536932  27.9458484  41.1507629  30.4139060  27.9494494  42.7438508
  31.1133692  28.2806105  43.5114331  29.4399850  28.4065337  42.9189274
  30.2820399  26.4548661  42.7986332  29.5043024  26.1245476  42.1100731
  31.2288399  25.9876985  42.5276606  29.9111546  26.0584390  44.2003877
  30.5864565  26.5439800  44.9048848  28.8870517  26.3699301  44.4060230
  30.0056308  24.6161701  44.3817457  30.8759478  24.2588533  44.7491314
  29.0358571  23.7569217  44.1055696  27.8754508  24.1823785  43.6118605
  27.7318109  25.1682489  43.4459472  27.1438068  23.5174270  43.4053754
  29.2334464  22.4586184  44.3203279  30.1174346  22.1399341  44.6906051
  28.4985228  21.7978519  44.1120647  29.9125694  28.0785579  40.3388481
  28.8309140  28.7146941  40.1918471  30.2618346  27.0394759  39.5687426
  31.2142501  26.7044127  39.5958850  29.3255731  26.3926011  38.6515233
  28.3165214  26.7551698  38.8476297  29.6780160  26.6946338  37.2001342
  30.7425724  26.5851462  36.9931769  29.1127136  26.0145086  36.5629820
  29.2997970  28.0893341  36.7830556  28.0657493  28.3295017  36.2166424
  27.3811750  27.4968588  36.0548907  27.6891890  29.6252350  35.8508452
  26.7247565  29.8200299  35.3817762  28.5831235  30.6922881  36.0987965
  28.2828032  31.7110991  35.8539869  29.8386450  30.4500078  36.6511949
  30.5524648  31.2614529  36.7930339  30.1741574  29.1635974  37.0204776
  31.1307632  28.9675705  37.5048108  29.3308413  24.8803345  38.8899099
  30.3674479  24.3124470  39.1902822  28.1664404  24.2644795  38.7663178
  27.3293850  24.7974273  38.5781573  28.0463991  22.8092473  38.9130604
  28.9915928  22.3407302  38.6388345  27.7046129  22.4154571  40.3532244
  28.5460687  22.7314428  40.9698316  26.8179684  22.9861669  40.6293618
  27.4329403  20.8790823  40.5826883  26.4642256  20.6328372  40.1478828
  28.2152474  20.3267322  40.0621077  27.4387144  20.4932544  42.0774828
  27.2331553  21.3903173  42.9362061  27.6390200  19.2857284  42.3987405
  26.9640978  22.3348263  37.9853979  25.8922889  22.9512816  37.9123206
  27.2541723  21.2588826  37.2680813  28.1570639  20.8257389  37.3995060
  26.3455494  20.6825033  36.2743408  25.3227182  20.6941361  36.6508780
  26.4005182  21.5046268  34.9751747  26.1753747  22.5306478  35.2661909
  27.4330380  21.4432894  34.6313133  25.4670617  21.0801412  33.8530575
  25.7115470  20.0650972  33.5399865  24.4358926  21.1128907  34.2047957
  25.6314336  22.0321753  32.6679757  25.3037478  23.0213439  32.9877670
  26.6905366  22.0658242  32.4124997  24.8297122  21.6023721  31.4491808
  25.2406582  20.6713519  31.0587638  23.7905613  21.4468694  31.7391522
  24.8995855  22.6608805  30.3915950  25.8623643  22.8048210  30.1224522
  24.3650536  22.3679376  29.5862627  24.5184496  23.5235539  30.7530213
  26.8298990  19.2458552  36.0818912  27.9859878  19.0252919  35.7127510
  25.9457406  18.2754207  36.3648696  24.9790086  18.5519097  36.4601715
  26.2884097  16.8492102  36.5502754  25.3635229  16.2729091  36.5265974
  27.2398258  16.2944512  35.4800072  28.1490638  16.8933855  35.5316142
  27.4652510  15.2672531  35.7666210  26.6962958  16.3168064  34.0531546
  25.6766749  15.9322894  34.0780677  26.6856116  17.3513971  33.7102155
  27.5408468  15.4666776  33.0899306  28.8000792  15.4194704  33.2560614
  26.9336359  14.8518108  32.1665289  26.9485247  16.7227290  37.8974616
  26.5211623  17.3441219  38.8742329  27.9960837  15.9185370  37.9644646
  28.2189941  15.2514181  37.2396455  28.8044668  15.9255308  39.1600890
  28.2678391  16.4482220  39.9518743  29.1053046  14.4897098  39.6336941
  28.1691593  13.9713396  39.8411153  29.6504945  13.9564209  38.8549317
  29.9487832  14.4960544  40.9005760  30.2994106  15.5575503  41.4111913
  30.2744852  13.3049035  41.4078252  30.8330803  13.2527301  42.2476759
  29.9608092  12.4613588  40.9494145  30.0872976  16.7311229  38.8947541
  31.1117819  16.5058372  39.5573115  30.0230224  17.6874414  37.9537033
  29.2200743  17.7514285  37.3443764  31.2304681  18.4649810  37.6054880
  32.0595896  18.1345517  38.2311662  31.6245914  18.2840535  36.1332872
  32.7086645  18.3970106  36.1220852  31.3650906  17.2506834  35.9032750
  31.0083418  19.2052354  35.0912871  30.0171712  18.8477200  34.8122451
  30.9310603  20.2190564  35.4840932  31.9343806  19.2036399  33.8348892
  31.9765863  18.2092635  33.3904422  31.5762806  19.9176399  33.0932236
  33.2916957  19.5934897  34.2476107  33.7736991  18.9598595  34.8691288
  33.9167647  20.7119999  33.8666307  33.3135916  21.5381653  33.0055500
  32.3951467  21.3113328  32.6518467  33.7791762  22.3852790  32.7127550
  35.1441678  20.9940022  34.3455777  35.5889466  20.3582284  34.9921561
  35.6138861  21.8398869  34.0558490  31.1968244  19.9325620  38.1038334
  30.2412323  20.6487943  37.8908195  32.2396233  20.3249182  38.8225080
  33.0385017  19.7149749  38.9218155  32.2826353  21.6341958  39.4707332
  31.3516304  22.1957024  39.3930196  32.6488689  21.4547374  40.9483653
  33.5483786  20.8430219  41.0175519  32.9028371  22.8119778  41.6104127
  32.0035595  23.4241247  41.5420272  33.1613030  22.6627567  42.6587586
  33.7246818  23.3165244  41.1023740  31.5465393  20.6280198  41.6670589
  30.6608389  21.2581256  41.7483135  31.3209852  19.7639453  41.0420789
  31.9782314  20.1382712  43.1067422  32.2035133  21.0018681  43.7324803
  31.1656095  19.5670808  43.5556148  32.8636616  19.5076893  43.0262457
  33.3612850  22.4618295  38.7627830  34.4665435  21.9858629  38.6078494
  33.0552754  23.6819783  38.3168323  32.1108899  24.0354751  38.2596017
  34.1505170  24.5171812  37.7777265  35.1035021  24.1655643  38.1730545
  34.1993649  24.4465274  36.2415680  35.1132896  24.8979239  35.8554566
  34.1765672  23.3895761  35.9761737  33.0488983  25.1022669  35.5077503
  33.0460978  26.3580443  34.9240722  33.9537804  26.9495956  35.0435678
  31.8442893  26.5970551  34.2917098  31.5943003  27.4441553  33.8017851
  31.0376601  25.5081417  34.4544676  29.7239924  25.2913792  34.0107511
  29.2275685  26.0767319  33.4407660  29.1392918  24.0813590  34.3298094
  28.1205875  23.8724461  34.0031643  29.8311257  23.1066306  35.0704978
  29.3544018  22.1582583  35.3183359  31.1395054  23.3171394  35.5099800
  31.6387844  22.5125655  36.0498708  31.7594522  24.5422343  35.2191080
  33.9810879  25.9522429  38.3040331  33.0279052  26.2549471  39.0608123
  34.9332062  26.8051144  37.9411899  35.6710348  26.4971268  37.3240579
  34.9351533  28.1945566  38.3808358  34.0540467  28.4057595  38.9867596
  36.1903743  28.4646753  39.2277869  37.0669577  28.2308423  38.6236147
  36.2621718  29.8796059  39.6776441  35.3860909  30.1140607  40.2823033
  37.1635779  30.0269859  40.2724930  36.2895677  30.5367981  38.8084787
  36.2034832  27.6220602  40.4063067  36.9927805  27.8045604  40.9213832
  34.9749280  29.1364526  37.1492913  35.6066985  28.8314907  36.1307736
  34.2980543  30.2773072  37.2869168  33.6072526  30.3664166  38.0183208
  34.4917500  31.4121601  36.3667338  35.2544169  31.1457126  35.6349934
  33.2034520  31.7900875  35.6180841  32.4053934  31.9382478  36.3455800
  33.4051491  33.1108263  34.7843904  34.2027948  32.9632787  34.0563162
  32.4797828  33.3573850  34.2638076  33.6726733  33.9272541  35.4551946
  32.8095725  30.6437629  34.6492153  32.6430386  29.7284369  35.2171474
  31.8960270  30.9131366  34.1191474  33.6125861  30.4833471  33.9298150
  34.9983107  32.5598341  37.2233524  34.4451913  32.8771486  38.3053637
  36.0999320  33.1456138  36.7815675  36.6256955  32.7639330  36.0082682
  36.5670736  34.3619943  37.3889742  36.0926476  34.5112518  38.3588925
  38.0801937  34.3216578  37.5871020  38.5507016  34.0979836  36.6296620
  38.6235732  35.7045557  38.1310993  38.1538312  35.9287018  39.0888059
  39.7040218  35.6447959  38.2620959  38.3877211  36.4941793  37.4176779
  38.4598549  33.1995492  38.5888598  38.1253916  32.2372750  38.2012199
  39.5415774  33.1810502  38.7216525  37.9797214  33.3908067  39.5485438
  36.2161922  35.5365588  36.4412451  36.4333971  35.4337332  35.2019349
  35.7218441  36.6285768  37.0217412  35.5162220  36.6215243  38.0105633
  35.5005689  37.8918009  36.2632307  35.7097419  37.7210327  35.2072080
  34.0708320  38.3748422  36.4017716  33.9679710  38.5135964  37.4779993
  33.9576332  39.3356402  35.8996230  32.9965014  37.4156490  35.9092442
  33.1414072  36.4462978  36.3861734  31.5795421  37.9578691  36.2568774
  31.4337151  38.9270516  35.7798882  30.8242360  37.2591421  35.8971637
  31.4869691  38.0676708  37.3373746  33.1748399  37.1592707  34.3836474
  34.1570677  36.7237262  34.2002653  32.4028457  36.4720239  34.0375001
  33.0896142  38.1023528  33.8438031  36.4075154  38.9364510  36.8655065
  36.4682755  39.0523586  38.0852899  37.1303068  39.6870304  36.0167142
  37.1507529  39.4698302  35.0305574  37.9477985  40.7915832  36.4972258
  37.6406786  41.0455681  37.5117544  39.4515570  40.4377760  36.5106334
  39.6029912  39.5988005  37.1898145  39.7468888  40.1464602  35.5026581
  40.2905451  41.6071911  36.9617888  40.3142987  42.3590923  36.1730042
  39.8002169  42.0210713  37.8429135  41.7227856  41.1977311  37.3198208
  41.8779126  40.1397497  37.9100046  42.6797634  41.9054277  36.9893756
  37.6690131  41.9821154  35.6087520  37.7035160  41.8536067  34.3745753
  37.3189146  43.1217444  36.2148648  37.0977303  43.1683384  37.1992458
  37.1826574  44.3493542  35.4086830  37.5224525  44.1709955  34.3884739
  35.7059846  44.7758348  35.3672408  35.6154744  45.6463447  34.7175335
  35.1199551  43.9538206  34.9561907  35.2263107  45.0974934  36.6524660
  34.3045075  45.3590897  36.5937620  38.0704803  45.4479783  35.9839383
  38.4826378  45.3695328  37.1371797  38.3460966  46.4876167  35.1998480
  38.0466505  46.5057988  34.2354306  39.0671836  47.6419238  35.7213674
  38.9671502  47.6470413  36.8067550  40.5933851  47.6391117  35.3586290
  41.0081165  48.5561837  35.7770500  41.0715840  46.7783472  35.8260800
  40.8484100  47.6064886  33.8455940  40.8611201  48.7961934  33.0836497
  40.7236310  49.7487993  33.5952531  41.0418806  48.7676773  31.7264925
  41.0098970  49.6962019  31.1564740  41.2169497  47.5706021  31.0787668
  41.4190482  47.5935621  29.7152922  41.4154121  48.4815254  29.3504531
  41.2366769  46.3701464  31.7912820  41.4053059  45.4209806  31.2826081
  41.0379981  46.3957607  33.1649470  41.0276830  45.4646766  33.7315828
  38.4650435  48.9036329  35.1138821  37.7668078  48.8345441  34.0766962
  38.7785600  50.0177290  35.7739595  39.1094503  49.9479214  36.7256621
  38.5959786  51.3522641  35.1983467  38.4193322  51.3089060  34.1236303
  37.4042856  52.1175815  35.8715681  36.4813459  51.5633074  35.7010934
  37.6490690  52.2535873  37.3875567  38.5716616  52.8081922  37.5588378
  36.8152059  52.7865765  37.8443886  37.7336596  51.2622895  37.8328374
  37.2029268  53.5208000  35.2009605  36.9850945  53.3896280  34.1410336
  36.3718408  54.0375510  35.6809230  38.1116924  54.1119302  35.3141462
  39.9117229  52.0687298  35.3622089  40.6394875  51.8412473  36.3400020
  40.2736815  52.9215847  34.3937903  39.6962564  53.0844193  33.5812852
  41.5466257  53.6426642  34.4980130  41.7677821  54.0316697  35.4919264
  42.7421160  52.7209636  34.0399169  42.7763398  51.8471446  34.6905844
  42.5679226  52.2639111  32.5717406  42.5340755  53.1372267  31.9203766
  43.4075567  51.6303712  32.2858345  41.6392638  51.7017486  32.4734161
  44.0791036  53.3711770  34.2656527  44.2047759  53.5858117  35.3268975
  44.8710122  52.6990479  33.9351637  44.1320214  54.3006551  33.6987568
  41.4484746  54.8752276  33.5937068  40.6726838  54.8741414  32.6490621
  42.2235495  55.8957391  33.9119382  42.7660430  55.8672156  34.7633996
  42.3592424  57.0629882  33.0425603  41.3750631  57.4335788  32.7559372
  43.1041350  58.1751454  33.7798705  44.0970736  57.7931080  34.0169775
  43.1939732  59.0200325  33.0970859  42.4161636  58.6286393  35.0601395
  41.2002906  58.3958993  35.2181330  43.1452423  59.2357120  35.9023716
  43.1852402  56.7464861  31.7808111  44.1070355  55.9304846  31.7972471
  42.9109963  57.4233658  30.6614121  42.1131786  58.0374853  30.5811409
  43.8038196  57.2951451  29.5137746  44.1086122  56.2543008  29.4049451
  43.0987894  57.7476234  28.1996110  42.6164364  58.7011520  28.4145948
  43.8834882  57.8970406  27.4579761  42.0590663  56.7608310  27.6519600
  41.9781305  56.9780329  26.5868903  42.4920202  55.7698352  27.7882696
  40.4079250  56.7960907  28.3936947  39.7482967  58.3451321  27.6575227
  39.7408272  58.2572527  26.5710971  38.7324745  58.5140029  28.0148580
  40.3797545  59.1843119  27.9493092  44.9864658  58.2051304  29.7913780
  44.7633375  59.4115915  30.0700737  46.2327167  57.6736346  29.7239923
  46.6571766  56.2668086  29.5790596  46.2159302  55.8440931  28.6764448
  46.3268220  55.6952146  30.4463804  48.1602705  56.3691599  29.4960724
  48.4467375  56.2282373  28.4538744  48.5832345  55.5666007  30.1003086
  48.5875024  57.6857555  29.9977524  49.3539815  58.0494392  29.3133966
  48.9858042  57.6678650  31.0122154  47.3630906  58.5941078  29.9351909
  47.1813716  59.1655684  30.8454157  47.5248921  59.5600982  28.7473492
  46.9578401  59.3272699  27.6766933  48.3027789  60.6100134  28.9706990
  48.8001204  60.6591021  29.8483897  48.4598085  61.7354795  28.0053111
  47.4932241  62.1867149  27.7812567  49.3699529  62.8081128  28.6352402
  48.9474100  63.0171092  29.6180308  50.3464515  62.3382448  28.7526056
  49.5280909  64.1495186  27.8386476  49.4190536  63.9464576  26.7732941
  48.7285900  64.8146939  28.1648979  50.8978899  64.8236157  28.0977148
  51.3019933  65.0028392  29.2776925  51.5864919  65.1571390  27.1102744
  49.0525590  61.1857636  26.7354968  50.0227580  60.4349645  26.7883709
  48.4507808  61.5135532  25.5816386  47.6334264  62.1066948  25.5670012
  48.9651296  61.0189283  24.3170353  48.7485685  61.7735468  23.5608929
  50.0445675  60.9125853  24.4247590  48.3821965  59.6960460  23.8731362
  48.6411691  59.2630349  22.7637221  47.5774868  59.0463083  24.7182794
  47.3730814  59.4258552  25.6316589  47.0245214  57.7458563  24.3722159
  47.3602362  57.4484787  23.3787567  47.4928084  56.6957233  25.3811148
  47.2867188  57.0835845  26.3787069  46.9555726  55.7581394  25.2382368
  48.9397734  56.4319500  25.2675287  49.6966974  56.8456224  26.1287065
  49.3612771  55.7663879  24.1717753  50.3439169  55.5647582  24.0540288
  48.6921778  55.4729290  23.4744311  45.5104997  57.7387064  24.2996677
  44.8104418  58.4008094  25.0942144  45.0043179  56.9572494  23.3608121
  45.6326997  56.4633749  22.7432980  43.5955973  56.7989086  23.1637246
  43.0765649  57.7448388  23.3183875  43.3517122  56.3390051  21.7362538
  42.2776818  56.3187922  21.5514585  43.8241472  57.0450069  21.0532702
  43.8999840  55.0248537  21.5225315  43.7357576  54.7530793  20.6165689
  42.9696847  55.7869242  24.1323622  43.7148598  55.0484415  24.8469602
  41.6284673  55.7402871  24.1503041  41.0757154  56.4590553  23.7054029
  40.9190847  54.6375285  24.8492496  41.1864945  54.6907102  25.9045993
  39.3947676  54.6750405  24.7287920  39.1344204  54.7206039  23.6713221
  38.9929428  53.7591998  25.1622349  38.8121111  55.8611554  25.4383594
  39.1963435  55.8498369  26.4583291  39.1886448  56.7421420  24.9185669
  37.2969021  55.9025331  25.4699153  36.6403768  54.8217893  25.4936079
  36.7742150  57.0515812  25.4843606  41.3713491  53.2942019  24.3150770
  41.6623115  52.3894174  25.0990764  41.4479596  53.1664011  22.9901895
  41.1294248  53.8918324  22.3637837  41.9104441  51.9065465  22.4127854
  41.2818013  51.0846747  22.7554721  41.8363635  51.9751422  20.8731362
  42.2100593  52.9607733  20.5956798  42.4831192  51.2085540  20.4463465
  40.3890262  51.7961982  20.3262927  39.4722989  51.2760142  21.0406349
  40.1796720  52.1574264  19.1220735  43.3212911  51.5133313  22.8765123
  43.5715137  50.3120199  23.2193031  44.2434521  52.4766049  22.8875247
  44.0012484  53.4348519  22.6796804  45.6280117  52.1801123  23.3137321
  46.0693533  51.4657689  22.6187283  46.4884903  53.4214231  23.3413746
  45.9020120  54.1710867  23.8725496  47.3988505  53.2089289  23.9019016
  46.8606392  53.9575410  21.9371959  46.7568051  53.2136222  20.9196118
  47.2984224  55.1426487  21.9387833  45.5953930  51.6952031  24.7642785
  46.3184366  50.7343651  25.1410521  44.7721547  52.3794931  25.5665297
  44.1656782  53.0954333  25.1927447  44.7772339  52.1547855  27.0502428
  45.8137441  52.1706528  27.3871313  44.0172849  53.3051608  27.7402132
  42.9641820  53.2670710  27.4616028  44.1507369  53.1552210  29.2802747
  45.2036069  53.1936836  29.5597116  43.6148048  53.9666684  29.7726455
  43.7275940  52.1999274  29.5908625  44.6675427  54.5501166  27.3497983
  44.2171715  55.2899021  27.7639040  44.1819230  50.8259697  27.3853646
  44.7973510  50.0231338  28.1740122  43.0211488  50.5528784  26.7876102
  42.4612683  51.2668341  26.3438755  42.4520114  49.2078871  26.9245267
  42.4056969  48.9511733  27.9828519  41.0385638  49.1077525  26.3330337
  41.0815858  49.4481298  25.2984364  40.7363588  48.0607875  26.3582639
  40.0076329  49.9619477  27.1153847  39.9348276  49.5423152  28.1187335
  40.4050507  50.9752302  27.1738625  38.6056305  49.9957980  26.4690006
  37.9965878  50.7586299  26.9540299  38.6968066  50.2252146  25.4073253
  37.9456277  48.7153427  26.6117992  38.3826315  48.0466284  27.2298188
  36.8224458  48.3663095  25.9914032  36.2253893  49.2053242  25.1450358
  36.6284403  50.1151268  24.9720929  35.3726754  48.9274115  24.6805541
  36.2914233  47.1705415  26.2216666  36.7431498  46.5361174  26.8647446
  35.4384231  46.9013641  25.7525901  43.3701905  48.1140621  26.3865640
  43.4660691  47.0451345  26.9870822  44.0548746  48.3364805  25.2703007
  43.9750262  49.1908482  24.7375913  44.9410297  47.2827369  24.7655635
  44.3638397  46.3686831  24.6260763  45.5873079  47.6682349  23.4183825
  45.9637125  48.6867417  23.5135816  46.4213581  46.9877406  23.2469537
  44.6195334  47.5921479  22.2421107  44.0389369  46.6698839  22.2630283
  43.9428982  48.4465729  22.2271181  45.6453869  47.6173541  20.7456635
  47.3204662  47.9224515  21.4027472  47.5953636  47.1186875  22.0857508
  48.0334503  47.9583901  20.5790588  47.3344492  48.8727581  21.9364353
  46.0608522  46.9450806  25.7359885  46.4124226  45.7773806  25.9039854
  46.6873995  47.9878585  26.2859411  46.4368126  48.9188618  25.9850452
  47.7568956  47.8421547  27.2858198  48.5812868  47.2700907  26.8601190
  48.2968962  49.2429188  27.7301858  48.7255152  49.7189408  26.8482629
  47.5281661  49.8892013  28.1538283  49.4092621  49.1568411  28.7615751
  50.7235316  49.0168630  28.3602189  50.9444454  49.0091904  27.2928679
  51.7741982  48.8849309  29.3023413  52.8055877  48.7865166  28.9637398
  51.4887486  48.8813574  30.6479901  52.2966125  48.8011548  31.3753301
  50.1584079  48.9808830  31.0847626  49.9318192  48.9376292  32.1500733
  49.1163850  49.1365234  30.1483149  48.0869048  49.2410672  30.4908658
  47.2282988  47.0606299  28.5230240  47.7571918  45.9835496  28.8522342
  46.1741576  47.5720383  29.1777055  45.7594937  48.4497400  28.8987916
  45.6550221  46.9047026  30.3976376  46.4960436  46.7840513  31.0804446
  44.5676640  47.7817137  31.0953695  43.7150666  47.9039183  30.4273546
  44.2417042  47.2943642  32.0142498  44.9861205  48.7599188  31.3322413
  45.1127522  45.4901243  30.0891613  45.3462407  44.5252799  30.8968998
  44.4205338  45.3386797  28.9563757  44.2181226  46.1319732  28.3649246
  43.8900402  43.9991392  28.5525964  43.2294642  43.6178193  29.3312707
  43.0907304  44.0967150  27.2294578  43.7038853  44.6379975  26.5089347
  42.9384629  43.0751070  26.8812741  41.7402336  44.7918787  27.3711712
  41.2824464  45.1584313  28.4876554  41.1449163  44.9737984  26.2773145
  44.9949983  42.9477800  28.3735533  44.8578248  41.7664906  28.8229339
  46.1279240  43.3496517  27.7755572  46.2174550  44.2822359  27.3982374
  47.2423031  42.4330614  27.6166781  46.9500350  41.5760240  27.0099118
  48.4228374  43.1505652  26.9221790  48.6799217  44.0332853  27.5076815
  49.6589966  42.2348317  26.8031351  49.4027958  41.3520572  26.2173280
  50.4664448  42.7758700  26.3097752  49.9822368  41.9287541  27.7980888
  47.9698617  43.5378300  25.6235952  48.6785239  43.9888079  25.1588187
  47.6748426  41.8886693  28.9709251  47.8705062  40.6463388  29.1429711
  47.8070064  42.7884059  29.9518455  47.6718566  43.7757124  29.7873473
  48.2573388  42.3526922  31.3035586  49.1140741  41.6854040  31.2095891
  48.6650316  43.5703813  32.2189736  47.8447463  44.2881453  32.2257657
  48.9685616  43.1049280  33.6961564  49.7891035  42.3874485  33.6902208
  49.2463380  43.9688043  34.3000259  48.0801710  42.6366094  34.1198797
  49.8936100  44.2395832  31.6347682  49.6704726  44.5954965  30.6289663
  50.1817460  45.0828568  32.2624360  50.7131607  43.5222042  31.5922844
  47.1837872  41.4974347  31.9928022  47.4905921  40.3946624  32.5300936
  45.9561191  42.0188485  32.0495093  45.7593260  42.9261195  31.6517265
  44.8740328  41.3264665  32.7913148  45.2315474  41.1363968  33.8033207
  43.5635575  42.1869456  32.8755294  43.2481756  42.4638417  31.8695661
  42.4400973  41.3666216  33.5618097  42.7545849  41.0897373  34.5680570
  41.5327945  41.9680868  33.6178607  42.2423301  40.4647730  32.9824490
  43.8169615  43.4531964  33.7243884  44.6069604  44.0472041  33.2648685
  42.9028083  44.0444501  33.7777054  44.1201080  43.1623341  34.7301728
  44.5895775  39.9535778  32.1781721  44.4411716  38.9391604  32.8941491
  44.5881327  39.8686503  30.8550885  44.7398331  40.6520712  30.2359455
  44.2596116  38.5673252  30.2626066  43.3605082  38.1751523  30.7379093
  44.0055935  38.6761541  28.7323801  44.8548043  39.2107057  28.3067102
  43.9838934  37.6591008  28.3409319  42.7010423  39.4000059  28.3520715
  41.8776311  38.8346355  28.7884786  42.7381564  40.3923464  28.8014988
  42.4774098  39.5366350  26.7862940  42.1765706  38.5628260  26.3999122
  41.6762360  40.2565575  26.6191665  43.7308247  39.9998287  26.0684106
  43.8550213  41.0655491  26.2605457  44.5783472  39.4549997  26.4843025
  43.6617512  39.7612493  24.5744603  42.8767377  40.2663602  24.1888225
  44.5153549  40.0845471  24.1420955  43.5470973  38.7737398  24.3961950
  45.3443640  37.5158860  30.5349665  45.0210820  36.3430326  30.7485029
  46.6202880  37.9187083  30.4858025  46.8673578  38.8657671  30.2365325
  47.6821384  36.9908974  30.7803557  47.6033333  36.1083000  30.1456031
  49.0347699  37.6689601  30.5127593  48.9144658  38.0528557  29.4997191
  49.1915436  38.5006220  31.1996803  50.2588261  36.7200257  30.5631976
  50.2980475  36.2643858  31.5526191  50.1733296  35.6252117  29.5020216
  50.1345375  36.0800998  28.5122383  51.0504533  34.9818414  29.5715150
  49.2738846  35.0311337  29.6637946  51.5519777  37.5290314  30.4504465
  51.6121057  38.2361303  31.2777888  52.4074623  36.8545458  30.4867303
  51.5592271  38.0737686  29.5063555  47.5840440  36.5623425  32.2587255
  47.8071051  35.3779128  32.6060167  47.3021975  37.5199397  33.1329989
  47.1312121  38.4730628  32.8459104  47.2459680  37.1970693  34.5973643
  48.1923154  36.7626345  34.9195325  46.9922144  38.4632450  35.4040204
  46.1896730  39.0072600  34.9059498  46.6816623  38.2050971  36.4164517
  48.2403774  39.3857171  35.4873647  49.3268285  38.9812461  35.1853777
  48.0364211  40.6140645  35.9407670  48.8120599  41.2565769  36.0160138
  47.1062706  40.9021104  36.2090027  46.1174407  36.1872400  34.8391493
  46.2863044  35.2437860  35.6416838  44.9589326  36.4037377  34.1968249
  44.7776025  37.2383036  33.6576416  43.8477724  35.4369554  34.3937284
  43.7420609  35.2648459  35.4648505  42.4895400  35.9023444  33.8332718
  42.6732695  36.1310819  32.7834995  41.7581278  35.0975105  33.9066115
  41.9429552  37.1628064  34.5478719  42.7007902  37.9455334  34.5814181
  40.7461279  37.6497294  33.7419939  39.9876220  36.8676562  33.7083907
  40.3287014  38.5400377  34.2123206  41.0641702  37.8905219  32.7276131
  41.5768604  36.8494022  36.0175180  42.4642252  36.5036548  36.5477462
  41.1954619  37.7505978  36.4976043  40.8125217  36.0727671  36.0444124
  44.2173051  34.0653651  33.8324516  43.8516286  33.0021303  34.4263779
  44.9398751  34.0484409  32.7054271  45.1642208  34.8977028  32.2069068
  45.3704928  32.7580460  32.1224729  44.5056634  32.1025421  32.0200821
  46.0050974  32.9496090  30.7428278  46.5567676  33.8896937  30.7430709
  46.6940216  32.1247021  30.5611359  44.9702265  32.9801590  29.6657308
  44.7916875  31.9367755  29.4057776  44.0376790  33.4358089  29.9986576
  45.4579946  33.7204645  28.4142793  46.6577925  34.0383969  28.2860994
  44.5189646  34.0719473  27.5403316  44.7773480  34.5622778  26.6959883
  43.5518379  33.8469010  27.7250513  46.3386504  32.0661205  33.0731753
  46.2509050  30.8260230  33.2744340  47.2304393  32.8347410  33.7010416
  47.3360847  33.8141712  33.4782082  48.1878675  32.2230098  34.6574653
  48.5650886  31.2920001  34.2343526  49.3920295  33.1551204  34.9577081
  49.9554311  33.3033854  34.0364615  49.0107021  34.1142297  35.3081350
  50.3255623  32.5391584  36.0439822  49.6911928  32.2339773  36.8761725
  50.7935940  31.6591418  35.6028256  51.4230584  33.5041717  36.5584978
  52.1145933  33.6771758  35.7339082  50.9324548  34.4408446  36.8231703
  52.2177936  32.9579017  37.8039801  51.5189783  32.9042859  38.6387753
  52.5638638  31.9546085  37.5555099  53.4251331  33.8351335  38.1994922
  53.1046232  34.7647326  38.4301839  53.8875576  33.4299140  39.0007791
  54.0729984  33.8845952  37.4262373  47.4679240  31.7820257  35.9419509
  47.7574228  30.7077397  36.4930273  46.4756900  32.5404333  36.3890344
  46.2882625  33.4523365  35.9973678  45.6411094  32.0776780  37.5212723
  46.2646169  31.9574451  38.4072078  44.5305985  33.0854165  37.8370942
  45.0911089  33.9656384  38.1519539  43.9594581  33.3210414  36.9391077
  43.5653451  32.6607014  38.9634520  43.0379632  31.7595765  38.6504934
  44.3491367  32.3727703  40.3037088  44.8764328  33.2736324  40.6175641
  43.6446551  32.0754931  41.0805182  45.0681220  31.5701519  40.1395008
  42.4701606  33.7077439  39.1463479  41.9085886  33.8128473  38.2180755
  41.7968571  33.3944560  39.9442291  42.9217331  34.6647990  39.4075501
  45.0331415  30.7018752  37.1903407  45.0279611  29.8037875  38.0499416
  44.4813801  30.5626624  35.9965697  44.4109452  31.3328312  35.3469712
  43.8748888  29.2820785  35.6240068  43.0944744  29.0678077  36.3541715
  43.2418007  29.3600353  34.2457734  44.0122806  29.5650709  33.5025229
  42.7571491  28.4116612  34.0138258  42.5009433  30.1594052  34.2303696
  44.8973895  28.1194078  35.6828197  44.5854940  27.0307347  36.2299113
  46.0962150  28.3595285  35.1356155  46.2513616  29.2328189  34.6525081
  47.1773486  27.3406394  35.1136076  46.8340758  26.4267332  34.6288001
  48.3911780  27.8972120  34.3207084  48.6522254  28.8683254  34.7412952
  49.6368225  26.9457878  34.3899016  49.3766619  25.9745563  33.9690390
  50.4583266  27.3798764  33.8199918  49.9420944  26.8210069  35.4288142
  47.9634303  28.0378121  32.9553262  48.6876059  28.3812060  32.4268845
  47.5494535  26.8963225  36.5178606  47.5820779  25.6763791  36.8158196
  47.7923229  27.8818661  37.3875406  47.7279382  28.8400873  37.0748651
  48.2153084  27.6321277  38.7431689  49.0554855  26.9450904  38.8440719
  48.5672004  28.9567748  39.4727635  47.7711907  29.6740383  39.2727613
  48.7187845  28.7622525  41.0248515  49.5149789  28.0454201  41.2256663
  48.9649062  29.7173220  41.4889279  47.7817521  28.3889046  41.4379898
  49.7889828  29.6032964  38.8341850  49.5805582  29.8190765  37.7862823
  50.0241681  30.5310197  39.3558334  50.6380780  28.9232602  38.9026610
  47.1346678  26.8637363  39.4952936  47.4419642  25.8056500  40.1265686
  45.8814649  27.3364281  39.4326687  45.6856616  28.2040788  38.9541892
  44.7843924  26.6763639  40.1565584  45.1258025  26.5911745  41.1881984
  43.4993040  27.5113826  40.1333102  43.1401353  27.5979429  39.1078321
  42.7386039  27.0255503  40.7443769  43.7039804  28.5053239  40.5311638
  44.5165625  25.2364418  39.6407867  44.2767720  24.3080062  40.4386049
  44.5770322  25.0670540  38.3242655  44.6873802  25.8699105  37.7214852
  44.3483806  23.7507737  37.7004718  43.4367727  23.3102969  38.1042668
  44.1990238  23.8786173  36.1819693  44.9699167  24.5455485  35.7959305
  44.3059283  22.8960509  35.7223665  42.8160399  24.4501536  35.8494340
  42.0750968  23.6875088  36.0891779  42.6869709  25.3034184  36.5153015
  42.6388144  24.8835244  34.4605172  43.6028372  24.7251767  33.6793929
  41.5334727  25.3628206  34.1080675  45.4616273  22.7577721  38.1251311
  45.1840709  21.6045302  38.4901851  46.6993325  23.2154996  38.1446311
  46.9351272  24.1203770  37.7629281  47.7793149  22.3707544  38.6365401
  47.7335929  21.4263750  38.0941784  49.1059321  23.0108238  38.3713436
  49.1703600  23.9533351  38.9150545  49.9035010  22.3457175  38.7024291
  49.2114821  23.2002442  37.3031309  47.6068944  22.0401744  40.1331730
  47.8138553  20.8874486  40.5503402  47.2439727  23.0341530  40.9491609
  47.2250641  23.9899872  40.6233958  46.9565548  22.7767272  42.3590293
  47.8162363  22.2813753  42.8103312  46.6716780  24.0557139  43.1315500
  45.9477229  24.6422572  42.5659041  46.2437075  23.7837386  44.0964182
  47.9090892  24.8651949  43.3463150  48.5925694  24.3057345  43.9850322
  48.3831830  25.0509688  42.3825592  47.5220761  26.4419500  44.1301583
  47.0584542  25.9741492  45.8110037  47.8950075  25.4665873  46.2912731
  46.8014976  26.8678610  46.3796453  46.1985291  25.3051445  45.7784060
  45.8109939  21.7991424  42.5503747  45.8823439  20.9624755  43.4572576
  44.7962305  21.8767419  41.6852258  44.7959987  22.6226134  41.0042155
  43.6347058  20.9936204  41.7451831  43.2514026  21.0661294  42.7629848
  42.5380371  21.4455085  40.7757483  42.9038201  21.3698673  39.7517457
  41.6613757  20.8089952  40.8958148  42.2674835  22.4796562  40.9889114
  44.0042963  19.5129325  41.4970575  43.4280021  18.6261430  42.1333306
  44.9331839  19.2617609  40.5785497  45.2846662  20.0211414  40.0129520
  45.4283510  17.8809802  40.2969272  44.5591767  17.2275509  40.2216588
  46.1834419  17.8495011  38.9594875  45.5292234  18.2058848  38.1638191
  47.0616426  18.4920926  39.0222545  46.6203919  16.4203125  38.6559765
  47.2750552  16.0633792  39.4510333  45.7426371  15.7771709  38.5925952
  47.3699815  16.3890623  37.3282852  46.7157646  16.7454476  36.5326164
  48.2481826  17.0316526  37.3910540  47.8104839  15.0147735  37.0001255
  47.5880067  14.2703638  37.6454607  48.4859233  14.7152514  35.8942464
  48.8155543  15.6403838  34.9973774  48.5508374  16.6032238  35.1489160
  49.3290758  15.3758365  34.1688787  48.8324854  13.4461742  35.6986995
  48.5806015  12.7461010  36.3817457  49.3459567  13.1883435  34.8680556
  46.3285006  17.3314786  41.4297046  46.4190513  16.1086011  41.6407617
  46.9979117  18.2383735  42.1490163  46.8600709  19.2111504  41.9149128
  48.0396028  17.8976841  43.1341135  48.5619784  16.9894468  42.8335675
  49.0669523  19.0542498  43.2202226  49.9568119  18.7695859  42.6587818
  48.6183281  19.9375610  42.7656926  49.4837763  19.4001749  44.6595702
  49.9052077  18.5331077  45.4240177  49.3679285  20.6899553  45.0234410
  49.6275966  20.9732533  45.9574723  49.0218022  21.3692433  44.3609720
  47.5053032  17.4681066  44.5081044  46.4122088  17.8731920  44.9298974
  48.1178461  16.6465560  45.1865479  50.0609946  42.6203185  36.7701090
  50.1531782  43.6422246  37.3349931  50.2452509  44.8896049  37.9788860
  50.7539185  45.1190629  39.2270972  50.6863251  46.4342522  39.4962479
  50.1381653  47.0518788  38.4493553  49.8446513  46.1167417  37.4853443
  49.2534485  46.3900953  36.1764413  47.8722803  46.4457510  35.9781816
  47.3522994  46.6698954  34.6997727  48.1811201  46.8281438  33.6066800
  49.5581647  46.7691289  33.8233167  50.0718771  46.5635207  35.0701325
  51.4267562  46.5651829  35.0120458  51.7993874  46.6554251  33.6321493
  52.3308826  45.4782715  33.2365695  52.6564024  47.6490573  33.4305226
  50.5715769  46.8858932  32.9097874  51.1549224  44.3492473  39.9034151
  51.0042052  46.8884313  40.3638812  49.9516203  48.1325824  38.3700164
  47.1903306  46.3121379  36.8311577  46.2623884  46.7211199  34.5625753
  47.7700784  46.9950494  32.6000762  32.7753442  58.5322212  26.8459005
  44.4304328  15.1902754  46.2988950  39.1902830  61.5001863  35.3651231
  63.5025518  59.4114403  39.7342258  27.8206706  28.6571422  55.1937776
  57.7232757  80.8697869  36.4702207   2.4512599  44.7172659  68.6564596
  12.6523718  28.0342632  68.7645369  17.0889604  57.7450739  70.6215094
  45.0576503   9.1386589  14.6395607  76.1762113  14.7479064  36.2492307
   1.4484160  30.5417640  43.4453085  14.5189587  20.0833230  44.4549468
  60.7754070  37.9469007  67.0417621  73.3457063  61.1420686  59.5889669
  64.5554094  40.7229253  56.4692118  38.5580505  26.3151493  78.3916093
  69.4058681  68.2231352  58.0679801  19.5230693  53.6405454  56.3690652
  56.6248629  10.5503815  19.0264513   5.2517907  63.1929756  32.6379986
  62.1509749  60.9293074  33.8157420  51.7280073  34.9392673   1.5709233
  33.2413988  46.4619713  75.0931426  54.7487467   9.9994621  55.5343065
  13.1866636  37.0600529  35.6883472  13.5049361  41.0407741  18.4795233
  30.8371168  69.0430259  50.1932285  68.8578093  11.1768949  34.6321877
  19.3717267  34.3779255  64.3981865  65.8411684  48.3355312  60.2189990
  41.0854179  12.1311631  34.6733863  54.6303471  33.4418126  -1.7524785
  37.0634773  56.5227152   4.9708791   5.1049145  41.4875056  35.1587241
  65.7459056  44.8695032  56.1587919  18.5326414  43.2140765  18.6329655
  22.8704695  30.4354717  46.0254310  57.0702293  30.1047911   2.1733784
  28.1363483  54.4073840   6.3660008  56.4439997  10.2973754  33.4216972
  57.2467323  57.9510032  54.3874893  34.5172528  35.8512537  82.1039961
  53.4971619  70.6198333  22.3232457  41.2366076  42.1949161  77.7376457
  69.6772364  46.4607470  21.8104069  68.7231341  15.2941868  52.4222533
  57.2309281  11.6258154  37.3758383   9.2104522  37.2372327  36.5651595
  13.4494205  26.2777631  14.6115390  38.0955367  56.0035950  40.6909411
  43.9505986  50.4574340   7.6980798  38.0972824  32.4832897   6.6367126
  23.6256301  43.5527940  68.7645369  23.5646595  29.7878378  16.1190144
  62.3724480  45.6235378  59.5889669  56.2404876  67.0461995  55.6985415
  28.9243975   4.7005470  47.8460445  15.7938105  14.0134432  34.4351674
   8.1976271  37.3753286  72.3814983  36.0575180  73.1532696  36.8289104
  44.9586323  38.0945781  85.7703449  44.4297795  38.3105415  86.4300755
  45.4811343  38.7881920  85.6904418  44.9574776  38.2288918  85.8559048
  36.8485931  41.9908998  84.5710917  36.2643146  42.4959029  84.9776781
  36.4456026  41.7651385  83.8307509  36.7025235  42.0317246  84.5215942
  41.3063146  38.2374650  83.0479837  41.5459149  38.4452634  82.2355181
  41.6278987  37.4332159  83.1568782  41.3900303  38.1488751  82.9440390
  41.6919845  44.3542491  82.4801770  42.1070994  44.0227515  81.7886265
  40.8611775  44.1211394  82.3521906  41.6307854  44.2713747  82.3592617
  44.3853236  40.6053051  81.6662971  44.3033398  40.6755238  82.5317958
  45.0232956  41.1682795  81.4746712  44.4673073  40.6992022  81.7652921
  41.4893346  40.6273505  84.6771578  42.3033985  40.9188398  84.5654349
  41.4252487  39.9733367  84.1029870  41.5996085  40.5738700  84.5760415
  38.0004069  39.3197312  84.1418779  38.3849222  39.1005019  84.8935324
  37.7515689  40.1460258  84.2719855  38.0206142  39.4095458  84.2719855
  42.9269368  43.8435305  80.0187383  43.6942353  43.9035430  79.6093234
  42.4800677  43.2715746  79.5343701  42.9742795  43.7671881  79.8865093
  38.9743968  40.1154071  81.4824493  39.2636493  40.8918954  81.7568067
  39.0615767  39.6042803  82.1838992  39.0298225  40.1545990  81.6266991
  43.7675587  35.5087334  85.7378180  43.2398606  35.5916078  85.0483889
  44.2271295  36.2505206  85.7342824  43.7577438  35.6307997  85.6352875
  35.7608652  33.7789854  80.7619075  35.4121457  34.4309579  81.2250624
  35.2805098  33.7646967  80.0342946  35.6378896  33.8732908  80.7230166
  36.1632784  37.2715495  83.6037696  36.7977863  37.8675920  83.5387158
  36.2458394  36.9718953  84.4183566  36.2689335  37.3156404  83.7140783
  40.8022878  35.1437595  85.0773802  40.2087717  35.4654591  84.5258369
  40.8398155  34.2978690  84.8694908  40.7197267  35.0661923  84.9656573
  38.7752110  35.7834845  83.1703132  39.1551075  35.8014474  82.3854247
  38.0344706  36.2288834  83.0493979  38.7220948  35.8516620  83.0366700
  39.5736864  42.6212351  84.5611922  38.7648187  42.2979025  84.5145232
  40.0811773  41.9145574  84.4940171  39.5286531  42.4693668  84.5442216
  48.1772834  15.1079172  74.6213161  48.1466838  15.9623809  74.7931430
  48.7754183  14.8074464  75.1799304  48.2609992  15.1895668  74.7287963
  35.7613659  23.7317541  75.1403323  35.0096558  23.3533079  74.9119368
  36.2099670  23.7635974  74.3922133  35.7163325  23.6803148  74.9960825
  41.2138618  24.1542910  70.5688870  40.8789987  24.8319832  70.1333092
  41.7265489  23.7648221  69.9805742  41.2404200  24.1967488  70.4175661
  40.7542910  26.1057179  76.5099982  41.1382289  26.6744078  75.9704757
  40.6902051  25.3806689  76.0305798  40.8016337  26.0832642  76.3593844
  45.9989409  17.6831474  72.8931471  45.8828934  18.4339160  73.3223609
  46.7945295  17.4255427  73.1427558  46.0993998  17.7566321  72.9935562
  37.1799154  28.6613522  78.8080951  37.8236610  29.1026686  79.1977110
  37.5055410  27.8566948  78.7211210  37.3230983  28.6078717  78.8526429
  37.8819734  21.6725497  74.1800813  38.2035575  22.2130704  73.5762121
  38.5291831  21.1022268  74.3123103  38.0245789  21.6684672  74.1107848
  40.1209378  20.0611937  74.2514991  40.5603013  19.4529037  74.6969764
  39.9714040  19.6819310  73.4800456  40.1630843  19.9150408  74.2034159
  43.7218714  18.4139118  71.2045761  43.6370009  19.2700085  71.3495329
  44.2103097  18.1383442  71.8727920  43.7807611  18.4996440  71.3247842
  44.6537147  15.0323912  72.7043496  44.1248619  15.2483546  73.3640802
  45.1762167  15.7260051  72.6244465  44.6525600  15.1667049  72.7899095
  50.1085200  20.6070217  78.0776540  49.2782903  20.8180860  78.2409957
  50.0594453  19.7807271  77.8018824  49.9791936  20.5159823  78.0613906
  36.5436755  18.9287129  71.5050964  35.9593970  19.4337160  71.9116828
  36.1406850  18.7029516  70.7647556  36.3976059  18.9695377  71.4555989
  41.0013970  15.1752781  69.9819884  41.2409973  15.3830765  69.1695227
  41.3229811  14.3710290  70.0908829  41.0851127  15.0866882  69.8780437
  47.3649515  21.2769571  78.2141256  46.9284747  21.2806314  78.9700227
  47.0312431  21.9575070  77.7820833  47.2512135  21.3782027  78.2622088
  50.4993862  17.9950491  77.1060893  51.1610296  17.4341160  77.0056802
  49.8585274  17.5002522  77.4313584  50.5022729  17.8386900  77.1393233
  41.3870669  21.2920622  69.4141816  41.8021818  20.9605646  68.7226312
  40.5562599  21.0589525  69.2861953  41.3258678  21.2091878  69.2932664
  46.7858692  19.0115873  76.8472882  47.0214282  19.1561072  76.0199733
  46.9348256  19.7758281  77.2404396  46.8424496  19.1454928  76.7836486
  48.6149149  17.8517539  74.6842486  48.9457366  18.3845180  74.0782581
  49.1882237  17.9056427  75.3404437  48.7482828  17.9387108  74.6920267
  44.0804060  17.5431182  68.6003018  43.9984222  17.6133369  69.4658005
  44.7183780  18.1060926  68.4086759  44.1623897  17.6370153  68.6992967
  41.1844170  17.5651636  71.6111624  41.9984809  17.8566529  71.4994396
  41.1203311  16.9111499  71.0369917  41.2946909  17.5116831  71.5100462
  37.6954893  16.2575443  71.0758826  38.0800046  16.0383150  71.8275371
  37.4466513  17.0838389  71.2059902  37.7156966  16.3473590  71.2059902
  37.9778136  24.4780319  73.1491196  38.2676434  24.0869301  72.4250423
  38.7081616  24.6597024  73.5896471  38.1285020  24.4474133  73.1074003
  35.9184051  26.4547702  76.2151346  35.6984347  26.1645056  77.0078013
  35.6978573  25.7962657  75.6869258  35.8531645  26.3147410  76.2540254
  38.0852007  27.8277092  74.9982038  38.7376065  27.2953534  75.2273064
  37.3877616  27.4745744  75.3849912  38.0782725  27.6966615  75.0894206
  46.0791925  20.1481506  74.3413017  46.6449958  20.8074716  74.2571560
  45.4319829  20.4931204  74.8129420  46.0670682  20.2963447  74.3985774
  42.5498503  23.0920290  73.7650097  42.3085179  22.3588151  73.3577162
  42.7299836  23.6407147  73.1116430  42.5406127  23.0642681  73.6080320
  47.2754623  20.1987733  71.1338654  46.8961432  19.4124871  71.1267943
  46.6120869  20.7474590  70.9910298  47.1213098  20.1632557  71.1119451
  40.1001531  23.7501252  74.9727480  40.8651422  23.4810896  74.6510144
  39.9979621  23.2651263  75.6897543  40.1983027  23.6390817  75.0307308
  42.6220192  20.7813436  66.9527430  43.3893177  20.8413561  66.5433281
  42.1751501  20.2093878  66.4683748  42.6693619  20.7050012  66.8205140
  45.5214722  22.4433224  71.4690340  45.6034559  23.2500211  71.1451791
  46.0064464  22.4629184  72.1931113  45.6051880  22.5653887  71.5277238
  41.1572815  16.9927995  74.4381753  41.6988360  16.4898376  74.9020374
  41.4719374  16.9393190  73.6271239  41.2837212  16.9107416  74.3865566
  39.3259265  22.3845347  71.7221781  39.3952085  21.5259885  71.8614782
  40.1047720  22.6017228  71.3940806  39.4512115  22.2898211  71.6938939
  43.7166752  24.8083048  75.9358275  43.3246544  24.5049763  75.2181141
  43.8719824  25.6452138  75.7463229  43.6820342  24.8866885  75.8014772
  43.8806427  21.3733037  75.8764305  43.5221082  21.5447680  76.6528338
  43.3945138  21.8346243  75.3192304  43.7565124  21.4672008  75.9089574
  38.6694792  17.0532202  68.4164540  38.9587317  17.8297085  68.6908114
  38.7566591  16.5420934  69.1179039  38.7249049  17.0924121  68.5607038
  44.4857057  24.2118541  79.3688309  44.2876746  24.7009355  78.6744521
  43.8644768  24.4159782  79.9472443  44.3644622  24.3135079  79.3511532
  43.4626411  12.4465466  72.6718227  42.9349430  12.5294210  71.9823935
  43.9222119  13.1883337  72.6682871  43.4528262  12.5686128  72.5692922
  35.4559476  10.7167985  67.6959122  35.1072281  11.3687710  68.1590671
  34.9755922  10.7025098  66.9682993  35.3329720  10.8111039  67.6570213
  43.0163494  21.0169029  71.8027884  43.7397693  21.4827142  71.6592457
  42.5764085  21.0842639  71.0525481  43.0579186  21.0952866  71.6712665
  43.2767343  25.0789734  71.9625945  42.5596653  24.9050596  71.4973182
  43.9274081  24.8442306  71.4301431  43.2669194  25.0185527  71.8155163
  41.9245799  25.4741578  79.1439709  41.5262083  25.5843848  78.3760530
  41.3097019  25.6823644  79.7266269  41.7744689  25.5215146  79.1171009
  49.6587642  20.0493545  72.5282800  50.0421248  20.7984901  72.7580897
  48.8631755  20.2959364  72.2694789  49.5981424  20.1963239  72.5240373
  38.4702934  12.7212976  70.1043179  38.8501899  12.7392606  69.3194294
  37.7295530  13.1666965  69.9834026  38.4171771  12.7894751  69.9706747
  39.2687688  19.5590483  71.4951969  38.4599011  19.2357156  71.4485278
  39.7762597  18.8523705  71.4280218  39.2237355  19.4071799  71.4782263
  59.1505418  30.6264480  74.6213161  59.1199422  31.4809116  74.7931430
  59.7486766  30.3259772  75.1799304  59.2342575  30.7080976  74.7287963
  52.3505102  29.7140131  79.3766091  51.4942998  29.8748629  79.4275208
  52.3972756  28.8432195  79.3971152  52.2304214  29.6090933  79.3872157
  46.7346242  39.2502849  75.1403323  45.9829142  38.8718387  74.9119368
  47.1832254  39.2821282  74.3922133  46.6895909  39.1988456  74.9960825
  52.1871202  39.6728218  70.5688870  51.8522571  40.3505140  70.1333092
  52.6998072  39.2833529  69.9805742  52.2136783  39.7152796  70.4175661
  51.7275493  41.6242487  76.5099982  52.1114873  42.1929385  75.9704757
  51.6634635  40.8991997  76.0305798  51.7748921  41.6017950  76.3593844
  55.1956923  31.7732175  82.0197743  55.7412884  32.4517261  82.0791713
  55.1373800  31.6319636  81.1599324  55.2672838  31.8524176  81.9009804
  48.3130998  39.2621241  77.4066095  48.4141361  38.4521595  77.7163223
  47.7172744  39.1678187  76.7765774  48.2403537  39.1286269  77.3592334
  56.9721992  33.2016782  72.8931471  56.8561518  33.9524468  73.3223609
  57.7677879  32.9440735  73.1427558  57.0726582  33.2751629  72.9935562
  48.1531738  44.1798830  78.8080951  48.7969193  44.6211994  79.1977110
  48.4787993  43.3752256  78.7211210  48.2963567  44.1264025  78.8526429
  41.5096043  35.2841527  77.0318429  41.2746227  34.4509180  76.9250698
  41.6481683  35.5646193  76.2179630  41.4951705  35.2025031  76.8960784
  43.8086130  27.4527258  79.9302737  43.1891162  26.8619905  79.7612751
  43.7069994  28.0438693  79.2967060  43.7023806  27.4531340  79.8107726
  48.8552318  37.1910805  74.1800813  49.1768159  37.7316012  73.5762121
  49.5024414  36.6207576  74.3123103  48.9978373  37.1869980  74.1107848
  50.9054026  29.1926800  74.2635200  51.6034190  29.3714927  74.7556663
  51.2206358  28.6697139  73.6405589  51.0549363  29.1420572  74.2437210
  43.5355263  30.9979540  82.1746306  43.4113960  31.5841985  82.8096125
  44.1873548  30.5039735  82.4758581  43.6128912  31.0118344  82.3132235
  51.0941961  35.5797245  74.2514991  51.5335597  34.9714345  74.6969764
  50.9446624  35.2004618  73.4800456  51.1363427  35.4335716  74.2034159
  48.5613604  34.1741257  81.4533817  49.2062607  33.6813700  81.1344765
  48.8015381  34.3166043  82.2799895  48.6924189  34.1218699  81.5283350
  51.0999695  37.0196162  81.1040709  51.3822938  36.2247568  80.8827465
  51.8285856  37.4976750  81.1245770  51.2489259  36.9730759  81.0743725
  49.0780889  24.5619196  78.3456474  48.7484219  25.0130340  77.6760173
  48.4025891  24.4835360  78.8929481  48.9291326  24.6170332  78.3279698
  54.6951298  33.9324426  71.2045761  54.6102593  34.7885393  71.3495329
  55.1835681  33.6568750  71.8727920  54.7540195  34.0181747  71.3247842
  56.2857297  20.5504719  76.5906085  55.9710738  21.2408198  77.0226507
  55.7684239  20.4949502  75.8891586  56.1621768  20.6439608  76.5503034
  55.6269731  30.5509220  72.7043496  55.0981202  30.7668854  73.3640802
  56.1494751  31.2445359  72.6244465  55.6258184  30.6852357  72.7899095
  61.0817784  36.1255525  78.0776540  60.2515487  36.3366168  78.2409957
  61.0327036  35.2992579  77.8018824  60.9524519  36.0345131  78.0613906
  47.5169339  34.4472437  71.5050964  46.9326554  34.9522468  71.9116828
  47.1139434  34.2214824  70.7647556  47.3708642  34.4880685  71.4555989
  43.0713367  40.1627198  78.3074635  42.5880946  40.8877688  78.2834219
  43.8836686  40.4603328  78.4184793  43.1204115  40.3129552  78.3201914
  49.1427521  38.9559379  80.9124450  48.6254463  38.5966794  80.3085758
  49.8401913  38.4321553  80.9230516  49.1693102  38.8257067  80.8254708
  51.9746553  30.6938089  69.9819884  52.2142557  30.9016073  69.1695227
  52.2962394  29.8895598  70.0908829  52.0583711  30.6052190  69.8780437
  47.2836843  22.6231485  73.8279422  48.0382811  22.9909802  73.5896472
  47.1064378  22.9971039  74.5958602  47.3691322  22.7329673  73.9064311
  45.9257565  40.6783374  78.4594915  46.6278144  40.1635363  78.5167672
  45.8455048  41.0057525  79.2641790  46.0181325  40.6497600  78.5867707
  45.6393908  25.0301804  70.5257535  45.4569481  25.2473685  69.6998528
  46.5019521  25.1440817  70.5816150  45.7398497  25.0791702  70.4112022
  45.2508340  36.8689726  77.9680523  46.0897239  37.1012659  78.0154285
  45.2820109  35.9994037  77.8987558  45.3790058  36.7746672  77.9645168
  45.8761043  37.2890601  82.2693829  46.4159268  37.1461732  82.9397201
  45.1930989  37.6887352  82.6377855  45.8553197  37.3270272  82.4228250
  51.3193627  22.0328214  73.5606559  52.0479788  21.8544169  73.1144715
  51.4088520  22.8746294  73.7713737  51.4400289  22.1312093  73.5260077
  55.3001928  32.9681602  77.4638853  56.0559443  33.4013116  77.5027762
  55.4064252  32.3186372  78.0373489  55.4272098  32.9359086  77.5536879
  58.3382099  36.7954879  78.2141256  57.9017331  36.7991622  78.9700227
  58.0045014  37.4760378  77.7820833  58.2244719  36.8967335  78.2622088
  41.2798188  33.5090892  82.4228250  41.0136603  32.6930009  82.5819240
  41.2936752  33.5544048  81.5523766  41.2422910  33.3947797  82.3181732
  45.1855935  28.3075976  69.0380008  44.4714112  28.0214156  69.4502441
  45.6699904  28.6472602  69.6786396  45.1515298  28.3157626  69.1935643
  61.4726445  33.5135799  77.1060893  62.1342879  32.9526467  77.0056802
  60.8317857  33.0187830  77.4313584  61.4755313  33.3572208  77.1393233
  52.3603253  36.8105930  69.4141816  52.7754401  36.4790954  68.7226312
  51.5295183  36.5774833  69.2861953  52.2991262  36.7277186  69.2932664
  41.6891602  34.2949671  79.7039994  41.5067175  34.2696557  78.8512287
  42.4241271  34.7648609  79.7428903  41.7705666  34.3611034  79.5837913
  57.7591276  34.5301181  76.8472882  57.9946865  34.6746380  76.0199733
  57.9080840  35.2943589  77.2404396  57.8157079  34.6640236  76.7836486
  59.5881733  33.3702847  74.6842486  59.9189950  33.9030487  74.0782581
  60.1614821  33.4241735  75.3404437  59.7215412  33.4572416  74.6920267
  54.8013622  31.2167750  75.3666066  54.8960476  31.9557044  75.8205691
  54.1772465  30.7885225  75.8000630  54.7222652  31.2629071  75.4974213
  41.6562512  31.1743172  79.8539061  42.2336015  31.0379623  80.4931306
  40.9576574  30.7178956  80.1084645  41.6383533  31.0865438  79.9861351
  55.0536643  33.0616490  68.6003018  54.9716806  33.1318677  69.4658005
  55.6916364  33.6246234  68.4086759  55.1356480  33.1555461  68.6992967
  48.4129814  32.8277228  78.0677544  48.1549059  31.9948963  78.0408844
  48.4678297  33.0534841  77.2270045  48.3829592  32.7374999  77.9397681
  53.4930864  24.9305678  78.1681637  52.7887191  24.4414864  78.3265556
  53.5415839  24.9428153  77.2970081  53.3960916  24.8595326  78.0620977
  47.3864526  30.3814990  78.5542439  46.8114118  30.5407159  79.1906400
  47.0100203  29.7450399  78.0910889  47.2467339  30.3112803  78.5796997
  51.0537815  28.8538340  83.4134817  50.6652248  28.4292557  82.7587009
  50.3892513  29.1020489  83.9211844  50.8984743  28.8277061  83.3922685
  60.6961084  28.6113344  76.1882647  60.4397649  27.7993286  75.9980530
  61.5390398  28.6190911  75.9612835  60.7827110  28.4925342  76.1267464
  37.1321345  30.0255065  76.5686880  37.2181597  29.6486933  77.3500410
  37.7597143  29.6515511  76.0906838  37.2377896  29.9140547  76.6132357
  52.1576753  33.0836944  71.6111624  52.9717392  33.3751837  71.4994396
  52.0935895  32.4296806  71.0369917  52.2679492  33.0302139  71.5100462
  48.0284662  36.5558462  76.7383936  48.6658608  36.3170209  77.2835730
  48.4539733  36.7595620  76.0037097  48.1860828  36.5509472  76.7101094
  42.7197304  38.7946798  80.6218240  42.7601449  39.0661649  79.7938020
  43.2791828  39.3188706  81.0376028  42.8080650  38.9122553  80.5610128
  48.6687477  31.7760751  71.0758826  49.0532629  31.5568458  71.8275371
  48.4199097  32.6023697  71.2059902  48.6889549  31.8658898  71.2059902
  50.4106134  37.0330884  78.4177723  50.4845142  36.8706056  79.2719573
  51.2275640  37.2221074  78.1738204  50.5422492  37.0367627  78.5075748
  44.1711890  37.3788747  75.4472166  43.3450008  37.6250484  75.3206445
  44.2323881  37.3000828  76.3134224  44.0586057  37.4033696  75.5561111
  46.3887914  23.4457688  76.4067606  45.5210339  23.5180287  76.4725216
  46.6763118  24.2479767  76.5955581  46.3027662  23.5751835  76.4442373
  48.9510719  39.9965627  73.1491196  49.2409018  39.6054609  72.4250423
  49.6814200  40.1782332  73.5896471  49.1017603  39.9659441  73.1074003
  49.5405464  34.7983373  84.2344327  49.0417158  35.5099141  84.3129215
  50.3505689  35.1184040  84.1962489  49.5861571  34.9510222  84.2400895
  46.8916635  41.9733010  76.2151346  46.6716930  41.6830364  77.0078013
  46.6711157  41.3147965  75.6869258  46.8264229  41.8332718  76.2540254
  45.8033582  34.0606326  78.4807047  45.5146831  33.4343797  79.0152775
  46.6716930  34.0026614  78.5471728  45.8893834  33.9593870  78.5698002
  56.5911480  29.2041110  78.7989029  56.2476246  28.4831445  79.1496279
  56.6904522  28.9954961  77.9567388  56.5553523  29.0665313  78.7260709
  49.0584591  43.3462400  74.9982038  49.7108649  42.8138842  75.2273064
  48.3610199  42.9931052  75.3849912  49.0515308  43.2151923  75.0894206
  46.0065855  35.7001577  74.4049412  46.7611823  36.0814616  74.6184875
  45.4136468  36.1512721  74.8596109  46.0302569  35.8230405  74.5032291
  57.0524509  35.6666814  74.3413017  57.6182542  36.3260024  74.2571560
  56.4052412  36.0116512  74.8129420  57.0403265  35.8148755  74.3985774
  47.3264082  36.8710139  79.7789528  46.8044835  37.0110430  80.4641393
  47.7138102  36.1120803  79.9691645  47.3067783  36.7795662  79.9090604
  44.3155266  26.9215947  73.8484483  44.0280062  26.5517218  73.1116430
  45.0025734  27.3910803  73.5868187  44.3744163  26.9362917  73.6999558
  53.5231087  38.6105598  73.7650097  53.2817763  37.8773458  73.3577162
  53.7032420  39.1592455  73.1116430  53.5138711  38.5827989  73.6080320
  48.7530408  33.9014158  75.1771019  48.5573190  34.5088892  74.5831322
  48.9764753  33.2082102  74.6962693  48.7565049  33.8891683  75.0187100
  47.1508938  30.7868896  75.2951887  47.8731590  30.9510054  74.8355693
  46.6716930  31.5078560  75.1891227  47.1872668  30.9167125  75.2117501
  55.1102445  27.1232694  80.6748572  54.2713546  27.1493973  80.4386835
  55.1806812  27.7703430  81.2553919  54.9970839  27.2228820  80.7257689
  44.8016554  33.1926968  84.4006027  45.3137651  33.4711221  83.7514787
  44.5152897  33.9316262  84.7668840  44.8351417  33.3429322  84.3595905
  53.5571723  24.0218071  75.4076188  54.2598076  23.8225820  74.9296146
  53.2915912  23.2494014  75.7145032  53.6218356  23.8781037  75.3821630
  58.9859969  32.3300681  77.9609814  58.8993944  32.4856107  78.8144593
  58.5310449  32.9738757  77.5869219  58.9063226  32.4476436  78.0316921
  41.8883461  27.6997160  74.6969764  41.9899597  28.5023321  75.0250739
  42.6839347  27.4984496  74.3992844  42.0211366  27.7883059  74.7005119
  52.8585785  29.6511428  76.5835373  52.6120499  29.5707179  77.4172162
  53.1870908  28.8664896  76.3897901  52.8707029  29.5237694  76.6782897
  56.7533834  36.3594788  80.3722155  56.6148193  37.0575833  80.8770897
  55.9733832  36.2043444  80.0158336  56.6177061  36.4394954  80.3948429
  48.8182812  32.3868147  85.9958357  48.9626188  32.9669355  85.3601467
  49.1658461  32.7644443  86.7008211  48.8910274  32.5288851  86.0057352
  50.9902730  31.5858315  83.7783488  50.2426044  31.7789330  83.3731766
  51.1444255  30.7603535  83.5407609  50.9025157  31.4923427  83.6828894
  47.8910567  40.5770919  82.8619383  48.0400131  40.0173834  82.2092788
  48.6710569  40.6562920  83.2451902  48.0284661  40.5056484  82.8216333
  58.2487207  35.7173041  71.1338654  57.8694015  34.9310179  71.1267943
  57.5853452  36.2659898  70.9910298  58.0945682  35.6817865  71.1119451
  51.0734115  39.2686560  74.9727480  51.8384006  38.9996204  74.6510144
  50.9712205  38.7836571  75.6897543  51.1715610  39.1576125  75.0307308
  49.1086885  27.4710970  81.5120716  48.3182959  27.2902430  81.8338052
  49.5047507  26.6937922  81.4951010  49.0503761  27.3298431  81.5573264
  53.5952775  36.2998744  66.9527430  54.3625761  36.3598869  66.5433281
  53.1484084  35.7279186  66.4683748  53.6426203  36.2235320  66.8205140
  54.4930571  35.1053400  79.2380162  53.8175573  34.8738632  79.7393549
  54.5022947  34.4974583  78.6122267  54.3949076  34.9812325  79.2196314
  51.6224715  29.9471229  85.9944215  51.5583856  30.8081185  85.8664352
  51.7621903  29.6303222  85.1939766  51.6340185  30.0271396  85.8572428
  56.4947306  37.9618532  71.4690340  56.5767143  38.7685519  71.1451791
  56.9797048  37.9814492  72.1931113  56.5784463  38.0839195  71.5277238
  50.3043809  32.6403368  80.1360418  49.8806058  32.8407867  79.3999436
  50.1288664  31.7932216  80.2484718  50.2154689  32.5452150  80.0434108
  45.5926254  33.1355420  75.5688390  45.7490873  33.0702222  76.4244382
  45.9326847  33.9103972  75.3567070  45.6659489  33.2404618  75.6642984
  52.1305398  32.5113303  74.4381753  52.6720944  32.0083684  74.9020374
  52.4451957  32.4578498  73.6271239  52.2569795  32.4292724  74.3865566
  50.2991848  37.9030655  71.7221781  50.3684668  37.0445193  71.8614782
  51.0780303  38.1202536  71.3940806  50.4244698  37.8083519  71.6938939
  53.2794668  27.4049608  84.4904054  53.4936637  26.7660522  83.9367408
  52.6628567  27.8495432  84.0611916  53.2199997  27.3759751  84.3454485
  54.6899336  40.3268356  75.9358275  54.2979127  40.0235071  75.2181141
  54.8452408  41.1637446  75.7463229  54.6552926  40.4052193  75.8014772
  42.1660515  30.3190370  75.8849157  42.5459480  30.7374915  75.2209425
  41.5915880  30.9003826  76.1918001  42.1371840  30.4668229  75.8325898
  54.8539010  36.8918345  75.8764305  54.4953665  37.0632988  76.6528338
  54.3677721  37.3531551  75.3192304  54.7297707  36.9857316  75.9089574
  52.6709396  20.5149543  79.4791397  51.8002954  20.4888265  79.4324706
  52.9249738  20.3426736  78.6617242  52.5802957  20.4859687  79.3511533
  49.6427376  32.5717510  68.4164540  49.9319901  33.3482393  68.6908114
  49.7299175  32.0606242  69.1179039  49.6981632  32.6109429  68.5607038
  49.6958537  22.5255772  80.9364867  49.1797026  21.8335963  81.0616446
  49.1352466  23.1926549  80.8827466  49.5365050  22.5219030  80.9470933
  57.7400750  29.6311387  81.3897422  57.3128358  29.5437735  80.6345521
  57.1026803  29.7389162  81.9752266  57.5830357  29.6344047  81.3642863
  45.8091317  31.8850775  80.5164652  44.9679323  31.7854649  80.7243546
  46.0181325  32.6546255  80.8678972  45.7156009  31.9842818  80.5991967
  43.2866884  29.5070312  78.3449402  42.8923582  29.5813324  77.5699512
  42.7307001  29.8928258  78.8957764  43.1469696  29.5752086  78.3117062
  54.9231831  22.4851606  78.0253281  55.1281424  22.4173914  78.8710279
  54.5958255  23.2910427  77.9574459  54.9047078  22.5937546  78.1412937
  49.6207982  29.8132174  79.7662249  49.3171119  29.2588162  80.3672657
  48.9187402  29.9924384  79.2790284  49.4724192  29.7576956  79.7831955
  48.6774079  27.1232694  74.3306951  48.9533813  26.4051606  73.9184519
  49.2772748  27.7217614  74.1228057  48.8067343  27.1053065  74.2387712
  47.6826333  37.0281895  84.4734347  47.5746688  37.0383957  85.3396405
  47.8922114  37.8536675  84.2839301  47.6976444  37.1522970  84.5738439
  58.1765518  23.0383370  77.5056047  57.5639832  23.5253772  77.8909779
  58.2729693  22.3626861  78.0493698  58.1003416  23.0101679  77.6434905
  52.1784599  24.7946211  72.6053546  52.6328346  24.9656772  73.3301391
  52.6524645  24.1814322  72.2051322  52.3152919  24.7297096  72.6527308
  45.7000125  34.2794537  81.9356285  45.1088058  34.9204035  81.9059300
  46.4621148  34.7032154  81.9087584  45.7248385  34.4370376  81.9271432
  55.4589641  39.7303849  79.3688309  55.2609330  40.2194663  78.6744521
  54.8377352  39.9345090  79.9472443  55.3377205  39.8320387  79.3511532
  49.5197619  31.4988746  73.7098553  50.2639664  31.8863022  73.9481503
  49.6658315  30.6546171  73.8739041  49.6508204  31.4319218  73.7692523
  51.4377195  23.2939005  78.7430415  50.5913240  23.4661812  78.6171765
  51.4348327  22.4888348  79.0796243  51.3124345  23.2000033  78.7741542
  52.5075495  27.0714219  79.6092473  52.0335449  26.5455981  80.1197784
  52.8793631  26.5243692  79.0407334  52.4925384  26.9130216  79.6007620
  58.7712226  32.1316595  81.0199253  58.5310449  31.2923010  81.0241680
  59.2504233  32.2116761  81.7440027  58.8064409  32.0197994  81.1274056
  54.4358995  27.9650774  72.6718227  53.9082013  28.0479517  71.9823935
  54.8954703  28.7068645  72.6682871  54.4260845  28.0871436  72.5692922
  60.7717413  28.9118052  78.9728512  60.5327183  28.8713886  78.1349297
  60.9351314  29.7589204  79.0994234  60.7607716  29.0310137  78.8681994
  46.2450311  27.8928175  81.6386437  45.6203381  27.9046567  81.0312389
  45.9095906  28.3688350  82.2877677  46.1035803  27.9646692  81.6443005
  46.4292060  26.2353293  67.6959122  46.0804864  26.8873018  68.1590671
  45.9488506  26.2210406  66.9682993  46.3062304  26.3296347  67.6570213
  42.9575987  35.9528635  83.0790201  42.4275911  35.2621074  83.1285176
  43.2301080  35.9438820  82.2502910  42.9200709  35.8495767  82.9637617
  53.9896077  36.5354337  71.8027884  54.7130276  37.0012450  71.6592457
  53.5496668  36.6027947  71.0525481  54.0311770  36.6138174  71.6712665
  53.1582232  33.3951879  83.0528573  52.5439225  32.8509930  83.3477208
  53.6749517  32.8816116  82.5734389  53.1437895  33.2388288  83.0252801
  52.3978530  34.4656149  80.7872871  51.9706138  33.8405868  80.3538307
  52.3903474  34.1831071  81.6131878  52.3337671  34.3308930  80.8452699
  50.7264239  25.3424904  81.0015405  50.7506726  24.8085016  80.3128185
  50.9775713  24.8342213  81.6640996  50.7674158  25.1885808  80.9980050
  38.2371829  32.6256399  80.4358549  38.1315278  32.5803243  79.5710633
  37.4872049  32.9710179  80.7172834  38.1107432  32.6697307  80.3495879
  47.0065561  24.0695722  80.3821150  47.0463933  24.5704929  81.0955857
  46.1815226  24.1606116  80.1127073  46.8905087  24.1577538  80.4471688
  48.4279925  30.5856232  82.6795049  47.5971855  30.7530050  82.4730297
  48.3731442  30.2092183  83.4643934  48.2969340  30.5545963  82.7643577
  46.8015969  28.8611824  73.2085166  46.9418930  29.3584288  73.9113808
  47.2998501  28.1598118  73.3499380  46.8957050  28.8313802  73.3336745
  46.8316191  29.7278935  70.5377743  47.4661271  30.3239360  70.4727205
  46.9141802  29.4282392  71.3523613  46.9372742  29.7719843  70.6480830
  48.4095174  25.6592910  70.5123185  48.7311015  25.1795992  69.8582447
  48.6722118  26.4692556  70.3213997  48.4961199  25.7082808  70.3878677
  53.8054329  25.0465104  82.8746664  54.2309400  24.5937630  82.2630191
  53.1911322  24.4925175  83.1511452  53.7782974  24.8979080  82.8251689
  43.3369179  31.9246775  73.8067289  43.8461408  32.5211283  74.1878595
  43.8103451  31.6572749  73.1243709  43.4812555  31.9732591  73.7621812
  54.2499927  40.5975042  71.9625945  53.5329237  40.4235904  71.4973182
  54.9006665  40.3627614  71.4301431  54.2401777  40.5370835  71.8155163
  52.2448552  21.5180204  76.2837241  51.6016870  21.3677850  76.8522380
  51.9047959  21.2722549  75.5186346  52.0993629  21.4592326  76.2540256
  56.8347898  29.4739631  75.7067250  56.1639088  30.0169333  75.5780315
  57.5287648  29.9434486  75.4648945  56.8376766  29.6237902  75.6522778
  50.8834632  41.6136343  80.9379008  50.6600286  40.8555172  81.3063034
  50.3944475  41.6434364  80.2159448  50.7778081  41.5058567  80.8855749
  56.9976026  25.9295514  78.6157623  57.3503636  25.5025237  79.2903422
  56.1390827  25.8446358  78.7458699  56.9225470  25.8540255  78.7352633
  45.6959711  28.5603034  76.6740470  44.9771700  28.9767166  76.9413333
  46.0672073  29.1257273  76.1232108  45.6451642  28.7052315  76.6323277
  54.9959291  29.1930883  82.5642465  54.9757219  29.0114178  83.4177244
  55.0438492  30.0642901  82.5402049  54.9993932  29.2947421  82.6865760
  49.5313089  41.8336801  78.3916093  49.1173488  41.1710931  78.0019934
  50.2160463  41.9814659  77.8711787  49.5711461  41.7577459  78.2572590
  52.8978383  40.9926886  79.1439709  52.4994666  41.1029156  78.3760530
  52.2829603  41.2008952  79.7266269  52.7477272  41.0400454  79.1171009
  51.4706285  27.6001034  72.0113849  50.8771124  27.9218030  71.4598416
  51.5081563  26.7542129  71.8034955  51.3880674  27.5225362  71.8996620
  54.3464102  27.5580538  75.4415599  54.1177795  27.5813240  74.5993957
  54.6062178  26.7338005  75.5610610  54.3510290  27.4396618  75.3340797
  47.4008864  26.0957085  76.7369795  47.8766230  26.4574164  76.1019976
  46.8997464  26.7513552  77.0169938  47.3974223  26.2451273  76.6846536
  60.6320226  35.5678853  72.5282800  61.0153831  36.3170209  72.7580897
  59.8364339  35.8144672  72.2694789  60.5714008  35.7148546  72.5240373
  49.4435517  28.2398284  70.1043179  49.8234482  28.2577914  69.3194294
  48.7028113  28.6852273  69.9834026  49.3904355  28.3080059  69.9706747
  57.0720808  26.5480476  75.6918758  57.0715034  26.3929132  76.5503034
  56.8676988  27.3943463  75.6360143  57.0420586  26.6501096  75.8106697
  39.1338079  29.9720260  80.1077574  38.9559840  29.5196869  80.8332490
  38.8457101  30.7746421  80.2916052  39.0651032  30.0242818  80.2421077
  54.7961660  31.2277977  79.3454964  55.2915325  30.5100972  79.3058985
  53.9861436  30.9248775  79.2309451  54.7505553  31.0775624  79.3228690
  50.2420271  35.0775791  71.4951969  49.4331594  34.7542464  71.4485278
  50.7495180  34.3709013  71.4280218  50.1969938  34.9257107  71.4782263
  40.8710549  32.5047984  77.2199333  40.0056068  32.4933674  77.1082104
  40.9709365  32.3178207  78.0670472  40.7584716  32.4754045  77.3288278
  56.8613479  33.9781665  82.0332093  57.2868550  33.4556087  81.4802518
  56.4970399  34.5762502  81.5120716  56.8700081  33.9891892  81.8741103
  46.4967559  42.2745882  80.7929439  46.8114117  43.0882271  80.8007220
  46.9060972  41.8896101  81.4611598  46.6035657  42.3374585  80.8933530
  53.4492078  37.6915929  78.3633251  53.9203256  38.4056192  78.5323236
  53.7852257  37.0914679  78.8993120  53.5687193  37.7087393  78.4665627
  49.4354688  24.4659813  72.7870810  50.2570382  24.6358125  72.5452505
  48.9724339  24.6207074  72.0637108  49.4885850  24.5141546  72.6442455
  43.8380579  36.2218991  80.4408047  44.4425436  36.1814825  79.8121868
  43.6307891  37.0690143  80.4712103  43.8969476  36.3406993  80.3524164
  53.6524351  38.4884936  81.6570285  54.4722725  38.3447902  81.9186580
  53.3718428  39.1131135  82.1986722  53.7321094  38.5595288  81.7758224
  39.0731861  35.2053608  80.3106970  38.9756139  34.3949880  80.6197027
  39.8560731  35.1845402  79.9253238  39.1747997  35.0820699  80.2993833
  61.8786609  44.7112108  74.2635200  62.5766774  44.8900235  74.7556663
  62.1938942  44.1882447  73.6405589  62.0281946  44.6605880  74.2437210
  60.0513473  40.0804504  78.3456474  59.7216803  40.5315648  77.6760173
  59.3758475  40.0020668  78.8929481  59.9023909  40.1355640  78.3279698
  67.2589881  36.0690027  76.5906085  66.9443322  36.7593506  77.0226507
  66.7416822  36.0134809  75.8891586  67.1354351  36.1624916  76.5503034
  58.4901922  49.9657745  71.5050964  57.9059137  50.4707776  71.9116828
  58.0872017  49.7400132  70.7647556  58.3441226  50.0065993  71.4555989
  62.9479137  46.2123397  69.9819884  63.1875140  46.4201381  69.1695227
  63.2694978  45.4080906  70.0908829  63.0316295  46.1237498  69.8780437
  58.2569427  38.1416793  73.8279422  59.0115395  38.5095110  73.5896472
  58.0796962  38.5156347  74.5958602  58.3423905  38.2514981  73.9064311
  56.6126492  40.5487112  70.5257535  56.4302065  40.7658993  69.6998528
  57.4752105  40.6626124  70.5816150  56.7131081  40.5977010  70.4112022
  62.2926211  37.5513522  73.5606559  63.0212371  37.3729477  73.1144715
  62.3821104  38.3931602  73.7713737  62.4132873  37.6497401  73.5260077
  56.1588519  43.8261284  69.0380008  55.4446696  43.5399464  69.4502441
  56.6432487  44.1657910  69.6786396  56.1247882  43.8342934  69.1935643
  63.3335837  52.3291238  69.4141816  63.7486985  51.9976262  68.7226312
  62.5027766  52.0960141  69.2861953  63.2723845  52.2462494  69.2932664
  66.0269227  48.5801798  68.6003018  65.9449389  48.6503985  69.4658005
  66.6648947  49.1431542  68.4086759  66.1089064  48.6740769  68.6992967
  48.1053929  45.5440373  76.5686880  48.1914181  45.1672241  77.3500410
  48.7329726  45.1700819  76.0906838  48.2110480  45.4325855  76.6132357
  63.1309337  48.6022252  71.6111624  63.9449976  48.8937145  71.4994396
  63.0668478  47.9482114  71.0369917  63.2412076  48.5487447  71.5100462
  59.6420060  47.2946059  71.0758826  60.0265213  47.0753766  71.8275371
  59.3931680  48.1209005  71.2059902  59.6622133  47.3844205  71.2059902
  57.3620498  38.9642996  76.4067606  56.4942923  39.0365595  76.4725216
  57.6495702  39.7665075  76.5955581  57.2760246  39.0937143  76.4442373
  55.2887850  42.4401255  73.8484483  55.0012645  42.0702526  73.1116430
  55.9758318  42.9096111  73.5868187  55.3476747  42.4548225  73.6999558
  58.1241521  46.3054203  75.2951887  58.8464173  46.4695362  74.8355693
  57.6449514  47.0263868  75.1891227  58.1605252  46.4352433  75.2117501
  64.5304307  39.5403379  75.4076188  65.2330660  39.3411128  74.9296146
  64.2648496  38.7679322  75.7145032  64.5950939  39.3966345  75.3821630
  52.8616044  43.2182468  74.6969764  52.9632181  44.0208629  75.0250739
  53.6571931  43.0169804  74.3992844  52.9943950  43.3068366  74.7005119
  64.5685359  51.8184052  66.9527430  65.3358344  51.8784177  66.5433281
  64.1216668  51.2464493  66.4683748  64.6158786  51.7420628  66.8205140
  53.1393099  45.8375678  75.8849157  53.5192064  46.2560223  75.2209425
  52.5648464  46.4189134  76.1918001  53.1104424  45.9853537  75.8325898
  63.6441980  36.0334851  79.4791397  62.7735538  36.0073572  79.4324706
  63.8982321  35.8612044  78.6617242  63.5535540  36.0044995  79.3511533
  60.6159959  48.0902818  68.4164540  60.9052484  48.8667701  68.6908114
  60.7031758  47.5791550  69.1179039  60.6714216  48.1294737  68.5607038
  59.6506662  42.6418002  74.3306951  59.9266397  41.9236914  73.9184519
  60.2505332  43.2402922  74.1228057  59.7799927  42.6238373  74.2387712
  63.1517183  40.3131519  72.6053546  63.6060929  40.4842080  73.3301391
  63.6257229  39.6999630  72.2051322  63.2885503  40.2482404  72.6527308
  60.4930203  47.0174054  73.7098553  61.2372248  47.4048330  73.9481503
  60.6390899  46.1731479  73.8739041  60.6240788  46.9504526  73.7692523
  62.4109778  38.8124312  78.7430415  61.5645823  38.9847120  78.6171765
  62.4080911  38.0073656  79.0796243  62.2856928  38.7185341  78.7741542
  65.4091578  43.4836081  72.6718227  64.8814597  43.5664825  71.9823935
  65.8687287  44.2253953  72.6682871  65.3993429  43.6056744  72.5692922
  57.4024644  41.7538601  67.6959122  57.0537448  42.4058326  68.1590671
  56.9221089  41.7395714  66.9682993  57.2794887  41.8481655  67.6570213
  57.7748552  44.3797131  73.2085166  57.9151513  44.8769596  73.9113808
  58.2731085  43.6783426  73.3499380  57.8689633  44.3499110  73.3336745
  57.8048775  45.2464242  70.5377743  58.4393854  45.8424668  70.4727205
  57.8874385  44.9467700  71.3523613  57.9105326  45.2905151  70.6480830
  59.3827758  41.1778218  70.5123185  59.7043599  40.6981300  69.8582447
  59.6454701  41.9877864  70.3213997  59.4693783  41.2268116  70.3878677
  54.3101763  47.4432083  73.8067289  54.8193992  48.0396591  74.1878595
  54.7836035  47.1758057  73.1243709  54.4545138  47.4917899  73.7621812
  63.2181135  37.0365512  76.2837241  62.5749453  36.8863158  76.8522380
  62.8780542  36.7907857  75.5186346  63.0726213  36.9777634  76.2540256
  56.6692294  44.0788342  76.6740470  55.9504283  44.4952474  76.9413333
  57.0404657  44.6442581  76.1232108  56.6184226  44.2237623  76.6323277
  62.4438869  43.1186342  72.0113849  61.8503708  43.4403338  71.4598416
  62.4814146  42.2727437  71.8034955  62.3613258  43.0410670  71.8996620
  58.3741448  41.6142392  76.7369795  58.8498814  41.9759472  76.1019976
  57.8730047  42.2698860  77.0169938  58.3706807  41.7636581  76.6846536
  60.4168101  43.7583592  70.1043179  60.7967066  43.7763221  69.3194294
  59.6760697  44.2037581  69.9834026  60.3636939  43.8265367  69.9706747
  61.2152855  50.5961099  71.4951969  60.4064178  50.2727772  71.4485278
  61.7227764  49.8894321  71.4280218  61.1702522  50.4442415  71.4782263
  60.4087272  39.9845120  72.7870810  61.2302966  40.1543433  72.5452505
  59.9456922  40.1392381  72.0637108  60.4618434  40.0326853  72.6442455
  35.4564483   0.6695672  62.0743370  34.7047382   0.2911210  61.8459415
  35.9050494   0.7014105  61.3262180  35.4114149   0.6181279  61.9300872
  40.9089442   1.0921041  57.5028917  40.5740811   1.7697963  57.0673139
  41.4216313   0.7026353  56.9145788  40.9355024   1.1345620  57.3515708
  40.4493734   3.0435310  63.4440028  40.8333113   3.6122209  62.9044804
  40.3852875   2.3184820  62.9645844  40.4967161   3.0210773  63.2933891
  36.8749978   5.5991653  65.7420998  37.5187434   6.0404817  66.1317157
  37.2006234   4.7945079  65.6551257  37.0181807   5.5456848  65.7866475
  37.5770558  -1.3896372  61.1140860  37.8986399  -0.8491165  60.5102168
  38.2242655  -1.9599601  61.2463150  37.7196613  -1.3937197  61.0447895
  37.6728960   1.4158450  60.0831243  37.9627258   1.0247432  59.3590469
  38.4032440   1.5975155  60.5236518  37.8235844   1.3852264  60.0414050
  35.6134875   3.3925833  63.1491393  35.3935171   3.1023188  63.9418060
  35.3929397   2.7340788  62.6209305  35.5482469   3.2525541  63.1880301
  37.7802831   4.7655223  61.9322085  38.4326889   4.2331665  62.1613111
  37.0828440   4.4123875  62.3189959  37.7733549   4.6344746  62.0234253
  42.2449327   0.0298421  60.6990143  42.0036003  -0.7033718  60.2917208
  42.4250660   0.5785278  60.0456477  42.2356951   0.0020812  60.5420366
  39.7952355   0.6879384  61.9067527  40.5602246   0.4189027  61.5850191
  39.6930445   0.2029394  62.6237590  39.8933851   0.5768948  61.9647355
  39.0210088  -0.6776522  58.6561828  39.0902909  -1.5361983  58.7954829
  39.7998544  -0.4604641  58.3280853  39.1462939  -0.7723658  58.6278986
  43.4117576   1.7461179  62.8698322  43.0197368   1.4427894  62.1521188
  43.5670648   2.5830269  62.6803275  43.3771166   1.8245016  62.7354819
  44.1807881   1.1496672  66.3028356  43.9827570   1.6387487  65.6084567
  43.5595592   1.3537914  66.8812489  44.0595446   1.2513210  66.2851579
  42.9718167   2.0167865  58.8965992  42.2547477   1.8428727  58.4313229
  43.6224905   1.7820438  58.3641478  42.9620018   1.9563658  58.7495209
  38.2531329   3.2529624  65.3256140  37.8391728   2.5903754  64.9359981
  38.9378704   3.4007483  64.8051834  38.2929701   3.1770282  65.1912637
  41.6196623   2.4119709  66.0779756  41.2212907   2.5221980  65.3100576
  41.0047843   2.6201775  66.6606316  41.4695513   2.4593277  66.0511055
  58.8456242   7.5642611  61.5553208  58.8150246   8.4187248  61.7271477
  59.4437590   7.2637903  62.1139351  58.9293399   7.6459107  61.6628010
  52.0455926   6.6518262  66.3106138  51.1893822   6.8126760  66.3615255
  52.0923580   5.7810326  66.3311199  51.9255038   6.5469064  66.3212204
  46.4297066  16.1880980  62.0743370  45.6779966  15.8096518  61.8459415
  46.8783078  16.2199413  61.3262180  46.3846733  16.1366587  61.9300872
  51.8822026  16.6106349  57.5028917  51.5473394  17.2883271  57.0673139
  52.3948896  16.2211661  56.9145788  51.9087607  16.6530928  57.3515708
  51.4226317  18.5620618  63.4440028  51.8065697  19.1307517  62.9044804
  51.3585459  17.8370128  62.9645844  51.4699745  18.5396081  63.2933891
  54.8907747   8.7110306  68.9537790  55.4363707   9.3895392  69.0131759
  54.8324624   8.5697767  68.0939371  54.9623662   8.7902308  68.8349850
  48.0081822  16.1999372  64.3406142  48.1092185  15.3899726  64.6503270
  47.4123568  16.1056318  63.7105821  47.9354361  16.0664400  64.2932381
  56.6672816  10.1394913  59.8271518  56.5512342  10.8902599  60.2563656
  57.4628703   9.8818866  60.0767605  56.7677406  10.2129760  59.9275609
  47.8482562  21.1176961  65.7420998  48.4920017  21.5590125  66.1317157
  48.1738817  20.3130387  65.6551257  47.9914391  21.0642156  65.7866475
  41.2046867  12.2219658  63.9658476  40.9697051  11.3887311  63.8590745
  41.3432507  12.5024324  63.1519677  41.1902529  12.1403162  63.8300831
  43.5036954   4.3905389  66.8642784  42.8841986   3.7998036  66.6952798
  43.4020818   4.9816824  66.2307107  43.3974630   4.3909472  66.7447773
  48.5503142  14.1288936  61.1140860  48.8718983  14.6694143  60.5102168
  49.1975238  13.5585707  61.2463150  48.6929197  14.1248111  61.0447895
  50.6004850   6.1304931  61.1975247  51.2985014   6.3093058  61.6896710
  50.9157182   5.6075270  60.5745636  50.7500187   6.0798703  61.1777257
  43.2306087   7.9357671  69.1086353  43.1064784   8.5220116  69.7436171
  43.8824372   7.4417867  69.4098627  43.3079736   7.9496475  69.2472282
  50.7892785  12.5175376  61.1855038  51.2286421  11.9092476  61.6309811
  50.6397448  12.1382749  60.4140503  50.8314251  12.3713847  61.1374205
  48.2564428  11.1119388  68.3873864  48.9013431  10.6191831  68.0684812
  48.4966205  11.2544174  69.2139942  48.3875013  11.0596830  68.4623397
  50.7950519  13.9574294  68.0380756  51.0773762  13.1625699  67.8167512
  51.5236680  14.4354881  68.0585817  50.9440083  13.9108891  68.0083771
  48.7731713   1.4997328  65.2796521  48.4435043   1.9508471  64.6100220
  48.0976715   1.4213491  65.8269528  48.6242150   1.5548463  65.2619745
  54.3902122  10.8702557  58.1385807  54.3053417  11.7263524  58.2835376
  54.8786505  10.5946881  58.8067966  54.4491019  10.9559879  58.2587889
  55.3220555   7.4887351  59.6383542  54.7932026   7.7046985  60.2980849
  55.8445575   8.1823490  59.5584512  55.3209008   7.6230488  59.7239142
  60.7768608  13.0633656  65.0116587  59.9466311  13.2744300  65.1750003
  60.7277860  12.2370710  64.7358871  60.6475343  12.9723262  64.9953952
  47.2120163  11.3850568  58.4391010  46.6277378  11.8900600  58.8456874
  46.8090258  11.1592955  57.6987602  47.0659466  11.4258816  58.3896036
  42.7664191  17.1005329  65.2414682  42.2831769  17.8255819  65.2174266
  43.5787510  17.3981459  65.3524840  42.8154939  17.2507683  65.2541961
  48.8378345  15.8937510  67.8464496  48.3205287  15.5344925  67.2425805
  49.5352737  15.3699684  67.8570563  48.8643926  15.7635198  67.7594755
  52.4941937  16.3432324  73.8080669  52.5825283  16.1558464  74.6558880
  52.9231650  15.6969754  73.4085516  52.5704040  16.2195332  73.8752421
  50.0612397  15.6263484  72.7898332  49.4983232  15.2136094  73.3137993
  50.8233421  15.5516390  73.2091475  50.0906846  15.5540885  72.9291332
  51.6697377   7.6316220  56.9159931  51.9093381   7.8394204  56.1035274
  51.9913218   6.8273729  57.0248876  51.7534535   7.5430321  56.8120484
  45.6208389  17.6161505  65.3934962  46.3228968  17.1013494  65.4507718
  45.5405872  17.9435657  66.1981837  45.7132149  17.5875731  65.5207754
  45.3344732   1.9679935  57.4597582  45.1520305   2.1851816  56.6338575
  46.1970345   2.0818948  57.5156196  45.4349321   2.0169833  57.3452069
  44.9459164  13.8067857  64.9020570  45.7848063  14.0390790  64.9494331
  44.9770933  12.9372169  64.8327605  45.0740882  13.7124804  64.8985215
  45.5711867  14.2268732  69.2033875  46.1110092  14.0839863  69.8737248
  44.8881813  14.6265483  69.5717902  45.5504021  14.2648403  69.3568297
  54.9952752   9.9059733  64.3978900  55.7510267  10.3391247  64.4367808
  55.1015076   9.2564503  64.9713536  55.1222922   9.8737217  64.4876925
  58.0332923  13.7333010  65.1481303  57.5968155  13.7369753  65.9040274
  57.6995838  14.4138509  64.7160880  57.9195543  13.8345466  65.1962135
  52.6061997  15.7741343  76.4724453  53.3902413  15.8872191  76.8380195
  52.4058591  14.9482480  76.6683139  52.6928022  15.6688063  76.5558839
  40.9749012  10.4469023  69.3568297  40.7087427   9.6308140  69.5159287
  40.9887576  10.4922179  68.4863812  40.9373734  10.3325928  69.2521779
  44.8806759   5.2454108  55.9720055  44.1664936   4.9592287  56.3842488
  45.3650728   5.5850733  56.6126442  44.8466122   5.2535757  56.1275690
  52.7632390  17.6851445  70.1190909  51.9647636  17.4450945  70.3764777
  53.2118401  17.7365838  70.8657956  52.7107001  17.6573836  70.2675833
  61.1677269  10.4513930  64.0400940  61.8293703   9.8904599  63.9396848
  60.5268681   9.9565961  64.3653631  61.1706137  10.2950339  64.0733280
  52.0554077  13.7484062  56.3481863  52.4705225  13.4169085  55.6566359
  51.2246007  13.5152964  56.2202000  51.9942086  13.6655318  56.2272711
  41.3842426  11.2327803  66.6380041  41.2017999  11.2074689  65.7852333
  42.1192095  11.7026740  66.6768950  41.4656490  11.2989165  66.5177960
  57.4542100  11.4679313  63.7812929  57.6897689  11.6124511  62.9539779
  57.6031664  12.2321721  64.1744442  57.5107903  11.6018367  63.7176533
  59.2832557  10.3080978  61.6182533  59.6140774  10.8408619  61.0122627
  59.8565645  10.3619866  62.2744484  59.4166236  10.3950547  61.6260314
  54.4964446   8.1545881  62.3006113  54.5911300   8.8935175  62.7545738
  53.8723289   7.7263357  62.7340677  54.4173476   8.2007202  62.4314260
  52.7516920  11.3332094  72.9496394  53.3255781  10.6959338  73.1044957
  52.6731723  11.3336176  72.0806051  52.8250154  11.2397205  72.8442804
  41.3513336   8.1121303  66.7879108  41.9286839   7.9757754  67.4271353
  40.6527398   7.6557087  67.0424692  41.3334357   8.0243569  66.9201397
  48.1080638   9.7655359  65.0017591  47.8499882   8.9327094  64.9748890
  48.1629121   9.9912972  64.1610091  48.0780416   9.6753130  64.8737728
  47.0815350   7.3193121  65.4882486  46.5064942   7.4785290  66.1246447
  46.7051027   6.6828531  65.0250936  46.9418163   7.2490934  65.5137044
  50.7488639   5.7916471  70.3474864  50.3603072   5.3670688  69.6927055
  50.0843337   6.0398620  70.8551891  50.5935567   5.7655192  70.3262732
  36.8272169   6.9633196  63.5026926  36.9132421   6.5865065  64.2840456
  37.4547967   6.5893642  63.0246885  36.9328720   6.8518678  63.5472404
  51.8527577  10.0215075  58.5451671  52.6668216  10.3129968  58.4334442
  51.7886718   9.3674938  57.9709964  51.9630316   9.9680270  58.4440508
  47.7235485  13.4936593  63.6723983  48.3609432  13.2548340  64.2175777
  48.1490557  13.6973752  62.9377144  47.8811652  13.4887603  63.6441141
  42.4148128  15.7324929  67.5558287  42.4552273  16.0039780  66.7278067
  42.9742652  16.2566837  67.9716075  42.5031474  15.8500684  67.4950175
  48.3638301   8.7138883  58.0098873  48.7483453   8.4946589  58.7615418
  48.1149921   9.5401828  58.1399949  48.3840373   8.8037029  58.1399949
  59.0973488  12.4885520  69.0209541  58.7919305  13.2213577  69.3822857
  58.3779704  12.0823450  68.7402327  58.9460830  12.5367253  69.0322678
  50.1056957  13.9709015  65.3517769  50.1795966  13.8084187  66.2059619
  50.9226464  14.1599205  65.1078251  50.2373316  13.9745758  65.4415795
  43.8662714  14.3166878  62.3812213  43.0400832  14.5628615  62.2546492
  43.9274705  14.2378959  63.2474271  43.7536881  14.3411827  62.4901157
  46.0838738   0.3835819  63.3407653  45.2161163   0.4558419  63.4065262
  46.3713942   1.1857898  63.5295628  45.9978486   0.5129966  63.3782420
  48.6461543  16.9343758  60.0831243  48.9359842  16.5432740  59.3590469
  49.3765024  17.1160463  60.5236518  48.7968427  16.9037572  60.0414050
  49.2356288  11.7361504  71.1684373  48.7367982  12.4477272  71.2469262
  50.0456513  12.0562171  71.1302536  49.2812395  11.8888353  71.1740942
  46.5867459  18.9111141  63.1491393  46.3667754  18.6208496  63.9418060
  46.3661981  18.2526096  62.6209305  46.5215053  18.7710849  63.1880301
  45.4984406  10.9984457  65.4147094  45.2097655  10.3721929  65.9492822
  46.3667754  10.9404745  65.4811775  45.5844658  10.8972002  65.5038049
  56.2862304   6.1419241  65.7329076  55.9427070   5.4209576  66.0836326
  56.3855346   5.9333092  64.8907434  56.2504347   6.0043444  65.6600756
  48.7535414  20.2840531  61.9322085  49.4059472  19.7516973  62.1613111
  48.0561023  19.9309183  62.3189959  48.7466132  20.1530054  62.0234253
  45.7016679  12.6379708  61.3389459  46.4562647  13.0192747  61.5524922
  45.1087292  13.0890852  61.7936156  45.7253393  12.7608536  61.4372338
  56.7475333  12.6044945  61.2753064  57.3133365  13.2638155  61.1911607
  56.1003236  12.9494643  61.7469466  56.7354089  12.7526886  61.3325821
  47.0214906  13.8088270  66.7129575  46.4995659  13.9488561  67.3981439
  47.4088926  13.0498934  66.9031692  47.0018607  13.7173794  66.8430651
  44.0106090   3.8594078  60.7824529  43.7230886   3.4895349  60.0456477
  44.6976558   4.3288934  60.5208234  44.0694987   3.8741048  60.6339605
  53.2181911  15.5483729  60.6990143  52.9768587  14.8151590  60.2917208
  53.3983244  16.0970586  60.0456477  53.2089535  15.5206120  60.5420366
  48.4481232  10.8392289  62.1111066  48.2524014  11.4467023  61.5171369
  48.6715577  10.1460233  61.6302740  48.4515873  10.8269814  61.9527147
  46.8459762   7.7247027  62.2291934  47.5682413   7.8888185  61.7695740
  46.3667754   8.4456692  62.1231274  46.8823492   7.8545256  62.1457548
  54.8053269   4.0610825  67.6088619  53.9664370   4.0872104  67.3726882
  54.8757636   4.7081561  68.1893966  54.6921663   4.1606951  67.6597736
  44.4967378  10.1305099  71.3346074  45.0088475  10.4089352  70.6854834
  44.2103721  10.8694393  71.7008887  44.5302241  10.2807453  71.2935952
  58.6810793   9.2678812  64.8949861  58.5944767   9.4234238  65.7484640
  58.2261273   9.9116888  64.5209266  58.6014050   9.3854567  64.9656968
  41.5834285   4.6375291  61.6309810  41.6850421   5.4401452  61.9590786
  42.3790171   4.4362627  61.3332891  41.7162190   4.7261190  61.6345166
  52.5536609   6.5889559  63.5175420  52.3071323   6.5085310  64.3512209
  52.8821732   5.8043027  63.3237948  52.5657853   6.4615825  63.6122943
  56.4484658  13.2972919  67.3062202  56.3099017  13.9953964  67.8110944
  55.6684656  13.1421575  66.9498383  56.3127885  13.3773085  67.3288476
  48.5133636   9.3246278  72.9298403  48.6577012   9.9047486  72.2941513
  48.8609285   9.7022575  73.6348258  48.5861098   9.4666982  72.9397398
  50.6853554   8.5236446  70.7123535  49.9376868   8.7167461  70.3071813
  50.8395079   7.6981666  70.4747656  50.5975981   8.4301558  70.6168941
  47.5861391  17.5149050  69.7959430  47.7350955  16.9551966  69.1432835
  48.3661393  17.5941051  70.1791949  47.7235485  17.4434615  69.7556379
  57.9438031  12.6551172  58.0678701  57.5644839  11.8688310  58.0607990
  57.2804276  13.2038029  57.9250345  57.7896505  12.6195996  58.0459498
  50.1114692  17.6863693  71.0743921  50.0358363  17.0172503  71.6294709
  50.0404551  18.3881481  71.5884587  50.0895299  17.6908600  71.2320769
  50.7684939  16.2064692  61.9067527  51.5334830  15.9374335  61.5850191
  50.6663029  15.7214702  62.6237590  50.8666434  16.0954256  61.9647355
  48.8037709   4.4089101  68.4460763  48.0133783   4.2280561  68.7678099
  49.1998331   3.6316054  68.4291057  48.7454585   4.2676562  68.4913311
  53.2903599  13.2376875  53.8867476  54.0576584  13.2977000  53.4773328
  52.8434908  12.6657317  53.4023795  53.3377027  13.1613451  53.7545187
  54.1881395  12.0431531  66.1720209  53.5126397  11.8116763  66.6733596
  54.1973771  11.4352714  65.5462314  54.0899899  11.9190456  66.1536361
  51.3175539   6.8849360  72.9284262  51.2534680   7.7459317  72.8004398
  51.4572727   6.5681353  72.1279813  51.3291009   6.9649527  72.7912475
  56.1898129  14.8996663  58.4030387  56.2717967  15.7063650  58.0791837
  56.6747872  14.9192623  59.1271160  56.2735287  15.0217326  58.4617285
  49.9994633   9.5781499  67.0700465  49.5756882   9.7785998  66.3339483
  49.8239488   8.7310347  67.1824764  49.9105513   9.4830281  66.9774155
  49.5006326  21.0932012  69.5321922  49.9902257  20.3942802  69.3497586
  48.9290559  20.7955882  70.1197979  49.4890856  20.9458236  69.5922963
  45.2877078  10.0733551  62.5028437  45.4441697  10.0080354  63.3584429
  45.6277671  10.8482103  62.2907117  45.3610313  10.1782749  62.5983031
  51.8256222   9.4491434  61.3721800  52.3671768   8.9461816  61.8360421
  52.1402781   9.3956629  60.5611286  51.9520619   9.3670855  61.3205612
  49.9942672  14.8408786  58.6561828  50.0635492  13.9823324  58.7954829
  50.7731127  15.0580667  58.3280853  50.1195522  14.7461650  58.6278986
  52.9745492   4.3427739  71.4244101  53.1887461   3.7038653  70.8707455
  52.3579391   4.7873563  70.9951963  52.9150821   4.3137883  71.2794532
  54.3850160  17.2646487  62.8698322  53.9929951  16.9613202  62.1521188
  54.5403232  18.1015577  62.6803275  54.3503749  17.3430324  62.7354819
  41.8611339   7.2568501  62.8189204  42.2410304   7.6753046  62.1549472
  41.2866704   7.8381957  63.1258048  41.8322664   7.4046360  62.7665945
  54.5489834  13.8296476  62.8104352  54.1904489  14.0011119  63.5868385
  54.0628545  14.2909682  62.2532351  54.4248531  13.9235447  62.8429621
  49.3378200   9.5095642  55.3504587  49.6270725  10.2860524  55.6248161
  49.4249999   8.9984373  56.0519086  49.3932456   9.5487560  55.4947084
  55.7094574  14.7200372  73.7571553  56.3474294  14.2260568  73.4234009
  55.0668665  14.6477773  73.1723780  55.7088800  14.6359381  73.6213908
  57.4351574   6.5689518  68.3237469  57.0079182   6.4815867  67.5685568
  56.7977627   6.6767294  68.9092313  57.2781181   6.5722178  68.2982910
  55.7648830  15.4120180  70.3976910  56.5541209  15.0609245  70.5178991
  55.9392428  16.2256569  70.1353544  55.9069112  15.4806037  70.3764778
  45.5042141   8.8228906  67.4504699  44.6630147   8.7232780  67.6583593
  45.7132149   9.5924386  67.8019019  45.4106833   8.9220949  67.5332014
  42.9817708   6.4448443  65.2789449  42.5874405   6.5191455  64.5039559
  42.4257825   6.8306389  65.8297811  42.8420520   6.5130218  65.2457109
  49.3158806   6.7510305  66.7002296  49.0121943   6.1966294  67.3012704
  48.6138226   6.9302515  66.2130330  49.1675015   6.6955088  66.7172002
  48.3724903   4.0610825  61.2646998  48.6484637   3.3429738  60.8524566
  48.9723572   4.6595745  61.0568104  48.5018167   4.0431196  61.1727759
  47.3777157  13.9660026  71.4074394  47.2697512  13.9762088  72.2736452
  47.5872938  14.7914806  71.2179348  47.3927268  14.0901101  71.5078486
  45.3950949  11.2172668  68.8696332  44.8038882  11.8582167  68.8399347
  46.1571972  11.6410286  68.8427631  45.4199209  11.3748507  68.8611479
  55.1540465  16.6681980  66.3028356  54.9560154  17.1572794  65.6084567
  54.5328176  16.8723221  66.8812489  55.0328029  16.7698518  66.2851579
  49.2148443   8.4366877  60.6438600  49.9590488   8.8241153  60.8821550
  49.3609139   7.5924302  60.8079088  49.3459028   8.3697350  60.7032570
  52.2026319   4.0092350  66.5432520  51.7286273   3.4834112  67.0537831
  52.5744455   3.4621823  65.9747381  52.1876208   3.8508347  66.5347667
  58.4663050   9.0694726  67.9539300  58.2261273   8.2301141  67.9581727
  58.9455057   9.1494892  68.6780074  58.5015233   8.9576125  68.0614102
  54.1309819   4.9028905  59.6058273  53.6032837   4.9857649  58.9163982
  54.5905527   5.6446776  59.6022918  54.1211669   5.0249567  59.5032969
  60.4668237   5.8496183  65.9068559  60.2278007   5.8092017  65.0689344
  60.6302138   6.6967335  66.0334280  60.4558540   5.9688268  65.8022041
  45.9401135   4.8306306  68.5726484  45.3154205   4.8424698  67.9652436
  45.6046730   5.3066481  69.2217724  45.7986627   4.9024823  68.5783052
  46.1242884   3.1731424  54.6299169  45.7755688   3.8251150  55.0930718
  45.6439330   3.1588537  53.9023040  46.0013128   3.2674478  54.5910260
  42.6526811  12.8906766  70.0130248  42.1226735  12.1999205  70.0625223
  42.9251904  12.8816951  69.1842956  42.6151533  12.7873898  69.8977664
  53.6846901  13.4732468  58.7367930  54.4081100  13.9390581  58.5932504
  53.2447492  13.5406078  57.9865527  53.7262593  13.5516305  58.6052712
  52.8533056  10.3330011  69.9868619  52.2390049   9.7888061  70.2817255
  53.3700341   9.8194247  69.5074436  52.8388719  10.1766420  69.9592848
  52.0929353  11.4034281  67.7212918  51.6656962  10.7783999  67.2878353
  52.0854298  11.1209202  68.5471925  52.0288495  11.2687061  67.7792746
  37.9322653   9.5634530  67.3698596  37.8266102   9.5181374  66.5050680
  37.1822873   9.9088311  67.6512881  37.8058256   9.6075438  67.2835926
  46.7016385   1.0073853  67.3161196  46.7414757   1.5083060  68.0295904
  45.8766050   1.0984247  67.0467119  46.5855911   1.0955670  67.3811735
  48.1230749   7.5234363  69.6135095  47.2922678   7.6908181  69.4070344
  48.0682266   7.1470314  70.3983981  47.9920164   7.4924094  69.6983624
  46.4966793   5.7989955  60.1425213  46.6369754   6.2962419  60.8453854
  46.9949325   5.0976249  60.2839427  46.5907874   5.7691933  60.2676792
  46.5267015   6.6657066  57.4717790  47.1612094   7.2617491  57.4067252
  46.6092626   6.3660523  58.2863660  46.6323566   6.7097974  57.5820877
  48.1045998   2.5971041  57.4463232  48.4261839   2.1174124  56.7922494
  48.3672942   3.4070687  57.2554044  48.1912023   2.6460939  57.3218724
  51.3342971  13.6189915  70.9662048  50.8268062  14.1725762  71.4102679
  51.0369617  13.6798205  70.1480823  51.2147856  13.7096227  70.9110505
  43.0320003   8.8624906  60.7407336  43.5412232   9.4589414  61.1218641
  43.5054275   8.5950880  60.0583756  43.1763379   8.9110722  60.6961859
  53.9450751  17.5353173  58.8965992  53.2280061  17.3614035  58.4313229
  54.5957489  17.3005745  58.3641478  53.9352601  17.4748966  58.7495209
  56.5298722   6.4117762  62.6407297  55.8589912   6.9547464  62.5120362
  57.2238472   6.8812617  62.3988991  56.5327590   6.5616033  62.5862824
  50.5785456  18.5514474  67.8719055  50.3551110  17.7933303  68.2403081
  50.0895299  18.5812495  67.1499495  50.4728905  18.4436698  67.8195796
  45.3910535   5.4981165  63.6080516  44.6722524   5.9145298  63.8753380
  45.7622897   6.0635404  63.0572155  45.3402466   5.6430446  63.5663323
  54.6910115   6.1309014  69.4982512  54.6708043   5.9492309  70.3517291
  54.7389316   7.0021032  69.4742096  54.6944756   6.2325552  69.6205807
  52.6356445  12.7196206  75.4230989  52.5952300  12.0745883  74.8376145
  53.4479764  12.6632823  75.7356401  52.7499599  12.6155173  75.3827938
  49.2263913  18.7714932  65.3256140  48.8124311  18.1089062  64.9359981
  49.9111287  18.9192791  64.8051834  49.2662285  18.6955590  65.1912637
  52.5929207  17.9305017  66.0779756  52.1945490  18.0407287  65.3100576
  51.9780427  18.1387083  66.6606316  52.4428096  17.9778585  66.0511055
  51.1657109   4.5379165  58.9453896  50.5721948   4.8596161  58.3938463
  51.2032387   3.6920260  58.7375002  51.0831498   4.4603493  58.8336667
  54.0414926   4.4958669  62.3755646  53.8128619   4.5191371  61.5334004
  54.3013002   3.6716136  62.4950657  54.0461114   4.3774749  62.2680844
  47.0959688   3.0335216  63.6709842  47.5717054   3.3952296  63.0360023
  46.5948288   3.6891683  63.9509984  47.0925047   3.1829404  63.6186583
  60.3271050  12.5056984  59.4622847  60.7104655  13.2548340  59.6920944
  59.5315163  12.7522803  59.2034836  60.2664832  12.6526678  59.4580420
  49.1386341   5.1776416  57.0383226  49.5185306   5.1956045  56.2534340
  48.3978937   5.6230404  56.9174073  49.0855179   5.2458190  56.9046794
  38.8288903   6.9098391  67.0417621  38.6510664   6.4575000  67.7672537
  38.5407925   7.7124553  67.2256098  38.7601856   6.9620949  67.1761124
  54.4912484   8.1656109  66.2795011  54.9866149   7.4479104  66.2399032
  53.6812260   7.8626906  66.1649498  54.4456377   8.0153755  66.2568737
  49.9371095  12.0153922  58.4292016  49.1282418  11.6920595  58.3825325
  50.4446004  11.3087144  58.3620264  49.8920762  11.8635238  58.4122310
  40.5661373   9.4426115  64.1539380  39.7006892   9.4311805  64.0422151
  40.6660188   9.2556338  65.0010519  40.4535540   9.4132176  64.2628324
  56.5564303  10.9159796  68.9672140  56.9819374  10.3934218  68.4142565
  56.1921223  11.5140633  68.4460763  56.5650905  10.9270023  68.8081150
  46.1918382  19.2124014  67.7269486  46.5064941  20.0260402  67.7347267
  46.6011796  18.8274232  68.3951645  46.2986480  19.2752716  67.8273577
  53.1442902  14.6294060  65.2973297  53.6154080  15.3434323  65.4663283
  53.4803081  14.0292810  65.8333167  53.2638017  14.6465525  65.4005673
  53.7816848  14.4211994  72.0600990  53.2337794  13.7969878  71.7921055
  54.2429877  14.6106266  71.3445070  53.7684058  14.3571045  71.9151421
  43.5331403  13.1597122  67.3748094  44.1376260  13.1192956  66.7461915
  43.3258715  14.0068274  67.4052150  43.5920300  13.2785124  67.2864210
  53.3475175  15.4263067  68.5910331  54.1673549  15.2826033  68.8526627
  53.0669252  16.0509266  69.1326769  53.4271918  15.4973419  68.7098271
  38.7682685  12.1431740  67.2447017  38.6706963  11.3328011  67.5537074
  39.5511555  12.1223533  66.8593285  38.8698821  12.0198830  67.2333880
  69.8188825  23.0827919  61.5553208  69.7882829  23.9372556  61.7271477
  70.4170174  22.7823211  62.1139351  69.9025983  23.1644415  61.6628010
  63.0188510  22.1703570  66.3106138  62.1626405  22.3312068  66.3615255
  63.0656164  21.2995634  66.3311199  62.8987621  22.0654372  66.3212204
  57.4029650  31.7066288  62.0743370  56.6512549  31.3281826  61.8459415
  57.8515661  31.7384721  61.3262180  57.3579316  31.6551895  61.9300872
  62.8554610  32.1291657  57.5028917  62.5205978  32.8068579  57.0673139
  63.3681480  31.7396968  56.9145788  62.8820191  32.1716235  57.3515708
  62.3958901  34.0805926  63.4440028  62.7798280  34.6492825  62.9044804
  62.3318042  33.3555436  62.9645844  62.4432328  34.0581389  63.2933891
  65.8640331  24.2295614  68.9537790  66.4096291  24.9080700  69.0131759
  65.8057207  24.0883075  68.0939371  65.9356245  24.3087615  68.8349850
  58.9814406  31.7184680  64.3406142  59.0824769  30.9085034  64.6503270
  58.3856151  31.6241626  63.7105821  58.9086945  31.5849708  64.2932381
  67.6405400  25.6580221  59.8271518  67.5244926  26.4087907  60.2563656
  68.4361286  25.4004174  60.0767605  67.7409989  25.7315068  59.9275609
  58.8215145  36.6362269  65.7420998  59.4652601  37.0775433  66.1317157
  59.1471401  35.8315695  65.6551257  58.9646974  36.5827464  65.7866475
  52.1779450  27.7404966  63.9658476  51.9429635  26.9072619  63.8590745
  52.3165091  28.0209632  63.1519677  52.1635113  27.6588470  63.8300831
  54.4769538  19.9090697  66.8642784  53.8574569  19.3183344  66.6952798
  54.3753401  20.5002132  66.2307107  54.3707213  19.9094780  66.7447773
  59.5235725  29.6474244  61.1140860  59.8451566  30.1879451  60.5102168
  60.1707822  29.0771015  61.2463150  59.6661780  29.6433419  61.0447895
  61.5737433  21.6490239  61.1975247  62.2717598  21.8278366  61.6896710
  61.8889766  21.1260578  60.5745636  61.7232770  21.5984011  61.1777257
  54.2038671  23.4542979  69.1086353  54.0797367  24.0405424  69.7436171
  54.8556955  22.9603174  69.4098627  54.2812320  23.4681783  69.2472282
  61.7625369  28.0360684  61.1855038  62.2019004  27.4277784  61.6309811
  61.6130031  27.6568057  60.4140503  61.8046834  27.8899155  61.1374205
  59.2297012  26.6304696  68.3873864  59.8746014  26.1377139  68.0684812
  59.4698789  26.7729482  69.2139942  59.3607597  26.5782138  68.4623397
  61.7683103  29.4759602  68.0380756  62.0506346  28.6811007  67.8167512
  62.4969263  29.9540189  68.0585817  61.9172667  29.4294198  68.0083771
  59.7464297  17.0182636  65.2796521  59.4167627  17.4693779  64.6100220
  59.0709299  16.9398799  65.8269528  59.5974733  17.0733771  65.2619745
  65.3634705  26.3887865  58.1385807  65.2786000  27.2448832  58.2835376
  65.8519088  26.1132189  58.8067966  65.4223602  26.4745187  58.2587889
  66.9540705  13.0068158  63.5246132  66.6394146  13.6971637  63.9566554
  66.4367646  12.9512941  62.8231633  66.8305175  13.1003047  63.4843081
  66.2953138  23.0072659  59.6383542  65.7664610  23.2232293  60.2980849
  66.8178158  23.7008798  59.5584512  66.2941591  23.1415796  59.7239142
  71.7501191  28.5818964  65.0116587  70.9198894  28.7929607  65.1750003
  71.7010444  27.7556018  64.7358871  71.6207927  28.4908570  64.9953952
  58.1852746  26.9035876  58.4391010  57.6009961  27.4085907  58.8456874
  57.7822841  26.6778263  57.6987602  58.0392050  26.9444124  58.3896036
  53.7396775  32.6190637  65.2414682  53.2564353  33.3441127  65.2174266
  54.5520093  32.9166767  65.3524840  53.7887523  32.7692991  65.2541961
  59.8110929  31.4122818  67.8464496  59.2937871  31.0530233  67.2425805
  60.5085320  30.8884992  67.8570563  59.8376510  31.2820506  67.7594755
  63.4674521  31.8617632  73.8080669  63.5557867  31.6743772  74.6558880
  63.8964233  31.2155062  73.4085516  63.5436623  31.7380640  73.8752421
  61.0344981  31.1448792  72.7898332  60.4715815  30.7321402  73.3137993
  61.7966004  31.0701698  73.2091475  61.0639429  31.0726192  72.9291332
  62.6429961  23.1501528  56.9159931  62.8825964  23.3579512  56.1035274
  62.9645802  22.3459037  57.0248876  62.7267119  23.0615629  56.8120484
  57.9520251  15.0794924  60.7619469  58.7066219  15.4473241  60.5236519
  57.7747785  15.4534478  61.5298649  58.0374729  15.1893112  60.8404357
  56.5940972  33.1346813  65.3934962  57.2961551  32.6198802  65.4507718
  56.5138455  33.4620964  66.1981837  56.6864733  33.1061039  65.5207754
  57.6419879  23.3722400  74.5215377  57.8140382  23.2628295  75.3700658
  58.1789236  24.0176806  74.2846569  57.7464883  23.4514402  74.6120474
  56.3077316  17.4865243  57.4597582  56.1252889  17.7037124  56.6338575
  57.1702929  17.6004256  57.5156196  56.4081905  17.5355141  57.3452069
  55.9191748  29.3253165  64.9020570  56.7580647  29.5576098  64.9494331
  55.9503517  28.4557477  64.8327605  56.0473465  29.2310112  64.8985215
  56.5444451  29.7454040  69.2033875  57.0842675  29.6025171  69.8737248
  55.8614397  30.1450791  69.5717902  56.5236604  29.7833711  69.3568297
  61.9877035  14.4891654  60.4946606  62.7163195  14.3107609  60.0484762
  62.0771928  15.3309733  60.7053784  62.1083697  14.5875532  60.4600123
  65.9685335  25.4245041  64.3978900  66.7242850  25.8576555  64.4367808
  66.0747660  24.7749811  64.9713536  66.0955506  25.3922525  64.4876925
  69.0065507  29.2518318  65.1481303  68.5700738  29.2555061  65.9040274
  68.6728422  29.9323817  64.7160880  68.8928126  29.3530774  65.1962135
  63.5794580  31.2926651  76.4724453  64.3634997  31.4057499  76.8380195
  63.3791175  30.4667788  76.6683139  63.6660606  31.1873370  76.5558839
  51.9481596  25.9654331  69.3568297  51.6820011  25.1493448  69.5159287
  51.9620160  26.0107487  68.4863812  51.9106318  25.8511236  69.2521779
  55.8539343  20.7639416  55.9720055  55.1397520  20.4777595  56.3842488
  56.3383311  21.1036041  56.6126442  55.8198706  20.7721065  56.1275690
  56.6980202  19.5032709  72.0035305  56.0051999  19.0329689  72.2496036
  57.3140529  19.2771014  72.5777012  56.6864732  19.3999841  72.1244457
  63.7364973  33.2036753  70.1190909  62.9380219  32.9636253  70.3764777
  64.1850985  33.2551146  70.8657956  63.6839585  33.1759144  70.2675833
  72.1409853  25.9699238  64.0400940  72.8026287  25.4089907  63.9396848
  71.5001265  25.4751269  64.3653631  72.1438720  25.8135647  64.0733280
  63.0286660  29.2669369  56.3481863  63.4437809  28.9354393  55.6566359
  62.1978590  29.0338272  56.2202000  62.9674669  29.1840625  56.2272711
  52.3575009  26.7513111  66.6380041  52.1750582  26.7259997  65.7852333
  53.0924678  27.2212048  66.6768950  52.4389073  26.8174473  66.5177960
  68.4274683  26.9864620  63.7812929  68.6630273  27.1309819  62.9539779
  68.5764247  27.7507029  64.1744442  68.4840487  27.1203675  63.7176533
  55.4220761  23.4698113  73.1462150  56.1460733  23.4551144  73.6327045
  55.5236897  24.1793469  72.6484118  55.5438970  23.5722817  73.1440937
  70.2565140  25.8266286  61.6182533  70.5873357  26.3593927  61.0122627
  70.8298228  25.8805174  62.2744484  70.3898819  25.9135855  61.6260314
  65.4697029  23.6731189  62.3006113  65.5643884  24.4120483  62.7545738
  64.8455873  23.2448665  62.7340677  65.3906059  23.7192510  62.4314260
  63.7249503  26.8517402  72.9496394  64.2988365  26.2144646  73.1044957
  63.6464307  26.8521484  72.0806051  63.7982738  26.7582513  72.8442804
  52.3245920  23.6306611  66.7879108  52.9019422  23.4943062  67.4271353
  51.6259981  23.1742395  67.0424692  52.3066941  23.5428877  66.9201397
  65.7220051  25.5179929  55.5343065  65.6400213  25.5882116  56.3998052
  66.3599771  26.0809673  55.3426805  65.8039888  25.6118900  55.6333014
  59.0813222  25.2840667  65.0017591  58.8232466  24.4512402  64.9748890
  59.1361705  25.5098280  64.1610091  59.0513000  25.1938438  64.8737728
  64.1614272  17.3869118  65.1021684  63.4570599  16.8978303  65.2605603
  64.2099246  17.3991592  64.2310128  64.0644323  17.3158766  64.9961023
  58.0547934  22.8378429  65.4882486  57.4797525  22.9970598  66.1246447
  57.6783610  22.2013838  65.0250936  57.9150746  22.7676242  65.5137044
  61.7221223  21.3101779  70.3474864  61.3335655  20.8855996  69.6927055
  61.0575921  21.5583928  70.8551891  61.5668150  21.2840500  70.3262732
  71.3644492  21.0676783  63.1222694  71.1081057  20.2556725  62.9320577
  72.2073806  21.0754350  62.8952882  71.4510517  20.9488781  63.0607511
  47.8004753  22.4818504  63.5026926  47.8865005  22.1050372  64.2840456
  48.4280550  22.1078950  63.0246885  47.9061304  22.3703986  63.5472404
  62.8260161  25.5400383  58.5451671  63.6400800  25.8315276  58.4334442
  62.7619302  24.8860246  57.9709964  62.9362900  25.4865578  58.4440508
  58.6968069  29.0121901  63.6723983  59.3342016  28.7733648  64.2175777
  59.1223141  29.2159060  62.9377144  58.8544235  29.0072911  63.6441141
  53.3880711  31.2510237  67.5558287  53.4284857  31.5225088  66.7278067
  53.9475236  31.7752145  67.9716075  53.4764057  31.3685992  67.4950175
  59.3370884  24.2324190  58.0098873  59.7216037  24.0131897  58.7615418
  59.0882504  25.0587136  58.1399949  59.3572957  24.3222337  58.1399949
  70.0706072  28.0070828  69.0209541  69.7651889  28.7398885  69.3822857
  69.3512287  27.6008758  68.7402327  69.9193414  28.0552561  69.0322678
  61.0789541  29.4894323  65.3517769  61.1528549  29.3269495  66.2059619
  61.8959047  29.6784513  65.1078251  61.2105900  29.4931066  65.4415795
  54.8395298  29.8352186  62.3812213  54.0133415  30.0813923  62.2546492
  54.9007289  29.7564267  63.2474271  54.7269465  29.8597135  62.4901157
  57.0571321  15.9021127  63.3407653  56.1893747  15.9743727  63.4065262
  57.3446526  16.7043206  63.5295628  56.9711070  16.0315274  63.3782420
  59.6194127  32.4529066  60.0831243  59.9092425  32.0618048  59.3590469
  60.3497608  32.6345771  60.5236518  59.7701011  32.4222880  60.0414050
  60.2088872  27.2546812  71.1684373  59.7100566  27.9662580  71.2469262
  61.0189096  27.5747479  71.1302536  60.2544979  27.4073661  71.1740942
  57.5600042  34.4296449  63.1491393  57.3400338  34.1393803  63.9418060
  57.3394564  33.7711404  62.6209305  57.4947637  34.2896157  63.1880301
  56.4716990  26.5169765  65.4147094  56.1830238  25.8907237  65.9492822
  57.3400338  26.4590053  65.4811775  56.5577241  26.4157310  65.5038049
  67.2594887  21.6604549  65.7329076  66.9159653  20.9394884  66.0836326
  67.3587930  21.4518400  64.8907434  67.2236930  21.5228752  65.6600756
  59.7267998  35.8025839  61.9322085  60.3792056  35.2702281  62.1613111
  59.0293607  35.4494491  62.3189959  59.7198716  35.6715362  62.0234253
  56.6749263  28.1565016  61.3389459  57.4295231  28.5378055  61.5524922
  56.0819876  28.6076160  61.7936156  56.6985976  28.2793844  61.4372338
  67.7207916  28.1230253  61.2753064  68.2865949  28.7823463  61.1911607
  67.0735820  28.4679951  61.7469466  67.7086673  28.2712194  61.3325821
  57.9947490  29.3273578  66.7129575  57.4728243  29.4673869  67.3981439
  58.3821510  28.5684242  66.9031692  57.9751190  29.2359101  66.8430651
  54.9838674  19.3779386  60.7824529  54.6963469  19.0080657  60.0456477
  55.6709142  19.8474242  60.5208234  55.0427571  19.3926356  60.6339605
  64.1914494  31.0669037  60.6990143  63.9501170  30.3336898  60.2917208
  64.3715827  31.6155894  60.0456477  64.1822118  31.0391428  60.5420366
  59.4213815  26.3577597  62.1111066  59.2256598  26.9652331  61.5171369
  59.6448161  25.6645541  61.6302740  59.4248456  26.3455122  61.9527147
  57.8192345  23.2432335  62.2291934  58.5414997  23.4073493  61.7695740
  57.3400338  23.9641999  62.1231274  57.8556076  23.3730564  62.1457548
  65.7785853  19.5796133  67.6088619  64.9396953  19.6057412  67.3726882
  65.8490220  20.2266869  68.1893966  65.6654246  19.6792259  67.6597736
  55.4699962  25.6490407  71.3346074  55.9821059  25.9274660  70.6854834
  55.1836304  26.3879701  71.7008887  55.5034825  25.7992761  71.2935952
  64.2255131  16.4781510  62.3416235  64.9281484  16.2789259  61.8636193
  63.9599320  15.7057453  62.6485078  64.2901763  16.3344476  62.3161677
  69.6543377  24.7864120  64.8949861  69.5677351  24.9419546  65.7484640
  69.1993856  25.4302196  64.5209266  69.5746633  24.9039875  64.9656968
  52.5566868  20.1560599  61.6309810  52.6583005  20.9586760  61.9590786
  53.3522755  19.9547935  61.3332891  52.6894774  20.2446498  61.6345166
  58.9883687  17.7416796  71.3947116  58.7966884  17.7571930  72.2446539
  59.8382283  17.9380470  71.3713770  59.0859409  17.7731147  71.5170410
  53.3730600  20.2707777  69.3730932  53.2316092  19.4191718  69.4975440
  53.6571164  20.3136438  68.5493138  53.3938446  20.1507527  69.2698556
  63.5269193  22.1074867  63.5175420  63.2803907  22.0270618  64.3512209
  63.8554316  21.3228335  63.3237948  63.5390436  21.9801133  63.6122943
  67.4217241  28.8158227  67.3062202  67.2831601  29.5139272  67.8110944
  66.6417239  28.6606883  66.9498383  67.2860468  28.8958393  67.3288476
  59.4866220  24.8431586  72.9298403  59.6309596  25.4232794  72.2941513
  59.8341868  25.2207883  73.6348258  59.5593681  24.9852290  72.9397398
  61.6586137  24.0421754  70.7123535  60.9109451  24.2352769  70.3071813
  61.8127662  23.2166974  70.4747656  61.5708565  23.9486866  70.6168941
  58.5593975  33.0334358  69.7959430  58.7083539  32.4737274  69.1432835
  59.3393977  33.1126359  70.1791949  58.6968068  32.9619923  69.7556379
  68.9170614  28.1736480  58.0678701  68.5377423  27.3873618  58.0607990
  68.2536860  28.7223337  57.9250345  68.7629089  28.1381304  58.0459498
  61.0847276  33.2049001  71.0743921  61.0090947  32.5357811  71.6294709
  61.0137135  33.9066789  71.5884587  61.0627882  33.2093908  71.2320769
  61.8987914  17.9372305  71.6018939  62.3560528  18.6696279  71.7291731
  61.9744243  17.5138770  72.3606195  61.9778884  17.9829543  71.7320015
  54.1420905  18.1838125  72.6908382  53.6063095  17.5718483  73.0069150
  54.2038670  18.7586261  73.3442049  54.0716538  18.1785052  72.8343809
  61.7417522  31.7249999  61.9067527  62.5067414  31.4559643  61.5850191
  61.6395612  31.2400010  62.6237590  61.8399018  31.6139564  61.9647355
  59.7770292  19.9274409  68.4460763  58.9866367  19.7465869  68.7678099
  60.1730915  19.1501361  68.4291057  59.7187168  19.7861870  68.4913311
  64.2636183  28.7562183  53.8867476  65.0309168  28.8162308  53.4773328
  63.8167492  28.1842625  53.4023795  64.3109610  28.6798759  53.7545187
  65.1613978  27.5616839  66.1720209  64.4858980  27.3302071  66.6733596
  65.1706355  26.9538022  65.5462314  65.0632483  27.4375764  66.1536361
  62.2908122  22.4034668  72.9284262  62.2267264  23.2644624  72.8004398
  62.4305310  22.0866661  72.1279813  62.3023593  22.4834835  72.7912475
  67.1630713  30.4181971  58.4030387  67.2450550  31.2248958  58.0791837
  67.6480455  30.4377931  59.1271160  67.2467871  30.5402634  58.4617285
  60.9727216  25.0966807  67.0700465  60.5489465  25.2971306  66.3339483
  60.7972072  24.2495655  67.1824764  60.8838097  25.0015589  66.9774155
  60.4738910  36.6117320  69.5321922  60.9634840  35.9128110  69.3497586
  59.9023142  36.3141190  70.1197979  60.4623440  36.4643544  69.5922963
  56.2609661  25.5918859  62.5028437  56.4174280  25.5265662  63.3584429
  56.6010254  26.3667411  62.2907117  56.3342896  25.6968057  62.5983031
  62.7988806  24.9676742  61.3721800  63.3404351  24.4647123  61.8360421
  63.1135365  24.9141937  60.5611286  62.9253203  24.8856163  61.3205612
  60.9675256  30.3594094  58.6561828  61.0368076  29.5008632  58.7954829
  61.7463711  30.5765975  58.3280853  61.0928106  30.2646958  58.6278986
  63.9478075  19.8613047  71.4244101  64.1620045  19.2223961  70.8707455
  63.3311974  20.3058871  70.9951963  63.8883405  19.8323191  71.2794532
  65.3582743  32.7831795  62.8698322  64.9662535  32.4798510  62.1521188
  65.5135815  33.6200885  62.6803275  65.3236333  32.8615632  62.7354819
  52.8343923  22.7753809  62.8189204  53.2142888  23.1938354  62.1549472
  52.2599288  23.3567265  63.1258048  52.8055248  22.9231668  62.7665945
  65.5222418  29.3481784  62.8104352  65.1637073  29.5196427  63.5868385
  65.0361129  29.8094990  62.2532351  65.3981115  29.4420755  62.8429621
  63.3392804  12.9712983  66.4131444  62.4686362  12.9451704  66.3664753
  63.5933145  12.7990175  65.5957289  63.2486364  12.9423126  66.2851580
  60.3110783  25.0280949  55.3504587  60.6003308  25.8045832  55.6248161
  60.3982582  24.5169681  56.0519086  60.3665040  25.0672868  55.4947084
  60.3641944  14.9819211  67.8704914  59.8480433  14.2899402  67.9956493
  59.8035873  15.6489988  67.8167513  60.2048458  14.9782469  67.8810980
  62.4334178  15.5212171  69.6997767  62.0465931  15.5461203  70.4811296
  61.9467115  14.9553850  69.2472283  62.3046687  15.4407922  69.7485670
  66.6827157  30.2385680  73.7571553  67.3206878  29.7445876  73.4234009
  66.0401249  30.1663080  73.1723780  66.6821384  30.1544688  73.6213908
  68.4084157  22.0874826  68.3237469  67.9811765  22.0001175  67.5685568
  67.7710210  22.1952601  68.9092313  68.2513765  22.0907486  68.2982910
  66.7381414  30.9305488  70.3976910  67.5273792  30.5794553  70.5178991
  66.9125012  31.7441877  70.1353544  66.8801696  30.9991345  70.3764778
  56.4774724  24.3414214  67.4504699  55.6362731  24.2418088  67.6583593
  56.6864732  25.1109694  67.8019019  56.3839417  24.4406257  67.5332014
  53.9550291  21.9633751  65.2789449  53.5606989  22.0376763  64.5039559
  53.3990408  22.3491697  65.8297811  53.8153104  22.0315526  65.2457109
  65.5915238  14.9415045  64.9593328  65.7964831  14.8737353  65.8050325
  65.2641662  15.7473866  64.8914506  65.5730486  15.0500985  65.0752983
  60.2891389  22.2695613  66.7002296  59.9854527  21.7151601  67.3012704
  59.5870810  22.4487823  66.2130330  60.1407599  22.2140396  66.7172002
  59.3457486  19.5796133  61.2646998  59.6217221  18.8615046  60.8524566
  59.9456156  20.1781053  61.0568104  59.4750751  19.5616504  61.1727759
  58.3509740  29.4845334  71.4074394  58.2430095  29.4947396  72.2736452
  58.5605522  30.3100114  71.2179348  58.3659851  29.6086409  71.5078486
  68.8448926  15.4946809  64.4396094  68.2323239  15.9817211  64.8249826
  68.9413101  14.8190300  64.9833745  68.7686823  15.4665118  64.5774952
  62.8468007  17.2509650  59.5393593  63.3011753  17.4220211  60.2641438
  63.3208053  16.6377761  59.1391369  62.9836327  17.1860536  59.5867355
  56.3683532  26.7357976  68.8696332  55.7771465  27.3767474  68.8399347
  57.1304556  27.1595594  68.8427631  56.3931793  26.8933815  68.8611479
  56.7644155  17.8959974  69.5364349  57.2245637  17.9698903  70.2739473
  56.8100262  18.6941228  69.1864171  56.8394710  18.0254121  69.5937106
  58.4127505  18.5626669  74.1036376  58.0213070  17.9160016  74.5392154
  58.5813367  19.1538104  74.7230632  58.3798415  18.5540937  74.2599082
  66.1273048  32.1867288  66.3028356  65.9292737  32.6758102  65.6084567
  65.5060760  32.3908529  66.8812489  66.0060613  32.2883826  66.2851579
  60.1881027  23.9552185  60.6438600  60.9323072  24.3426461  60.8821550
  60.3341723  23.1109610  60.8079088  60.3191612  23.8882658  60.7032570
  62.1060602  15.7502444  65.6770462  61.2596647  15.9225251  65.5511812
  62.1031735  14.9451787  66.0136290  61.9807752  15.6563473  65.7081589
  63.1758903  19.5277658  66.5432520  62.7018857  19.0019420  67.0537831
  63.5477038  18.9807131  65.9747381  63.1608792  19.3693655  66.5347667
  53.5531933  21.5249165  71.9116065  54.4157546  21.4244874  71.8253395
  53.2223716  20.9443874  71.3501638  53.6317129  21.4240791  71.8161471
  69.4395633  24.5880034  67.9539300  69.1993856  23.7486449  67.9581727
  69.9187640  24.6680200  68.6780074  69.4747817  24.4761433  68.0614102
  65.1042402  20.4214213  59.6058273  64.5765421  20.5042957  58.9163982
  65.5638110  21.1632084  59.6022918  65.0944253  20.5434875  59.5032969
  71.4400820  21.3681491  65.9068559  71.2010590  21.3277325  65.0689344
  71.6034722  22.2152643  66.0334280  71.4291124  21.4873576  65.8022041
  56.9133719  20.3491614  68.5726484  56.2886789  20.3610006  67.9652436
  56.5779314  20.8251789  69.2217724  56.7719211  20.4210131  68.5783052
  57.0975467  18.6916732  54.6299169  56.7488272  19.3436457  55.0930718
  56.6171913  18.6773845  53.9023040  56.9745711  18.7859786  54.5910260
  53.6259394  28.4092074  70.0130248  53.0959319  27.7184513  70.0625223
  53.8984488  28.4002259  69.1842956  53.5884117  28.3059206  69.8977664
  64.6579485  28.9917776  58.7367930  65.3813684  29.4575889  58.5932504
  64.2180076  29.0591386  57.9865527  64.6995177  29.0701613  58.6052712
  63.8265640  25.8515318  69.9868619  63.2122633  25.3073369  70.2817255
  64.3432925  25.3379555  69.5074436  63.8121302  25.6951727  69.9592848
  63.0661937  26.9219588  67.7212918  62.6389545  26.2969307  67.2878353
  63.0586881  26.6394510  68.5471925  63.0021078  26.7872369  67.7792746
  56.1824464  21.9584762  70.7901352  56.3417951  21.2028086  71.1953074
  56.0017358  22.5075701  71.4442090  56.1789823  21.9278575  70.9464058
  61.3947647  17.7988343  67.9355452  61.4190134  17.2648455  67.2468232
  61.6459120  17.2905652  68.5981043  61.4357565  17.6449247  67.9320097
  48.9055237  25.0819838  67.3698596  48.7998686  25.0366682  66.5050680
  48.1555457  25.4273619  67.6512881  48.7790839  25.1260746  67.2835926
  57.6748969  16.5259161  67.3161196  57.7147341  17.0268368  68.0295904
  56.8498634  16.6169555  67.0467119  57.5588495  16.6140978  67.3811735
  59.8578582  26.0919901  75.4181491  59.0074212  26.2291615  75.5539136
  60.0206710  25.3583679  75.8629193  59.7562445  26.0034002  75.5037090
  59.0963332  23.0419671  69.6135095  58.2655262  23.2093489  69.4070344
  59.0414850  22.6655622  70.3983981  58.9652747  23.0109402  69.6983624
  57.4699376  21.3175263  60.1425213  57.6102337  21.8147727  60.8453854
  57.9681909  20.6161557  60.2839427  57.5640457  21.2877241  60.2676792
  57.4999599  22.1842374  57.4717790  58.1344678  22.7802799  57.4067252
  57.5825209  21.8845831  58.2863660  57.6056150  22.2283282  57.5820877
  59.0778581  18.1156349  57.4463232  59.3994423  17.6359432  56.7922494
  59.3405525  18.9255995  57.2554044  59.1644607  18.1646247  57.3218724
  62.3075554  29.1375223  70.9662048  61.8000645  29.6911070  71.4102679
  62.0102200  29.1983513  70.1480823  62.1880439  29.2281535  70.9110505
  64.4737736  17.5028543  69.8086711  64.8992808  17.0501069  69.1970237
  63.8594730  16.9488614  70.0851499  64.4466382  17.3542519  69.7591736
  54.0052586  24.3810214  60.7407336  54.5144816  24.9774722  61.1218641
  54.4786859  24.1136188  60.0583756  54.1495962  24.4296030  60.6961859
  64.9183335  33.0538481  58.8965992  64.2012644  32.8799343  58.4313229
  65.5690072  32.8191053  58.3641478  64.9085185  32.9934274  58.7495209
  62.9131959  13.9743643  63.2177288  62.2700277  13.8241289  63.7862426
  62.5731366  13.7285988  62.4526393  62.7677037  13.9155765  63.1880303
  67.5031306  21.9303070  62.6407297  66.8322496  22.4732772  62.5120362
  68.1971056  22.3997925  62.3988991  67.5060173  22.0801341  62.5862824
  61.5518039  34.0699782  67.8719055  61.3283694  33.3118611  68.2403081
  61.0627883  34.0997803  67.1499495  61.4461489  33.9622006  67.8195796
  67.6659433  18.3858953  65.5497670  68.0187043  17.9588676  66.2243469
  66.8074235  18.3009797  65.6798746  67.5908878  18.3103694  65.6692680
  56.3643118  21.0166473  63.6080516  55.6455107  21.4330606  63.8753380
  56.7355480  21.5820712  63.0572155  56.3135050  21.1615754  63.5663323
  65.6642699  21.6494322  69.4982512  65.6440626  21.4677617  70.3517291
  65.7121900  22.5206340  69.4742096  65.6677340  21.7510860  69.6205807
  63.6089029  28.2381514  75.4230989  63.5684884  27.5931191  74.8376145
  64.4212347  28.1818131  75.7356401  63.7232182  28.1340481  75.3827938
  60.1996496  34.2900240  65.3256140  59.7856895  33.6274370  64.9359981
  60.8843871  34.4378099  64.8051834  60.2394868  34.2140898  65.1912637
  63.5661791  33.4490325  66.0779756  63.1678074  33.5592595  65.3100576
  62.9513010  33.6572391  66.6606316  63.4160680  33.4963893  66.0511055
  62.1389693  20.0564473  58.9453896  61.5454532  20.3781469  58.3938463
  62.1764970  19.2105568  58.7375002  62.0564082  19.9788801  58.8336667
  65.0147509  20.0143977  62.3755646  64.7861202  20.0376679  61.5334004
  65.2745585  19.1901444  62.4950657  65.0193697  19.8960057  62.2680844
  59.2966738  21.8678450  71.9780746  58.7845641  21.2599633  72.3365778
  59.1246234  22.5835043  72.4454722  59.1956375  21.8841750  72.0996970
  54.1432452  20.3116026  74.6283108  53.9735043  20.9717401  74.0831315
  53.6998402  20.5222587  75.3495597  54.0531786  20.4402008  74.6544738
  58.0692272  18.5520524  63.6709842  58.5449638  18.9137603  63.0360023
  57.5680871  19.2076991  63.9509984  58.0657631  18.7014712  63.6186583
  71.3003633  28.0242292  59.4622847  71.6837239  28.7733648  59.6920944
  70.5047747  28.2708111  59.2034836  71.2397415  28.1711986  59.4580420
  51.0434517  23.2162891  69.8871598  50.4961236  22.5463537  70.0052466
  51.8326895  22.8492739  69.9515065  51.0786700  23.0627878  69.9140298
  60.8918925  22.8770348  75.3835009  61.6430252  23.1922025  75.6974563
  61.0841502  22.6749519  74.5568931  61.0310339  22.8937730  75.3078405
  60.1118925  20.6961723  57.0383226  60.4917890  20.7141353  56.2534340
  59.3711521  21.1415712  56.9174073  60.0587763  20.7643498  56.9046794
  67.7404215  19.0043915  62.6258804  67.7398442  18.8492571  63.4843081
  67.5360395  19.8506902  62.5700190  67.7103993  19.1064535  62.7446744
  49.8021486  22.4283699  67.0417621  49.6243247  21.9760308  67.7672537
  49.5140508  23.2309860  67.2256098  49.7334439  22.4806257  67.1761124
  65.4645067  23.6841416  66.2795011  65.9598733  22.9664411  66.2399032
  64.6544843  23.3812214  66.1649498  65.4188961  23.5339063  66.2568737
  60.9103679  27.5339230  58.4292016  60.1015002  27.2105903  58.3825325
  61.4178588  26.8272452  58.3620264  60.8653346  27.3820546  58.4122310
  51.5393956  24.9611423  64.1539380  50.6739476  24.9497113  64.0422151
  51.6392772  24.7741646  65.0010519  51.4268123  24.9317484  64.2628324
  67.5296886  26.4345104  68.9672140  67.9551958  25.9119526  68.4142565
  67.1653806  27.0325941  68.4460763  67.5383489  26.4455331  68.8081150
  57.1650966  34.7309321  67.7269486  57.4797525  35.5445710  67.7347267
  57.5744379  34.3459540  68.3951645  57.2719064  34.7938024  67.8273577
  64.1175486  30.1479368  65.2973297  64.5886664  30.8619631  65.4663283
  64.4535664  29.5478118  65.8333167  64.2370601  30.1650832  65.4005673
  64.7549432  29.9397302  72.0600990  64.2070378  29.3155186  71.7921055
  65.2162461  30.1291574  71.3445070  64.7416641  29.8756353  71.9151421
  60.1038096  16.9223252  59.7210857  60.9253790  17.0921565  59.4792552
  59.6407746  17.0770513  58.9977155  60.1569258  16.9704985  59.5782502
  58.6933427  14.9166014  70.5009286  59.2377840  14.5757141  71.0913628
  58.7470363  15.7751475  70.6430571  58.7822547  14.9921273  70.6091159
  54.5063986  28.6782430  67.3748094  55.1108844  28.6378264  66.7461915
  54.2991299  29.5253582  67.4052150  54.5652883  28.7970432  67.2864210
  64.3207758  30.9448375  68.5910331  65.1406132  30.8011341  68.8526627
  64.0401836  31.5694574  69.1326769  64.4004502  31.0158727  68.7098271
  49.7415268  27.6617047  67.2447017  49.6439546  26.8513319  67.5537074
  50.5244138  27.6408841  66.8593285  49.8431405  27.5384138  67.2333880
  73.9921094  37.6888878  66.3106138  73.1358989  37.8497376  66.3615255
  74.0388747  36.8180942  66.3311199  73.8720205  37.5839680  66.3212204
  68.3762233  47.2251596  62.0743370  67.6245133  46.8467134  61.8459415
  68.8248245  47.2570029  61.3262180  68.3311900  47.1737203  61.9300872
  73.8287193  47.6476965  57.5028917  73.4938562  48.3253887  57.0673139
  74.3414064  47.2582276  56.9145788  73.8552774  47.6901543  57.3515708
  73.3691484  49.5991234  63.4440028  73.7530864  50.1678132  62.9044804
  73.3050626  48.8740744  62.9645844  73.4164912  49.5766697  63.2933891
  76.8372915  39.7480922  68.9537790  77.3828875  40.4266008  69.0131759
  76.7789791  39.6068383  68.0939371  76.9088829  39.8272923  68.8349850
  69.9546989  47.2369988  64.3406142  70.0557352  46.4270342  64.6503270
  69.3588735  47.1426934  63.7105821  69.8819528  47.1035016  64.2932381
  69.7947729  52.1547577  65.7420998  70.4385185  52.5960741  66.1317157
  70.1203985  51.3501003  65.6551257  69.9379558  52.1012772  65.7866475
  63.1512034  43.2590274  63.9658476  62.9162218  42.4257927  63.8590745
  63.2897674  43.5394940  63.1519677  63.1367696  43.1773778  63.8300831
  65.4502121  35.4276005  66.8642784  64.8307153  34.8368652  66.6952798
  65.3485985  36.0187440  66.2307107  65.3439797  35.4280087  66.7447773
  70.4968309  45.1659552  61.1140860  70.8184150  45.7064759  60.5102168
  71.1440405  44.5956323  61.2463150  70.6394364  45.1618727  61.0447895
  72.5470017  37.1675547  61.1975247  73.2450182  37.3463674  61.6896710
  72.8622349  36.6445886  60.5745636  72.6965354  37.1169319  61.1777257
  65.1771254  38.9728287  69.1086353  65.0529951  39.5590732  69.7436171
  65.8289539  38.4788482  69.4098627  65.2544904  38.9867091  69.2472282
  72.7357952  43.5545992  61.1855038  73.1751588  42.9463092  61.6309811
  72.5862615  43.1753365  60.4140503  72.7779418  43.4084463  61.1374205
  70.2029595  42.1490004  68.3873864  70.8478598  41.6562447  68.0684812
  70.4431372  42.2914790  69.2139942  70.3340180  42.0967446  68.4623397
  72.7415687  44.9944909  68.0380756  73.0238929  44.1996315  67.8167512
  73.4701847  45.4725497  68.0585817  72.8905250  44.9479506  68.0083771
  70.7196880  32.5367943  65.2796521  70.3900210  32.9879087  64.6100220
  70.0441882  32.4584107  65.8269528  70.5707317  32.5919079  65.2619745
  76.3367289  41.9073173  58.1385807  76.2518584  42.7634140  58.2835376
  76.8251672  41.6317497  58.8067966  76.3956186  41.9930494  58.2587889
  77.9273288  28.5253466  63.5246132  77.6126729  29.2156945  63.9566554
  77.4100230  28.4698249  62.8231633  77.8037759  28.6188355  63.4843081
  77.2685722  38.5257967  59.6383542  76.7397193  38.7417601  60.2980849
  77.7910742  39.2194106  59.5584512  77.2674175  38.6601104  59.7239142
  69.1585330  42.4221184  58.4391010  68.5742545  42.9271215  58.8456874
  68.7555425  42.1963571  57.6987602  69.0124634  42.4629432  58.3896036
  64.7129358  48.1375945  65.2414682  64.2296937  48.8626435  65.2174266
  65.5252677  48.4352075  65.3524840  64.7620106  48.2878299  65.2541961
  70.7843512  46.9308126  67.8464496  70.2670454  46.5715541  67.2425805
  71.4817904  46.4070300  67.8570563  70.8109094  46.8005814  67.7594755
  73.6162544  38.6686836  56.9159931  73.8558548  38.8764820  56.1035274
  73.9378385  37.8644345  57.0248876  73.6999702  38.5800937  56.8120484
  68.9252834  30.5980232  60.7619469  69.6798802  30.9658549  60.5236519
  68.7480369  30.9719786  61.5298649  69.0107313  30.7078420  60.8404357
  67.5673556  48.6532121  65.3934962  68.2694135  48.1384110  65.4507718
  67.4871039  48.9806272  66.1981837  67.6597316  48.6246347  65.5207754
  68.6152462  38.8907708  74.5215377  68.7872966  38.7813603  75.3700658
  69.1521820  39.5362113  74.2846569  68.7197466  38.9699710  74.6120474
  67.2809899  33.0050551  57.4597582  67.0985472  33.2222432  56.6338575
  68.1435512  33.1189564  57.5156196  67.3814489  33.0540449  57.3452069
  66.8924331  44.8438473  64.9020570  67.7313230  45.0761406  64.9494331
  66.9236100  43.9742784  64.8327605  67.0206049  44.7495420  64.8985215
  67.5177034  45.2639348  69.2033875  68.0575259  45.1210479  69.8737248
  66.8346980  45.6636099  69.5717902  67.4969188  45.3019019  69.3568297
  72.9609618  30.0076962  60.4946606  73.6895779  29.8292916  60.0484762
  73.0504511  30.8495041  60.7053784  73.0816280  30.1060840  60.4600123
  76.9417919  40.9430349  64.3978900  77.6975434  41.3761863  64.4367808
  77.0480243  40.2935119  64.9713536  77.0688090  40.9107833  64.4876925
  62.9214179  41.4839639  69.3568297  62.6552594  40.6678756  69.5159287
  62.9352743  41.5292795  68.4863812  62.8838901  41.3696544  69.2521779
  66.8271926  36.2824723  55.9720055  66.1130103  35.9962903  56.3842488
  67.3115895  36.6221349  56.6126442  66.7931289  36.2906373  56.1275690
  67.6712786  35.0218017  72.0035305  66.9784582  34.5514997  72.2496036
  68.2873113  34.7956322  72.5777012  67.6597315  34.9185149  72.1244457
  74.0019244  44.7854677  56.3481863  74.4170393  44.4539701  55.6566359
  73.1711174  44.5523580  56.2202000  73.9407253  44.7025933  56.2272711
  63.3307593  42.2698418  66.6380041  63.1483166  42.2445304  65.7852333
  64.0657262  42.7397356  66.6768950  63.4121657  42.3359781  66.5177960
  66.3953344  38.9883421  73.1462150  67.1193317  38.9736452  73.6327045
  66.4969481  39.6978777  72.6484118  66.5171554  39.0908125  73.1440937
  76.4429613  39.1916497  62.3006113  76.5376467  39.9305791  62.7545738
  75.8188456  38.7633973  62.7340677  76.3638643  39.2377818  62.4314260
  63.2978503  39.1491919  66.7879108  63.8752006  39.0128370  67.4271353
  62.5992565  38.6927703  67.0424692  63.2799525  39.0614185  66.9201397
  76.6952634  41.0365237  55.5343065  76.6132797  41.1067424  56.3998052
  77.3332355  41.5994981  55.3426805  76.7772472  41.1304208  55.6333014
  70.0545805  40.8025975  65.0017591  69.7965050  39.9697710  64.9748890
  70.1094288  41.0283588  64.1610091  70.0245583  40.7123746  64.8737728
  75.1346855  32.9054425  65.1021684  74.4303182  32.4163611  65.2605603
  75.1831830  32.9176900  64.2310128  75.0376907  32.8344073  64.9961023
  69.0280517  38.3563737  65.4882486  68.4530109  38.5155906  66.1246447
  68.6516194  37.7199146  65.0250936  68.8883330  38.2861550  65.5137044
  72.6953806  36.8287087  70.3474864  72.3068239  36.4041304  69.6927055
  72.0308504  37.0769236  70.8551891  72.5400734  36.8025808  70.3262732
  58.7737336  38.0003812  63.5026926  58.8597588  37.6235680  64.2840456
  59.4013134  37.6264258  63.0246885  58.8793887  37.8889294  63.5472404
  73.7992744  41.0585691  58.5451671  74.6133383  41.3500584  58.4334442
  73.7351886  40.4045553  57.9709964  73.9095483  41.0050886  58.4440508
  69.6700653  44.5307209  63.6723983  70.3074600  44.2918956  64.2175777
  70.0955724  44.7344368  62.9377144  69.8276819  44.5258219  63.6441141
  64.3613295  46.7695545  67.5558287  64.4017440  47.0410396  66.7278067
  64.9207819  47.2937453  67.9716075  64.4496641  46.8871300  67.4950175
  70.3103468  39.7509498  58.0098873  70.6948620  39.5317205  58.7615418
  70.0615088  40.5772444  58.1399949  70.3305540  39.8407645  58.1399949
  72.0522125  45.0079631  65.3517769  72.1261133  44.8454803  66.2059619
  72.8691631  45.1969821  65.1078251  72.1838483  45.0116374  65.4415795
  65.8127881  45.3537494  62.3812213  64.9865999  45.5999231  62.2546492
  65.8739872  45.2749575  63.2474271  65.7002048  45.3782443  62.4901157
  68.0303905  31.4206435  63.3407653  67.1626330  31.4929035  63.4065262
  68.3179109  32.2228514  63.5295628  67.9443653  31.5500582  63.3782420
  70.5926710  47.9714374  60.0831243  70.8825009  47.5803356  59.3590469
  71.3230191  48.1531079  60.5236518  70.7433595  47.9408188  60.0414050
  71.1821455  42.7732120  71.1684373  70.6833149  43.4847888  71.2469262
  71.9921680  43.0932787  71.1302536  71.2277562  42.9258969  71.1740942
  68.5332626  49.9481757  63.1491393  68.3132921  49.6579111  63.9418060
  68.3127148  49.2896712  62.6209305  68.4680220  49.8081465  63.1880301
  67.4449573  42.0355073  65.4147094  67.1562822  41.4092544  65.9492822
  68.3132921  41.9775361  65.4811775  67.5309825  41.9342617  65.5038049
  78.2327471  37.1789857  65.7329076  77.8892237  36.4580192  66.0836326
  78.3320513  36.9703708  64.8907434  78.1969514  37.0414060  65.6600756
  70.7000582  51.3211147  61.9322085  71.3524640  50.7887589  62.1613111
  70.0026190  50.9679799  62.3189959  70.6931300  51.1900670  62.0234253
  67.6481846  43.6750324  61.3389459  68.4027814  44.0563363  61.5524922
  67.0552459  44.1261468  61.7936156  67.6718560  43.7979152  61.4372338
  68.9680073  44.8458886  66.7129575  68.4460827  44.9859177  67.3981439
  69.3554093  44.0869550  66.9031692  68.9483774  44.7544409  66.8430651
  65.9571257  34.8964694  60.7824529  65.6696053  34.5265965  60.0456477
  66.6441725  35.3659550  60.5208234  66.0160154  34.9111664  60.6339605
  75.1647078  46.5854345  60.6990143  74.9233754  45.8522206  60.2917208
  75.3448411  47.1341202  60.0456477  75.1554702  46.5576736  60.5420366
  70.3946399  41.8762905  62.1111066  70.1989181  42.4837639  61.5171369
  70.6180744  41.1830849  61.6302740  70.3981040  41.8640430  61.9527147
  68.7924929  38.7617643  62.2291934  69.5147581  38.9258801  61.7695740
  68.3132921  39.4827307  62.1231274  68.8288659  38.8915872  62.1457548
  76.7518436  35.0981441  67.6088619  75.9129537  35.1242720  67.3726882
  76.8222804  35.7452177  68.1893966  76.6386830  35.1977567  67.6597736
  66.4432545  41.1675715  71.3346074  66.9553642  41.4459968  70.6854834
  66.1568888  41.9065009  71.7008887  66.4767409  41.3178069  71.2935952
  75.1987715  31.9966818  62.3416235  75.9014067  31.7974567  61.8636193
  74.9331903  31.2242761  62.6485078  75.2634347  31.8529784  62.3161677
  63.5299452  35.6745907  61.6309810  63.6315588  36.4772068  61.9590786
  64.3255338  35.4733243  61.3332891  63.6627357  35.7631806  61.6345166
  69.9616271  33.2602104  71.3947116  69.7699468  33.2757238  72.2446539
  70.8114867  33.4565778  71.3713770  70.0591993  33.2916455  71.5170410
  64.3463184  35.7893085  69.3730932  64.2048676  34.9377026  69.4975440
  64.6303747  35.8321746  68.5493138  64.3671030  35.6692835  69.2698556
  74.5001776  37.6260175  63.5175420  74.2536490  37.5455926  64.3512209
  74.8286899  36.8413643  63.3237948  74.5123020  37.4986441  63.6122943
  78.3949825  44.3343535  67.3062202  78.2564184  45.0324580  67.8110944
  77.6149823  44.1792191  66.9498383  78.2593052  44.4143701  67.3288476
  70.4598803  40.3616894  72.9298403  70.6042179  40.9418102  72.2941513
  70.8074452  40.7393191  73.6348258  70.5326265  40.5037598  72.9397398
  72.6318721  39.5607062  70.7123535  71.8842035  39.7538077  70.3071813
  72.7860246  38.7352282  70.4747656  72.5441148  39.4672174  70.6168941
  72.8720498  33.4557613  71.6018939  73.3293112  34.1881587  71.7291731
  72.9476827  33.0324078  72.3606195  72.9511468  33.5014851  71.7320015
  65.1153489  33.7023433  72.6908382  64.5795679  33.0903791  73.0069150
  65.1771254  34.2771569  73.3442049  65.0449122  33.6970360  72.8343809
  72.7150106  47.2435307  61.9067527  73.4799997  46.9744951  61.5850191
  72.6128196  46.7585318  62.6237590  72.8131601  47.1324872  61.9647355
  70.7502876  35.4459717  68.4460763  69.9598951  35.2651177  68.7678099
  71.1463499  34.6686669  68.4291057  70.6919752  35.3047178  68.4913311
  75.2368767  44.2747491  53.8867476  76.0041752  44.3347616  53.4773328
  74.7900075  43.7027933  53.4023795  75.2842194  44.1984067  53.7545187
  76.1346562  43.0802147  66.1720209  75.4591564  42.8487379  66.6733596
  76.1438938  42.4723330  65.5462314  76.0365067  42.9561072  66.1536361
  73.2640706  37.9219976  72.9284262  73.1999847  38.7829932  72.8004398
  73.4037894  37.6051969  72.1279813  73.2756176  38.0020143  72.7912475
  78.1363297  45.9367279  58.4030387  78.2183134  46.7434266  58.0791837
  78.6213039  45.9563239  59.1271160  78.2200455  46.0587942  58.4617285
  71.9459800  40.6152115  67.0700465  71.5222049  40.8156614  66.3339483
  71.7704655  39.7680963  67.1824764  71.8570681  40.5200897  66.9774155
  67.2342245  41.1104167  62.5028437  67.3906864  41.0450970  63.3584429
  67.5742838  41.8852719  62.2907117  67.3075480  41.2153365  62.5983031
  73.7721389  40.4862050  61.3721800  74.3136935  39.9832431  61.8360421
  74.0867949  40.4327245  60.5611286  73.8985787  40.4041471  61.3205612
  71.9407839  45.8779402  58.6561828  72.0100660  45.0193940  58.7954829
  72.7196294  46.0951283  58.3280853  72.0660689  45.7832266  58.6278986
  74.9210659  35.3798355  71.4244101  75.1352628  34.7409269  70.8707455
  74.3044558  35.8244179  70.9951963  74.8615988  35.3508498  71.2794532
  76.3315327  48.3017103  62.8698322  75.9395119  47.9983818  62.1521188
  76.4868399  49.1386193  62.6803275  76.2968917  48.3800940  62.7354819
  63.8076506  38.2939117  62.8189204  64.1875471  38.7123662  62.1549472
  63.2331871  38.8752573  63.1258048  63.7787831  38.4416976  62.7665945
  76.4955002  44.8667092  62.8104352  76.1369656  45.0381735  63.5868385
  76.0093712  45.3280298  62.2532351  76.3713698  44.9606063  62.8429621
  74.3125388  28.4898290  66.4131444  73.4418945  28.4637012  66.3664753
  74.5665729  28.3175483  65.5957289  74.2218948  28.4608434  66.2851580
  71.2843367  40.5466257  55.3504587  71.5735892  41.3231140  55.6248161
  71.3715166  40.0354989  56.0519086  71.3397623  40.5858176  55.4947084
  71.3374528  30.5004519  67.8704914  70.8213017  29.8084710  67.9956493
  70.7768457  31.1675296  67.8167513  71.1781041  30.4967777  67.8810980
  73.4066762  31.0397479  69.6997767  73.0198515  31.0646510  70.4811296
  72.9199699  30.4739158  69.2472283  73.2779270  30.9593230  69.7485670
  67.4507308  39.8599522  67.4504699  66.6095315  39.7603396  67.6583593
  67.6597316  40.6295002  67.8019019  67.3572001  39.9591565  67.5332014
  64.9282875  37.4819059  65.2789449  64.5339573  37.5562071  64.5039559
  64.3722992  37.8677005  65.8297811  64.7885687  37.5500834  65.2457109
  76.5647822  30.4600353  64.9593328  76.7697415  30.3922661  65.8050325
  76.2374246  31.2659174  64.8914506  76.5463070  30.5686293  65.0752983
  71.2623973  37.7880921  66.7002296  70.9587110  37.2336909  67.3012704
  70.5603394  37.9673131  66.2130330  71.1140183  37.7325703  66.7172002
  70.3190070  35.0981441  61.2646998  70.5949804  34.3800353  60.8524566
  70.9188739  35.6966361  61.0568104  70.4483335  35.0801812  61.1727759
  69.3242324  45.0030642  71.4074394  69.2162679  45.0132704  72.2736452
  69.5338105  45.8285422  71.2179348  69.3392435  45.1271717  71.5078486
  73.8200590  32.7694958  59.5393593  74.2744337  32.9405519  60.2641438
  74.2940636  32.1563069  59.1391369  73.9568911  32.7045844  59.5867355
  67.3416116  42.2543284  68.8696332  66.7504049  42.8952782  68.8399347
  68.1037139  42.6780902  68.8427631  67.3664376  42.4119123  68.8611479
  67.7376739  33.4145282  69.5364349  68.1978220  33.4884211  70.2739473
  67.7832845  34.2126536  69.1864171  67.8127294  33.5439429  69.5937106
  69.3860088  34.0811977  74.1036376  68.9945653  33.4345324  74.5392154
  69.5545951  34.6723412  74.7230632  69.3530999  34.0726245  74.2599082
  77.1005632  47.7052596  66.3028356  76.9025321  48.1943410  65.6084567
  76.4793343  47.9093837  66.8812489  76.9793196  47.8069134  66.2851579
  71.1613610  39.4737493  60.6438600  71.9055655  39.8611769  60.8821550
  71.3074307  38.6294918  60.8079088  71.2924195  39.4067965  60.7032570
  73.0793186  31.2687752  65.6770462  72.2329231  31.4410559  65.5511812
  73.0764318  30.4637095  66.0136290  72.9540336  31.1748780  65.7081589
  74.1491486  35.0462966  66.5432520  73.6751441  34.5204728  67.0537831
  74.5209622  34.4992439  65.9747381  74.1341375  34.8878963  66.5347667
  64.5264516  37.0434473  71.9116065  65.3890129  36.9430182  71.8253395
  64.1956299  36.4629182  71.3501638  64.6049713  36.9426099  71.8161471
  76.0774986  35.9399521  59.6058273  75.5498005  36.0228265  58.9163982
  76.5370694  36.6817392  59.6022918  76.0676836  36.0620183  59.5032969
  67.8866302  35.8676922  68.5726484  67.2619373  35.8795314  67.9652436
  67.5511897  36.3437097  69.2217724  67.7451794  35.9395439  68.5783052
  68.0708051  34.2102040  54.6299169  67.7220855  34.8621765  55.0930718
  67.5904497  34.1959153  53.9023040  67.9478295  34.3045094  54.5910260
  64.5991978  43.9277382  70.0130248  64.0691902  43.2369821  70.0625223
  64.8717071  43.9187567  69.1842956  64.5616700  43.8244514  69.8977664
  75.6312068  44.5103084  58.7367930  76.3546267  44.9761197  58.5932504
  75.1912659  44.5776694  57.9865527  75.6727761  44.5886921  58.6052712
  74.7998223  41.3700626  69.9868619  74.1855217  40.8258677  70.2817255
  75.3165508  40.8564863  69.5074436  74.7853886  41.2137035  69.9592848
  74.0394521  42.4404896  67.7212918  73.6122129  41.8154615  67.2878353
  74.0319465  42.1579818  68.5471925  73.9753662  42.3057677  67.7792746
  67.1557048  37.4770069  70.7901352  67.3150534  36.7213394  71.1953074
  66.9749941  38.0261009  71.4442090  67.1522407  37.4463883  70.9464058
  72.3680230  33.3173651  67.9355452  72.3922718  32.7833763  67.2468232
  72.6191704  32.8090960  68.5981043  72.4090149  33.1634555  67.9320097
  59.8787820  40.6005146  67.3698596  59.7731269  40.5551990  66.5050680
  59.1288040  40.9458926  67.6512881  59.7523423  40.6446054  67.2835926
  68.6481553  32.0444469  67.3161196  68.6879924  32.5453676  68.0295904
  67.8231217  32.1354863  67.0467119  68.5321078  32.1326286  67.3811735
  70.0695916  38.5604979  69.6135095  69.2387846  38.7278797  69.4070344
  70.0147433  38.1840930  70.3983981  69.9385331  38.5294710  69.6983624
  68.4431960  36.8360571  60.1425213  68.5834921  37.3333035  60.8453854
  68.9414493  36.1346865  60.2839427  68.5373041  36.8062549  60.2676792
  68.4732182  37.7027682  57.4717790  69.1077262  38.2988107  57.4067252
  68.5557793  37.4031139  58.2863660  68.5788733  37.7468590  57.5820877
  70.0511165  33.6341657  57.4463232  70.3727006  33.1544740  56.7922494
  70.3138109  34.4441303  57.2554044  70.1377190  33.6831555  57.3218724
  75.4470320  33.0213851  69.8086711  75.8725392  32.5686377  69.1970237
  74.8327313  32.4673922  70.0851499  75.4198965  32.8727827  69.7591736
  64.9785170  39.8995522  60.7407336  65.4877399  40.4960030  61.1218641
  65.4519442  39.6321496  60.0583756  65.1228546  39.9481338  60.6961859
  75.8915918  48.5723789  58.8965992  75.1745228  48.3984651  58.4313229
  76.5422656  48.3376361  58.3641478  75.8817769  48.5119582  58.7495209
  73.8864543  29.4928951  63.2177288  73.2432861  29.3426597  63.7862426
  73.5463950  29.2471296  62.4526393  73.7409620  29.4341073  63.1880303
  72.5250623  49.5885090  67.8719055  72.3016277  48.8303919  68.2403081
  72.0360466  49.6183111  67.1499495  72.4194072  49.4807314  67.8195796
  67.3375702  36.5351781  63.6080516  66.6187691  36.9515913  63.8753380
  67.7088064  37.1006020  63.0572155  67.2867634  36.6801062  63.5663323
  76.6375283  37.1679630  69.4982512  76.6173210  36.9862925  70.3517291
  76.6854483  38.0391648  69.4742096  76.6409924  37.2696168  69.6205807
  71.1729080  49.8085548  65.3256140  70.7589479  49.1459678  64.9359981
  71.8576454  49.9563406  64.8051834  71.2127452  49.7326206  65.1912637
  74.5394374  48.9675633  66.0779756  74.1410657  49.0777903  65.3100576
  73.9245594  49.1757699  66.6606316  74.3893263  49.0149201  66.0511055
  73.1122276  35.5749781  58.9453896  72.5187115  35.8966777  58.3938463
  73.1497554  34.7290876  58.7375002  73.0296665  35.4974109  58.8336667
  75.9880093  35.5329285  62.3755646  75.7593786  35.5561987  61.5334004
  76.2478169  34.7086752  62.4950657  75.9926281  35.4145365  62.2680844
  70.2699321  37.3863758  71.9780746  69.7578224  36.7784941  72.3365778
  70.0978817  38.1020351  72.4454722  70.1688958  37.4027058  72.0996970
  65.1165036  35.8301334  74.6283108  64.9467626  36.4902708  74.0831315
  64.6730986  36.0407895  75.3495597  65.0264369  35.9587316  74.6544738
  69.0424855  34.0705832  63.6709842  69.5182222  34.4322911  63.0360023
  68.5413455  34.7262299  63.9509984  69.0390214  34.2200020  63.6186583
  62.0167100  38.7348199  69.8871598  61.4693820  38.0648845  70.0052466
  62.8059479  38.3678047  69.9515065  62.0519284  38.5813186  69.9140298
  71.0851508  36.2147031  57.0383226  71.4650473  36.2326661  56.2534340
  70.3444104  36.6601020  56.9174073  71.0320346  36.2828806  56.9046794
  78.7136799  34.5229223  62.6258804  78.7131025  34.3677879  63.4843081
  78.5092979  35.3692210  62.5700190  78.6836577  34.6249843  62.7446744
  76.4377651  39.2026724  66.2795011  76.9331316  38.4849719  66.2399032
  75.6277427  38.8997522  66.1649498  76.3921544  39.0524371  66.2568737
  71.8836262  43.0524538  58.4292016  71.0747585  42.7291211  58.3825325
  72.3911171  42.3457760  58.3620264  71.8385929  42.9005854  58.4122310
  62.5126540  40.4796731  64.1539380  61.6472059  40.4682421  64.0422151
  62.6125356  40.2926954  65.0010519  62.4000707  40.4502792  64.2628324
  78.5029470  41.9530412  68.9672140  78.9284541  41.4304834  68.4142565
  78.1386390  42.5511249  68.4460763  78.5116072  41.9640639  68.8081150
  68.1383550  50.2494629  67.7269486  68.4530109  51.0631018  67.7347267
  68.5476963  49.8644848  68.3951645  68.2451648  50.3123332  67.8273577
  75.0908069  45.6664676  65.2973297  75.5619247  46.3804939  65.4663283
  75.4268248  45.0663426  65.8333167  75.2103184  45.6836140  65.4005673
  71.0770679  32.4408560  59.7210857  71.8986373  32.6106872  59.4792552
  70.6140330  32.5955821  58.9977155  71.1301841  32.4890293  59.5782502
  69.6666011  30.4351322  70.5009286  70.2110424  30.0942449  71.0913628
  69.7202947  31.2936783  70.6430571  69.7555130  30.5106581  70.6091159
  65.4796570  44.1967738  67.3748094  66.0841427  44.1563572  66.7461915
  65.2723882  45.0438890  67.4052150  65.5385467  44.3155740  67.2864210
  60.7147852  43.1802355  67.2447017  60.6172130  42.3698627  67.5537074
  61.4976722  43.1594149  66.8593285  60.8163989  43.0569446  67.2333880
  77.8004510  51.8010031  55.9720055  77.0862687  51.5148211  56.3842488
  78.2848478  52.1406657  56.6126442  77.7663873  51.8091681  56.1275690
  69.7469920  53.5189120  63.5026926  69.8330172  53.1420988  64.2840456
  70.3745717  53.1449566  63.0246885  69.8526471  53.4074602  63.5472404
  76.9303841  50.4150002  60.7824529  76.6428636  50.0451273  60.0456477
  77.6174309  50.8844858  60.5208234  76.9892738  50.4296972  60.6339605
  74.5032035  51.1931215  61.6309810  74.6048172  51.9957376  61.9590786
  75.2987922  50.9918551  61.3332891  74.6359941  51.2817114  61.6345166
  74.7809090  53.8124425  62.8189204  75.1608055  54.2308970  62.1549472
  74.2064455  54.3937881  63.1258048  74.7520415  53.9602284  62.7665945
  75.9517754  55.4180830  60.7407336  76.4609983  56.0145338  61.1218641
  76.4252026  55.1506804  60.0583756  76.0961129  55.4666646  60.6961859
  78.3108285  52.0537089  63.6080516  77.5920274  52.4701221  63.8753380
  78.6820648  52.6191328  63.0572155  78.2600217  52.1986370  63.5663323
  57.0980474   8.6444419  49.0083416  56.3463373   8.2659957  48.7799462
  57.5466485   8.6762853  48.2602227  57.0530140   8.5930026  48.8640919
  62.5505433   9.0669788  44.4368964  62.2156802   9.7446710  44.0013186
  63.0632304   8.6775100  43.8485835  62.5771015   9.1094367  44.2855755
  62.0909725  11.0184057  50.3780075  62.4749104  11.5870956  49.8384850
  62.0268866  10.2933567  49.8985891  62.1383152  10.9959521  50.2273938
  58.6765230   8.6562811  51.2746189  58.7775593   7.8463165  51.5843317
  58.0806975   8.5619757  50.6445867  58.6037768   8.5227839  51.2272427
  58.5165969  13.5740400  52.6761045  59.1603425  14.0153564  53.0657203
  58.8422225  12.7693826  52.5891304  58.6597798  13.5205595  52.7206522
  51.8730274   4.6783098  50.8998523  51.6380459   3.8450750  50.7930791
  52.0115915   4.9587763  50.0859724  51.8585937   4.5966601  50.7640878
  59.2186549   6.5852375  48.0480907  59.5402390   7.1257582  47.4442215
  59.8658646   6.0149146  48.1803197  59.3612604   6.5811550  47.9787942
  53.4347599   9.5568768  52.1754729  52.9515177  10.2819258  52.1514312
  54.2470917   9.8544898  52.2864887  53.4838346   9.7071122  52.1882008
  59.5061753   8.3500949  54.7804543  58.9888694   7.9908364  54.1765851
  60.2036144   7.8263124  54.7910609  59.5327334   8.2198637  54.6934802
  63.1625345   8.7995763  60.7420716  63.2508691   8.6121904  61.5898927
  63.5915057   8.1533193  60.3425563  63.2387447   8.6758771  60.8092468
  60.7295805   8.0826923  59.7238378  60.1666639   7.6699533  60.2478040
  61.4916828   8.0079829  60.1431522  60.7590253   8.0104324  59.8631379
  56.2891796  10.0724944  52.3275009  56.9912375   9.5576933  52.3847765
  56.2089279  10.3999096  53.1321884  56.3815556  10.0439171  52.4547801
  55.6142571   6.2631296  51.8360617  56.4531471   6.4954229  51.8834378
  55.6454341   5.3935608  51.7667652  55.7424289   6.1688243  51.8325261
  56.2395274   6.6832171  56.1373922  56.7793499   6.5403303  56.8077295
  55.5565221   7.0828922  56.5057948  56.2187428   6.7211842  56.2908344
  63.2745404   8.2304782  63.4064500  64.0585821   8.3435630  63.7720242
  63.0741999   7.4045919  63.6023186  63.3611429   8.1251502  63.4898886
  63.4315797  10.1414884  57.0530955  62.6331043   9.9014384  57.3104824
  63.8801809  10.1929277  57.7998003  63.3790409  10.1137275  57.2015880
  52.0525833   3.6891242  53.5720088  51.8701406   3.6638128  52.7192380
  52.7875502   4.1590180  53.6108997  52.1339897   3.7552604  53.4518006
  58.3918893   5.9500032  50.6064030  59.0292840   5.7111779  51.1515823
  58.8173965   6.1537191  49.8717191  58.5495059   5.9451042  50.5781187
  53.0831535   8.1888368  54.4898334  53.1235681   8.4603219  53.6618113
  53.6426059   8.7130276  54.9056122  53.1714881   8.3064123  54.4290222
  60.7740365   6.4272454  52.2857816  60.8479373   6.2647626  53.1399666
  61.5909871   6.6162644  52.0418298  60.9056724   6.4309197  52.3755842
  54.5346122   6.7730317  49.3152260  53.7084239   7.0192054  49.1886539
  54.5958113   6.6942398  50.1814318  54.4220289   6.7975266  49.4241204
  59.3144951   9.3907198  47.0171290  59.6043249   8.9996179  46.2930516
  60.0448432   9.5723902  47.4576565  59.4651835   9.3601011  46.9754097
  57.2550866  11.3674580  50.0831439  57.0351162  11.0771935  50.8758106
  57.0345388  10.7089535  49.5549352  57.1898460  11.2274288  50.1220348
  59.4218822  12.7403970  48.8662132  60.0742880  12.2080412  49.0953158
  58.7244431  12.3872622  49.2530006  59.4149540  12.6093493  48.9574300
  56.3700087   5.0943148  48.2729506  57.1246055   5.4756187  48.4864969
  55.7770700   5.5454291  48.7276203  56.3936800   5.2171975  48.3712385
  57.6898313   6.2651709  53.6469622  57.1679067   6.4052001  54.3321486
  58.0772334   5.5062373  53.8371739  57.6702014   6.1737233  53.7770698
  63.8865318   8.0047168  47.6330190  63.6451994   7.2715029  47.2257255
  64.0666651   8.5534025  46.9796524  63.8772942   7.9769559  47.4760413
  58.2544799   9.9712489  56.7299477  58.4034363   9.4115405  56.0772881
  59.0344801  10.0504491  57.1131996  58.3918892   9.8998054  56.6896426
  60.7798099  10.1427132  58.0083968  60.7041771   9.4735942  58.5634756
  60.7087959  10.8444920  58.5224634  60.7578706  10.1472039  58.1660816
  61.4368346   8.6628131  48.8407574  62.2018237   8.3937774  48.5190238
  61.3346436   8.1778141  49.5577637  61.5349842   8.5517695  48.8987401
  60.1689734  13.5495451  56.4661969  60.6585664  12.8506241  56.2837633
  59.5973966  13.2519321  57.0538026  60.1574264  13.4021675  56.5263009
  60.6626080   7.2972225  45.5901875  60.7318900   6.4386764  45.7294876
  61.4414535   7.5144106  45.2620900  60.7878930   7.2025089  45.5619032
  65.0533567   9.7209926  49.8038368  64.6613359   9.4176642  49.0861235
  65.2086639  10.5579016  49.6143322  65.0187157   9.7993763  49.6694866
  58.0460564   6.4223465  58.3414441  57.9380919   6.4325527  59.2076499
  58.2556346   7.2478245  58.1519395  58.0610675   6.5464540  58.4418532
  65.8223872   9.1245419  53.2368403  65.6243561   9.6136234  52.5424614
  65.2011583   9.3286661  53.8152536  65.7011437   9.2261957  53.2191626
  53.3210218   5.3470205  56.9470295  52.7910143   4.6562644  56.9965269
  53.5935312   5.3380390  56.1183003  53.2834941   5.2437337  56.8317711
  48.6006061   2.0197969  54.3038643  48.4949510   1.9744813  53.4390727
  47.8506280   2.3651750  54.5852928  48.4741663   2.0638877  54.2175973
  62.0026378   6.0753355  57.9002095  61.4951469   6.6289201  58.3442725
  61.7053024   6.1361644  57.0820869  61.8831263   6.1659666  57.8450552
  64.6134158   9.9916612  45.8306038  63.8963468   9.8177475  45.3653276
  65.2640896   9.7569185  45.2981524  64.6036009   9.9312405  45.6835256
  61.2468863  11.0077913  54.8059102  61.0234518  10.2496742  55.1743128
  60.7578707  11.0375934  54.0839541  61.1412312  10.9000137  54.7535843
  59.8947320  11.2278371  52.2596186  59.4807719  10.5652501  51.8700028
  60.5794695  11.3756230  51.7391881  59.9345692  11.1519029  52.1252683
  63.2612614  10.3868456  53.0119803  62.8628898  10.4970727  52.2440623
  62.6463834  10.5950523  53.5946363  63.1111504  10.4342024  52.9851102
  56.8601790  11.6687453  54.6609532  57.1748349  12.4823841  54.6687314
  57.2695203  11.2837671  55.3291691  56.9669888  11.7316155  54.7613624
  54.2014810   5.6160561  54.3088141  54.8059668   5.5756395  53.6801961
  53.9942123   6.4631713  54.3392197  54.2603707   5.7348564  54.2204257
  64.0158582   7.8826506  55.5250378  64.8356956   7.7389472  55.7866673
  63.7352660   8.5072705  56.0666816  64.0955326   7.9536858  55.6438318
  49.4366092   4.5995179  54.1787064  49.3390370   3.7891450  54.4877121
  50.2194962   4.5786972  53.7933332  49.5382229   4.4762269  54.1673927
  73.6871917  14.6267009  53.2446185  72.8309813  14.7875507  53.2955302
  73.7339571  13.7559073  53.2651246  73.5671029  14.5217811  53.2552251
  68.0713057  24.1629727  49.0083416  67.3195957  23.7845265  48.7799462
  68.5199069  24.1948160  48.2602227  68.0262724  24.1115334  48.8640919
  73.5238017  24.5855096  44.4368964  73.1889386  25.2632018  44.0013186
  74.0364888  24.1960408  43.8485835  73.5503598  24.6279675  44.2855755
  73.0642308  26.5369365  50.3780075  73.4481688  27.1056264  49.8384850
  73.0001450  25.8118875  49.8985891  73.1115736  26.5144828  50.2273938
  76.5323739  16.6859053  55.8877837  77.0779699  17.3644139  55.9471806
  76.4740615  16.5446514  55.0279418  76.6039653  16.7651055  55.7689897
  69.6497813  24.1748119  51.2746189  69.7508176  23.3648473  51.5843317
  69.0539559  24.0805065  50.6445867  69.5770352  24.0413147  51.2272427
  69.4898553  29.0925708  52.6761045  70.1336008  29.5338872  53.0657203
  69.8154809  28.2879134  52.5891304  69.6330382  29.0390903  52.7206522
  62.8462858  20.1968406  50.8998523  62.6113042  19.3636058  50.7930791
  62.9848498  20.4773071  50.0859724  62.8318520  20.1151909  50.7640878
  65.1452945  12.3654136  53.7982830  64.5257977  11.7746783  53.6292845
  65.0436809  12.9565571  53.1647154  65.0390621  12.3658219  53.6787820
  70.1919133  22.1037683  48.0480907  70.5134974  22.6442890  47.4442215
  70.8391229  21.5334454  48.1803197  70.3345188  22.0996858  47.9787942
  72.2420841  14.1053678  48.1315293  72.9401005  14.2841805  48.6236757
  72.5573173  13.5824017  47.5085683  72.3916178  14.0547450  48.1117304
  64.8722078  15.9106418  56.0426399  64.7480775  16.4968863  56.6776218
  65.5240363  15.4166614  56.3438674  64.9495727  15.9245222  56.1812329
  72.4308776  20.4924123  48.1195085  72.8702412  19.8841223  48.5649858
  72.2813439  20.1131496  47.3480550  72.4730242  20.3462594  48.0714252
  69.8980419  19.0868135  55.3213910  70.5429422  18.5940578  55.0024859
  70.1382196  19.2292921  56.1479989  70.0291004  19.0345577  55.3963444
  72.4366511  21.9323041  54.9720803  72.7189753  21.1374446  54.7507559
  73.1652671  22.4103628  54.9925864  72.5856074  21.8857638  54.9423818
  70.4147704   9.4746075  52.2136568  70.0851034   9.9257218  51.5440267
  69.7392706   9.3962238  52.7609575  70.2658141   9.5297210  52.1959791
  76.0318113  18.8451304  45.0725854  75.9469408  19.7012271  45.2175423
  76.5202496  18.5695628  45.7408013  76.0907010  18.9308626  45.1927936
  76.9636546  15.4636098  46.5723589  76.4348017  15.6795732  47.2320895
  77.4861566  16.1572237  46.4924559  76.9624999  15.5979235  46.6579188
  68.8536154  19.3599315  45.3731057  68.2693369  19.8649347  45.7796921
  68.4506249  19.1341702  44.6327649  68.7075458  19.4007563  45.3236082
  64.4080182  25.0754076  52.1754729  63.9247761  25.8004566  52.1514312
  65.2203501  25.3730206  52.2864887  64.4570930  25.2256430  52.1882008
  70.4794336  23.8686257  54.7804543  69.9621278  23.5093672  54.1765851
  71.1768728  23.3448431  54.7910609  70.5059918  23.7383945  54.6934802
  74.1357928  24.3181071  60.7420716  74.2241274  24.1307212  61.5898927
  74.5647641  23.6718501  60.3425563  74.2120031  24.1944079  60.8092468
  71.7028388  23.6012231  59.7238378  71.1399223  23.1884841  60.2478040
  72.4649412  23.5265137  60.1431522  71.7322837  23.5289632  59.8631379
  73.3113368  15.6064967  43.8499978  73.5509372  15.8142951  43.0375321
  73.6329209  14.8022476  43.9588922  73.3950526  15.5179068  43.7460531
  67.2624380  25.5910252  52.3275009  67.9644959  25.0762241  52.3847765
  67.1821863  25.9184404  53.1321884  67.3548140  25.5624478  52.4547801
  68.3103286  15.8285839  61.4555424  68.4823790  15.7191734  62.3040705
  68.8472644  16.4740245  61.2186616  68.4148290  15.9077841  61.5460520
  66.9760723   9.9428682  44.3937629  66.7936296  10.1600563  43.5678622
  67.8386336  10.0567695  44.4496243  67.0765313   9.9918580  44.2792116
  66.5875155  21.7816604  51.8360617  67.4264054  22.0139537  51.8834378
  66.6186924  20.9120916  51.7667652  66.7156873  21.6873551  51.8325261
  67.2127858  22.2017479  56.1373922  67.7526083  22.0588610  56.8077295
  66.5297804  22.6014230  56.5057948  67.1920012  22.2397150  56.2908344
  76.6368743  17.8808480  51.3318947  77.3926258  18.3139994  51.3707855
  76.7431067  17.2313250  51.9053583  76.7638914  17.8485964  51.4216972
  74.2477988  23.7490090  63.4064500  75.0318404  23.8620938  63.7720242
  74.0474582  22.9231227  63.6023186  74.3344013  23.6436810  63.4898886
  62.6165003  18.4217770  56.2908344  62.3503418  17.6056887  56.4499334
  62.6303567  18.4670926  55.4203859  62.5789725  18.3074675  56.1861826
  66.5222750  13.2202855  42.9060102  65.8080927  12.9341034  43.3182534
  67.0066719  13.5599480  43.5466489  66.4882113  13.2284504  43.0615737
  67.3663609  11.9596149  58.9375351  66.6735406  11.4893128  59.1836083
  67.9823937  11.7334453  59.5117059  67.3548139  11.8563280  59.0584504
  74.4048381  25.6600192  57.0530955  73.6063627  25.4199692  57.3104824
  74.8534393  25.7114585  57.7998003  74.3522992  25.6322583  57.2015880
  73.6970068  21.7232809  43.2821910  74.1121216  21.3917832  42.5906406
  72.8661998  21.4901711  43.1542047  73.6358077  21.6404065  43.1612757
  63.0258417  19.2076550  53.5720088  62.8433990  19.1823436  52.7192380
  63.7608086  19.6775487  53.6108997  63.1072481  19.2737912  53.4518006
  66.0904168  15.9261552  60.0802197  66.8144141  15.9114583  60.5667091
  66.1920305  16.6356908  59.5824165  66.2122377  16.0286256  60.0780983
  76.1380437  16.1294628  49.2346159  76.2327291  16.8683922  49.6885785
  75.5139280  15.7012104  49.6680724  76.0589467  16.1755949  49.3654307
  74.3932911  19.3080841  59.8836440  74.9671772  18.6708085  60.0385004
  74.3147714  19.3084923  59.0146098  74.4666146  19.2145952  59.7782851
  62.9929327  16.0870050  53.7219155  63.5702830  15.9506501  54.3611400
  62.2943389  15.6305834  53.9764739  62.9750348  15.9992317  53.8541444
  76.3903458  17.9743368  42.4683111  76.3083621  18.0445555  43.3338098
  77.0283179  18.5373112  42.2766852  76.4723295  18.0682339  42.5673061
  69.7496629  17.7404106  51.9357638  69.4915874  16.9075841  51.9088937
  69.8045112  17.9661719  51.0950138  69.7196407  17.6501877  51.8077775
  72.3904630  13.7665218  57.2814911  72.0019063  13.3419435  56.6267102
  71.7259328  14.0147367  57.7891938  72.2351558  13.7403939  57.2602779
  58.4688160  14.9381943  50.4366973  58.5548412  14.5613812  51.2180503
  59.0963958  14.5642389  49.9586931  58.5744711  14.8267425  50.4812450
  73.4943568  17.9963822  45.4791718  74.3084207  18.2878715  45.3674489
  73.4302710  17.3423685  44.9050011  73.6046307  17.9429017  45.3780555
  69.3651477  21.4685340  50.6064030  70.0025424  21.2297087  51.1515823
  69.7906548  21.6722499  49.8717191  69.5227643  21.4636350  50.5781187
  64.0564119  23.7073676  54.4898334  64.0968264  23.9788527  53.6618113
  64.6158643  24.2315584  54.9056122  64.1447465  23.8249431  54.4290222
  70.0054292  16.6887630  44.9438919  70.3899444  16.4695336  45.6955465
  69.7565912  17.5150575  45.0739996  70.0256364  16.7785776  45.0739996
  71.7472949  21.9457762  52.2857816  71.8211957  21.7832934  53.1399666
  72.5642455  22.1347952  52.0418298  71.8789307  21.9494505  52.3755842
  65.5078705  22.2915625  49.3152260  64.6816823  22.5377362  49.1886539
  65.5690696  22.2127706  50.1814318  65.3952872  22.3160574  49.4241204
  67.7254729   8.3584566  50.2747700  66.8577154   8.4307166  50.3405309
  68.0129933   9.1606645  50.4635675  67.6394477   8.4878713  50.3122467
  70.2877534  24.9092505  47.0171290  70.5775833  24.5181487  46.2930516
  71.0181015  25.0909210  47.4576565  70.4384418  24.8786319  46.9754097
  70.8772279  19.7110251  58.1024420  70.3783973  20.4226019  58.1809309
  71.6872504  20.0310918  58.0642583  70.9228386  19.8637100  58.1080989
  68.2283450  26.8859888  50.0831439  68.0083745  26.5957243  50.8758106
  68.0077972  26.2274843  49.5549352  68.1631044  26.7459596  50.1220348
  67.1400397  18.9733204  52.3487141  66.8513646  18.3470676  52.8832868
  68.0083745  18.9153492  52.4151822  67.2260649  18.8720749  52.4378096
  77.9278295  14.1167988  52.6669123  77.5843061  13.3958323  53.0176373
  78.0271337  13.9081839  51.8247481  77.8920338  13.9792191  52.5940803
  70.3951406  28.2589278  48.8662132  71.0475464  27.7265720  49.0953158
  69.6977014  27.9057930  49.2530006  70.3882124  28.1278801  48.9574300
  67.3432670  20.6128455  48.2729506  68.0978638  20.9941494  48.4864969
  66.7503283  21.0639599  48.7276203  67.3669384  20.7357283  48.3712385
  78.3891324  20.5793692  48.2093111  78.9549357  21.2386902  48.1251654
  77.7419227  20.9243390  48.6809513  78.3770080  20.7275633  48.2665868
  68.6630897  21.7837017  53.6469622  68.1411651  21.9237308  54.3321486
  69.0504917  21.0247681  53.8371739  68.6434598  21.6922541  53.7770698
  65.6522081  11.8342825  47.7164576  65.3646877  11.4644096  46.9796524
  66.3392549  12.3037681  47.4548281  65.7110978  11.8489795  47.5679652
  74.8597902  23.5232476  47.6330190  74.6184578  22.7900337  47.2257255
  75.0399235  24.0719333  46.9796524  74.8505526  23.4954867  47.4760413
  70.0897223  18.8141036  49.0451113  69.8940005  19.4215770  48.4511416
  70.3131568  18.1208980  48.5642787  70.0931864  18.8018561  48.8867193
  68.4875753  15.6995774  49.1631981  69.2098405  15.8636932  48.7035787
  68.0083745  16.4205439  49.0571321  68.5239483  15.8294003  49.0797595
  76.4469260  12.0359573  54.5428666  75.6080361  12.0620851  54.3066929
  76.5173628  12.6830308  55.1234012  76.3337654  12.1355698  54.5937783
  66.1383369  18.1053846  58.2686121  66.6504466  18.3838099  57.6194881
  65.8519712  18.8443140  58.6348934  66.1718232  18.2556200  58.2275999
  63.2250276  12.6124038  48.5649857  63.3266412  13.4150199  48.8930833
  64.0206162  12.4111374  48.2672938  63.3578181  12.7009937  48.5685213
  69.6567095  10.1980235  58.3287162  69.4650292  10.2135369  59.1786586
  70.5065691  10.3943909  58.3053817  69.7542817  10.2294586  58.4510457
  64.0414008  12.7271216  56.3070979  63.8999500  11.8755157  56.4315487
  64.3254571  12.7699877  55.4833185  64.0621854  12.6070966  56.2038603
  74.1952600  14.5638306  50.4515467  73.9487314  14.4834057  51.2852256
  74.5237723  13.7791774  50.2577995  74.2073844  14.4364572  50.5462990
  78.0900649  21.2721666  54.2402248  77.9515008  21.9702712  54.7450991
  77.3100647  21.1170322  53.8838430  77.9543876  21.3521832  54.2628523
  70.1549627  17.2995025  59.8638450  70.2993003  17.8796233  59.2281560
  70.5025276  17.6771322  60.5688305  70.2277089  17.4415729  59.8737445
  72.3269545  16.4985193  57.6463582  71.5792859  16.6916208  57.2411860
  72.4811070  15.6730413  57.4087703  72.2391972  16.4050305  57.5508988
  69.2277382  25.4897797  56.7299477  69.3766946  24.9300713  56.0772881
  70.0077384  25.5689798  57.1131996  69.3651476  25.4183362  56.6896426
  71.7530683  25.6612440  58.0083968  71.6774354  24.9921250  58.5634756
  71.6820542  26.3630228  58.5224634  71.7311290  25.6657347  58.1660816
  72.5671322  10.3935744  58.5358986  73.0243936  11.1259718  58.6631778
  72.6427651   9.9702209  59.2946241  72.6462292  10.4392982  58.6660062
  64.8104313  10.6401564  59.6248429  64.2746502  10.0281922  59.9409197
  64.8722078  11.2149700  60.2782096  64.7399946  10.6348492  59.7683856
  72.4100930  24.1813439  48.8407574  73.1750821  23.9123082  48.5190238
  72.3079020  23.6963449  49.5577637  72.5082425  24.0703003  48.8987401
  70.4453700  12.3837848  55.3800810  69.6549774  12.2029308  55.7018145
  70.8414323  11.6064801  55.3631104  70.3870576  12.2425309  55.4253358
  74.9319590  21.2125622  40.8207523  75.6992576  21.2725747  40.4113375
  74.4850899  20.6406064  40.3363842  74.9793018  21.1362198  40.6885233
  75.8297386  20.0180278  53.1060255  75.1542388  19.7865510  53.6073642
  75.8389762  19.4101461  52.4802360  75.7315891  19.8939203  53.0876408
  72.9591530  14.8598107  59.8624308  72.8950671  15.7208064  59.7344445
  73.0988718  14.5430100  59.0619860  72.9707000  14.9398274  59.7252521
  77.8314121  22.8745411  45.3370433  77.9133958  23.6812397  45.0131884
  78.3163863  22.8941370  46.0611207  77.9151278  22.9966073  45.3957332
  71.6410624  17.5530246  54.0040511  71.2172873  17.7534746  53.2679530
  71.4655479  16.7059094  54.1164811  71.5521504  17.4579028  53.9114201
  71.1422317  29.0680759  56.4661969  71.6318248  28.3691549  56.2837633
  70.5706550  28.7704629  57.0538026  71.1306847  28.9206983  56.5263009
  66.9293069  18.0482298  49.4368484  67.0857688  17.9829101  50.2924476
  67.2693662  18.8230850  49.2247164  67.0026304  18.1531496  49.5323078
  73.4672213  17.4240181  48.3061847  74.0087759  16.9210563  48.7700468
  73.7818772  17.3705376  47.4951332  73.5936611  17.3419602  48.2545659
  71.6358663  22.8157533  45.5901875  71.7051483  21.9572071  45.7294876
  72.4147118  23.0329414  45.2620900  71.7611513  22.7210397  45.5619032
  74.6161483  12.3176486  58.3584148  74.8303452  11.6787400  57.8047502
  73.9995382  12.7622310  57.9292009  74.5566812  12.2886630  58.2134579
  76.0266151  25.2395234  49.8038368  75.6345942  24.9361949  49.0861235
  76.1819223  26.0764324  49.6143322  75.9919741  25.3179071  49.6694866
  63.5027330  15.2317248  49.7529251  63.8826295  15.6501793  49.0889518
  62.9282695  15.8130704  50.0598094  63.4738655  15.3795107  49.7005992
  76.1905825  21.8045223  49.7444399  75.8320480  21.9759866  50.5208431
  75.7044536  22.2658429  49.1872397  76.0664522  21.8984194  49.7769668
  70.9794191  17.4844389  42.2844633  71.2686716  18.2609271  42.5588208
  71.0665990  16.9733120  42.9859133  71.0348447  17.5236307  42.4287131
  77.3510565  22.6949119  60.6911600  77.9890285  22.2009315  60.3574056
  76.7084656  22.6226520  60.1063827  77.3504791  22.6108128  60.5553955
  77.4064821  23.3868927  57.3316957  78.1957200  23.0357992  57.4519038
  77.5808419  24.2005316  57.0693590  77.5485103  23.4554785  57.3104825
  67.1458132  16.7977653  54.3844745  66.3046138  16.6981527  54.5923639
  67.3548140  17.5673133  54.7359066  67.0522824  16.8969696  54.4672060
  64.6233699  14.4197190  52.2129496  64.2290397  14.4940202  51.4379606
  64.0673816  14.8055136  52.7637858  64.4836511  14.4878965  52.1797156
  70.9574797  14.7259052  53.6342343  70.6537934  14.1715041  54.2352751
  70.2554218  14.9051262  53.1470377  70.8091007  14.6703835  53.6512049
  70.0140894  12.0359572  48.1987045  70.2900628  11.3178485  47.7864612
  70.6139563  12.6344492  47.9908151  70.1434158  12.0179943  48.1067806
  69.0193148  21.9408773  58.3414441  68.9113503  21.9510835  59.2076499
  69.2288929  22.7663553  58.1519395  69.0343259  22.0649848  58.4418532
  67.0366940  19.1921415  55.8036378  66.4454873  19.8330914  55.7739393
  67.7987963  19.6159033  55.7767678  67.0615200  19.3497254  55.7951526
  67.4327563  10.3523413  56.4704396  67.8929044  10.4262343  57.2079520
  67.4783669  11.1504667  56.1204217  67.5078118  10.4817560  56.5277152
  69.0810912  11.0190108  61.0376423  68.6896477  10.3723455  61.4732201
  69.2496775  11.6101543  61.6570678  69.0481823  11.0104376  61.1939129
  76.7956456  24.6430727  53.2368403  76.5976145  25.1321541  52.5424614
  76.1744167  24.8471968  53.8152536  76.6744020  24.7447265  53.2191626
  70.8564434  16.4115624  47.5778647  71.6006479  16.7989900  47.8161597
  71.0025130  15.5673049  47.7419135  70.9875019  16.3446097  47.6372617
  73.8442310  11.9841097  53.4772566  73.3702264  11.4582859  53.9877877
  74.2160446  11.4370570  52.9087428  73.8292199  11.8257094  53.4687714
  64.2215340  13.9812604  58.8456112  65.0840953  13.8808313  58.7593442
  63.8907123  13.4007313  58.2841684  64.3000537  13.8804231  58.7501518
  75.7725810  12.8777652  46.5398320  75.2448828  12.9606396  45.8504029
  76.2321518  13.6195523  46.5362965  75.7627660  12.9998314  46.4373015
  67.5817126  12.8055053  55.5066530  66.9570196  12.8173445  54.8992483
  67.2462721  13.2815228  56.1557771  67.4402618  12.8773570  55.5123099
  67.7658875  11.1480171  41.5639215  67.4171679  11.7999897  42.0270765
  67.2855321  11.1337284  40.8363087  67.6429119  11.2423225  41.5250307
  64.2942802  20.8655513  56.9470295  63.7642726  20.1747952  56.9965269
  64.5667895  20.8565698  56.1183003  64.2567524  20.7622645  56.8317711
  75.3262892  21.4481215  45.6707977  76.0497091  21.9139328  45.5272551
  74.8863483  21.5154825  44.9205574  75.3678585  21.5265052  45.5392759
  74.4949047  18.3078758  56.9208666  73.8806041  17.7636808  57.2157302
  75.0116332  17.7942994  56.4414482  74.4804710  18.1515167  56.8932895
  73.7345345  19.3783028  54.6552965  73.3072953  18.7532746  54.2218400
  73.7270289  19.0957949  55.4811972  73.6704486  19.2435808  54.7132792
  66.8507872  14.4148201  57.7241399  67.0101358  13.6591525  58.1293121
  66.6700765  14.9639140  58.3782137  66.8473231  14.3842014  57.8804105
  72.0631054  10.2551782  54.8695499  72.0873541   9.7211894  54.1808279
  72.3142528   9.7469091  55.5321089  72.1040973  10.1012686  54.8660144
  59.5738644  17.5383277  54.3038643  59.4682093  17.4930121  53.4390727
  58.8238864  17.8837058  54.5852928  59.4474247  17.5824185  54.2175973
  68.3432376   8.9822600  54.2501243  68.3830748   9.4831807  54.9635951
  67.5182041   9.0732994  53.9807166  68.2271902   9.0704417  54.3151781
  70.5261989  18.5483340  62.3521538  69.6757620  18.6855055  62.4879183
  70.6890117  17.8147119  62.7969239  70.4245853  18.4597442  62.4377137
  69.7646740  15.4983110  56.5475142  68.9338670  15.6656928  56.3410390
  69.7098257  15.1219061  57.3324028  69.6336155  15.4672841  56.6323670
  68.1382784  13.7738702  47.0765260  68.2785745  14.2711166  47.7793901
  68.6365317  13.0724996  47.2179474  68.2323865  13.7440680  47.2016839
  68.1683006  14.6405813  44.4057837  68.8028086  15.2366238  44.3407299
  68.2508617  14.3409270  45.2203707  68.2739557  14.6846721  44.5160923
  69.7461989  10.5719788  44.3803279  70.0677830  10.0922871  43.7262541
  70.0088933  11.3819434  44.1894090  69.8328014  10.6209686  44.2558771
  72.9758962  21.5938663  57.9002095  72.4684053  22.1474509  58.3442725
  72.6785608  21.6546952  57.0820869  72.8563847  21.6844974  57.8450552
  64.6735994  16.8373653  47.6747383  65.1828223  17.4338161  48.0558688
  65.1470266  16.5699627  46.9923802  64.8179370  16.8859469  47.6301905
  75.5866742  25.5101920  45.8306038  74.8696052  25.3362782  45.3653276
  76.2373480  25.2754492  45.2981524  75.5768593  25.4497713  45.6835256
  78.1714713  14.3866509  49.5747343  77.5005903  14.9296211  49.4460409
  78.8654464  14.8561364  49.3329038  78.1743581  14.5364780  49.5202871
  72.2201447  26.5263221  54.8059102  71.9967101  25.7682050  55.1743128
  71.7311290  26.5561242  54.0839541  72.1144896  26.4185445  54.7535843
  67.0326526  13.4729912  50.5420563  66.3138515  13.8894045  50.8093427
  67.4038888  14.0384151  49.9912201  66.9818457  13.6179193  50.5003370
  76.3326107  14.1057761  56.4322559  76.3124034  13.9241056  57.2857338
  76.3805307  14.9769779  56.4082143  76.3360748  14.2074299  56.5545854
  74.2772436  20.6944953  62.3571035  74.2368291  20.0494630  61.7716191
  75.0895755  20.6381570  62.6696448  74.3915590  20.5903920  62.3167985
  70.8679904  26.7463679  52.2596186  70.4540303  26.0837809  51.8700028
  71.5527278  26.8941538  51.7391881  70.9078276  26.6704337  52.1252683
  74.2345198  25.9053764  53.0119803  73.8361481  26.0156034  52.2440623
  73.6196418  26.1135830  53.5946363  74.0844087  25.9527332  52.9851102
  72.8073100  12.5127912  45.8793943  72.2137939  12.8344908  45.3278510
  72.8448378  11.6669007  45.6715049  72.7247489  12.4352240  45.7676714
  75.6830917  12.4707416  49.3095693  75.4544610  12.4940118  48.4674051
  75.9428993  11.6464883  49.4290703  75.6877105  12.3523496  49.2020891
  69.9650145  14.3241889  58.9120793  69.4529048  13.7163072  59.2705824
  69.7929641  15.0398482  59.3794769  69.8639782  14.3405189  59.0337017
  64.8115860  12.7679465  61.5623155  64.6418450  13.4280840  61.0171362
  64.3681810  12.9786026  62.2835644  64.7215193  12.8965447  61.5884784
  68.7375679  11.0083963  50.6049889  69.2133045  11.3701043  49.9700070
  68.2364279  11.6640430  50.8850031  68.7341038  11.1578152  50.5526630
  61.7117924  15.6726330  56.8211645  61.1644644  15.0026976  56.9392513
  62.5010302  15.3056178  56.8855112  61.7470108  15.5191317  56.8480345
  71.5602333  15.3333787  62.3175056  72.3113660  15.6485464  62.6314610
  71.7524909  15.1312958  61.4908978  71.6993747  15.3501169  62.2418452
  70.7802332  13.1525163  43.9723273  71.1601297  13.1704792  43.1874387
  70.0394928  13.5979151  43.8514120  70.7271170  13.2206937  43.8386841
  60.4704894  14.8847138  53.9757668  60.2926655  14.4323747  54.7012583
  60.1823916  15.6873300  54.1596145  60.4017847  14.9369696  54.1101171
  76.1328475  16.1404856  53.2135058  76.6282140  15.4227851  53.1739078
  75.3228251  15.8375653  53.0989545  76.0872368  15.9902502  53.1908784
  71.5787086  19.9902669  45.3632063  70.7698409  19.6669342  45.3165372
  72.0861995  19.2835891  45.2960311  71.5336753  19.8383985  45.3462357
  62.2077364  17.4174862  51.0879427  61.3422883  17.4060552  50.9762198
  62.3076180  17.2305085  51.9350566  62.0951531  17.3880923  51.1968371
  78.1980294  18.8908543  55.9012187  78.6235365  18.3682965  55.3482612
  77.8337214  19.4889380  55.3800810  78.2066896  18.9018770  55.7421197
  67.8334374  27.1872761  54.6609532  68.1480933  28.0009149  54.6687314
  68.2427787  26.8022979  55.3291691  67.9402472  27.2501463  54.7613624
  74.7858893  22.6042807  52.2313344  75.2570071  23.3183070  52.4003330
  75.1219072  22.0041557  52.7673214  74.9054008  22.6214272  52.3345720
  75.4232840  22.3960741  58.9941037  74.8753786  21.7718625  58.7261102
  75.8845868  22.5855014  58.2785116  75.4100049  22.3319792  58.8491468
  70.7721503   9.3786691  46.6550904  71.5937197   9.5485004  46.4132599
  70.3091154   9.5333952  45.9317202  70.8252665   9.4268424  46.5122548
  65.1747394  21.1345869  54.3088141  65.7792251  21.0941703  53.6801961
  64.9674706  21.9817021  54.3392197  65.2336291  21.2533872  54.2204257
  74.9891166  23.4011814  55.5250378  75.8089540  23.2574780  55.7866673
  74.7085243  24.0258013  56.0666816  75.0687909  23.4722166  55.6438318
  60.4098676  20.1180487  54.1787064  60.3122954  19.3076758  54.4877121
  61.1927546  20.0972280  53.7933332  60.5114812  19.9947577  54.1673927
  73.8195441  35.7153713  50.8998523  73.5845626  34.8821366  50.7930791
  73.9581082  35.9958379  50.0859724  73.8051104  35.6337217  50.7640878
  76.1185529  27.8839444  53.7982830  75.4990560  27.2932091  53.6292845
  76.0169392  28.4750879  53.1647154  76.0123204  27.8843527  53.6787820
  75.8454662  31.4291726  56.0426399  75.7213359  32.0154171  56.6776218
  76.4972946  30.9351921  56.3438674  75.9228311  31.4430530  56.1812329
  75.3812766  40.5939384  52.1754729  74.8980344  41.3189874  52.1514312
  76.1936084  40.8915514  52.2864887  75.4303514  40.7441738  52.1882008
  78.2356963  41.1095560  52.3275009  78.9377542  40.5947549  52.3847765
  78.1554446  41.4369712  53.1321884  78.3280724  41.0809786  52.4547801
  77.9493307  25.4613990  44.3937629  77.7668880  25.6785871  43.5678622
  78.8118920  25.5753003  44.4496243  78.0497896  25.5103888  44.2792116
  77.5607739  37.3001912  51.8360617  78.3996638  37.5324845  51.8834378
  77.5919508  36.4306224  51.7667652  77.6889456  37.2058859  51.8325261
  78.1860442  37.7202787  56.1373922  78.7258667  37.5773918  56.8077295
  77.5030388  38.1199538  56.5057948  78.1652595  37.7582458  56.2908344
  73.5897587  33.9403078  56.2908344  73.3236002  33.1242195  56.4499334
  73.6036151  33.9856234  55.4203859  73.5522309  33.8259983  56.1861826
  77.4955334  28.7388163  42.9060102  76.7813511  28.4526342  43.3182534
  77.9799302  29.0784788  43.5466489  77.4614697  28.7469812  43.0615737
  78.3396193  27.4781456  58.9375351  77.6467990  27.0078436  59.1836083
  78.9556520  27.2519761  59.5117059  78.3280723  27.3748588  59.0584504
  73.9991000  34.7261858  53.5720088  73.8166574  34.7008744  52.7192380
  74.7340669  35.1960795  53.6108997  74.0805064  34.7923220  53.4518006
  77.0636752  31.4446860  60.0802197  77.7876724  31.4299891  60.5667091
  77.1652889  32.1542216  59.5824165  77.1854961  31.5471564  60.0780983
  73.9661911  31.6055358  53.7219155  74.5435413  31.4691809  54.3611400
  73.2675972  31.1491142  53.9764739  73.9482932  31.5177624  53.8541444
  69.4420744  30.4567251  50.4366973  69.5280996  30.0799119  51.2180503
  70.0696541  30.0827697  49.9586931  69.5477295  30.3452733  50.4812450
  75.0296703  39.2258984  54.4898334  75.0700848  39.4973835  53.6618113
  75.5891227  39.7500892  54.9056122  75.1180048  39.3434739  54.4290222
  76.4811289  37.8100933  49.3152260  75.6549406  38.0562670  49.1886539
  76.5423280  37.7313014  50.1814318  76.3685456  37.8345882  49.4241204
  76.6254665  27.3528133  47.7164576  76.3379460  26.9829404  46.9796524
  77.3125133  27.8222989  47.4548281  76.6843562  27.3675103  47.5679652
  77.1115953  33.6239154  58.2686121  77.6237050  33.9023407  57.6194881
  76.8252296  34.3628448  58.6348934  77.1450816  33.7741508  58.2275999
  74.1982859  28.1309346  48.5649857  74.2998996  28.9335507  48.8930833
  74.9938746  27.9296682  48.2672938  74.3310765  28.2195245  48.5685213
  75.0146591  28.2456524  56.3070979  74.8732083  27.3940465  56.4315487
  75.2987155  28.2885185  55.4833185  75.0354437  28.1256274  56.2038603
  75.7836897  26.1586872  59.6248429  75.2479086  25.5467230  59.9409197
  75.8454661  26.7335008  60.2782096  75.7132529  26.1533799  59.7683856
  77.9025652  33.5667606  49.4368484  78.0590272  33.5014409  50.2924476
  78.2426246  34.3416158  49.2247164  77.9758887  33.6716804  49.5323078
  74.4759914  30.7502556  49.7529251  74.8558879  31.1687101  49.0889518
  73.9015279  31.3316012  50.0598094  74.4471239  30.8980415  49.7005992
  78.1190715  32.3162961  54.3844745  77.2778722  32.2166835  54.5923639
  78.3280723  33.0858441  54.7359066  78.0255408  32.4155004  54.4672060
  75.5966282  29.9382498  52.2129496  75.2022980  30.0125510  51.4379606
  75.0406399  30.3240444  52.7637858  75.4569095  30.0064273  52.1797156
  78.0099523  34.7106723  55.8036378  77.4187457  35.3516222  55.7739393
  78.7720547  35.1344341  55.7767678  78.0347784  34.8682562  55.7951526
  78.4060146  25.8708721  56.4704396  78.8661628  25.9447651  57.2079520
  78.4516253  26.6689975  56.1204217  78.4810701  26.0002868  56.5277152
  75.1947924  29.4997912  58.8456112  76.0573537  29.3993621  58.7593442
  74.8639707  28.9192621  58.2841684  75.2733120  29.3989538  58.7501518
  78.5549710  28.3240361  55.5066530  77.9302780  28.3358753  54.8992483
  78.2195305  28.8000536  56.1557771  78.4135202  28.3958878  55.5123099
  78.7391459  26.6665479  41.5639215  78.3904263  27.3185204  42.0270765
  78.2587904  26.6522592  40.8363087  78.6161702  26.7608533  41.5250307
  75.2675385  36.3840821  56.9470295  74.7375310  35.6933260  56.9965269
  75.5400479  36.3751006  56.1183003  75.2300108  36.2807953  56.8317711
  77.8240455  29.9333509  57.7241399  77.9833942  29.1776833  58.1293121
  77.6433349  30.4824448  58.3782137  77.8205814  29.9027322  57.8804105
  70.5471228  33.0568585  54.3038643  70.4414677  33.0115429  53.4390727
  69.7971448  33.4022366  54.5852928  70.4206831  33.1009493  54.2175973
  75.6468578  32.3558961  47.6747383  76.1560807  32.9523469  48.0558688
  76.1202850  32.0884935  46.9923802  75.7911953  32.4044777  47.6301905
  78.0059109  28.9915220  50.5420563  77.2871098  29.4079353  50.8093427
  78.3771472  29.5569459  49.9912201  77.9551041  29.1364501  50.5003370
  75.7848443  28.2864773  61.5623155  75.6151034  28.9466148  61.0171362
  75.3414393  28.4971334  62.2835644  75.6947777  28.4150755  61.5884784
  72.6850508  31.1911638  56.8211645  72.1377227  30.5212284  56.9392513
  73.4742886  30.8241486  56.8855112  72.7202692  31.0376625  56.8480345
  71.4437477  30.4032446  53.9757668  71.2659238  29.9509055  54.7012583
  71.1556500  31.2058608  54.1596145  71.3750431  30.4555004  54.1101171
  73.1809947  32.9360170  51.0879427  72.3155467  32.9245860  50.9762198
  73.2808763  32.7490393  51.9350566  73.0684114  32.9066231  51.1968371
  76.1479977  36.6531177  54.3088141  76.7524835  36.6127011  53.6801961
  75.9407290  37.5002329  54.3392197  76.2068875  36.7719179  54.2204257
  71.3831260  35.6365794  54.1787064  71.2855538  34.8262066  54.4877121
  72.1660129  35.6157588  53.7933332  71.4847396  35.5132885  54.1673927
  73.5146265  12.6531845  37.8338569  73.2796450  11.8199497  37.7270838
  73.6531906  12.9336510  37.0199770  73.5001928  12.5715348  37.6980924
  75.0763590  17.5317515  39.1094776  74.5931168  18.2568005  39.0854359
  75.8886908  17.8293645  39.2204933  75.1254338  17.6819869  39.1222055
  77.9307787  18.0473691  39.2615055  78.6328366  17.5325680  39.3187812
  77.8505270  18.3747843  40.0661931  78.0231548  18.0187918  39.3887848
  77.2558563  14.2380043  38.7700663  78.0947462  14.4702976  38.8174425
  77.2870332  13.3684355  38.7007699  77.3840280  14.1436990  38.7665308
  77.8811266  14.6580919  43.0713969  78.4209491  14.5152050  43.7417341
  77.1981212  15.0577669  43.4397995  77.8603419  14.6960589  43.2248391
  73.2848411  10.8781209  43.2248391  73.0186826  10.0620326  43.3839381
  73.2986975  10.9234365  42.3543906  73.2473133  10.7638114  43.1201873
  73.6941824  11.6639989  40.5060135  73.5117398  11.6386875  39.6532427
  74.4291493  12.1338927  40.5449044  73.7755888  11.7301351  40.3858053
  74.7247526  16.1637115  41.4238381  74.7651672  16.4351966  40.5958160
  75.2842051  16.6879023  41.8396169  74.8130872  16.2812870  41.3630269
  78.8966857  19.3423327  37.0171486  78.6767153  19.0520682  37.8098153
  78.6761379  18.6838282  36.4889399  78.8314452  19.2023035  37.0560395
  78.0116078  13.0691895  35.2069553  78.7662046  13.4504934  35.4205015
  77.4186691  13.5203038  35.6616249  78.0352792  13.1920722  35.3052431
  77.7050347  11.6484855  42.7376425  77.1138281  12.2894353  42.7079440
  78.4671371  12.0722472  42.7107725  77.7298608  11.8060693  42.7291572
  74.9626209  13.3218952  43.8810341  74.4326134  12.6311391  43.9305316
  75.2351303  13.3129137  43.0523050  74.9250932  13.2186084  43.7657757
  70.2422052   9.9946716  41.2378690  70.1365501   9.9493561  40.3730774
  69.4922272  10.3400497  41.5192975  70.1157655  10.0387624  41.1516019
  78.5017781  19.6436200  41.5949579  78.8164340  20.4572588  41.6027361
  78.9111194  19.2586418  42.2631738  78.6085879  19.7064902  41.6953671
  75.8430801  13.5909308  41.2428188  76.4475659  13.5505142  40.6142008
  75.6358114  14.4380460  41.2732243  75.9019699  13.7097311  41.1544304
  71.0782084  12.5743926  41.1127111  70.9806362  11.7640197  41.4217167
  71.8610953  12.5535719  40.7273379  71.1798220  12.4511016  41.1013974
  26.6173200  30.3531135  74.3478521  26.5867205  31.2075772  74.5196791
  27.2154549  30.0526428  74.9064665  26.7010358  30.4347631  74.4553324
  14.2014025  38.9769504  74.8668683  13.4496924  38.5985042  74.6384728
  14.6500036  39.0087937  74.1187494  14.1563692  38.9255111  74.7226185
  19.6538985  39.3994873  70.2954230  19.3190353  40.0771795  69.8598453
  20.1665855  39.0100185  69.7071102  19.6804566  39.4419452  70.1441022
  19.1943276  41.3509142  76.2365342  19.5782655  41.9196041  75.6970117
  19.1302417  40.6258652  75.7571158  19.2416703  41.3284605  76.0859205
  24.4389775  32.9283437  72.6196831  24.3229301  33.6791123  73.0488969
  25.2345661  32.6707390  72.8692918  24.5394364  33.0018284  72.7200923
  15.6199520  43.9065485  78.5346312  16.2636976  44.3478649  78.9242470
  15.9455776  43.1018911  78.4476571  15.7631349  43.8530680  78.5791789
  16.3220100  36.9177460  73.9066174  16.6435941  37.4582667  73.3027482
  16.9692197  36.3474231  74.0388463  16.4646155  36.9136635  73.8373209
  18.5609744  35.3063900  73.9780352  19.0003379  34.6981000  74.4235125
  18.4114407  34.9271273  73.2065817  18.6031209  35.1602371  73.9299519
  22.1619080  33.6591081  70.9311121  22.0770375  34.5152048  71.0760690
  22.6503463  33.3835405  71.5993280  22.2207977  33.7448403  71.0513203
  23.0937513  30.2775875  72.4308856  22.5648985  30.4935509  73.0906162
  23.6162533  30.9712014  72.3509825  23.0925966  30.4119012  72.5164455
  28.5485566  35.8522180  77.8041901  27.7183269  36.0632824  77.9675317
  28.4994819  35.0259234  77.5284184  28.4192302  35.7611786  77.7879266
  14.9837121  34.1739092  71.2316324  14.3994336  34.6789124  71.6382188
  14.5807216  33.9481479  70.4912916  14.8376425  34.2147340  71.1821349
  19.4414336  30.4204744  69.7085245  19.6810339  30.6282728  68.8960588
  19.7630177  29.6162253  69.8174189  19.5251494  30.3318845  69.6045798
  25.8049882  36.5221534  77.9406616  25.3685113  36.5258277  78.6965588
  25.4712797  37.2027033  77.5086194  25.6912502  36.6233990  77.9887449
  28.9394228  33.2402454  76.8326254  29.6010662  32.6793123  76.7322162
  28.2985640  32.7454485  77.1578945  28.9423095  33.0838863  76.8658594
  19.8271036  36.5372586  69.1407177  20.2422184  36.2057609  68.4491673
  18.9962965  36.3041488  69.0127314  19.7659044  36.4543842  69.0198024
  25.2259058  34.2567837  76.5738242  25.4614648  34.4013035  75.7465093
  25.3748622  35.0210245  76.9669756  25.2824862  34.3906891  76.5101846
  27.0549515  33.0969503  74.4107846  27.3857732  33.6297143  73.8047941
  27.6282603  33.1508390  75.0669797  27.1883194  33.1839071  74.4185628
  22.5204426  32.7883145  68.3268378  22.4384588  32.8585332  69.1923365
  23.1584146  33.3512889  68.1352119  22.6024263  32.8822116  68.4258328
  28.1628867  28.3379999  75.9148008  27.9065432  27.5259941  75.7245891
  29.0058181  28.3457567  75.6878195  28.2494892  28.2191997  75.8532825
  19.6244536  32.8103599  71.3376985  20.4385175  33.1018492  71.2259756
  19.5603677  32.1563462  70.7635278  19.7347275  32.7568794  71.2365822
  16.1355259  31.5027407  70.8024186  16.5200412  31.2835113  71.5540731
  15.8866879  32.3290352  70.9325263  16.1557332  31.5925553  70.9325263
  16.4178502  39.7232282  72.8756557  16.7076800  39.3321264  72.1515783
  17.1481983  39.9048987  73.3161832  16.5685386  39.6926096  72.8339364
  14.3584417  41.6999665  75.9416706  14.1384713  41.4097020  76.7343373
  14.1378939  41.0414620  75.4134619  14.2932012  41.5599373  75.9805615
  16.5252373  43.0729055  74.7247399  17.1776431  42.5405497  74.9538425
  15.8277982  42.7197707  75.1115273  16.5183091  42.9418578  74.8159566
  24.5192291  35.3933469  74.0678378  25.0850324  36.0526679  73.9836921
  23.8720195  35.7383167  74.5394780  24.5071048  35.5415410  74.1251134
  20.9898870  38.3372253  73.4915457  20.7485545  37.6040114  73.0842522
  21.1700202  38.8859110  72.8381790  20.9806493  38.3094644  73.3345680
  25.7154989  35.4439696  70.8604014  25.3361798  34.6576834  70.8533304
  25.0521235  35.9926554  70.7175659  25.5613464  35.4084520  70.8384811
  18.5401897  38.9953216  74.6992841  19.3051789  38.7262859  74.3775505
  18.4379987  38.5103226  75.4162903  18.6383393  38.8842780  74.7572668
  21.0620558  36.0265399  66.6792790  21.8293543  36.0865524  66.2698642
  20.6151867  35.4545841  66.1949109  21.1093985  35.9501975  66.5470500
  23.9615088  37.6885188  71.1955700  24.0434925  38.4952174  70.8717151
  24.4464830  37.7081147  71.9196474  24.0452246  37.8105850  71.2542599
  19.5973181  32.2379958  74.1647114  20.1388726  31.7350340  74.6285734
  19.9119740  32.1845153  73.3536599  19.7237578  32.1559379  74.1130926
  17.7659631  37.6297310  71.4487142  17.8352451  36.7711848  71.5880142
  18.5448086  37.8469191  71.1206167  17.8912481  37.5350174  71.4204299
  22.1567118  40.0535011  75.6623635  21.7646910  39.7501726  74.9446501
  22.3120190  40.8904101  75.4728589  22.1220708  40.1318848  75.5280132
  22.3206793  36.6185000  75.6029666  21.9621448  36.7899643  76.3793698
  21.8345504  37.0798206  75.0457664  22.1965490  36.7123971  75.6354935
  17.1095158  32.2984166  68.1429900  17.3987683  33.0749048  68.4173474
  17.1966957  31.7872897  68.8444400  17.1649415  32.3376084  68.2872398
  22.9257424  39.4570504  79.0953670  22.7277112  39.9461318  78.4009881
  22.3045135  39.6611745  79.6737803  22.8044988  39.5587042  79.0776893
  21.9026777  27.6917429  72.3983587  21.3749796  27.7746173  71.7089296
  22.3622486  28.4335300  72.3948232  21.8928628  27.8138091  72.2958282
  13.8959843  25.9619948  67.4224482  13.5472647  26.6139674  67.8856032
  13.4156288  25.9477061  66.6948353  13.7730086  26.0563002  67.3835573
  21.4563860  36.2620992  71.5293244  22.1798059  36.7279105  71.3857817
  21.0164451  36.3294602  70.7790841  21.4979552  36.3404829  71.3978025
  14.2983974  29.4545590  70.2643104  14.9329053  30.0506015  70.1992565
  14.3809584  29.1549047  71.0788974  14.4040525  29.4986498  70.3746190
  21.7167710  40.3241697  71.6891305  20.9997019  40.1502559  71.2238543
  22.3674447  40.0894269  71.1566791  21.7069560  40.2637490  71.5420523
  16.9980871  41.5603456  78.1181453  16.5841270  40.8977586  77.7285295
  17.6828246  41.7081315  77.5977147  17.0379243  41.4844114  77.9837950
  20.3646166  40.7193541  78.8705070  19.9662449  40.8295811  78.1025890
  19.7497385  40.9275607  79.4531630  20.2145055  40.7667109  78.8436369
  28.0988008  35.2945508  72.2548160  28.4821614  36.0436864  72.4846257
  27.3032122  35.5411327  71.9960149  28.0381790  35.4415202  72.2505734
  16.9103300  27.9664940  69.8308539  17.2902265  27.9844569  69.0459654
  16.1695896  28.4118928  69.7099387  16.8572138  28.0346714  69.6972108
  17.7088054  34.8042446  71.2217329  16.8999377  34.4809119  71.1750639
  18.2162963  34.0975668  71.1545578  17.6637721  34.6523762  71.2047624
  37.5905784  45.8716443  74.3478521  37.5599788  46.7261080  74.5196791
  38.1887132  45.5711735  74.9064665  37.6742942  45.9532939  74.4553324
  30.7905469  44.9592094  79.1031452  29.9343364  45.1200592  79.1540569
  30.8373122  44.0884158  79.1236513  30.6704580  44.8542896  79.1137518
  25.1746608  54.4954812  74.8668683  24.4229508  54.1170350  74.6384728
  25.6232620  54.5273245  74.1187494  25.1296275  54.4440419  74.7226185
  30.6271568  54.9180181  70.2954230  30.2922937  55.5957103  69.8598453
  31.1398439  54.5285493  69.7071102  30.6537149  54.9604759  70.1441022
  30.1675859  56.8694450  76.2365342  30.5515239  57.4381349  75.6970117
  30.1035001  56.1443960  75.7571158  30.2149287  56.8469913  76.0859205
  33.6357290  47.0184138  81.7463103  34.1813250  47.6969224  81.8057073
  33.5774166  46.8771599  80.8864685  33.7073204  47.0976139  81.6275164
  26.7531364  54.5073204  77.1331456  26.8541727  53.6973558  77.4428584
  26.1573110  54.4130150  76.5031134  26.6803903  54.3738232  77.0857694
  35.4122358  48.4468745  72.6196831  35.2961884  49.1976431  73.0488969
  36.2078245  48.1892698  72.8692918  35.5126948  48.5203592  72.7200923
  26.5932104  59.4250793  78.5346312  27.2369560  59.8663957  78.9242470
  26.9188360  58.6204219  78.4476571  26.7363933  59.3715988  78.5791789
  19.9496409  50.5293490  76.7583789  19.7146593  49.6961143  76.6516058
  20.0882049  50.8098156  75.9444990  19.9352071  50.4476994  76.6226144
  22.2486496  42.6979221  79.6568097  21.6291528  42.1071868  79.4878112
  22.1470360  43.2890656  79.0232420  22.1424172  42.6983304  79.5373087
  27.2952684  52.4362768  73.9066174  27.6168525  52.9767975  73.3027482
  27.9424780  51.8659539  74.0388463  27.4378739  52.4321943  73.8373209
  29.3454392  44.4378763  73.9900560  30.0434557  44.6166890  74.4822024
  29.6606724  43.9149102  73.3670950  29.4949729  44.3872535  73.9702570
  21.9755629  46.2431503  81.9011666  21.8514326  46.8293948  82.5361485
  22.6273914  45.7491698  82.2023941  22.0529279  46.2570307  82.0397595
  29.5342327  50.8249208  73.9780352  29.9735963  50.2166308  74.4235125
  29.3846990  50.4456581  73.2065817  29.5763793  50.6787679  73.9299519
  27.0013970  49.4193220  81.1799177  27.6462973  48.9265663  80.8610126
  27.2415747  49.5618006  82.0065256  27.1324555  49.3670662  81.2548710
  29.5400062  52.2648126  80.8306070  29.8223304  51.4699531  80.6092826
  30.2686222  52.7428713  80.8511131  29.6889625  52.2182722  80.8009085
  27.5181255  39.8071160  78.0721835  27.1884585  40.2582303  77.4025534
  26.8426257  39.7287323  78.6194841  27.3691692  39.8622295  78.0545058
  33.1351664  49.1776389  70.9311121  33.0502959  50.0337356  71.0760690
  33.6236047  48.9020713  71.5993280  33.1940561  49.2633711  71.0513203
  34.7257663  35.7956682  76.3171446  34.4111104  36.4860161  76.7491868
  34.2084605  35.7401465  75.6156946  34.6022134  35.8891571  76.2768395
  34.0670097  45.7961183  72.4308856  33.5381568  46.0120817  73.0906162
  34.5895117  46.4897322  72.3509825  34.0658550  45.9304320  72.5164455
  39.5218150  51.3707488  77.8041901  38.6915853  51.5818131  77.9675317
  39.4727402  50.5444542  77.5284184  39.3924885  51.2797094  77.7879266
  25.9569705  49.6924400  71.2316324  25.3726920  50.1974432  71.6382188
  25.5539800  49.4666787  70.4912916  25.8109009  49.7332648  71.1821349
  21.5113733  55.4079161  78.0339996  21.0281312  56.1329651  78.0099579
  22.3237052  55.7055291  78.1450153  21.5604481  55.5581515  78.0467275
  27.5827887  54.2011342  80.6389810  27.0654829  53.8418757  80.0351118
  28.2802279  53.6773516  80.6495876  27.6093469  54.0709030  80.5520069
  30.4146919  45.9390052  69.7085245  30.6542923  46.1468036  68.8960588
  30.7362760  45.1347561  69.8174189  30.4984077  45.8504153  69.6045798
  25.7237209  37.8683448  73.5544783  26.4783178  38.2361765  73.3161833
  25.5464744  38.2423002  74.3223962  25.8091688  37.9781636  73.6329671
  24.3657931  55.9235337  78.1860275  25.0678510  55.4087326  78.2433032
  24.2855414  56.2509489  78.9907151  24.4581691  55.8949563  78.3133068
  39.0172108  44.0177888  81.5992322  38.1800529  44.0880076  81.8339916
  38.9860339  44.0202383  80.7266624  38.8890391  44.0288115  81.5051870
  24.0794274  40.2753767  70.2522896  23.8969847  40.4925648  69.4263888
  24.9419887  40.3892780  70.3081510  24.1798864  40.3243665  70.1377383
  23.6908706  52.1141689  77.6945884  24.5297606  52.3464622  77.7419645
  23.7220475  51.2446001  77.6252919  23.8190424  52.0198636  77.6910528
  24.3161409  52.5342564  81.9959189  24.8559634  52.3913695  82.6662561
  23.6331355  52.9339315  82.3643215  24.2953563  52.5722235  82.1493611
  29.7593993  37.2780178  73.2871919  30.4880154  37.0996133  72.8410076
  29.8488886  38.1198257  73.4979098  29.8800655  37.3764056  73.2525437
  33.7402294  48.2133565  77.1904213  34.4959809  48.6465079  77.2293122
  33.8464618  47.5638335  77.7638849  33.8672465  48.1811049  77.2802239
  36.7782465  52.0406842  77.9406616  36.3417697  52.0443585  78.6965588
  36.4445381  52.7212341  77.5086194  36.6645085  52.1419298  77.9887449
  36.6979948  39.0820670  80.1836044  37.3405856  39.1518775  80.7697960
  36.9502969  38.4149893  79.6815586  36.8302080  38.9947019  80.1963324
  39.9126811  48.7587762  76.8326254  40.5743245  48.1978431  76.7322162
  39.2718223  48.2639793  77.1578945  39.9155679  48.6024171  76.8658594
  30.8003619  52.0557894  69.1407177  31.2154768  51.7242917  68.4491673
  29.9695549  51.8226796  69.0127314  30.7391628  51.9729149  69.0198024
  20.1291968  49.5401635  79.4305355  19.9467541  49.5148521  78.5777647
  20.8641637  50.0100572  79.4694264  20.2106032  49.6062997  79.3103273
  36.1991642  49.7753145  76.5738242  36.4347231  49.9198343  75.7465093
  36.3481206  50.5395553  76.9669756  36.2557445  49.9092199  76.5101846
  38.0282099  48.6154810  74.4107846  38.3590316  49.1482451  73.8047941
  38.6015187  48.6693698  75.0669797  38.1615778  48.7024379  74.4185628
  20.0962878  46.4195135  79.5804421  20.6736381  46.2831586  80.2196667
  19.3976940  45.9630919  79.8350006  20.0783900  46.3317401  79.7126711
  33.4937009  48.3068453  68.3268378  33.4117172  48.3770640  69.1923365
  34.1316730  48.8698197  68.1352119  33.5756847  48.4007424  68.4258328
  26.8530180  48.0729191  77.7942905  26.5949425  47.2400926  77.7674204
  26.9078663  48.2986804  76.9535405  26.8229958  47.9826962  77.6663041
  31.9331231  40.1757642  77.8946997  31.2287557  39.6866827  78.0530916
  31.9816205  40.1880116  77.0235442  31.8361282  40.1047290  77.7886337
  25.8264893  45.6266953  78.2807799  25.2514484  45.7859122  78.9171760
  25.4500569  44.9902362  77.8176250  25.6867705  45.5564766  78.3062358
  29.4938181  44.0990303  83.1400178  29.1052614  43.6744520  82.4852369
  28.8292880  44.3472452  83.6477204  29.3385109  44.0729024  83.1188046
  39.1361450  43.8565307  75.9148008  38.8798015  43.0445249  75.7245891
  39.9790764  43.8642874  75.6878195  39.2227476  43.7377305  75.8532825
  15.5721711  45.2707028  76.2952240  15.6581963  44.8938896  77.0765770
  16.1997509  44.8967474  75.8172198  15.6778262  45.1592510  76.3397717
  33.3164543  37.7964931  80.6524162  33.6975054  37.1143102  81.0392036
  32.5127827  37.5074533  80.4699826  33.2541004  37.6531980  80.6828218
  30.5977119  48.3288907  71.3376985  31.4117758  48.6203800  71.2259756
  30.5336261  47.6748770  70.7635278  30.7079858  48.2754102  71.2365822
  26.4685028  51.8010425  76.4649297  27.1058975  51.5622172  77.0101090
  26.8940099  52.0047584  75.7302457  26.6261194  51.7961435  76.4366454
  27.1087843  47.0212714  70.8024186  27.4932995  46.8020421  71.5540731
  26.8599463  47.8475660  70.9325263  27.1289915  47.1110861  70.9325263
  28.8506500  52.2782847  78.1443083  28.9245508  52.1158019  78.9984933
  29.6676006  52.4673037  77.9003565  28.9822858  52.2819590  78.2341109
  22.6112256  52.6240710  75.1737527  21.7850374  52.8702447  75.0471805
  22.6724248  52.5452791  76.0399585  22.4986423  52.6485659  75.2826471
  24.8288280  38.6909651  76.1332967  23.9610706  38.7632251  76.1990576
  25.1163484  39.4931730  76.3220942  24.7428028  38.8203798  76.1707733
  33.9521169  38.8387511  84.4644289  34.6974761  38.6497321  84.0507714
  33.5358473  39.3645748  83.9058145  34.0006143  38.8889656  84.3208862
  27.3911085  55.2417590  72.8756557  27.6809384  54.8506572  72.1515783
  28.1214566  55.4234295  73.3161832  27.5417970  55.2111404  72.8339364
  41.3283440  46.2096739  79.4149794  41.8791361  45.5764808  79.6546886
  41.3127555  46.7412132  80.1065298  41.4068636  46.1945687  79.5528652
  27.9805831  50.0435336  83.9609687  27.4817524  50.7551104  84.0394575
  28.7906055  50.3636003  83.9227849  28.0261937  50.1962185  83.9666256
  25.3317001  57.2184973  75.9416706  25.1117296  56.9282327  76.7343373
  25.1111523  56.5599928  75.4134619  25.2664595  57.0784681  75.9805615
  24.2433948  49.3058289  78.2072408  23.9547197  48.6795761  78.7418135
  25.1117296  49.2478577  78.2737088  24.3294200  49.2045834  78.2963362
  35.0311846  44.4493073  78.5254390  34.6876612  43.7283408  78.8761639
  35.1304888  44.2406924  77.6832748  34.9953889  44.3117276  78.4526070
  27.4984957  58.5914363  74.7247399  28.1509015  58.0590805  74.9538425
  26.8010565  58.2383015  75.1115273  27.4915675  58.4603886  74.8159566
  24.4466221  50.9453540  74.1314773  25.2012189  51.3266579  74.3450235
  23.8536834  51.3964684  74.5861469  24.4702935  51.0682368  74.2297651
  35.4924875  50.9118777  74.0678378  36.0582908  51.5711987  73.9836921
  34.8452778  51.2568475  74.5394780  35.4803631  51.0600718  74.1251134
  25.7664448  52.1162102  79.5054888  25.2445202  52.2562393  80.1906753
  26.1538468  51.3572766  79.6957006  25.7468149  52.0247626  79.6355965
  22.7555632  42.1667910  73.5749843  22.4680428  41.7969181  72.8381790
  23.4426100  42.6362766  73.3133548  22.8144529  42.1814880  73.4264919
  31.9631453  53.8557561  73.4915457  31.7218129  53.1225422  73.0842522
  32.1432786  54.4044418  72.8381790  31.9539077  53.8279952  73.3345680
  27.1930774  49.1466121  74.9036379  26.9973556  49.7540855  74.3096682
  27.4165119  48.4534065  74.4228053  27.1965415  49.1343646  74.7452460
  25.5909304  46.0320859  75.0217248  26.3131956  46.1962017  74.5621054
  25.1117297  46.7530523  74.9156587  25.6273034  46.1619088  74.9382862
  33.5502811  42.3684657  80.4013933  32.7113912  42.3945936  80.1652196
  33.6207179  43.0155393  80.9819279  33.4371205  42.4680783  80.4523050
  31.9972090  39.2670034  75.1341549  32.6998442  39.0677783  74.6561507
  31.7316278  38.4945977  75.4410392  32.0618722  39.1233000  75.1086990
  37.4260335  47.5752644  77.6875174  37.3394310  47.7308070  78.5409953
  36.9710815  48.2190720  77.3134579  37.3463592  47.6928399  77.7582281
  20.3283827  42.9449123  74.4235124  20.4299963  43.7475284  74.7516100
  21.1239713  42.7436459  74.1258205  20.4611732  43.0335022  74.4270479
  31.2986151  44.8963391  76.3100734  31.0520865  44.8159142  77.1437523
  31.6271274  44.1116859  76.1163261  31.3107395  44.7689657  76.4048257
  35.1934200  51.6046751  80.0987515  35.0548559  52.3027796  80.6036258
  34.4134198  51.4495407  79.7423697  35.0577427  51.6846917  80.1213789
  27.2583178  47.6320110  85.7223717  27.4026554  48.2121318  85.0866827
  27.6058827  48.0096407  86.4273572  27.3310640  47.7740814  85.7322712
  29.4303096  46.8310278  83.5048849  28.6826410  47.0241293  83.0997127
  29.5844621  46.0055498  83.2672970  29.3425523  46.7375390  83.4094254
  26.3310933  55.8222882  82.5884744  26.4800497  55.2625798  81.9358148
  27.1110936  55.9014883  82.9717263  26.4685027  55.7508447  82.5481693
  36.6887573  50.9625004  70.8604014  36.3094382  50.1762142  70.8533304
  36.0253818  51.5111861  70.7175659  36.5346048  50.9269828  70.8384811
  34.1432199  33.9050704  78.2638095  34.2615767  34.3627167  77.5305398
  33.9694375  33.0995965  77.9774313  34.1351370  33.8544476  78.1139029
  29.5134481  54.5138523  74.6992841  30.2784372  54.2448167  74.3775505
  29.4112571  54.0288534  75.4162903  29.6115977  54.4028088  74.7572668
  27.5487251  42.7162933  81.2386076  26.7583326  42.5354393  81.5603412
  27.9447874  41.9389885  81.2216371  27.4904127  42.5750394  81.2838625
  32.0353142  51.5450707  66.6792790  32.8026127  51.6050832  66.2698642
  31.5884451  50.9731149  66.1949109  32.0826569  51.4687283  66.5470500
  32.9330937  50.3505363  78.9645522  32.2575939  50.1190595  79.4658909
  32.9423313  49.7426546  78.3387627  32.8349442  50.2264288  78.9461675
  30.0625081  45.1923192  85.7209575  29.9984222  46.0533148  85.5929712
  30.2022269  44.8755185  84.9205127  30.0740551  45.2723359  85.5837788
  34.9347672  53.2070495  71.1955700  35.0167509  54.0137482  70.8717151
  35.4197414  53.2266455  71.9196474  35.0184830  53.3291158  71.2542599
  28.7444175  47.8855331  79.8625778  28.3206424  48.0859830  79.1264797
  28.5689030  47.0384179  79.9750078  28.6555056  47.7904113  79.7699468
  24.0326620  48.3807383  75.2953751  24.1891239  48.3154186  76.1509743
  24.3727213  49.1555935  75.0832430  24.1059855  48.4856581  75.3908345
  30.5705765  47.7565266  74.1647114  31.1121310  47.2535647  74.6285734
  30.8852324  47.7030461  73.3536599  30.6970162  47.6744687  74.1130926
  28.7392214  53.1482618  71.4487142  28.8085035  52.2897156  71.5880142
  29.5180669  53.3654499  71.1206167  28.8645064  53.0535482  71.4204299
  31.7195034  42.6501571  84.2169414  31.9337003  42.0112485  83.6632768
  31.1028933  43.0947395  83.7877276  31.6600363  42.6211715  84.0719845
  33.1299702  55.5720319  75.6623635  32.7379494  55.2687034  74.9446501
  33.2852774  56.4089409  75.4728589  33.0953292  55.6504156  75.5280132
  20.6060881  45.5642333  75.6114518  20.9859846  45.9826878  74.9474785
  20.0316246  46.1455789  75.9183361  20.5772206  45.7120192  75.5591259
  33.8834122  44.2590636  85.1552721  33.0710804  43.9516526  85.2365894
  34.3424057  43.7789636  85.7195434  33.8314507  44.1427128  85.2507316
  33.2939377  52.1370308  75.6029666  32.9354031  52.3084951  76.3793698
  32.8078087  52.5983514  75.0457664  33.1698074  52.2309279  75.6354935
  31.1109763  35.7601507  79.2056757  30.2403321  35.7340228  79.1590067
  31.3650104  35.5878699  78.3882603  31.0203323  35.7311650  79.0776894
  28.0827742  47.8169473  68.1429900  28.3720267  48.5934356  68.4173474
  28.1699541  47.3058205  68.8444400  28.1381998  47.8561392  68.2872398
  28.1358903  37.7707735  80.6630228  27.6197392  37.0787926  80.7881807
  27.5752832  38.4378512  80.6092826  27.9765416  37.7670993  80.6736294
  36.1801116  44.8763350  81.1162782  35.7528724  44.7889699  80.3610882
  35.5427169  44.9841125  81.7017626  36.0230723  44.8796010  81.0908224
  24.2491683  47.1302738  80.2430012  23.4079690  47.0306612  80.4508906
  24.4581691  47.8998218  80.5944333  24.1556376  47.2294781  80.3257327
  21.7267250  44.7522275  78.0714763  21.3323948  44.8265287  77.2964873
  21.1707367  45.1380221  78.6223125  21.5870062  44.8204050  78.0382423
  33.3632197  37.7303569  77.7518642  33.5681790  37.6625877  78.5975639
  33.0358621  38.5362390  77.6839819  33.3447445  37.8389509  77.8678297
  28.0608348  45.0584137  79.4927610  27.7571485  44.5040125  80.0938017
  27.3587769  45.2376347  79.0055644  27.9124558  45.0028920  79.5097315
  27.1174445  42.3684657  74.0572312  27.3934179  41.6503570  73.6449879
  27.7173114  42.9669577  73.8493418  27.2467710  42.3505028  73.9653073
  36.6165884  38.2835333  77.2321407  36.0040198  38.7705735  77.6175139
  36.7130059  37.6078824  77.7759059  36.5403782  38.2553642  77.3700266
  30.6184965  40.0398174  72.3318907  31.0728712  40.2108735  73.0566751
  31.0925011  39.4266285  71.9316682  30.7553286  39.9749060  72.3792668
  24.1400491  49.5246500  81.6621645  23.5488424  50.1655999  81.6324660
  24.9021514  49.9484118  81.6352945  24.1648751  49.6822339  81.6536792
  33.8990007  54.9755812  79.0953670  33.7009696  55.4646626  78.4009881
  33.2777718  55.1797053  79.6737803  33.7777572  55.0772350  79.0776893
  27.9597985  46.7440709  73.4363914  28.7040030  47.1314985  73.6746864
  28.1058682  45.8998134  73.6004402  28.0908571  46.6771182  73.4957884
  29.8777561  38.5390968  78.4695775  29.0313606  38.7113775  78.3437125
  29.8748693  37.7340311  78.8061604  29.7524711  38.4451997  78.5006902
  30.9475861  42.3166182  79.3357833  30.4735816  41.7907944  79.8463144
  31.3193997  41.7695655  78.7672695  30.9325750  42.1582179  79.3272980
  37.2112592  47.3768558  80.7464614  36.9710815  46.5374973  80.7507040
  37.6904599  47.4568724  81.4705387  37.2464776  47.2649957  80.8539416
  32.8759361  43.2102737  72.3983587  32.3482380  43.2931481  71.7089296
  33.3355069  43.9520608  72.3948232  32.8661211  43.3323399  72.2958282
  39.2117779  44.1570015  78.6993873  38.9727549  44.1165849  77.8614657
  39.3751680  45.0041167  78.8259594  39.2008082  44.2762100  78.5947355
  24.6850677  43.1380138  81.3651797  24.0603748  43.1498530  80.7577750
  24.3496272  43.6140313  82.0143037  24.5436169  43.2098655  81.3708366
  24.8692426  41.4805256  67.4224482  24.5205230  42.1324981  67.8856032
  24.3888872  41.4662369  66.6948353  24.7462670  41.5748310  67.3835573
  32.4296443  51.7806300  71.5293244  33.1530642  52.2464413  71.3857817
  31.9897034  51.8479910  70.7790841  32.4712136  51.8590137  71.3978025
  31.5982599  48.6403842  82.7793933  30.9839592  48.0961893  83.0742568
  32.1149883  48.1268079  82.2999749  31.5838261  48.4840252  82.7518161
  30.8378896  49.7108112  80.5138232  30.4106504  49.0857831  80.0803667
  30.8303840  49.4283034  81.3397239  30.7738037  49.5760893  80.5718059
  29.1664605  40.5876867  80.7280766  29.1907093  40.0536979  80.0393546
  29.4176079  40.0794176  81.3906356  29.2074524  40.4337771  80.7245410
  25.4465928  39.3147685  80.1086510  25.4864299  39.8156892  80.8221217
  24.6215592  39.4058079  79.8392433  25.3305454  39.4029502  80.1737048
  26.8680291  45.8308195  82.4060409  26.0372221  45.9982013  82.1995657
  26.8131808  45.4544146  83.1909294  26.7369706  45.7997926  82.4908937
  25.2416335  44.1063787  72.9350527  25.3819296  44.6036251  73.6379168
  25.7398868  43.4050081  73.0764740  25.3357416  44.0765765  73.0602106
  25.2716557  44.9730898  70.2643104  25.9061637  45.5691323  70.1992565
  25.3542168  44.6734355  71.0788974  25.3773108  45.0171806  70.3746190
  26.8495540  40.9044873  70.2388546  27.1711381  40.4247956  69.5847808
  27.1122484  41.7144519  70.0479357  26.9361565  40.9534771  70.1144038
  30.0792513  51.9263747  83.7587362  29.5717604  52.4799594  84.2027992
  29.7819159  51.9872037  82.9406136  29.9597398  52.0170059  83.7035818
  32.2454695  40.2917067  82.6012025  32.6709767  39.8389593  81.9895551
  31.6311688  39.7377138  82.8776812  32.2183340  40.1431043  82.5517050
  21.7769545  47.1698738  73.5332650  22.2861774  47.7663246  73.9143955
  22.2503817  46.9024712  72.8509069  21.9212921  47.2184554  73.4887172
  32.6900293  55.8427005  71.6891305  31.9729603  55.6687867  71.2238543
  33.3407031  55.6079577  71.1566791  32.6802144  55.7822798  71.5420523
  30.6848918  36.7632167  76.0102602  30.0417236  36.6129813  76.5787740
  30.3448325  36.5174512  75.2451706  30.5393995  36.7044289  75.9805617
  35.2748264  44.7191594  75.4332610  34.6039454  45.2621296  75.3045676
  35.9688015  45.1886449  75.1914305  35.2777132  44.8689865  75.3788138
  29.3234998  56.8588306  80.6644369  29.1000653  56.1007135  81.0328395
  28.8344841  56.8886327  79.9424808  29.2178447  56.7510530  80.6121110
  35.4376392  41.1747477  78.3422983  35.7904002  40.7477200  79.0168782
  34.5791193  41.0898321  78.4724060  35.3625836  41.0992218  78.4617994
  24.1360077  43.8054997  76.4005830  23.4172066  44.2219130  76.6678694
  24.5072439  44.3709236  75.8497468  24.0852009  43.9504278  76.3588637
  33.4359658  44.4382846  82.2907826  33.4157585  44.2566141  83.1442605
  33.4838858  45.3094864  82.2667409  33.4394299  44.5399384  82.4131120
  27.9713455  57.0788764  78.1181453  27.5573854  56.4162894  77.7285295
  28.6560829  57.2266623  77.5977147  28.0111827  57.0029422  77.9837950
  31.3378749  56.2378849  78.8705070  30.9395032  56.3481119  78.1025890
  30.7229969  56.4460915  79.4531630  31.1877638  56.2852417  78.8436369
  29.9106651  42.8452997  71.7379209  29.3171490  43.1669993  71.1863776
  29.9481929  41.9994092  71.5300316  29.8281040  42.7677325  71.6261981
  36.8700452  36.2965889  79.2707296  36.3631317  35.5895029  79.2028473
  37.6667886  35.9659078  79.4008373  36.9127691  36.1439041  79.2806291
  32.7864468  42.8032501  75.1680960  32.5578161  42.8265203  74.3259318
  33.0462544  41.9789968  75.2875970  32.7910656  42.6848581  75.0606157
  25.8409230  41.3409048  76.4635155  26.3166597  41.7026128  75.8285336
  25.3397830  41.9965515  76.7435298  25.8374589  41.4903236  76.4111896
  39.0720592  50.8130816  72.2548160  39.4554198  51.5622172  72.4846257
  38.2764705  51.0596635  71.9960149  39.0114374  50.9600510  72.2505734
  27.8835883  43.4850247  69.8308539  28.2634848  43.5029877  69.0459654
  27.1428479  43.9304236  69.7099387  27.8304721  43.5532022  69.6972108
  35.5121174  41.7932439  75.4184118  35.5115400  41.6381095  76.2768394
  35.3077354  42.6395426  75.3625504  35.4820952  41.8953059  75.5372057
  17.5738445  45.2172223  79.8342935  17.3960206  44.7648832  80.5597850
  17.2857467  46.0198385  80.0181412  17.5051398  45.2694781  79.9686437
  33.2362026  46.4729940  79.0720325  33.7315691  45.7552936  79.0324345
  32.4261802  46.1700738  78.9574812  33.1905919  46.3227587  79.0494051
  28.6820638  50.3227754  71.2217329  27.8731960  49.9994427  71.1750639
  29.1895546  49.6160976  71.1545578  28.6370304  50.1709070  71.2047624
  19.3110915  47.7499947  76.9464694  18.4456434  47.7385637  76.8347465
  19.4109731  47.5630170  77.7935833  19.1985082  47.7206008  77.0553638
  35.3013845  49.2233628  81.7597454  35.7268916  48.7008050  81.2067879
  34.9370765  49.8214465  81.2386077  35.3100447  49.2343855  81.6006463
  24.9367925  57.5197845  80.5194799  25.2514484  58.3334234  80.5272581
  25.3461338  57.1348064  81.1876958  25.0436023  57.5826548  80.6198891
  31.8892444  52.9367892  78.0898611  32.3603622  53.6508155  78.2588596
  32.2252623  52.3366642  78.6258481  32.0087559  52.9539357  78.1930987
  35.3360255  40.7971181  82.2377496  34.7523244  41.2980387  81.8255063
  35.6564549  40.2900737  81.6041819  35.2973430  40.7963016  82.0836003
  27.8755054  39.7111776  72.5136171  28.6970748  39.8810089  72.2717866
  27.4124705  39.8659037  71.7902468  27.9286216  39.7593509  72.3707815
  22.2780945  51.4670954  80.1673408  22.8825802  51.4266788  79.5387228
  22.0708257  52.3142106  80.1977463  22.3369842  51.5858956  80.0789524
  32.0924717  53.7336899  81.3835645  32.9123091  53.5899865  81.6451940
  31.8118795  54.3583098  81.9252083  32.1721460  53.8047251  81.5023584
  40.3186975  59.9564071  73.9900560  41.0167140  60.1352198  74.4822024
  40.6339308  59.4334410  73.3670950  40.4682313  59.9057843  73.9702570
  38.4913839  55.3256467  78.0721835  38.1617169  55.7767611  77.4025534
  37.8158841  55.2472631  78.6194841  38.3424275  55.3807603  78.0545058
  45.6990247  51.3141990  76.3171446  45.3843688  52.0045469  76.7491868
  45.1817188  51.2586773  75.6156946  45.5754717  51.4076879  76.2768395
  36.9302288  65.2109708  71.2316324  36.3459504  65.7159739  71.6382188
  36.5272384  64.9852095  70.4912916  36.7841592  65.2517956  71.1821349
  41.3879503  61.4575360  69.7085245  41.6275506  61.6653344  68.8960588
  41.7095344  60.6532869  69.8174189  41.4716661  61.3689461  69.6045798
  36.6969793  53.3868756  73.5544783  37.4515761  53.7547073  73.3161833
  36.5197328  53.7608310  74.3223962  36.7824271  53.4966944  73.6329671
  35.0526858  55.7939075  70.2522896  34.8702431  56.0110956  69.4263888
  35.9152471  55.9078088  70.3081510  35.1531447  55.8428973  70.1377383
  40.7326577  52.7965486  73.2871919  41.4612737  52.6181440  72.8410076
  40.8221470  53.6383565  73.4979098  40.8533239  52.8949364  73.2525437
  34.5988885  59.0713247  68.7645369  33.8847062  58.7851427  69.1767801
  35.0832853  59.4109873  69.4051756  34.5648248  59.0794897  68.9201004
  41.7736203  67.5743201  69.1407177  42.1887351  67.2428225  68.4491673
  40.9428132  67.3412104  69.0127314  41.7124211  67.4914457  69.0198024
  44.4669593  63.8253761  68.3268378  44.3849755  63.8955948  69.1923365
  45.1049313  64.3883505  68.1352119  44.5489430  63.9192732  68.4258328
  26.5454295  60.7892336  76.2952240  26.6314547  60.4124204  77.0765770
  27.1730092  60.4152782  75.8172198  26.6510846  60.6777818  76.3397717
  41.5709703  63.8474215  71.3376985  42.3850342  64.1389108  71.2259756
  41.5068844  63.1934078  70.7635278  41.6812442  63.7939410  71.2365822
  38.0820426  62.5398022  70.8024186  38.4665579  62.3205729  71.5540731
  37.8332047  63.3660968  70.9325263  38.1022499  62.6296169  70.9325263
  35.8020864  54.2094959  76.1332967  34.9343289  54.2817559  76.1990576
  36.0896068  55.0117038  76.3220942  35.7160612  54.3389106  76.1707733
  33.7288216  57.6853218  73.5749843  33.4413011  57.3154489  72.8381790
  34.4158684  58.1548074  73.3133548  33.7877113  57.7000188  73.4264919
  36.5641887  61.5506167  75.0217248  37.2864539  61.7147325  74.5621054
  36.0849880  62.2715831  74.9156587  36.6005618  61.6804396  74.9382862
  42.9704673  54.7855342  75.1341549  43.6731026  54.5863091  74.6561507
  42.7048862  54.0131285  75.4410392  43.0351305  54.6418308  75.1086990
  31.3016410  58.4634431  74.4235124  31.4032547  59.2660592  74.7516100
  32.0972297  58.2621767  74.1258205  31.4344316  58.5520330  74.4270479
  45.1164782  49.4236012  78.2638095  45.2348351  49.8812475  77.5305398
  44.9426958  48.6181273  77.9774313  45.1083953  49.3729784  78.1139029
  43.0085725  67.0636015  66.6792790  43.7758710  67.1236140  66.2698642
  42.5617034  66.4916457  66.1949109  43.0559152  66.9872591  66.5470500
  31.5793465  61.0827641  75.6114518  31.9592430  61.5012186  74.9474785
  31.0048830  61.6641097  75.9183361  31.5504790  61.2305500  75.5591259
  42.0842346  51.2786815  79.2056757  41.2135904  51.2525536  79.1590067
  42.3382687  51.1064007  78.3882603  41.9935906  51.2496958  79.0776894
  39.0560326  63.3354781  68.1429900  39.3452850  64.1119664  68.4173474
  39.1432124  62.8243513  68.8444400  39.1114582  63.3746700  68.2872398
  38.0907029  57.8869965  74.0572312  38.3666763  57.1688877  73.6449879
  38.6905698  58.4854885  73.8493418  38.2200293  57.8690336  73.9653073
  41.5917549  55.5583482  72.3318907  42.0461296  55.7294043  73.0566751
  42.0657595  54.9451593  71.9316682  41.7285869  55.4934368  72.3792668
  38.9330569  62.2626017  73.4363914  39.6772614  62.6500293  73.6746864
  39.0791265  61.4183442  73.6004402  39.0641154  62.1956489  73.4957884
  40.8510144  54.0576276  78.4695775  40.0046190  54.2299083  78.3437125
  40.8481277  53.2525619  78.8061604  40.7257294  53.9637305  78.5006902
  43.8491945  58.7288045  72.3983587  43.3214963  58.8116789  71.7089296
  44.3087653  59.4705916  72.3948232  43.8393795  58.8508707  72.2958282
  35.8425010  56.9990564  67.4224482  35.4937814  57.6510289  67.8856032
  35.3621455  56.9847677  66.6948353  35.7195254  57.0933618  67.3835573
  36.2148918  59.6249095  72.9350527  36.3551879  60.1221559  73.6379168
  36.7131451  58.9235389  73.0764740  36.3089999  59.5951073  73.0602106
  36.2449141  60.4916206  70.2643104  36.8794220  61.0876631  70.1992565
  36.3274752  60.1919663  71.0788974  36.3505692  60.5357114  70.3746190
  37.8228124  56.4230181  70.2388546  38.1443965  55.9433264  69.5847808
  38.0855067  57.2329827  70.0479357  37.9094149  56.4720079  70.1144038
  32.7502129  62.6884046  73.5332650  33.2594358  63.2848554  73.9143955
  33.2236401  62.4210020  72.8509069  32.8945504  62.7369862  73.4887172
  41.6581501  52.2817475  76.0102602  41.0149819  52.1315121  76.5787740
  41.3180908  52.0359820  75.2451706  41.5126579  52.2229597  75.9805617
  35.1092660  59.3240305  76.4005830  34.3904650  59.7404437  76.6678694
  35.4805023  59.8894544  75.8497468  35.0584592  59.4689586  76.3588637
  40.8839235  58.3638305  71.7379209  40.2904074  58.6855301  71.1863776
  40.9214512  57.5179400  71.5300316  40.8013624  58.2862633  71.6261981
  36.8141814  56.8594356  76.4635155  37.2899180  57.2211435  75.8285336
  36.3130413  57.5150823  76.7435298  36.8107173  57.0088544  76.4111896
  38.8568467  59.0035555  69.8308539  39.2367432  59.0215185  69.0459654
  38.1161063  59.4489544  69.7099387  38.8037305  59.0717330  69.6972108
  39.6553221  65.8413062  71.2217329  38.8464544  65.5179735  71.1750639
  40.1628130  65.1346284  71.1545578  39.6102888  65.6894378  71.2047624
  30.2843498  63.2685255  76.9464694  29.4189018  63.2570945  76.8347465
  30.3842314  63.0815478  77.7935833  30.1717665  63.2391316  77.0553638
  38.8487638  55.2297084  72.5136171  39.6703332  55.3995396  72.2717866
  38.3857289  55.3844345  71.7902468  38.9018800  55.2778817  72.3707815
  26.3124024   7.2909266  61.2818568  26.2818028   8.1453903  61.4536838
  26.9105373   6.9904559  61.8404712  26.3961182   7.3725763  61.3893370
  13.8964849  15.9147635  61.8008730  13.1447748  15.5363173  61.5724775
  14.3450860  15.9466069  61.0527540  13.8514515  15.8633242  61.6566232
  19.3489809  16.3373004  57.2294277  19.0141177  17.0149926  56.7938499
  19.8616679  15.9478316  56.6411149  19.3755390  16.3797583  57.0781069
  18.8894100  18.2887273  63.1705389  19.2733479  18.8574172  62.6310164
  18.8253241  17.5636784  62.6911205  18.9367527  18.2662737  63.0199251
  24.1340599   9.8661568  59.5536878  24.0180125  10.6169254  59.9829016
  24.9296485   9.6085521  59.8032965  24.2345188   9.9396415  59.6540970
  15.3150344  20.8443616  65.4686359  15.9587800  21.2856780  65.8582517
  15.6406600  20.0397043  65.3816617  15.4582173  20.7908811  65.5131836
  16.0170924  13.8555591  60.8406220  16.3386765  14.3960798  60.2367528
  16.6643021  13.2852363  60.9728510  16.1596979  13.8514766  60.7713256
  18.2560568  12.2442031  60.9120399  18.6954203  11.6359132  61.3575171
  18.1065230  11.8649404  60.1405864  18.2982033  12.0980502  60.8639566
  21.8569904  10.5969212  57.8651168  21.7721199  11.4530179  58.0100737
  22.3454287  10.3213536  58.5333327  21.9158801  10.6826534  57.9853249
  22.7888337   7.2154007  59.3648903  22.2599809   7.4313640  60.0246209
  23.3113357   7.9090145  59.2849872  22.7876790   7.3497143  59.4504502
  28.2436390  12.7900311  64.7381947  27.4134093  13.0010955  64.9015364
  28.1945643  11.9637366  64.4624231  28.1143126  12.6989917  64.7219313
  14.6787945  11.1117223  58.1656371  14.0945160  11.6167255  58.5722235
  14.2758040  10.8859610  57.4252963  14.5327249  11.1525472  58.1161396
  19.1365160   7.3582875  56.6425291  19.3761163   7.5660859  55.8300635
  19.4581001   6.5540384  56.7514236  19.2202317   7.2696977  56.5385845
  25.5000705  13.4599665  64.8746663  25.0635937  13.4636408  65.6305635
  25.1663621  14.1405164  64.4426241  25.3863325  13.5612121  64.9227496
  28.6345052  10.1780585  63.7666300  29.2961486   9.6171254  63.6662209
  27.9936464   9.6832616  64.0918992  28.6373919  10.0216994  63.7998641
  19.5221859  13.4750717  56.0747224  19.9373008  13.1435741  55.3831719
  18.6913789  13.2419619  55.9467360  19.4609868  13.3921973  55.9538071
  24.9209882  11.1945968  63.5078289  25.1565472  11.3391167  62.6805140
  25.0699446  11.9588376  63.9009803  24.9775686  11.3285022  63.4441893
  26.7500339  10.0347634  61.3447893  27.0808556  10.5675274  60.7387988
  27.3233427  10.0886521  62.0009844  26.8834018  10.1217203  61.3525675
  22.2155250   9.7261276  55.2608425  22.1335412   9.7963463  56.1263412
  22.8534970  10.2891020  55.0692166  22.2975087   9.8200247  55.3598375
  19.3195360   9.7481730  58.2717032  20.1335999  10.0396623  58.1599803
  19.2554501   9.0941593  57.6975325  19.4298099   9.6946925  58.1705869
  15.8306083   8.4405538  57.7364233  16.2151236   8.2213244  58.4880778
  15.5817703   9.2668483  57.8665309  15.8508156   8.5303684  57.8665309
  16.1129326  16.6610414  59.8096603  16.4027624  16.2699395  59.0855830
  16.8432807  16.8427119  60.2501879  16.2636210  16.6304227  59.7679410
  14.0535241  18.6377796  62.8756753  13.8335537  18.3475151  63.6683420
  13.8329763  17.9792751  62.3474665  13.9882835  18.4977504  62.9145662
  16.2203197  20.0107186  61.6587445  16.8727255  19.4783628  61.8878472
  15.5228806  19.6575838  62.0455319  16.2133915  19.8796709  61.7499613
  24.2143115  12.3311600  61.0018425  24.7801148  12.9904810  60.9176968
  23.5671019  12.6761298  61.4734827  24.2021872  12.4793541  61.0591181
  20.6849693  15.2750384  60.4255504  20.4436369  14.5418245  60.0182569
  20.8651026  15.8237241  59.7721837  20.6757317  15.2472775  60.2685727
  25.4105813  12.3817828  57.7944061  25.0312622  11.5954966  57.7873351
  24.7472059  12.9304685  57.6515705  25.2564288  12.3462652  57.7724858
  18.2352721  15.9331347  61.6332887  19.0002613  15.6640990  61.3115552
  18.1330811  15.4481357  62.3502950  18.3334217  15.8220911  61.6912715
  20.7571382  12.9643530  53.6132837  21.5244367  13.0243655  53.2038689
  20.3102691  12.3923972  53.1289155  20.8044809  12.8880106  53.4810547
  23.6565912  14.6263319  58.1295747  23.7385749  15.4330305  57.8057198
  24.1415654  14.6459278  58.8536521  23.7403070  14.7483981  58.1882646
  17.4610455  14.5675441  58.3827189  17.5303275  13.7089980  58.5220189
  18.2398910  14.7847322  58.0546213  17.5863305  14.4728305  58.3544346
  21.8517942  16.9913142  62.5963682  21.4597734  16.6879858  61.8786548
  22.0071014  17.8282232  62.4068636  21.8171532  17.0696979  62.4620179
  22.0157617  13.5563131  62.5369713  21.6572272  13.7277774  63.3133745
  21.5296328  14.0176337  61.9797711  21.8916314  13.6502102  62.5694982
  16.8045982   9.2362297  55.0769947  17.0938507  10.0127179  55.3513521
  16.8917781   8.7251028  55.7784446  16.8600239   9.2754215  55.2212445
  22.6208247  16.3948635  66.0293716  22.4227936  16.8839450  65.3349928
  21.9995958  16.5989877  66.6077850  22.4995812  16.4965173  66.0116940
  21.5977601   4.6295560  59.3323634  21.0700620   4.7124304  58.6429343
  22.0573309   5.3713431  59.3288279  21.5879452   4.7516222  59.2298329
  21.1514684  13.1999123  58.4633291  21.8748883  13.6657236  58.3197864
  20.7115275  13.2672733  57.7130888  21.1930376  13.2782960  58.3318072
  21.4118534  17.2619828  58.6231352  20.6947843  17.0880691  58.1578589
  22.0625271  17.0272401  58.0906838  21.4020384  17.2015621  58.4760570
  16.6931695  18.4981587  65.0521500  16.2792094  17.8355717  64.6625342
  17.3779070  18.6459446  64.5317194  16.7330067  18.4222245  64.9177997
  20.0596990  17.6571672  65.8045117  19.6613273  17.7673943  65.0365937
  19.4448209  17.8653739  66.3871676  19.9095879  17.7045240  65.7776416
  27.7938832  12.2323639  59.1888207  28.1772438  12.9814995  59.4186304
  26.9982946  12.4789459  58.9300196  27.7332614  12.3793333  59.1845781
  16.6054124   4.9043071  56.7648586  16.9853089   4.9222700  55.9799701
  15.8646720   5.3497060  56.6439433  16.5522962   4.9724845  56.6312154
  17.4038878  11.7420577  58.1557376  16.5950201  11.4187251  58.1090686
  17.9113787  11.0353799  58.0885625  17.3588545  11.5901893  58.1387671
  37.2856608  22.8094574  61.2818568  37.2550612  23.6639211  61.4536838
  37.8837956  22.5089867  61.8404712  37.3693766  22.8911071  61.3893370
  30.4856293  21.8970225  66.0371499  29.6294188  22.0578723  66.0880615
  30.5323946  21.0262289  66.0576560  30.3655404  21.7921027  66.0477565
  24.8697432  31.4332943  61.8008730  24.1180332  31.0548481  61.5724775
  25.3183444  31.4651377  61.0527540  24.8247099  31.3818550  61.6566232
  33.7950009  28.1656751  75.6431955  34.5016776  27.6708781  75.7718889
  33.9837945  28.6065832  74.9134613  33.9277915  28.1575101  75.5541000
  30.3222392  31.8558312  57.2294277  29.9873761  32.5335234  56.7938499
  30.8349263  31.4663624  56.6411149  30.3487973  31.8982891  57.0781069
  29.8626683  33.8072581  63.1705389  30.2466063  34.3759480  62.6310164
  29.7985825  33.0822091  62.6911205  29.9100111  33.7848045  63.0199251
  33.3308114  23.9562269  68.6803150  33.8764074  24.6347356  68.7397120
  33.2724990  23.8149730  67.8204732  33.4024028  24.0354271  68.5615211
  26.4482188  31.4451335  64.0671503  26.5492551  30.6351689  64.3768630
  25.8523934  31.3508281  63.4371181  26.3754727  31.3116363  64.0197741
  35.1073182  25.3846876  59.5536878  34.9912708  26.1354562  59.9829016
  35.9029069  25.1270829  59.8032965  35.2077772  25.4581723  59.6540970
  26.2882928  36.3628924  65.4686359  26.9320383  36.8042088  65.8582517
  26.6139184  35.5582350  65.3816617  26.4314757  36.3094119  65.5131836
  19.6447233  27.4671622  63.6923836  19.4097417  26.6339274  63.5856105
  19.7832873  27.7476287  62.8785037  19.6302895  27.3855125  63.5566191
  21.9437320  19.6357352  66.5908144  21.3242352  19.0449999  66.4218159
  21.8421184  20.2268787  65.9572467  21.8374996  19.6361435  66.4713134
  26.9903508  29.3740899  60.8406220  27.3119349  29.9146106  60.2367528
  27.6375604  28.8037670  60.9728510  27.1329563  29.3700074  60.7713256
  29.0405216  21.3756894  60.9240607  29.7385380  21.5545022  61.4162070
  29.3557548  20.8527233  60.3010996  29.1900553  21.3250666  60.9042617
  21.6706453  23.1809634  68.8351713  21.5465150  23.7672079  69.4701532
  22.3224738  22.6869830  69.1363988  21.7480103  23.1948438  68.9737642
  29.2293151  27.7627339  60.9120399  29.6686787  27.1544440  61.3575171
  29.0797814  27.3834712  60.1405864  29.2714617  27.6165810  60.8639566
  26.6964794  26.3571351  68.1139224  27.3413797  25.8643794  67.7950173
  26.9366571  26.4996137  68.9405302  26.8275379  26.3048793  68.1888757
  29.2350886  29.2026257  67.7646117  29.5174128  28.4077662  67.5432872
  29.9637046  29.6806844  67.7851178  29.3840449  29.1560854  67.7349132
  27.2132079  16.7449291  65.0061882  26.8835409  17.1960434  64.3365580
  26.5377081  16.6665454  65.5534888  27.0642516  16.8000426  64.9885105
  32.8302488  26.1154520  57.8651168  32.7453783  26.9715487  58.0100737
  33.3186871  25.8398844  58.5333327  32.8891385  26.2011842  57.9853249
  34.4208487  12.7334814  63.2511492  34.1061928  13.4238292  63.6831915
  33.9035429  12.6779596  62.5496993  34.2972958  12.8269702  63.2108441
  33.7620921  22.7339315  59.3648903  33.2332392  22.9498948  60.0246209
  34.2845941  23.4275453  59.2849872  33.7609374  22.8682451  59.4504502
  39.2168974  28.3085619  64.7381947  38.3866677  28.5196263  64.9015364
  39.1678226  27.4822674  64.4624231  39.0875709  28.2175225  64.7219313
  25.6520529  26.6302531  58.1656371  25.0677744  27.1352563  58.5722235
  25.2490624  26.4044918  57.4252963  25.5059833  26.6710780  58.1161396
  21.2064557  32.3457292  64.9680042  20.7232136  33.0707782  64.9439626
  22.0187876  32.6433422  65.0790200  21.2555305  32.4959646  64.9807322
  27.2778711  31.1389473  67.5729857  26.7605653  30.7796888  66.9691165
  27.9753103  30.6151648  67.5835923  27.3044293  31.0087161  67.4860116
  30.9342303  31.5884287  73.5346030  31.0225649  31.4010428  74.3824240
  31.3632016  30.9421717  73.1350877  31.0104406  31.4647295  73.6017781
  28.5012763  30.8715447  72.5163692  27.9383598  30.4588057  73.0403353
  29.2633787  30.7968353  72.9356835  28.5307212  30.7992848  72.6556692
  30.1097743  22.8768183  56.6425291  30.3493747  23.0846167  55.8300635
  30.4313584  22.0725692  56.7514236  30.1934901  22.7882285  56.5385845
  25.4188033  14.8061579  60.4884829  26.1734001  15.1739896  60.2501880
  25.2415568  15.1801133  61.2564009  25.5042512  14.9159767  60.5669718
  24.0608755  32.8613468  65.1200322  24.7629334  32.3465457  65.1773079
  23.9806238  33.1887620  65.9247197  24.1532515  32.8327695  65.2473114
  38.7122932  20.9556020  68.5332369  37.8751353  21.0258207  68.7679963
  38.6811163  20.9580514  67.6606671  38.5841215  20.9666247  68.4391917
  23.7745098  17.2131898  57.1862942  23.5920671  17.4303779  56.3603935
  24.6370711  17.3270911  57.2421557  23.8749688  17.2621796  57.0717429
  23.3859530  29.0519820  64.6285930  24.2248429  29.2842753  64.6759692
  23.4171299  28.1824132  64.5592966  23.5141248  28.9576767  64.6250575
  24.0112233  29.4720696  68.9299236  24.5510458  29.3291827  69.6002608
  23.3282179  29.8717446  69.2983262  23.9904387  29.5100366  69.0833658
  29.4544817  14.2158309  60.2211966  30.1830978  14.0374264  59.7750123
  29.5439710  15.0576389  60.4319144  29.5751479  14.3142187  60.1865484
  33.4353118  25.1511696  64.1244260  34.1910633  25.5843211  64.1633169
  33.5415442  24.5016466  64.6978896  33.5623289  25.1189180  64.2142286
  36.4733289  28.9784973  64.8746663  36.0368521  28.9821716  65.6305635
  36.1396205  29.6590472  64.4426241  36.3595909  29.0797429  64.9227496
  31.0462363  31.0193306  76.1989814  31.8302779  31.1324154  76.5645556
  30.8458957  30.1934443  76.3948499  31.1328388  30.9140026  76.2824200
  19.4149378  25.6920986  69.0833657  19.1487793  24.8760103  69.2424648
  19.4287942  25.7374142  68.2129173  19.3774100  25.5777891  68.9787139
  36.3930772  16.0198801  67.1176091  37.0356680  16.0896906  67.7038006
  36.6453793  15.3528024  66.6155633  36.5252904  15.9325150  67.1303370
  23.3207125  20.4906071  55.6985415  22.6065302  20.2044250  56.1107848
  23.8051094  20.8302697  56.3391803  23.2866488  20.4987720  55.8541050
  31.2032756  32.9303408  69.8456269  30.4048002  32.6902908  70.1030138
  31.6518768  32.9817801  70.5923317  31.1507367  32.9025799  69.9941193
  39.6077635  25.6965893  63.7666300  40.2694069  25.1356562  63.6662209
  38.9669047  25.2017924  64.0918992  39.6106503  25.5402302  63.7998641
  30.4954443  28.9936025  56.0747224  30.9105592  28.6621049  55.3831719
  29.6646373  28.7604927  55.9467360  30.4342452  28.9107281  55.9538071
  19.8242792  26.4779766  66.3645402  19.6418365  26.4526652  65.5117694
  20.5592461  26.9478704  66.4034310  19.9056856  26.5441128  66.2443320
  35.8942466  26.7131276  63.5078289  36.1298055  26.8576475  62.6805140
  36.0432030  27.4773684  63.9009803  35.9508269  26.8470330  63.4441893
  37.7232923  25.5532942  61.3447893  38.0541140  26.0860582  60.7387988
  38.2966011  25.6071829  62.0009844  37.8566602  25.6402510  61.3525675
  32.9364812  23.3997844  62.0271473  33.0311666  24.1387138  62.4811099
  32.3123655  22.9715320  62.4606038  32.8573842  23.4459165  62.1579621
  31.1917286  26.5784057  72.6761754  31.7656147  25.9411301  72.8310318
  31.1132089  26.5788139  71.8071412  31.2650521  26.4849168  72.5708165
  19.7913702  23.3573266  66.5144468  20.3687205  23.2209717  67.1536714
  19.0927764  22.9009051  66.7690053  19.7734724  23.2695533  66.6466758
  33.1887833  25.2446584  55.2608425  33.1067996  25.3148771  56.1263412
  33.8267554  25.8076328  55.0692166  33.2707671  25.3385555  55.3598375
  26.5481004  25.0107322  64.7282951  26.2900249  24.1779057  64.7014251
  26.6029487  25.2364935  63.8875452  26.5180782  24.9205093  64.6003088
  31.6282054  17.1135773  64.8287044  30.9238381  16.6244958  64.9870963
  31.6767029  17.1258247  63.9575489  31.5312106  17.0425421  64.7226384
  25.5215716  22.5645085  65.2147846  24.9465308  22.7237253  65.8511807
  25.1451393  21.9280494  64.7516297  25.3818529  22.4942897  65.2402405
  29.1889005  21.0368434  70.0740225  28.8003438  20.6122652  69.4192416
  28.5243703  21.2850583  70.5817251  29.0335933  21.0107155  70.0528093
  38.8312274  20.7943438  62.8488055  38.5748839  19.9823380  62.6585937
  39.6741588  20.8021006  62.6218242  38.9178300  20.6755436  62.7872872
  15.2672535  22.2085159  63.2292287  15.3532787  21.8317028  64.0105817
  15.8948333  21.8345605  62.7512245  15.3729086  22.0970641  63.2737764
  33.0115367  14.7343063  67.5864209  33.3925878  14.0521234  67.9732083
  32.2078651  14.4452665  67.4039873  32.9491828  14.5910111  67.6168265
  30.2927943  25.2667038  58.2717032  31.1068582  25.5581931  58.1599803
  30.2287085  24.6126901  57.6975325  30.4030682  25.2132233  58.1705869
  36.5137434  27.9493035  72.6846607  36.2776071  27.1181099  72.5658668
  37.1580662  27.8978642  73.2701451  36.5732104  27.8190723  72.7532501
  26.1635852  28.7388556  63.3989344  26.8009799  28.5000303  63.9441137
  26.5890923  28.9425715  62.6642504  26.3212018  28.7339566  63.3706501
  20.8548494  30.9776892  67.2823647  20.8952639  31.2491743  66.4543427
  21.4143018  31.5018800  67.6981435  20.9431840  31.0952647  67.2215536
  26.8038667  23.9590846  57.7364233  27.1883819  23.7398552  58.4880778
  26.5550287  24.7853791  57.8665309  26.8240739  24.0488992  57.8665309
  37.5373854  27.7337483  68.7474902  37.2319671  28.4665540  69.1088217
  36.8180070  27.3275413  68.4667688  37.3861196  27.7819216  68.7588039
  28.5457324  29.2160978  65.0783130  28.6196332  29.0536150  65.9324980
  29.3626830  29.4051168  64.8343612  28.6773682  29.2197721  65.1681156
  43.2375646  24.3730484  68.0743246  43.1700147  24.3926443  67.2045833
  43.2231309  25.2160811  68.2998917  43.2254403  24.5004219  67.9795723
  22.3063080  29.5618841  62.1077573  21.4801198  29.8080578  61.9811852
  22.3675071  29.4830922  62.9739632  22.1937247  29.5863790  62.2166518
  24.5239104  15.6287782  63.0673014  23.6561529  15.7010382  63.1330623
  24.8114308  16.4309861  63.2560989  24.4378852  15.7581929  63.1047780
  27.0861909  32.1795722  59.8096603  27.3760208  31.7884703  59.0855830
  27.8165390  32.3612426  60.2501879  27.2368793  32.1489535  59.7679410
  41.0234264  23.1474870  66.3489840  41.5742185  22.5142939  66.5886932
  41.0078379  23.6790263  67.0405345  41.1019460  23.1323818  66.4868699
  27.6756654  26.9813467  70.8949734  27.1768348  27.6929235  70.9734622
  28.4856879  27.3014134  70.8567896  27.7212761  27.1340316  70.9006302
  25.0267825  34.1563104  62.8756753  24.8068120  33.8660459  63.6683420
  24.8062347  33.4978059  62.3474665  24.9615419  34.0162812  62.9145662
  23.9384772  26.2436420  65.1412455  23.6498021  25.6173892  65.6758182
  24.8068120  26.1856708  65.2077135  24.0245024  26.1423965  65.2303409
  34.7262670  21.3871204  65.4594437  34.3827436  20.6661539  65.8101686
  34.8255712  21.1785055  64.6172795  34.6904713  21.2495407  65.3866117
  27.1935781  35.5292494  61.6587445  27.8459839  34.9968936  61.8878472
  26.4961389  35.1761146  62.0455319  27.1866499  35.3982017  61.7499613
  24.1417045  27.8831672  61.0654820  24.8963013  28.2644711  61.2790282
  23.5487658  28.3342815  61.5201516  24.1653759  28.0060499  61.1637698
  35.1875699  27.8496908  61.0018425  35.7533732  28.5090118  60.9176968
  34.5403602  28.1946606  61.4734827  35.1754455  27.9978849  61.0591181
  25.4615272  29.0540233  66.4394935  24.9396026  29.1940525  67.1246800
  25.8489292  28.2950897  66.6297053  25.4418973  28.9625757  66.5696012
  22.4506456  19.1046042  60.5089890  22.1631252  18.7347312  59.7721837
  23.1376924  19.5740897  60.2473595  22.5095353  19.1193011  60.3604966
  31.6582277  30.7935692  60.4255504  31.4168953  30.0603553  60.0182569
  31.8383610  31.3422549  59.7721837  31.6489901  30.7658083  60.2685727
  26.8881598  26.0844252  61.8376426  26.6924380  26.6918986  61.2436729
  27.1115943  25.3912196  61.3568100  26.8916239  26.0721777  61.6792507
  25.2860128  22.9698990  61.9557295  26.0082780  23.1340148  61.4961101
  24.8068120  23.6908655  61.8496634  25.3223858  23.0997219  61.8722909
  33.2453635  19.3062789  67.3353979  32.4064736  19.3324067  67.0992243
  33.3158003  19.9533524  67.9159326  33.1322029  19.4058914  67.3863096
  22.9367744  25.3757062  71.0611434  23.4488841  25.6541315  70.4120194
  22.6504087  26.1146356  71.4274247  22.9702608  25.5259416  71.0201312
  31.6922914  16.2048166  62.0681595  32.3949266  16.0055914  61.5901554
  31.4267102  15.4324108  62.3750439  31.7569546  16.0611132  62.0427037
  37.1211159  24.5130775  64.6215221  37.0345134  24.6686201  65.4750000
  36.6661639  25.1568851  64.2474626  37.0414416  24.6306530  64.6922328
  20.0234651  19.8827254  61.3575171  20.1250787  20.6853415  61.6856146
  20.8190537  19.6814590  61.0598251  20.1562556  19.9713153  61.3610526
  30.9936975  21.8341522  63.2440781  30.7471689  21.7537273  64.0777570
  31.3222098  21.0494990  63.0503308  31.0058219  21.7067788  63.3388304
  34.8885024  28.5424882  67.0327562  34.7499383  29.2405928  67.5376304
  34.1085022  28.3873538  66.6763744  34.7528251  28.6225048  67.0553836
  33.2263109  24.8421257  73.2849944  33.2211148  23.9701074  73.2892370
  33.9324103  25.0409426  72.8119399  33.3308113  24.7425131  73.2156979
  26.9534002  24.5698241  72.6563764  27.0977378  25.1499449  72.0206874
  27.3009651  24.9474538  73.3613618  27.0261464  24.7118945  72.6662759
  29.1253920  23.7688409  70.4388895  28.3777234  23.9619424  70.0337173
  29.2795445  22.9433629  70.2013017  29.0376347  23.6753521  70.3434301
  26.0261757  32.7601013  69.5224791  26.1751321  32.2003929  68.8698195
  26.8061760  32.8393015  69.9057309  26.1635851  32.6886578  69.4821740
  36.3838397  27.9003136  57.7944061  36.0045206  27.1140274  57.7873351
  35.7204642  28.4489993  57.6515705  36.2296872  27.8647960  57.7724858
  28.5515058  32.9315656  70.8009281  28.4758729  32.2624466  71.3560070
  28.4804917  33.6333444  71.3149948  28.5295665  32.9360563  70.9586130
  33.8383023  10.8428835  65.1978142  33.9566591  11.3005299  64.4645445
  33.6645198  10.0374097  64.9114360  33.8302194  10.7922607  65.0479076
  29.2085305  31.4516655  61.6332887  29.9735196  31.1826298  61.3115552
  29.1063395  30.9666665  62.3502950  29.3066800  31.3406219  61.6912715
  27.2438075  19.6541064  68.1726123  26.4534149  19.4732524  68.4943459
  27.6398698  18.8768017  68.1556418  27.1854951  19.5128525  68.2178672
  31.7303966  28.4828838  53.6132837  32.4976951  28.5428963  53.2038689
  31.2835274  27.9109280  53.1289155  31.7777393  28.4065414  53.4810547
  32.6281761  27.2883494  65.8985569  31.9526763  27.0568726  66.3998956
  32.6374137  26.6804677  65.2727674  32.5300266  27.1642419  65.8801721
  29.7575905  22.1301323  72.6549622  29.6935046  22.9911280  72.5269759
  29.8973093  21.8133316  71.8545173  29.7691375  22.2101490  72.5177835
  34.6298496  30.1448627  58.1295747  34.7118333  30.9515613  57.8057198
  35.1148238  30.1644586  58.8536521  34.7135653  30.2669289  58.1882646
  28.4394999  24.8233463  66.7965825  28.0157248  25.0237962  66.0604843
  28.2639854  23.9762311  66.9090125  28.3505880  24.7282244  66.7039515
  27.9406692  36.3383976  69.2587282  28.4302623  35.6394765  69.0762947
  27.3690925  36.0407846  69.8463340  27.9291222  36.1910199  69.3188323
  23.7277444  25.3185514  62.2293798  23.8842063  25.2532317  63.0849790
  24.0678037  26.0934067  62.0172477  23.8010679  25.4234712  62.3248392
  30.2656588  24.6943398  61.0987161  30.8072134  24.1913779  61.5625781
  30.5803148  24.6408592  60.2876646  30.3920986  24.6122818  61.0470973
  34.1373696  28.9046045  78.2114073  34.9508561  28.6331194  78.3719205
  33.9768662  28.6053585  77.4074269  34.2343644  28.8200971  78.1159479
  28.4343038  30.0860749  58.3827189  28.5035859  29.2275288  58.5220189
  29.2131493  30.3032630  58.0546213  28.5595888  29.9913613  58.3544346
  31.4145858  19.5879702  71.1509461  31.6287827  18.9490616  70.5972815
  30.7979757  20.0325526  70.7217323  31.3551187  19.5589846  71.0059892
  32.8250526  32.5098450  62.5963682  32.4330318  32.2065166  61.8786548
  32.9803598  33.3467540  62.4068636  32.7904116  32.5882287  62.4620179
  20.3011705  22.5020464  62.5454565  20.6810670  22.9205009  61.8814832
  19.7267070  23.0833920  62.8523408  20.2723030  22.6498323  62.4931306
  33.5784946  21.1968767  72.0892768  32.7661628  20.8894658  72.1705941
  34.0374880  20.7167767  72.6535480  33.5265331  21.0805260  72.1847362
  32.9890201  29.0748439  62.5369713  32.6304855  29.2463082  63.3133745
  32.5028911  29.5361645  61.9797711  32.8648897  29.1687410  62.5694982
  30.8060587  12.6979638  66.1396804  29.9354144  12.6718359  66.0930113
  31.0600928  12.5256830  65.3222650  30.7154147  12.6689781  66.0116941
  27.7778566  24.7547605  55.0769947  28.0671091  25.5312487  55.3513521
  27.8650365  24.2436336  55.7784446  27.8332822  24.7939523  55.2212445
  34.1494940  29.9652335  73.4836913  34.7874660  29.4712531  73.1499370
  33.5069031  29.8929736  72.8989140  34.1489166  29.8811344  73.3479268
  35.8751940  21.8141481  68.0502829  35.4479548  21.7267830  67.2950929
  35.2377993  21.9219257  68.6357673  35.7181547  21.8174141  68.0248271
  34.2049196  30.6572143  70.1242270  34.9941575  30.3061208  70.2444352
  34.3792794  31.4708532  69.8618904  34.3469478  30.7258001  70.1030138
  23.9442507  24.0680869  67.1770059  23.1030513  23.9684743  67.3848953
  24.1532515  24.8376349  67.5284380  23.8507199  24.1672913  67.2597374
  21.4218074  21.6900406  65.0054810  21.0274772  21.7643418  64.2304919
  20.8658191  22.0758353  65.5563172  21.2820886  21.7582181  64.9722470
  33.0583021  14.6681700  64.6858689  33.2632614  14.6004008  65.5315686
  32.7309445  15.4740521  64.6179866  33.0398269  14.7767641  64.8018344
  27.7559172  21.9962268  66.4267657  27.4522309  21.4418257  67.0278064
  27.0538593  22.1754478  65.9395691  27.6075382  21.9407051  66.4437362
  26.8125269  19.3062788  60.9912358  27.0885003  18.5881701  60.5789926
  27.4123938  19.9047708  60.7833465  26.9418533  19.2883159  60.8993120
  25.8177523  29.2111989  71.1339754  25.7097878  29.2214051  72.0001812
  26.0273304  30.0366770  70.9444708  25.8327634  29.3353064  71.2343846
  36.3116708  15.2213464  64.1661454  35.6991022  15.7083867  64.5515186
  36.4080883  14.5456955  64.7099105  36.2354606  15.1931773  64.3040312
  30.3135789  16.9776306  59.2658953  30.7679536  17.1486866  59.9906798
  30.7875835  16.3644416  58.8656729  30.4504110  16.9127191  59.3132715
  23.8351315  26.4624632  68.5961692  23.2439248  27.1034130  68.5664707
  24.5972338  26.8862249  68.5692991  23.8599575  26.6200470  68.5876839
  39.9541736  26.2930401  69.5938970  40.0124860  26.7417050  70.3398947
  39.3208204  26.7029214  69.1569050  39.8693031  26.4204136  69.6391519
  33.5940831  31.9133943  66.0293716  33.3960520  32.4024758  65.3349928
  32.9728542  32.1175185  66.6077850  33.4728395  32.0150481  66.0116940
  27.6548809  23.6818840  60.3703961  28.3990854  24.0693116  60.6086911
  27.8009506  22.8376265  60.5344449  27.7859394  23.6149313  60.4297930
  29.5728385  15.4769099  65.4035822  28.7264430  15.6491907  65.2777172
  29.5699517  14.6718443  65.7401650  29.4475535  15.3830128  65.4346949
  30.6426685  19.2544313  66.2697880  30.1686639  18.7286075  66.7803191
  31.0144821  18.7073786  65.7012742  30.6276574  19.0960310  66.2613027
  36.9063416  24.3146689  67.6804661  36.6661639  23.4753104  67.6847087
  37.3855423  24.3946856  68.4045434  36.9415599  24.2028089  67.7879463
  32.5710185  20.1480868  59.3323634  32.0433203  20.2309612  58.6429343
  33.0305893  20.8898739  59.3288279  32.5612035  20.2701530  59.2298329
  38.9068603  21.0948146  65.6333920  38.6678373  21.0543980  64.7954704
  39.0702504  21.9419298  65.7599641  38.8958906  21.2140231  65.5287402
  35.5114633  25.4798095  71.5638965  36.2348832  25.0270622  71.3849985
  35.2464595  25.7602761  70.7811293  35.5795906  25.4549064  71.4217680
  24.3801501  20.0758269  68.2991844  23.7554571  20.0876661  67.6917797
  24.0447096  20.5518444  68.9483084  24.2386993  20.1476786  68.3048413
  24.5643250  18.4183387  54.3564529  24.2156054  19.0703113  54.8196078
  24.0839696  18.4040500  53.6288400  24.4413494  18.5126441  54.3175620
  21.0927177  28.1358729  69.7395608  20.5627101  27.4451168  69.7890583
  21.3652270  28.1268914  68.9108317  21.0551899  28.0325861  69.6243024
  32.1247267  28.7184431  58.4633291  32.8481466  29.1842544  58.3197864
  31.6847858  28.7858041  57.7130888  32.1662960  28.7968268  58.3318072
  31.2933422  25.5781974  69.7133980  30.6790416  25.0340024  70.0082615
  31.8100707  25.0646210  69.2339796  31.2789085  25.4218383  69.6858208
  30.5329720  26.6486244  67.4478279  30.1057328  26.0235962  67.0143714
  30.5254664  26.3661166  68.2737286  30.4688861  26.5139024  67.5058106
  28.8615429  17.5254998  67.6620813  28.8857916  16.9915111  66.9733593
  29.1126903  17.0172307  68.3246403  28.9025348  17.3715902  67.6585457
  16.3723019  24.8086493  67.0963957  16.2666468  24.7633338  66.2316041
  15.6223239  25.1540274  67.3778241  16.2458622  24.8527401  67.0101286
  25.1416752  16.2525816  67.0426557  25.1815123  16.7535023  67.7561264
  24.3166416  16.3436210  66.7732480  25.0256277  16.3407633  67.1077095
  26.5631115  22.7686326  69.3400456  25.7323045  22.9360144  69.1335704
  26.5082632  22.3922277  70.1249341  26.4320530  22.7376058  69.4248984
  24.9367159  21.0441918  59.8690574  25.0770120  21.5414382  60.5719215
  25.4349692  20.3428212  60.0104787  25.0308240  21.0143897  59.9942153
  24.9667381  21.9109029  57.1983150  25.6012461  22.5069454  57.1332612
  25.0492992  21.6112486  58.0129021  25.0723932  21.9549937  57.3086237
  37.9449947  24.4424506  70.0669515  38.5367787  25.0821757  70.0987713
  38.3808941  23.7447543  70.3561581  38.0968378  24.4342857  70.1150347
  26.5446364  17.8423004  57.1728592  26.8662205  17.3626087  56.5187855
  26.8073308  18.6522650  56.9819404  26.6312389  17.8912902  57.0484084
  29.7743337  28.8641879  70.6927408  29.2668428  29.4177725  71.1368039
  29.4769983  28.9250168  69.8746183  29.6548222  28.9548190  70.6375865
  31.9405519  17.2295198  69.5352071  32.3660591  16.7767725  68.9235598
  31.3262512  16.6755269  69.8116859  31.9134164  17.0809174  69.4857097
  21.4720369  24.1076870  60.4672696  21.9812598  24.7041377  60.8484002
  21.9454641  23.8402843  59.7849116  21.6163745  24.1562685  60.4227219
  32.3851117  32.7805136  58.6231352  31.6680427  32.6065999  58.1578589
  33.0357855  32.5457709  58.0906838  32.3752968  32.7200929  58.4760570
  30.3799742  13.7010298  62.9442648  29.7368060  13.5507944  63.5127787
  30.0399149  13.4552643  62.1791753  30.2344819  13.6422420  62.9145664
  34.9699088  21.6569725  62.3672657  34.2990278  22.1999427  62.2385723
  35.6638839  22.1264580  62.1254352  34.9727956  21.8067996  62.3128185
  29.0185822  33.7966437  67.5984415  28.7951476  33.0385266  67.9668442
  28.5295665  33.8264458  66.8764855  28.9129271  33.6888661  67.5461156
  35.1327216  18.1125608  65.2763030  35.4854826  17.6855331  65.9508829
  34.2742017  18.0276452  65.4064107  35.0576660  18.0370349  65.3958041
  23.8310901  20.7433128  63.3345877  23.1122890  21.1597261  63.6018740
  24.2023263  21.3087367  62.7837515  23.7802833  20.8882410  63.2928684
  33.1310482  21.3760977  69.2247873  33.1108409  21.1944272  70.0782651
  33.1789682  22.2472996  69.2007456  33.1345123  21.4777515  69.3471167
  31.0756811  27.9648169  75.1496349  31.0352666  27.3197846  74.5641505
  31.8880130  27.9084786  75.4621761  31.1899965  27.8607136  75.1093298
  27.6664279  34.0166895  65.0521500  27.2524678  33.3541025  64.6625342
  28.3511653  34.1644754  64.5317194  27.7062651  33.9407553  64.9177997
  31.0329573  33.1756980  65.8045117  30.6345856  33.2859251  65.0365937
  30.4180793  33.3839047  66.3871676  30.8828462  33.2230548  65.7776416
  29.6057475  19.7831128  58.6719256  29.0122314  20.1048125  58.1203823
  29.6432753  18.9372223  58.4640362  29.5231864  19.7055456  58.5602028
  36.5651276  13.2344020  66.2047343  36.0582141  12.5273160  66.1368520
  37.3618710  12.9037209  66.3348419  36.6078515  13.0817172  66.2146338
  32.4815292  19.7410633  62.1021007  32.2528985  19.7643334  61.2599365
  32.7413368  18.9168100  62.2216017  32.4861480  19.6226713  61.9946204
  25.5360054  18.2787179  63.3975202  26.0117420  18.6404259  62.7625383
  25.0348654  18.9343646  63.6775345  25.5325413  18.4281368  63.3451943
  38.7671416  27.7508947  59.1888207  39.1505022  28.5000303  59.4186304
  37.9715529  27.9974767  58.9300196  38.7065198  27.8978641  59.1845781
  27.5786707  20.4228379  56.7648586  27.9585672  20.4408008  55.9799701
  26.8379303  20.8682367  56.6439433  27.5255545  20.4910153  56.6312154
  35.2071998  18.7310570  62.3524165  35.2066224  18.5759226  63.2108441
  35.0028178  19.5773557  62.2965550  35.1771776  18.8331191  62.4712104
  17.2689269  22.1550354  66.7682981  17.0911030  21.7026963  67.4937897
  16.9808291  22.9576516  66.9521459  17.2002222  22.2072912  66.9026484
  32.9312850  23.4108072  66.0060372  33.4266515  22.6931067  65.9664392
  32.1212626  23.1078869  65.8914859  32.8856743  23.2605718  65.9834098
  28.3771461  27.2605885  58.1557376  27.5682784  26.9372558  58.1090686
  28.8846370  26.5539107  58.0885625  28.3321128  27.1087201  58.1387671
  19.0061739  24.6878078  63.8804740  18.1407258  24.6763768  63.7687512
  19.1060555  24.5008301  64.7275880  18.8935906  24.6584139  63.9893685
  34.9964669  26.1611759  68.6937500  35.4219740  25.6386181  68.1407926
  34.6321589  26.7592597  68.1726123  35.0051271  26.1721986  68.5346510
  24.6318749  34.4575977  67.4534846  24.9465308  35.2712365  67.4612628
  25.0412162  34.0726195  68.1217005  24.7386847  34.5204679  67.5538938
  31.5843268  29.8746023  65.0238658  32.0554446  30.5886286  65.1928643
  31.9203447  29.2744774  65.5598527  31.7038383  29.8917488  65.1271034
  33.6720253  31.4847337  77.2030730  33.7817218  30.6955897  77.5587477
  34.0011149  31.3953273  76.4005068  33.7372659  31.3553190  77.1373121
  32.2217215  29.6663958  71.7866351  31.6738161  29.0421841  71.5186416
  32.6830243  29.8558230  71.0710430  32.2084424  29.6023008  71.6416782
  35.0311079  17.7349312  69.1717543  34.4474068  18.2358519  68.7595110
  35.3515373  17.2278868  68.5381866  34.9924254  17.7341147  69.0176050
  27.5705878  16.6489907  59.4476218  28.3921572  16.8188220  59.2057913
  27.1075529  16.8037168  58.7242515  27.6237040  16.6971640  59.3047862
  21.9731769  28.4049085  67.1013454  22.5776626  28.3644919  66.4727275
  21.7659081  29.2520237  67.1317510  22.0320666  28.5237088  67.0129571
  31.7875541  30.6715030  68.3175692  32.6073915  30.5277996  68.5791987
  31.5069619  31.2961229  68.8592130  31.8672284  30.7425382  68.4363631
  17.2083051  27.3883703  66.9712378  17.1107329  26.5779974  67.2802434
  17.9911921  27.3675496  66.5858646  17.3099188  27.2650793  66.9599240
  41.4588876  37.4155533  66.0371499  40.6026772  37.5764031  66.0880615
  41.5056530  36.5447597  66.0576560  41.3387988  37.3106335  66.0477565
  44.7682593  43.6842059  75.6431955  45.4749360  43.1894089  75.7718889
  44.9570528  44.1251140  74.9134613  44.9010498  43.6760409  75.5541000
  44.3040697  39.4747577  68.6803150  44.8496657  40.1532664  68.7397120
  44.2457573  39.3335038  67.8204732  44.3756611  39.5539579  68.5615211
  37.4214772  46.9636643  64.0671503  37.5225135  46.1536997  64.3768630
  36.8256517  46.8693589  63.4371181  37.3487311  46.8301671  64.0197741
  37.2615512  51.8814232  65.4686359  37.9052967  52.3227396  65.8582517
  37.5871767  51.0767658  65.3816617  37.4047340  51.8279427  65.5131836
  30.6179816  42.9856930  63.6923836  30.3830001  42.1524582  63.5856105
  30.7565457  43.2661595  62.8785037  30.6035479  42.9040433  63.5566191
  32.9169904  35.1542660  66.5908144  32.2974935  34.5635307  66.4218159
  32.8153767  35.7454095  65.9572467  32.8107579  35.1546743  66.4713134
  40.0137799  36.8942202  60.9240607  40.7117964  37.0730329  61.4162070
  40.3290132  36.3712541  60.3010996  40.1633137  36.8435974  60.9042617
  32.6439037  38.6994942  68.8351713  32.5197734  39.2857387  69.4701532
  33.2957321  38.2055138  69.1363988  32.7212686  38.7133746  68.9737642
  37.6697378  41.8756659  68.1139224  38.3146380  41.3829102  67.7950173
  37.9099155  42.0181445  68.9405302  37.8007963  41.8234101  68.1888757
  40.2083469  44.7211565  67.7646117  40.4906712  43.9262970  67.5432872
  40.9369630  45.1992152  67.7851178  40.3573033  44.6746162  67.7349132
  38.1864663  32.2634599  65.0061882  37.8567993  32.7145742  64.3365580
  37.5109665  32.1850762  65.5534888  38.0375099  32.3185734  64.9885105
  45.3941071  28.2520121  63.2511492  45.0794512  28.9423600  63.6831915
  44.8768012  28.1964904  62.5496993  45.2705541  28.3455010  63.2108441
  36.6253112  42.1487839  58.1656371  36.0410328  42.6537871  58.5722235
  36.2223208  41.9230226  57.4252963  36.4792416  42.1896088  58.1161396
  32.1797141  47.8642600  64.9680042  31.6964719  48.5893090  64.9439626
  32.9920459  48.1618730  65.0790200  32.2287889  48.0144954  64.9807322
  38.2511295  46.6574781  67.5729857  37.7338237  46.2982196  66.9691165
  38.9485686  46.1336955  67.5835923  38.2776876  46.5272469  67.4860116
  41.9074887  47.1069595  73.5346030  41.9958233  46.9195736  74.3824240
  42.3364600  46.4607025  73.1350877  41.9836989  46.9832603  73.6017781
  39.4745347  46.3900755  72.5163692  38.9116182  45.9773365  73.0403353
  40.2366370  46.3153661  72.9356835  39.5039795  46.3178156  72.6556692
  36.3920617  30.3246887  60.4884829  37.1466585  30.6925204  60.2501880
  36.2148152  30.6986441  61.2564009  36.4775095  30.4345075  60.5669718
  35.0341338  48.3798776  65.1200322  35.7361918  47.8650765  65.1773079
  34.9538821  48.7072928  65.9247197  35.1265099  48.3513002  65.2473114
  49.6855516  36.4741328  68.5332369  48.8483937  36.5443515  68.7679963
  49.6543747  36.4765822  67.6606671  49.5573798  36.4851555  68.4391917
  36.0820245  38.6174363  74.2480737  36.2540748  38.5080258  75.0966019
  36.6189602  39.2628769  74.0111930  36.1865249  38.6966365  74.3385834
  34.7477682  32.7317206  57.1862942  34.5653255  32.9489087  56.3603935
  35.6103295  32.8456219  57.2421557  34.8482271  32.7807104  57.0717429
  34.3592114  44.5705128  64.6285930  35.1981013  44.8028061  64.6759692
  34.3903883  43.7009440  64.5592966  34.4873831  44.4762075  64.6250575
  34.9844817  44.9906003  68.9299236  35.5243042  44.8477134  69.6002608
  34.3014763  45.3902754  69.2983262  34.9636971  45.0285674  69.0833658
  40.4277401  29.7343617  60.2211966  41.1563561  29.5559572  59.7750123
  40.5172294  30.5761696  60.4319144  40.5484063  29.8327495  60.1865484
  44.4085702  40.6697004  64.1244260  45.1643217  41.1028518  64.1633169
  44.5148026  40.0201774  64.6978896  44.5355872  40.6374488  64.2142286
  47.4465873  44.4970281  64.8746663  47.0101105  44.5007024  65.6305635
  47.1128788  45.1775780  64.4426241  47.3328493  44.5982737  64.9227496
  42.0194946  46.5378614  76.1989814  42.8035363  46.6509462  76.5645556
  41.8191541  45.7119751  76.3948499  42.1060972  46.4325334  76.2824200
  30.3881962  41.2106294  69.0833657  30.1220377  40.3945411  69.2424648
  30.4020526  41.2559450  68.2129173  30.3506684  41.0963199  68.9787139
  47.3663356  31.5384109  67.1176091  48.0089264  31.6082214  67.7038006
  47.6186376  30.8713332  66.6155633  47.4985488  31.4510458  67.1303370
  35.1380568  34.7484673  71.7300665  34.4452365  34.2781652  71.9761397
  35.7540895  34.5222977  72.3042372  35.1265098  34.6451804  71.8509818
  42.1765340  48.4488716  69.8456269  41.3780585  48.2088216  70.1030138
  42.6251351  48.5003109  70.5923317  42.1239951  48.4211107  69.9941193
  30.7975375  41.9965074  66.3645402  30.6150949  41.9711960  65.5117694
  31.5325044  42.4664011  66.4034310  30.8789439  42.0626436  66.2443320
  46.8675050  42.2316584  63.5078289  47.1030639  42.3761783  62.6805140
  47.0164613  42.9958992  63.9009803  46.9240853  42.3655638  63.4441893
  33.8621127  38.7150077  72.8727510  34.5861099  38.7003107  73.3592405
  33.9637264  39.4245432  72.3749479  33.9839336  38.8174780  72.8706297
  42.1649869  42.0969365  72.6761754  42.7388731  41.4596609  72.8310318
  42.0864673  42.0973447  71.8071412  42.2383104  42.0034476  72.5708165
  30.7646286  38.8758574  66.5144468  31.3419788  38.7395025  67.1536714
  30.0660347  38.4194358  66.7690053  30.7467307  38.7880841  66.6466758
  37.5213588  40.5292630  64.7282951  37.2632832  39.6964365  64.7014251
  37.5762071  40.7550243  63.8875452  37.4913366  40.4390401  64.6003088
  42.6014638  32.6321081  64.8287044  41.8970965  32.1430266  64.9870963
  42.6499612  32.6443555  63.9575489  42.5044690  32.5610729  64.7226384
  36.4948300  38.0830392  65.2147846  35.9197891  38.2422561  65.8511807
  36.1183976  37.4465802  64.7516297  36.3551112  38.0128205  65.2402405
  40.1621589  36.5553742  70.0740225  39.7736021  36.1307959  69.4192416
  39.4976287  36.8035891  70.5817251  40.0068516  36.5292463  70.0528093
  49.8044858  36.3128746  62.8488055  49.5481423  35.5008688  62.6585937
  50.6474172  36.3206314  62.6218242  49.8910883  36.1940744  62.7872872
  26.2405119  37.7270467  63.2292287  26.3265371  37.3502336  64.0105817
  26.8680916  37.3530913  62.7512245  26.3461670  37.6155949  63.2737764
  43.9847950  30.2528371  67.5864209  44.3658462  29.5706542  67.9732083
  43.1811235  29.9637973  67.4039873  43.9224412  30.1095419  67.6168265
  47.4870017  43.4678342  72.6846607  47.2508654  42.6366407  72.5658668
  48.1313246  43.4163950  73.2701451  47.5464688  43.3376030  72.7532501
  37.1368435  44.2573864  63.3989344  37.7742382  44.0185611  63.9441137
  37.5623507  44.4611023  62.6642504  37.2944601  44.2524874  63.3706501
  31.8281078  46.4962200  67.2823647  31.8685223  46.7677051  66.4543427
  32.3875602  47.0204108  67.6981435  31.9164424  46.6137955  67.2215536
  37.7771250  39.4776154  57.7364233  38.1616403  39.2583860  58.4880778
  37.5282871  40.3039099  57.8665309  37.7973323  39.5674300  57.8665309
  37.9439791  32.7582569  77.4526817  37.6293232  33.5282131  77.1896380
  37.6229723  32.1952825  76.8679044  37.8498710  32.7892837  77.3268167
  48.5106438  43.2522791  68.7474902  48.2052255  43.9850848  69.1088217
  47.7912653  42.8460721  68.4667688  48.3593780  43.3004524  68.7588039
  39.5189907  44.7346286  65.0783130  39.5928915  44.5721458  65.9324980
  40.3359413  44.9236476  64.8343612  39.6506266  44.7383029  65.1681156
  54.2108230  39.8915792  68.0743246  54.1432730  39.9111751  67.2045833
  54.1963892  40.7346119  68.2998917  54.1986986  40.0189527  67.9795723
  33.2795664  45.0804149  62.1077573  32.4533782  45.3265886  61.9811852
  33.3407655  45.0016230  62.9739632  33.1669831  45.1049098  62.2166518
  35.4971688  31.1473090  63.0673014  34.6294113  31.2195690  63.1330623
  35.7846892  31.9495169  63.2560989  35.4111436  31.2767237  63.1047780
  44.6204576  31.2950950  71.3984335  45.3658168  31.1060760  70.9847761
  44.2041881  31.8209188  70.8398192  44.6689551  31.3453095  71.2548909
  51.9966847  38.6660178  66.3489840  52.5474769  38.0328247  66.5886932
  51.9810963  39.1975571  67.0405345  52.0752044  38.6509126  66.4868699
  38.6489238  42.4998775  70.8949734  38.1500932  43.2114543  70.9734622
  39.4589462  42.8199442  70.8567896  38.6945345  42.6525624  70.9006302
  36.0000408  49.6748412  62.8756753  35.7800704  49.3845767  63.6683420
  35.7794930  49.0163367  62.3474665  35.9348003  49.5348120  62.9145662
  34.9117356  41.7621728  65.1412455  34.6230604  41.1359200  65.6758182
  35.7800704  41.7042016  65.2077135  34.9977608  41.6609273  65.2303409
  45.6995253  36.9056512  65.4594437  45.3560019  36.1846847  65.8101686
  45.7988296  36.6970363  64.6172795  45.6637296  36.7680715  65.3866117
  38.1668364  51.0477802  61.6587445  38.8192422  50.5154244  61.8878472
  37.4693973  50.6946454  62.0455319  38.1599082  50.9167325  61.7499613
  35.1149629  43.4016979  61.0654820  35.8695597  43.7830019  61.2790282
  34.5220242  43.8528123  61.5201516  35.1386343  43.5245807  61.1637698
  37.5756296  35.3579820  76.1912032  36.7656072  35.6637599  76.0801874
  38.0530983  36.0785402  76.3064616  37.5259775  35.5094421  76.1919103
  36.4347856  44.5725541  66.4394935  35.9128609  44.7125832  67.1246800
  36.8221876  43.8136205  66.6297053  36.4151557  44.4811065  66.5696012
  33.4239040  34.6231350  60.5089890  33.1363835  34.2532620  59.7721837
  34.1109508  35.0926205  60.2473595  33.4827937  34.6378319  60.3604966
  37.8614181  41.6029560  61.8376426  37.6656964  42.2104294  61.2436729
  38.0848527  40.9097504  61.3568100  37.8648822  41.5907085  61.6792507
  36.2592711  38.4884298  61.9557295  36.9815363  38.6525456  61.4961101
  35.7800704  39.2093963  61.8496634  36.2956442  38.6182527  61.8722909
  44.2186219  34.8248097  67.3353979  43.3797319  34.8509375  67.0992243
  44.2890586  35.4718832  67.9159326  44.1054612  34.9244222  67.3863096
  33.9100328  40.8942370  71.0611434  34.4221425  41.1726623  70.4120194
  33.6236671  41.6331664  71.4274247  33.9435191  41.0444724  71.0201312
  42.6655497  31.7233474  62.0681595  43.3681850  31.5241222  61.5901554
  42.3999686  30.9509416  62.3750439  42.7302129  31.5796440  62.0427037
  48.0943743  40.0316083  64.6215221  48.0077717  40.1871509  65.4750000
  47.6394223  40.6754159  64.2474626  48.0146999  40.1491838  64.6922328
  30.9967234  35.4012562  61.3575171  31.0983371  36.2038723  61.6856146
  31.7923121  35.1999898  61.0598251  31.1295140  35.4898461  61.3610526
  37.4284053  32.9868759  71.1212476  37.2367250  33.0023893  71.9711900
  38.2782649  33.1832433  71.0979131  37.5259775  33.0183110  71.2435771
  31.8130966  35.5159740  69.0996292  31.6716458  34.6643681  69.2240800
  32.0971530  35.5588401  68.2758498  31.8338812  35.3959490  68.9963917
  41.9669559  37.3526830  63.2440781  41.7204273  37.2722581  64.0777570
  42.2954682  36.5680298  63.0503308  41.9790802  37.2253096  63.3388304
  45.8617608  44.0610190  67.0327562  45.7231967  44.7591236  67.5376304
  45.0817605  43.9058846  66.6763744  45.7260834  44.1410356  67.0553836
  44.1995693  40.3606565  73.2849944  44.1943731  39.4886382  73.2892370
  44.9056687  40.5594734  72.8119399  44.3040697  40.2610439  73.2156979
  37.9266586  40.0883549  72.6563764  38.0709962  40.6684757  72.0206874
  38.2742235  40.4659846  73.3613618  37.9994047  40.2304253  72.6662759
  40.0986503  39.2873717  70.4388895  39.3509817  39.4804732  70.0337173
  40.2528029  38.4618937  70.2013017  40.0108931  39.1938829  70.3434301
  36.9994341  48.2786321  69.5224791  37.1483905  47.7189237  68.8698195
  37.7794343  48.3578323  69.9057309  37.1368435  48.2071886  69.4821740
  39.5247642  48.4500964  70.8009281  39.4491313  47.7809774  71.3560070
  39.4537501  49.1518752  71.3149948  39.5028249  48.4545871  70.9586130
  40.3388280  33.1824268  71.3284299  40.7960895  33.9148242  71.4557091
  40.4144609  32.7590733  72.0871555  40.4179250  33.2281506  71.4585376
  32.5821272  33.4290088  72.4173743  32.0463461  32.8170446  72.7334510
  32.6439036  34.0038224  73.0707409  32.5116904  33.4237016  72.5609170
  44.8115606  26.3614143  65.1978142  44.9299174  26.8190607  64.4645445
  44.6377782  25.5559405  64.9114360  44.8034777  26.3107915  65.0479076
  38.2170658  35.1726372  68.1726123  37.4266733  34.9917832  68.4943459
  38.6131281  34.3953325  68.1556418  38.1587535  35.0313833  68.2178672
  43.6014345  42.8068802  65.8985569  42.9259346  42.5754034  66.3998956
  43.6106721  42.1989985  65.2727674  43.5032849  42.6827727  65.8801721
  40.7308489  37.6486631  72.6549622  40.6667630  38.5096588  72.5269759
  40.8705676  37.3318624  71.8545173  40.7423959  37.7286798  72.5177835
  39.4127582  40.3418770  66.7965825  38.9889832  40.5423270  66.0604843
  39.2372438  39.4947618  66.9090125  39.3238463  40.2467552  66.7039515
  38.9139276  51.8569283  69.2587282  39.4035206  51.1580073  69.0762947
  38.3423508  51.5593153  69.8463340  38.9023806  51.7095507  69.3188323
  34.7010027  40.8370822  62.2293798  34.8574647  40.7717625  63.0849790
  35.0410621  41.6119374  62.0172477  34.7743262  40.9420020  62.3248392
  45.1106279  44.4231353  78.2114073  45.9241145  44.1516502  78.3719205
  44.9501246  44.1238893  77.4074269  45.2076228  44.3386279  78.1159479
  42.3878441  35.1065010  71.1509461  42.6020411  34.4675924  70.5972815
  41.7712341  35.5510834  70.7217323  42.3283771  35.0775154  71.0059892
  43.7983109  48.0283758  62.5963682  43.4062901  47.7250473  61.8786548
  43.9536182  48.8652848  62.4068636  43.7636699  48.1067595  62.4620179
  31.2744289  38.0205772  62.5454565  31.6543254  38.4390317  61.8814832
  30.6999654  38.6019228  62.8523408  31.2455614  38.1683631  62.4931306
  44.5517529  36.7154075  72.0892768  43.7394211  36.4079966  72.1705941
  45.0107464  36.2353075  72.6535480  44.4997914  36.5990568  72.1847362
  43.9622784  44.5933747  62.5369713  43.6037439  44.7648390  63.3133745
  43.4761495  45.0546953  61.9797711  43.8381481  44.6872718  62.5694982
  41.7793170  28.2164946  66.1396804  40.9086728  28.1903667  66.0930113
  42.0333511  28.0442138  65.3222650  41.6886730  28.1875089  66.0116941
  41.6471037  38.1214147  76.8721471  42.1170668  38.7456263  77.2589345
  41.6932917  37.4531122  77.4314685  41.7238913  38.1148827  77.0121542
  38.8042311  30.2271174  67.5970274  38.2880799  29.5351366  67.7221853
  38.2436239  30.8941951  67.5432873  38.6448824  30.2234432  67.6076340
  40.8734544  30.7664134  69.4263127  40.4866297  30.7913166  70.2076657
  40.3867481  30.2005813  68.9737644  40.7447053  30.6859885  69.4751031
  45.1227523  45.4837643  73.4836913  45.7607244  44.9897839  73.1499370
  44.4801615  45.4115044  72.8989140  45.1221750  45.3996652  73.3479268
  46.8484524  37.3326789  68.0502829  46.4212132  37.2453138  67.2950929
  46.2110577  37.4404565  68.6357673  46.6914131  37.3359449  68.0248271
  40.5391686  27.6531120  71.7173387  41.1684804  28.1891420  71.4394457
  40.7077548  27.5608479  72.5686953  40.6569480  27.7192482  71.8021915
  40.3405601  32.4402314  73.9899798  41.1679030  32.1687463  74.0458413
  40.3613447  33.2363156  74.3463617  40.4658451  32.5182069  74.0514981
  45.1781780  46.1757451  70.1242270  45.9674158  45.8246516  70.2444352
  45.3525378  46.9893840  69.8618904  45.3202062  46.2443309  70.1030138
  34.9175091  39.5866177  67.1770059  34.0763097  39.4870051  67.3848953
  35.1265098  40.3561657  67.5284380  34.8239783  39.6858220  67.2597374
  32.3950657  37.2085714  65.0054810  32.0007355  37.2828726  64.2304919
  31.8390774  37.5943660  65.5563172  32.2553470  37.2767489  64.9722470
  44.0315604  30.1867008  64.6858689  44.2365198  30.1189316  65.5315686
  43.7042028  30.9925829  64.6179866  44.0130852  30.2952949  64.8018344
  38.7291755  37.5147576  66.4267657  38.4254893  36.9603565  67.0278064
  38.0271176  37.6939786  65.9395691  38.5807965  37.4592359  66.4437362
  37.7857852  34.8248096  60.9912358  38.0617587  34.1067009  60.5789926
  38.3856522  35.4233016  60.7833465  37.9151117  34.8068467  60.8993120
  36.7910106  44.7297297  71.1339754  36.6830461  44.7399359  72.0001812
  37.0005888  45.5552077  70.9444708  36.8060217  44.8538372  71.2343846
  47.2849292  30.7398772  64.1661454  46.6723606  31.2269175  64.5515186
  47.3813467  30.0642263  64.7099105  47.2087190  30.7117081  64.3040312
  41.2868373  32.4961614  59.2658953  41.7412119  32.6672174  59.9906798
  41.7608419  31.8829724  58.8656729  41.4236693  32.4312499  59.3132715
  34.8083898  41.9809939  68.5961692  34.2171832  42.6219438  68.5664707
  35.5704922  42.4047557  68.5692991  34.8332159  42.1385778  68.5876839
  35.2044521  33.1411937  69.2629710  35.6646003  33.2150867  70.0004833
  35.2500628  33.9393191  68.9129531  35.2795076  33.2706084  69.3202466
  36.8527871  33.8078632  73.8301737  36.4613436  33.1611979  74.2657514
  37.0213734  34.3990067  74.4495992  36.8198781  33.7992900  73.9864443
  50.9274320  41.8115709  69.5938970  50.9857444  42.2602358  70.3398947
  50.2940788  42.2214522  69.1569050  50.8425615  41.9389444  69.6391519
  44.5673415  47.4319251  66.0293716  44.3693103  47.9210066  65.3349928
  43.9461126  47.6360493  66.6077850  44.4460979  47.5335789  66.0116940
  38.6281393  39.2004148  60.3703961  39.3723438  39.5878424  60.6086911
  38.7742089  38.3561573  60.5344449  38.7591978  39.1334621  60.4297930
  40.5460968  30.9954407  65.4035822  39.6997013  31.1677215  65.2777172
  40.5432101  30.1903750  65.7401650  40.4208118  30.9015436  65.4346949
  41.6159269  34.7729621  66.2697880  41.1419223  34.2471383  66.7803191
  41.9877405  34.2259094  65.7012742  41.6009158  34.6145618  66.2613027
  31.9932299  36.7701128  71.6381426  32.8557912  36.6696837  71.5518756
  31.6624082  36.1895837  71.0766998  32.0717495  36.6692755  71.5426832
  47.8795999  39.8331997  67.6804661  47.6394222  38.9938412  67.6847087
  48.3588007  39.9132164  68.4045434  47.9148183  39.7213397  67.7879463
  49.8801186  36.6133454  65.6333920  49.6410956  36.5729288  64.7954704
  50.0435088  37.4604606  65.7599641  49.8691490  36.7325539  65.5287402
  46.4847217  40.9983403  71.5638965  47.2081415  40.5455930  71.3849985
  46.2197179  41.2788069  70.7811293  46.5528490  40.9734372  71.4217680
  35.3534085  35.5943577  68.2991844  34.7287155  35.6061969  67.6917797
  35.0179680  36.0703752  68.9483084  35.2119577  35.6662094  68.3048413
  32.0659760  43.6544037  69.7395608  31.5359685  42.9636476  69.7890583
  32.3384854  43.6454222  68.9108317  32.0284483  43.5511169  69.6243024
  42.2666006  41.0967282  69.7133980  41.6522999  40.5525332  70.0082615
  42.7833291  40.5831518  69.2339796  42.2521668  40.9403691  69.6858208
  41.5062303  42.1671552  67.4478279  41.0789911  41.5421270  67.0143714
  41.4987248  41.8846473  68.2737286  41.4421444  42.0324332  67.5058106
  34.6224830  37.2036725  70.5166713  34.7818317  36.4480049  70.9218434
  34.4417724  37.7527664  71.1707450  34.6190189  37.1730538  70.6729418
  42.5645133  29.3697960  71.0717502  42.0685695  29.5661634  70.3809069
  43.3214195  29.7690628  70.9006304  42.6031958  29.4575694  70.9437639
  39.8348013  33.0440306  67.6620813  39.8590500  32.5100418  66.9733593
  40.0859486  32.5357615  68.3246403  39.8757932  32.8901210  67.6585457
  27.3455603  40.3271801  67.0963957  27.2399052  40.2818645  66.2316041
  26.5955823  40.6725582  67.3778241  27.2191206  40.3712709  67.0101286
  36.1149335  31.7711124  67.0426557  36.1547707  32.2720331  67.7561264
  35.2899000  31.8621518  66.7732480  35.9988861  31.8592941  67.1077095
  38.2978948  41.3371864  75.1446851  37.4474579  41.4743579  75.2804496
  38.4607076  40.6035643  75.5894553  38.1962812  41.2485966  75.2302451
  37.5363699  38.2871634  69.3400456  36.7055628  38.4545452  69.1335704
  37.4815216  37.9107585  70.1249341  37.4053113  38.2561365  69.4248984
  35.3447482  31.7780527  74.9756867  35.9700185  31.2342660  75.2486299
  34.8897962  31.2975445  74.4064657  35.3695742  31.6270008  74.9318460
  35.9099742  36.5627226  59.8690574  36.0502703  37.0599690  60.5719215
  36.4082275  35.8613520  60.0104787  36.0040823  36.5329205  59.9942153
  35.9399965  37.4294337  57.1983150  36.5745044  38.0254762  57.1332612
  36.0225576  37.1297794  58.0129021  36.0456516  37.4735245  57.3086237
  48.9182531  39.9609814  70.0669515  49.5100371  40.6007065  70.0987713
  49.3541525  39.2632851  70.3561581  49.0700962  39.9528164  70.1150347
  37.5178948  33.3608312  57.1728592  37.8394789  32.8811395  56.5187855
  37.7805891  34.1707958  56.9819404  37.6044973  33.4098210  57.0484084
  40.7475920  44.3827187  70.6927408  40.2401011  44.9363033  71.1368039
  40.4502567  44.4435476  69.8746183  40.6280805  44.4733498  70.6375865
  42.9138103  32.7480506  69.5352071  43.3393174  32.2953033  68.9235598
  42.2995096  32.1940577  69.8116859  42.8866748  32.5994482  69.4857097
  32.4452953  39.6262178  60.4672696  32.9545182  40.2226685  60.8484002
  32.9187225  39.3588151  59.7849116  32.5896328  39.6747993  60.4227219
  41.3532325  29.2195606  62.9442648  40.7100643  29.0693252  63.5127787
  41.0131732  28.9737951  62.1791753  41.2077403  29.1607728  62.9145664
  39.9918406  49.3151745  67.5984415  39.7684060  48.5570574  67.9668442
  39.5028249  49.3449766  66.8764855  39.8861855  49.2073969  67.5461156
  46.1059799  33.6310916  65.2763030  46.4587409  33.2040639  65.9508829
  45.2474601  33.5461760  65.4064107  46.0309244  33.5555657  65.3958041
  34.8043484  36.2618436  63.3345877  34.0855473  36.6782569  63.6018740
  35.1755847  36.8272675  62.7837515  34.7535416  36.4067718  63.2928684
  44.1043065  36.8946285  69.2247873  44.0840992  36.7129580  70.0782651
  44.1522266  37.7658304  69.2007456  44.1077706  36.9962823  69.3471167
  42.0489395  43.4833477  75.1496349  42.0085250  42.8383154  74.5641505
  42.8612713  43.4270094  75.4621761  42.1632549  43.3792444  75.1093298
  38.6396863  49.5352203  65.0521500  38.2257261  48.8726333  64.6625342
  39.3244237  49.6830062  64.5317194  38.6795234  49.4592861  64.9177997
  42.0062157  48.6942288  65.8045117  41.6078440  48.8044558  65.0365937
  41.3913376  48.9024354  66.3871676  41.8561046  48.7415856  65.7776416
  40.5790059  35.3016436  58.6719256  39.9854898  35.6233432  58.1203823
  40.6165336  34.4557531  58.4640362  40.4964448  35.2240764  58.5602028
  47.5383859  28.7529328  66.2047343  47.0314724  28.0458468  66.1368520
  48.3351293  28.4222517  66.3348419  47.5811099  28.6002480  66.2146338
  37.7367104  37.1130414  71.7046107  37.2246007  36.5051596  72.0631138
  37.5646600  37.8287006  72.1720082  37.6356741  37.1293713  71.8262330
  32.5832818  35.5567989  74.3548469  32.4135409  36.2169364  73.8096675
  32.1398768  35.7674550  75.0760958  32.4932152  35.6853971  74.3810098
  36.5092638  33.7972487  63.3975202  36.9850004  34.1589567  62.7625383
  36.0081237  34.4528954  63.6775345  36.5057997  33.9466676  63.3451943
  41.6136174  35.0354658  74.1448362  42.1707604  34.8068468  73.5126828
  41.2897239  35.7960324  73.8683575  41.6482584  35.1138495  74.0104859
  29.4834883  38.4614854  69.6136958  28.9361602  37.7915500  69.7317827
  30.2727261  38.0944702  69.6780426  29.5187067  38.3079841  69.6405659
  39.3319291  38.1222311  75.1100369  40.0830618  38.4373988  75.4239924
  39.5241868  37.9201482  74.2834291  39.4710705  38.1389693  75.0343765
  46.1804581  34.2495878  62.3524165  46.1798808  34.0944534  63.2108441
  45.9760762  35.0958865  62.2965550  46.1504359  34.3516499  62.4712104
  28.2421852  37.6735662  66.7682981  28.0643614  37.2212271  67.4937897
  27.9540875  38.4761824  66.9521459  28.1734806  37.7258220  66.9026484
  43.9045434  38.9293380  66.0060372  44.3999099  38.2116375  65.9664392
  43.0945209  38.6264177  65.8914859  43.8589327  38.7791026  65.9834098
  29.9794322  40.2063386  63.8804740  29.1139842  40.1949076  63.7687512
  30.0793138  40.0193609  64.7275880  29.8668489  40.1769447  63.9893685
  45.9697252  41.6797067  68.6937500  46.3952324  41.1571489  68.1407926
  45.6054172  42.2777905  68.1726123  45.9783855  41.6907294  68.5346510
  35.6051332  49.9761285  67.4534846  35.9197891  50.7897673  67.4612628
  36.0144746  49.5911503  68.1217005  35.7119430  50.0389987  67.5538938
  42.5575852  45.3931331  65.0238658  43.0287030  46.1071594  65.1928643
  42.8936030  44.7930082  65.5598527  42.6770967  45.4102796  65.1271034
  44.6452836  47.0032645  77.2030730  44.7549802  46.2141205  77.5587477
  44.9743733  46.9138581  76.4005068  44.7105242  46.8738498  77.1373121
  39.4745347  30.1658802  71.9796753  39.6073252  29.3689795  72.3077728
  39.8590500  30.6925205  72.5595028  39.5501676  30.1258719  72.1140256
  43.1949798  45.1849266  71.7866351  42.6470744  44.5607149  71.5186416
  43.6562827  45.3743538  71.0710430  43.1817008  45.1208316  71.6416782
  42.5477702  27.0889128  68.5777846  41.7423666  26.9786858  68.8945684
  42.4184437  27.1901584  67.7207712  42.4097835  27.0872798  68.4985886
  46.0043663  33.2534620  69.1717543  45.4206651  33.7543826  68.7595110
  46.3247957  32.7464176  68.5381866  45.9656838  33.2526455  69.0176050
  38.5438462  32.1675215  59.4476218  39.3654156  32.3373528  59.2057913
  38.0808113  32.3222476  58.7242515  38.5969624  32.2156948  59.3047862
  37.1333794  30.1617977  70.2274646  37.6778207  29.8209104  70.8178988
  37.1870729  31.0203439  70.3695931  37.2222913  30.2373236  70.3356520
  32.9464352  43.9234393  67.1013454  33.5509210  43.8830227  66.4727275
  32.7391665  44.7705545  67.1317510  33.0053250  44.0422396  67.0129571
  42.7608124  46.1900338  68.3175692  43.5806498  46.0463304  68.5791987
  42.4802202  46.8146537  68.8592130  42.8404868  46.2610690  68.4363631
  28.1815635  42.9069011  66.9712378  28.0839913  42.0965282  67.2802434
  28.9644504  42.8860804  66.5858646  28.2831771  42.7836101  66.9599240
  59.2321775  53.8465190  61.2818568  59.2015779  54.7009827  61.4536838
  59.8303124  53.5460482  61.8404712  59.3158933  53.9281686  61.3893370
  52.4321460  52.9340841  66.0371499  51.5759355  53.0949339  66.0880615
  52.4789113  52.0632905  66.0576560  52.3120571  52.8291643  66.0477565
  46.8162599  62.4703559  61.8008730  46.0645499  62.0919097  61.5724775
  47.2648611  62.5021992  61.0527540  46.7712266  62.4189166  61.6566232
  52.2687559  62.8928928  57.2294277  51.9338928  63.5705850  56.7938499
  52.7814430  62.5034240  56.6411149  52.2953140  62.9353506  57.0781069
  51.8091851  64.8443197  63.1705389  52.1931230  65.4130096  62.6310164
  51.7450992  64.1192707  62.6911205  51.8565278  64.8218660  63.0199251
  55.2773281  54.9932885  68.6803150  55.8229241  55.6717971  68.7397120
  55.2190157  54.8520346  67.8204732  55.3489195  55.0724887  68.5615211
  48.3947356  62.4821951  64.0671503  48.4957718  61.6722305  64.3768630
  47.7989101  62.3878897  63.4371181  48.3219894  62.3486979  64.0197741
  57.0538349  56.4217492  59.5536878  56.9377875  57.1725178  59.9829016
  57.8494236  56.1641445  59.8032965  57.1542939  56.4952339  59.6540970
  48.2348095  67.3999540  65.4686359  48.8785551  67.8412704  65.8582517
  48.5604351  66.5952966  65.3816617  48.3779924  67.3464735  65.5131836
  41.5912400  58.5042237  63.6923836  41.3562584  57.6709890  63.5856105
  41.7298041  58.7846903  62.8785037  41.5768062  58.4225741  63.5566191
  43.8902487  50.6727968  66.5908144  43.2707519  50.0820615  66.4218159
  43.7886351  51.2639403  65.9572467  43.7840163  50.6732051  66.4713134
  48.9368675  60.4111515  60.8406220  49.2584516  60.9516722  60.2367528
  49.5840771  59.8408286  60.9728510  49.0794730  60.4070690  60.7713256
  50.9870383  52.4127510  60.9240607  51.6850548  52.5915637  61.4162070
  51.3022715  51.8897849  60.3010996  51.1365720  52.3621282  60.9042617
  43.6171620  54.2180250  68.8351713  43.4930317  54.8042695  69.4701532
  44.2689905  53.7240446  69.1363988  43.6945270  54.2319054  68.9737642
  51.1758318  58.7997955  60.9120399  51.6151954  58.1915055  61.3575171
  51.0262981  58.4205328  60.1405864  51.2179784  58.6536426  60.8639566
  48.6429961  57.3941967  68.1139224  49.2878964  56.9014410  67.7950173
  48.8831738  57.5366753  68.9405302  48.7740546  57.3419409  68.1888757
  51.1816053  60.2396873  67.7646117  51.4639296  59.4448278  67.5432872
  51.9102213  60.7177460  67.7851178  51.3305616  60.1931470  67.7349132
  49.1597247  47.7819907  65.0061882  48.8300577  48.2331050  64.3365580
  48.4842248  47.7036070  65.5534888  49.0107683  47.8371042  64.9885105
  54.7767655  57.1525136  57.8651168  54.6918950  58.0086103  58.0100737
  55.2652038  56.8769460  58.5333327  54.8356552  57.2382458  57.9853249
  56.3673654  43.7705429  63.2511492  56.0527095  44.4608908  63.6831915
  55.8500596  43.7150212  62.5496993  56.2438125  43.8640318  63.2108441
  55.7086088  53.7709930  59.3648903  55.1797560  53.9869564  60.0246209
  56.2311108  54.4646069  59.2849872  55.7074541  53.9053067  59.4504502
  61.1634141  59.3456235  64.7381947  60.3331844  59.5566878  64.9015364
  61.1143393  58.5193289  64.4624231  61.0340876  59.2545841  64.7219313
  47.5985696  57.6673147  58.1656371  47.0142911  58.1723179  58.5722235
  47.1955791  57.4415534  57.4252963  47.4525000  57.7081395  58.1161396
  43.1529725  63.3827908  64.9680042  42.6697303  64.1078398  64.9439626
  43.9653043  63.6804038  65.0790200  43.2020472  63.5330262  64.9807322
  49.2243879  62.1760089  67.5729857  48.7070820  61.8167504  66.9691165
  49.9218270  61.6522263  67.5835923  49.2509460  62.0457777  67.4860116
  52.0562910  53.9138799  56.6425291  52.2958914  54.1216783  55.8300635
  52.3778751  53.1096308  56.7514236  52.1400068  53.8252900  56.5385845
  46.0073922  63.8984084  65.1200322  46.7094501  63.3836073  65.1773079
  45.9271405  64.2258236  65.9247197  46.0997682  63.8698310  65.2473114
  60.6588099  51.9926635  68.5332369  59.8216520  52.0628823  68.7679963
  60.6276330  51.9951130  67.6606671  60.5306382  52.0036863  68.4391917
  47.0552828  54.1359671  74.2480737  47.2273332  54.0265566  75.0966019
  47.5922186  54.7814077  74.0111930  47.1597832  54.2151673  74.3385834
  45.3324697  60.0890436  64.6285930  46.1713597  60.3213369  64.6759692
  45.3636466  59.2194748  64.5592966  45.4606415  59.9947383  64.6250575
  45.9577400  60.5091311  68.9299236  46.4975625  60.3662442  69.6002608
  45.2747347  60.9088062  69.2983262  45.9369554  60.5470982  69.0833658
  55.3818285  56.1882312  64.1244260  56.1375800  56.6213826  64.1633169
  55.4880610  55.5387082  64.6978896  55.5088456  56.1559796  64.2142286
  58.4198456  60.0155589  64.8746663  57.9833688  60.0192332  65.6305635
  58.0861372  60.6961088  64.4426241  58.3061076  60.1168045  64.9227496
  41.3614545  56.7291602  69.0833657  41.0952961  55.9130719  69.2424648
  41.3753109  56.7744758  68.2129173  41.3239268  56.6148507  68.9787139
  58.3395939  47.0569417  67.1176091  58.9821848  47.1267522  67.7038006
  58.5918960  46.3898640  66.6155633  58.4718071  46.9695766  67.1303370
  46.1113152  50.2669980  71.7300665  45.4184948  49.7966960  71.9761397
  46.7273479  50.0408285  72.3042372  46.0997682  50.1637112  71.8509818
  61.5542802  56.7336509  63.7666300  62.2159237  56.1727178  63.6662209
  60.9134214  56.2388540  64.0918992  61.5571670  56.5772918  63.7998641
  52.4419610  60.0306641  56.0747224  52.8570759  59.6991664  55.3831719
  51.6111540  59.7975543  55.9467360  52.3807619  59.9477897  55.9538071
  41.7707959  57.5150382  66.3645402  41.5883532  57.4897268  65.5117694
  42.5057628  57.9849319  66.4034310  41.8522023  57.5811744  66.2443320
  57.8407633  57.7501892  63.5078289  58.0763222  57.8947090  62.6805140
  57.9897197  58.5144300  63.9009803  57.8973436  57.8840946  63.4441893
  44.8353711  54.2335384  72.8727510  45.5593683  54.2188415  73.3592405
  44.9369847  54.9430740  72.3749479  44.9571920  54.3360088  72.8706297
  59.6698090  56.5903557  61.3447893  60.0006307  57.1231198  60.7387988
  60.2431178  56.6442445  62.0009844  59.8031769  56.6773126  61.3525675
  54.8829979  54.4368460  62.0271473  54.9776833  55.1757754  62.4811099
  54.2588823  54.0085936  62.4606038  54.8039009  54.4829781  62.1579621
  41.7378869  54.3943882  66.5144468  42.3152372  54.2580333  67.1536714
  41.0392931  53.9379666  66.7690053  41.7199891  54.3066148  66.6466758
  55.1353000  56.2817200  55.2608425  55.0533163  56.3519387  56.1263412
  55.7732721  56.8446944  55.0692166  55.2172838  56.3756171  55.3598375
  48.4946171  56.0477938  64.7282951  48.2365416  55.2149673  64.7014251
  48.5494654  56.2735551  63.8875452  48.4645949  55.9575709  64.6003088
  47.4680884  53.6015700  65.2147846  46.8930475  53.7607869  65.8511807
  47.0916560  52.9651110  64.7516297  47.3283696  53.5313513  65.2402405
  51.1354172  52.0739050  70.0740225  50.7468605  51.6493267  69.4192416
  50.4708871  52.3221199  70.5817251  50.9801100  52.0477771  70.0528093
  60.7777441  51.8314054  62.8488055  60.5214006  51.0193996  62.6585937
  61.6206755  51.8391622  62.6218242  60.8643467  51.7126052  62.7872872
  37.2137702  53.2455775  63.2292287  37.2997954  52.8687643  64.0105817
  37.8413500  52.8716221  62.7512245  37.3194253  53.1341257  63.2737764
  54.9580534  45.7713678  67.5864209  55.3391046  45.0891850  67.9732083
  54.1543818  45.4823281  67.4039873  54.8956996  45.6280727  67.6168265
  52.2393111  56.3037654  58.2717032  53.0533749  56.5952547  58.1599803
  52.1752252  55.6497517  57.6975325  52.3495850  56.2502849  58.1705869
  48.1101019  59.7759172  63.3989344  48.7474966  59.5370919  63.9441137
  48.5356090  59.9796331  62.6642504  48.2677185  59.7710182  63.3706501
  42.8013661  62.0147508  67.2823647  42.8417806  62.2862359  66.4543427
  43.3608185  62.5389416  67.6981435  42.8897007  62.1323263  67.2215536
  48.7503834  54.9961461  57.7364233  49.1348987  54.7769168  58.4880778
  48.5015454  55.8224407  57.8665309  48.7705906  55.0859608  57.8665309
  48.9172374  48.2767877  77.4526817  48.6025815  49.0467439  77.1896380
  48.5962307  47.7138133  76.8679044  48.8231293  48.3078145  77.3268167
  50.4922491  60.2531594  65.0783130  50.5661499  60.0906766  65.9324980
  51.3091997  60.4421784  64.8343612  50.6238849  60.2568337  65.1681156
  44.2528247  60.5989457  62.1077573  43.4266365  60.8451194  61.9811852
  44.3140239  60.5201538  62.9739632  44.1402414  60.6234406  62.2166518
  46.4704271  46.6658398  63.0673014  45.6026697  46.7380998  63.1330623
  46.7579475  47.4680477  63.2560989  46.3844019  46.7952545  63.1047780
  55.5937160  46.8136258  71.3984335  56.3390752  46.6246068  70.9847761
  55.1774465  47.3394495  70.8398192  55.6422134  46.8638403  71.2548909
  49.0327076  63.2166337  59.8096603  49.3225375  62.8255319  59.0855830
  49.7630557  63.3983042  60.2501879  49.1833961  63.1860151  59.7679410
  62.9699431  54.1845486  66.3489840  63.5207352  53.5513555  66.5886932
  62.9543546  54.7160879  67.0405345  63.0484627  54.1694434  66.4868699
  49.6221822  58.0184083  70.8949734  49.1233515  58.7299851  70.9734622
  50.4322046  58.3384750  70.8567896  49.6677928  58.1710932  70.9006302
  46.9732992  65.1933720  62.8756753  46.7533287  64.9031075  63.6683420
  46.7527514  64.5348675  62.3474665  46.9080586  65.0533428  62.9145662
  45.8849939  57.2807036  65.1412455  45.5963188  56.6544508  65.6758182
  46.7533287  57.2227324  65.2077135  45.9710191  57.1794581  65.2303409
  56.6727837  52.4241820  65.4594437  56.3292603  51.7032155  65.8101686
  56.7720880  52.2155671  64.6172795  56.6369880  52.2866023  65.3866117
  49.1400948  66.5663110  61.6587445  49.7925006  66.0339552  61.8878472
  48.4426556  66.2131762  62.0455319  49.1331666  66.4352633  61.7499613
  46.0882213  58.9202287  61.0654820  46.8428181  59.3015326  61.2790282
  45.4952825  59.3713431  61.5201516  46.1118926  59.0431115  61.1637698
  57.1340866  58.8867524  61.0018425  57.6998899  59.5460734  60.9176968
  56.4868770  59.2317222  61.4734827  57.1219623  59.0349465  61.0591181
  48.5488880  50.8765128  76.1912032  47.7388655  51.1822907  76.0801874
  49.0263566  51.5970710  76.3064616  48.4992358  51.0279729  76.1919103
  47.4080439  60.0910849  66.4394935  46.8861193  60.2311140  67.1246800
  47.7954460  59.3321513  66.6297053  47.3884140  59.9996373  66.5696012
  44.3971623  50.1416657  60.5089890  44.1096419  49.7717928  59.7721837
  45.0842091  50.6111513  60.2473595  44.4560521  50.1563627  60.3604966
  53.6047444  61.8306308  60.4255504  53.3634120  61.0974169  60.0182569
  53.7848777  62.3793165  59.7721837  53.5955068  61.8028699  60.2685727
  48.8346765  57.1214868  61.8376426  48.6389547  57.7289602  61.2436729
  49.0581110  56.4282812  61.3568100  48.8381406  57.1092393  61.6792507
  47.2325295  54.0069606  61.9557295  47.9547947  54.1710764  61.4961101
  46.7533288  54.7279270  61.8496634  47.2689026  54.1367835  61.8722909
  55.1918802  50.3433404  67.3353979  54.3529903  50.3694683  67.0992243
  55.2623170  50.9904140  67.9159326  55.0787196  50.4429530  67.3863096
  44.8832912  56.4127678  71.0611434  45.3954008  56.6911931  70.4120194
  44.5969254  57.1516972  71.4274247  44.9167775  56.5630032  71.0201312
  59.0676326  55.5501391  64.6215221  58.9810301  55.7056817  65.4750000
  58.6126806  56.1939467  64.2474626  58.9879583  55.6677146  64.6922328
  41.9699818  50.9197870  61.3575171  42.0715954  51.7224031  61.6856146
  42.7655705  50.7185206  61.0598251  42.1027723  51.0083769  61.3610526
  48.4016637  48.5054067  71.1212476  48.2099834  48.5209201  71.9711900
  49.2515233  48.7017741  71.0979131  48.4992359  48.5368418  71.2435771
  42.7863550  51.0345048  69.0996292  42.6449042  50.1828989  69.2240800
  43.0704113  51.0773709  68.2758498  42.8071396  50.9144798  68.9963917
  52.9402142  52.8712138  63.2440781  52.6936857  52.7907889  64.0777570
  53.2687265  52.0865606  63.0503308  52.9523386  52.7438404  63.3388304
  56.8350191  59.5795498  67.0327562  56.6964550  60.2776543  67.5376304
  56.0550189  59.4244154  66.6763744  56.6993418  59.6595664  67.0553836
  48.8999170  55.6068857  72.6563764  49.0442545  56.1870065  72.0206874
  49.2474818  55.9845154  73.3613618  48.9726631  55.7489561  72.6662759
  51.0719087  54.8059025  70.4388895  50.3242401  54.9990040  70.0337173
  51.2260612  53.9804245  70.2013017  50.9841515  54.7124137  70.3434301
  47.9726925  63.7971629  69.5224791  48.1216488  63.2374545  68.8698195
  48.7526927  63.8763630  69.9057309  48.1101018  63.7257194  69.4821740
  58.3303564  58.9373751  57.7944061  57.9510373  58.1510889  57.7873351
  57.6669809  59.4860608  57.6515705  58.1762039  58.9018575  57.7724858
  51.3120864  48.7009576  71.3284299  51.7693478  49.4333550  71.4557091
  51.3877193  48.2776041  72.0871555  51.3911834  48.7466814  71.4585376
  43.5553855  48.9475396  72.4173743  43.0196045  48.3355754  72.7334510
  43.6171620  49.5223532  73.0707409  43.4849488  48.9422323  72.5609170
  55.7848190  41.8799451  65.1978142  55.9031758  42.3375915  64.4645445
  55.6110366  41.0744712  64.9114360  55.7767361  41.8293223  65.0479076
  51.1550472  62.4887270  61.6332887  51.9200363  62.2196914  61.3115552
  51.0528562  62.0037281  62.3502950  51.2531968  62.3776835  61.6912715
  49.1903242  50.6911680  68.1726123  48.3999317  50.5103140  68.4943459
  49.5863865  49.9138633  68.1556418  49.1320118  50.5499141  68.2178672
  53.6769133  59.5199454  53.6132837  54.4442118  59.5799579  53.2038689
  53.2300442  58.9479896  53.1289155  53.7242560  59.4436030  53.4810547
  54.5746928  58.3254110  65.8985569  53.8991930  58.0939342  66.3998956
  54.5839304  57.7175293  65.2727674  54.4765433  58.2013035  65.8801721
  51.7041072  53.1671939  72.6549622  51.6400213  54.0281896  72.5269759
  51.8438260  52.8503932  71.8545173  51.7156542  53.2472106  72.5177835
  56.5763663  61.1819242  58.1295747  56.6583500  61.9886229  57.8057198
  57.0613405  61.2015202  58.8536521  56.6600821  61.3039905  58.1882646
  50.3860166  55.8604078  66.7965825  49.9622415  56.0608577  66.0604843
  50.2105021  55.0132926  66.9090125  50.2971047  55.7652860  66.7039515
  45.6742611  56.3556130  62.2293798  45.8307230  56.2902933  63.0849790
  46.0143204  57.1304682  62.0172477  45.7475846  56.4605328  62.3248392
  52.2121756  55.7314013  61.0987161  52.7537301  55.2284395  61.5625781
  52.5268315  55.6779208  60.2876646  52.3386153  55.6493434  61.0470973
  50.3808205  61.1231365  58.3827189  50.4501026  60.2645903  58.5220189
  51.1596661  61.3403246  58.0546213  50.5061055  61.0284229  58.3544346
  53.3611025  50.6250318  71.1509461  53.5752995  49.9861232  70.5972815
  52.7444924  51.0696142  70.7217323  53.3016354  50.5960462  71.0059892
  54.7715693  63.5469066  62.5963682  54.3795485  63.2435781  61.8786548
  54.9268765  64.3838156  62.4068636  54.7369283  63.6252903  62.4620179
  42.2476873  53.5391080  62.5454565  42.6275837  53.9575625  61.8814832
  41.6732237  54.1204536  62.8523408  42.2188197  53.6868939  62.4931306
  55.5250113  52.2339383  72.0892768  54.7126795  51.9265273  72.1705941
  55.9840048  51.7538383  72.6535480  55.4730498  52.1175875  72.1847362
  54.9355368  60.1119055  62.5369713  54.5770022  60.2833698  63.3133745
  54.4494078  60.5732261  61.9797711  54.8114065  60.2058026  62.5694982
  52.7525754  43.7350254  66.1396804  51.8819312  43.7088975  66.0930113
  53.0066095  43.5627446  65.3222650  52.6619314  43.7060397  66.0116941
  49.7243733  55.7918220  55.0769947  50.0136258  56.5683103  55.3513521
  49.8115532  55.2806952  55.7784446  49.7797989  55.8310139  55.2212445
  49.7774894  45.7456482  67.5970274  49.2613383  45.0536673  67.7221853
  49.2168823  46.4127259  67.5432873  49.6181407  45.7419740  67.6076340
  51.8467128  46.2849442  69.4263127  51.4598881  46.3098474  70.2076657
  51.3600065  45.7191121  68.9737644  51.7179637  46.2045193  69.4751031
  57.8217107  52.8512097  68.0502829  57.3944715  52.7638446  67.2950929
  57.1843160  52.9589873  68.6357673  57.6646714  52.8544757  68.0248271
  51.5124269  43.1716428  71.7173387  52.1417387  43.7076728  71.4394457
  51.6810132  43.0793786  72.5686953  51.6302064  43.2377790  71.8021915
  51.3138184  47.9587622  73.9899798  52.1411614  47.6872771  74.0458413
  51.3346030  48.7548464  74.3463617  51.4391034  48.0367377  74.0514981
  45.8907674  55.1051485  67.1770059  45.0495681  55.0055359  67.3848953
  46.0997682  55.8746965  67.5284380  45.7972367  55.2043528  67.2597374
  43.3683241  52.7271022  65.0054810  42.9739939  52.8014034  64.2304919
  42.8123358  53.1128968  65.5563172  43.2286053  52.7952797  64.9722470
  55.0048188  45.7052316  64.6858689  55.2097781  45.6374624  65.5315686
  54.6774612  46.5111137  64.6179866  54.9863436  45.8138256  64.8018344
  49.7024339  53.0332884  66.4267657  49.3987476  52.4788873  67.0278064
  49.0003760  53.2125094  65.9395691  49.5540549  52.9777667  66.4437362
  48.7590436  50.3433404  60.9912358  49.0350170  49.6252317  60.5789926
  49.3589105  50.9418324  60.7833465  48.8883701  50.3253775  60.8993120
  47.7642690  60.2482605  71.1339754  47.6563045  60.2584667  72.0001812
  47.9738471  61.0737385  70.9444708  47.7792801  60.3723680  71.2343846
  58.2581876  46.2584080  64.1661454  57.6456189  46.7454482  64.5515186
  58.3546050  45.5827571  64.7099105  58.1819773  46.2302389  64.3040312
  45.7816482  57.4995247  68.5961692  45.1904415  58.1404746  68.5664707
  46.5437505  57.9232865  68.5692991  45.8064743  57.6571086  68.5876839
  46.1777105  48.6597245  69.2629710  46.6378586  48.7336175  70.0004833
  46.2233211  49.4578499  68.9129531  46.2527660  48.7891392  69.3202466
  47.8260454  49.3263940  73.8301737  47.4346020  48.6797287  74.2657514
  47.9946317  49.9175375  74.4495992  47.7931365  49.3178208  73.9864443
  55.5405998  62.9504559  66.0293716  55.3425687  63.4395373  65.3349928
  54.9193709  63.1545800  66.6077850  55.4193563  63.0521097  66.0116940
  49.6013977  54.7189456  60.3703961  50.3456021  55.1063732  60.6086911
  49.7474673  53.8746881  60.5344449  49.7324562  54.6519929  60.4297930
  52.5891852  50.2914929  66.2697880  52.1151807  49.7656691  66.7803191
  52.9609988  49.7444402  65.7012742  52.5741741  50.1330926  66.2613027
  42.9664883  52.2886436  71.6381426  43.8290496  52.1882145  71.5518756
  42.6356666  51.7081145  71.0766998  43.0450079  52.1878063  71.5426832
  58.8528583  55.3517305  67.6804661  58.6126806  54.5123720  67.6847087
  59.3320590  55.4317471  68.4045434  58.8880767  55.2398704  67.7879463
  60.8533770  52.1318762  65.6333920  60.6143540  52.0914596  64.7954704
  61.0167671  52.9789914  65.7599641  60.8424073  52.2510847  65.5287402
  46.3266669  51.1128885  68.2991844  45.7019739  51.1247277  67.6917797
  45.9912263  51.5889060  68.9483084  46.1852160  51.1847402  68.3048413
  43.0392344  59.1729345  69.7395608  42.5092269  58.4821784  69.7890583
  43.3117437  59.1639530  68.9108317  43.0017066  59.0696477  69.6243024
  54.0712435  59.7555047  58.4633291  54.7946633  60.2213160  58.3197864
  53.6313026  59.8228657  57.7130888  54.1128127  59.8338884  58.3318072
  53.2398590  56.6152589  69.7133980  52.6255583  56.0710640  70.0082615
  53.7565875  56.1016826  69.2339796  53.2254252  56.4588999  69.6858208
  52.4794887  57.6856860  67.4478279  52.0522495  57.0606578  67.0143714
  52.4719831  57.4031781  68.2737286  52.4154028  57.5509640  67.5058106
  45.5957414  52.7222033  70.5166713  45.7550901  51.9665357  70.9218434
  45.4150307  53.2712972  71.1707450  45.5922773  52.6915846  70.6729418
  53.5377717  44.8883268  71.0717502  53.0418278  45.0846942  70.3809069
  54.2946779  45.2875936  70.9006304  53.5764542  44.9761002  70.9437639
  50.8080596  48.5625614  67.6620813  50.8323084  48.0285726  66.9733593
  51.0592070  48.0542923  68.3246403  50.8490515  48.4086518  67.6585457
  38.3188186  55.8457109  67.0963957  38.2131635  55.8003953  66.2316041
  37.5688406  56.1910890  67.3778241  38.1923789  55.8898017  67.0101286
  47.0881919  47.2896432  67.0426557  47.1280290  47.7905639  67.7561264
  46.2631583  47.3806826  66.7732480  46.9721445  47.3778249  67.1077095
  48.5096282  53.8056942  69.3400456  47.6788212  53.9730760  69.1335704
  48.4547799  53.4292893  70.1249341  48.3785697  53.7746673  69.4248984
  46.3180065  47.2965835  74.9756867  46.9432769  46.7527968  75.2486299
  45.8630545  46.8160753  74.4064657  46.3428326  47.1455316  74.9318460
  46.8832326  52.0812534  59.8690574  47.0235287  52.5784998  60.5719215
  47.3814859  51.3798828  60.0104787  46.9773407  52.0514512  59.9942153
  46.9132548  52.9479645  57.1983150  47.5477628  53.5440070  57.1332612
  46.9958159  52.6483102  58.0129021  47.0189099  52.9920553  57.3086237
  48.4911531  48.8793620  57.1728592  48.8127372  48.3996703  56.5187855
  48.7538475  49.6893266  56.9819404  48.5777557  48.9283518  57.0484084
  53.8870686  48.2665814  69.5352071  54.3125758  47.8138340  68.9235598
  53.2727679  47.7125885  69.8116859  53.8599332  48.1179790  69.4857097
  43.4185536  55.1447485  60.4672696  43.9277766  55.7411993  60.8484002
  43.8919808  54.8773459  59.7849116  43.5628912  55.1933301  60.4227219
  54.3316284  63.8175752  58.6231352  53.6145594  63.6436614  58.1578589
  54.9823022  63.5828324  58.0906838  54.3218135  63.7571545  58.4760570
  56.9164255  52.6940341  62.3672657  56.2455445  53.2370043  62.2385723
  57.6104006  53.1635196  62.1254352  56.9193123  52.8438612  62.3128185
  50.9650989  64.8337053  67.5984415  50.7416644  64.0755882  67.9668442
  50.4760832  64.8635074  66.8764855  50.8594438  64.7259277  67.5461156
  57.0792383  49.1496224  65.2763030  57.4319993  48.7225947  65.9508829
  56.2207184  49.0647068  65.4064107  57.0041828  49.0740965  65.3958041
  45.7776068  51.7803744  63.3345877  45.0588057  52.1967877  63.6018740
  46.1488430  52.3457983  62.7837515  45.7268000  51.9253025  63.2928684
  55.0775649  52.4131593  69.2247873  55.0573576  52.2314888  70.0782651
  55.1254849  53.2843611  69.2007456  55.0810290  52.5148131  69.3471167
  49.6129446  65.0537511  65.0521500  49.1989845  64.3911641  64.6625342
  50.2976820  65.2015370  64.5317194  49.6527818  64.9778169  64.9177997
  52.9794740  64.2127596  65.8045117  52.5811023  64.3229866  65.0365937
  52.3645960  64.4209662  66.3871676  52.8293630  64.2601164  65.7776416
  58.5116443  44.2714636  66.2047343  58.0047308  43.5643776  66.1368520
  59.3083877  43.9407825  66.3348419  58.5543682  44.1187788  66.2146338
  54.4280459  50.7781248  62.1021007  54.1994152  50.8013950  61.2599365
  54.6878535  49.9538715  62.2216017  54.4326647  50.6597328  61.9946204
  48.7099687  52.6315721  71.7046107  48.1978590  52.0236904  72.0631138
  48.5379183  53.3472314  72.1720082  48.6089324  52.6479021  71.8262330
  43.5565402  51.0753297  74.3548469  43.3867992  51.7354672  73.8096675
  43.1131352  51.2859858  75.0760958  43.4664736  51.2039279  74.3810098
  47.4825221  49.3157795  63.3975202  47.9582588  49.6774875  62.7625383
  46.9813821  49.9714262  63.6775345  47.4790580  49.4651983  63.3451943
  60.7136583  58.7879563  59.1888207  61.0970189  59.5370919  59.4186304
  59.9180696  59.0345382  58.9300196  60.6530365  58.9349257  59.1845781
  52.5868758  50.5539966  74.1448362  53.1440188  50.3253776  73.5126828
  52.2629823  51.3145632  73.8683575  52.6215168  50.6323803  74.0104859
  40.4567467  53.9800162  69.6136958  39.9094186  53.3100808  69.7317827
  41.2459845  53.6130010  69.6780426  40.4919650  53.8265149  69.6405659
  49.5251875  51.4598995  56.7648586  49.9050839  51.4778624  55.9799701
  48.7844471  51.9052983  56.6439433  49.4720712  51.5280769  56.6312154
  57.1537165  49.7681186  62.3524165  57.1531391  49.6129842  63.2108441
  56.9493345  50.6144173  62.2965550  57.1236943  49.8701806  62.4712104
  39.2154436  53.1920970  66.7682981  39.0376197  52.7397579  67.4937897
  38.9273458  53.9947132  66.9521459  39.1467389  53.2443528  66.9026484
  54.8778017  54.4478687  66.0060372  55.3731682  53.7301683  65.9664392
  54.0677793  54.1449485  65.8914859  54.8321910  54.2976334  65.9834098
  50.3236629  58.2976501  58.1557376  49.5147951  57.9743174  58.1090686
  50.8311537  57.5909723  58.0885625  50.2786295  58.1457817  58.1387671
  40.9526906  55.7248694  63.8804740  40.0872425  55.7134384  63.7687512
  41.0525722  55.5378917  64.7275880  40.8401073  55.6954755  63.9893685
  56.9429836  57.1982375  68.6937500  57.3684908  56.6756797  68.1407926
  56.5786756  57.7963212  68.1726123  56.9516439  57.2092602  68.5346510
  46.5783916  65.4946593  67.4534846  46.8930475  66.3082981  67.4612628
  46.9877329  65.1096811  68.1217005  46.6852014  65.5575295  67.5538938
  53.5308435  60.9116639  65.0238658  54.0019614  61.6256902  65.1928643
  53.8668614  60.3115389  65.5598527  53.6503550  60.9288104  65.1271034
  50.4477930  45.6844110  71.9796753  50.5805836  44.8875103  72.3077728
  50.8323083  46.2110513  72.5595028  50.5234259  45.6444027  72.1140256
  53.5210286  42.6074436  68.5777846  52.7156249  42.4972166  68.8945684
  53.3917021  42.7086892  67.7207712  53.3830418  42.6058106  68.4985886
  56.9776246  48.7719928  69.1717543  56.3939235  49.2729134  68.7595110
  57.2980540  48.2649484  68.5381866  56.9389421  48.7711763  69.0176050
  48.1066377  45.6803285  70.2274646  48.6510790  45.3394412  70.8178988
  48.1603313  46.5388746  70.3695931  48.1955497  45.7558544  70.3356520
  43.9196936  59.4419701  67.1013454  44.5241793  59.4015535  66.4727275
  43.7124248  60.2890853  67.1317510  43.9785833  59.5607703  67.0129571
  53.7340708  61.7085646  68.3175692  54.5539082  61.5648612  68.5791987
  53.4534786  62.3331845  68.8592130  53.8137451  61.7795998  68.4363631
  39.1548218  58.4254319  66.9712378  39.0572496  57.6150590  67.2802434
  39.9377088  58.4046112  66.5858646  39.2564355  58.3021409  66.9599240
  61.9602967  67.9312818  60.9240607  62.6583131  68.1100945  61.4162070
  62.2755299  67.4083157  60.3010996  62.1098304  67.8806590  60.9042617
  60.1329830  63.3005214  65.0061882  59.8033160  63.7516358  64.3365580
  59.4574832  63.2221378  65.5534888  59.9840266  63.3556350  64.9885105
  67.3406238  59.2890737  63.2511492  67.0259679  59.9794216  63.6831915
  66.8233180  59.2335520  62.5496993  67.2170708  59.3825626  63.2108441
  58.5718279  73.1858455  58.1656371  57.9875495  73.6908486  58.5722235
  58.1688375  72.9600842  57.4252963  58.4257583  73.2266703  58.1161396
  63.0295494  69.4324107  56.6425291  63.2691498  69.6402091  55.8300635
  63.3511335  68.6281616  56.7514236  63.1132652  69.3438208  56.5385845
  58.3385784  61.3617503  60.4884829  59.0931752  61.7295820  60.2501880
  58.1613319  61.7357057  61.2564009  58.4240263  61.4715691  60.5669718
  56.6942849  63.7687822  57.1862942  56.5118422  63.9859703  56.3603935
  57.5568462  63.8826835  57.2421557  56.7947438  63.8177720  57.0717429
  62.3742568  60.7714233  60.2211966  63.1028728  60.5930188  59.7750123
  62.4637461  61.6132312  60.4319144  62.4949230  60.8698111  60.1865484
  63.4152194  75.5491948  56.0747224  63.8303342  75.2176972  55.3831719
  62.5844123  75.3160851  55.9467360  63.3540202  75.4663204  55.9538071
  66.1085584  71.8002508  55.2608425  66.0265746  71.8704695  56.1263412
  66.7465304  72.3632252  55.0692166  66.1905421  71.8941479  55.3598375
  48.1870286  68.7641083  63.2292287  48.2730538  68.3872951  64.0105817
  48.8146084  68.3901529  62.7512245  48.2926837  68.6526565  63.2737764
  63.2125694  71.8222962  58.2717032  64.0266333  72.1137855  58.1599803
  63.1484835  71.1682825  57.6975325  63.3228433  71.7688157  58.1705869
  59.7236417  70.5146769  57.7364233  60.1081570  70.2954476  58.4880778
  59.4748038  71.3409715  57.8665309  59.7438490  70.6044916  57.8665309
  57.4436855  62.1843706  63.0673014  56.5759280  62.2566306  63.1330623
  57.7312059  62.9865785  63.2560989  57.3576603  62.3137853  63.1047780
  55.3704207  65.6601965  60.5089890  55.0829003  65.2903236  59.7721837
  56.0574675  66.1296821  60.2473595  55.4293104  65.6748935  60.3604966
  58.2057878  69.5254914  61.9557295  58.9280530  69.6896072  61.4961101
  57.7265871  70.2464578  61.8496634  58.2421609  69.6553143  61.8722909
  64.6120664  62.7604089  62.0681595  65.3147017  62.5611838  61.5901554
  64.3464853  61.9880032  62.3750439  64.6767297  62.6167055  62.0427037
  52.9432401  66.4383178  61.3575171  53.0448538  67.2409339  61.6856146
  53.7388288  66.2370514  61.0598251  53.0760307  66.5269077  61.3610526
  66.7580773  57.3984759  65.1978142  66.8764342  57.8561222  64.4645445
  66.5842949  56.5930020  64.9114360  66.7499944  57.3478531  65.0479076
  64.6501716  75.0384762  53.6132837  65.4174701  75.0984887  53.2038689
  64.2033025  74.4665204  53.1289155  64.6975143  74.9621338  53.4810547
  53.2209456  69.0576388  62.5454565  53.6008421  69.4760933  61.8814832
  52.6464821  69.6389844  62.8523408  53.1920781  69.2054247  62.4931306
  63.7258337  59.2535562  66.1396804  62.8551895  59.2274283  66.0930113
  63.9798679  59.0812754  65.3222650  63.6351897  59.2245705  66.0116941
  60.6976317  71.3103528  55.0769947  60.9868841  72.0868411  55.3513521
  60.7848116  70.7992260  55.7784446  60.7530573  71.3495447  55.2212445
  59.7323020  65.8618712  60.9912358  60.0082754  65.1437625  60.5789926
  60.3321689  66.4603632  60.7833465  59.8616284  65.8439083  60.8993120
  63.2333540  63.5332229  59.2658953  63.6877287  63.7042790  59.9906798
  63.7073586  62.9200340  58.8656729  63.3701860  63.4683115  59.3132715
  60.5746560  70.2374764  60.3703961  61.3188605  70.6249040  60.6086911
  60.7207256  69.3932189  60.5344449  60.7057145  70.1705237  60.4297930
  65.4907936  66.7036792  59.3323634  64.9630954  66.7865536  58.6429343
  65.9503644  67.4454663  59.3288279  65.4809786  66.8257454  59.2298329
  57.4841001  64.9739311  54.3564529  57.1353805  65.6259036  54.8196078
  57.0037447  64.9596424  53.6288400  57.3611245  65.0682365  54.3175620
  57.8564909  67.5997842  59.8690574  57.9967871  68.0970306  60.5719215
  58.3547442  66.8984136  60.0104787  57.9505990  67.5699820  59.9942153
  57.8865132  68.4664953  57.1983150  58.5210211  69.0625378  57.1332612
  57.9690743  68.1668410  58.0129021  57.9921683  68.5105861  57.3086237
  59.4644115  64.3978928  57.1728592  59.7859956  63.9182011  56.5187855
  59.7271058  65.2078574  56.9819404  59.5510140  64.4468826  57.0484084
  54.3918120  70.6632793  60.4672696  54.9010349  71.2597301  60.8484002
  54.8652392  70.3958767  59.7849116  54.5361495  70.7118609  60.4227219
  63.2997493  60.2566222  62.9442648  62.6565811  60.1063868  63.5127787
  62.9596900  60.0108567  62.1791753  63.1542570  60.1978344  62.9145664
  56.7508651  67.2989052  63.3345877  56.0320641  67.7153185  63.6018740
  57.1221014  67.8643291  62.7837515  56.7000583  67.4438333  63.2928684
  62.5255226  66.3387052  58.6719256  61.9320065  66.6604048  58.1203823
  62.5630504  65.4928147  58.4640362  62.4429615  66.2611380  58.5602028
  58.4557805  64.8343103  63.3975202  58.9315171  65.1960182  62.7625383
  57.9546405  65.4899570  63.6775345  58.4523164  64.9837291  63.3451943
  60.4984458  66.9784302  56.7648586  60.8783423  66.9963932  55.9799701
  59.7577054  67.4238291  56.6439433  60.4453296  67.0466077  56.6312154
  61.2969212  73.8161809  58.1557376  60.4880535  73.4928482  58.1090686
  61.8044121  73.1095031  58.0885625  61.2518879  73.6643125  58.1387671
  60.4903629  63.2045831  59.4476218  61.3119323  63.3744144  59.2057913
  60.0273280  63.3593092  58.7242515  60.5434791  63.2527564  59.3047862
  36.9807432  -0.2527295  48.2158615  36.9501436   0.6017342  48.3876884
  37.5788780  -0.5532002  48.7744759  37.0644590  -0.1710798  48.3233417
  30.1807116  -1.1651644  52.9711545  29.3245012  -1.0043146  53.0220662
  30.2274770  -2.0359580  52.9916606  30.0606228  -1.2700842  52.9817611
  24.5648256   8.3711074  48.7348777  23.8131156   7.9926612  48.5064822
  25.0134268   8.4029508  47.9867587  24.5197923   8.3196681  48.5906279
  33.4900833   5.1034882  62.5772001  34.1967600   4.6086913  62.7058936
  33.6788768   5.5443963  61.8474659  33.6228739   5.0953232  62.4881047
  30.0173216   8.7936444  44.1634324  29.6824585   9.4713365  43.7278546
  30.5300086   8.4041755  43.5751196  30.0438797   8.8361022  44.0121116
  29.5577507  10.7450712  50.1045436  29.9416887  11.3137611  49.5650211
  29.4936649  10.0200223  49.6251252  29.6050935  10.7226176  49.9539298
  33.0258937   0.8940400  55.6143197  33.5714898   1.5725487  55.6737167
  32.9675814   0.7527861  54.7544779  33.0974852   0.9732402  55.4955258
  26.1433012   8.3829466  51.0011549  26.2443375   7.5729820  51.3108677
  25.5474758   8.2886413  50.3711228  26.0705551   8.2494494  50.9537788
  34.8024006   2.3225007  46.4876925  34.6863532   3.0732693  46.9169063
  35.5979893   2.0648961  46.7373012  34.9028596   2.3959854  46.5881016
  25.9833752  13.3007055  52.4026405  26.6271207  13.7420219  52.7922564
  26.3090007  12.4960482  52.3156664  26.1265581  13.2472250  52.4471883
  19.3398057   4.4049753  50.6263883  19.1048241   3.5717405  50.5196152
  19.4783697   4.6854419  49.8125084  19.3253719   4.3233256  50.4906238
  26.6854332   6.3119030  47.7746267  27.0070173   6.8524238  47.1707575
  27.3326428   5.7415802  47.9068557  26.8280387   6.3078205  47.7053303
  28.7356040  -1.6864975  47.8580654  29.4336204  -1.5076847  48.3502117
  29.0508372  -2.2094635  47.2351043  28.8851377  -1.7371203  47.8382664
  21.3657277   0.1187765  55.7691760  21.2415974   0.7050211  56.4041579
  22.0175562  -0.3752039  56.0704035  21.4430926   0.1326570  55.9077689
  26.3915618   3.2949482  55.0479271  27.0364621   2.8021925  54.7290219
  26.6317395   3.4374269  55.8745349  26.5226203   3.2426924  55.1228804
  28.9301709   6.1404388  54.6986163  29.2124952   5.3455794  54.4772919
  29.6587870   6.6184975  54.7191224  29.0791273   6.0938985  54.6689179
  32.5253312   3.0532652  44.7991215  32.4404607   3.9093618  44.9440783
  33.0137695   2.7776976  45.4673374  32.5842209   3.1389973  44.9193296
  33.4571745  -0.3282554  46.2988950  32.9283216  -0.1122921  46.9586256
  33.9796765   0.3653584  46.2189919  33.4560198  -0.1939417  46.3844549
  38.9119798   5.2463750  51.6721994  38.0817501   5.4574394  51.8355411
  38.8629050   4.4200805  51.3964278  38.7826533   5.1553356  51.6559360
  25.3471353   3.5680662  45.0996418  24.7628568   4.0730694  45.5062282
  24.9441448   3.3423049  44.3593010  25.2010657   3.6088911  45.0501443
  20.9015381   9.2835424  51.9020089  20.4182960  10.0085913  51.8779673
  21.7138700   9.5811554  52.0130247  20.9506129   9.4337777  51.9147368
  26.9729535   8.0767604  54.5069904  26.4556477   7.7175019  53.9031212
  27.6703927   7.5529779  54.5175970  26.9995117   7.9465292  54.4200162
  30.6293127   8.5262418  60.4686077  30.7176473   8.3388559  61.3164287
  31.0582840   7.8799848  60.0690924  30.7055230   8.4025426  60.5357828
  28.1963587   7.8093578  59.4503739  27.6334422   7.3966188  59.9743400
  28.9584611   7.7346484  59.8696882  28.2258036   7.7370979  59.5896739
  29.8048567  -0.1853685  43.5765338  30.0444571   0.0224298  42.7640681
  30.1264408  -0.9896177  43.6854283  29.8885725  -0.2739584  43.4725891
  23.7559579   9.7991600  52.0540369  24.4580158   9.2843589  52.1113126
  23.6757062  10.1265751  52.8587244  23.8483339   9.7705826  52.1813161
  38.4073756  -2.1065849  55.4672416  37.5702177  -2.0363662  55.7020010
  38.3761987  -2.1041354  54.5946718  38.2792039  -2.0955622  55.3731964
  23.0810354   5.9897952  51.5625977  23.9199253   6.2220884  51.6099739
  23.1122123   5.1202263  51.4933013  23.2092072   5.8954898  51.5590622
  23.7063057   6.4098827  55.8639283  24.2461282   6.2669958  56.5342655
  23.0233003   6.8095577  56.2323309  23.6855211   6.4478498  56.0173704
  33.1303942   2.0889827  51.0584307  33.8861457   2.5221342  51.0973216
  33.2366266   1.4394597  51.6318943  33.2574112   2.0567311  51.1482333
  36.1684113   5.9163105  51.8086710  35.7319345   5.9199847  52.5645681
  35.8347028   6.5968604  51.3766287  36.0546733   6.0175560  51.8567543
  30.7413187   7.9571437  63.1329860  31.5253603   8.0702285  63.4985602
  30.5409781   7.1312574  63.3288546  30.8279212   7.8518157  63.2164246
  19.1100202   2.6299117  56.0173704  18.8438617   1.8138234  56.1764694
  19.1238766   2.6752273  55.1469220  19.0724924   2.5156022  55.9127186
  23.0157949  -2.5715798  42.6325462  22.3016126  -2.8577619  43.0447895
  23.5001918  -2.2319172  43.2731850  22.9817312  -2.5634148  42.7881097
  30.8983580   9.8681539  56.7796316  30.0998826   9.6281040  57.0370185
  31.3469591   9.9195932  57.5263364  30.8458191   9.8403931  56.9281240
  39.3028459   2.6344024  50.7006347  39.9644893   2.0734693  50.6002256
  38.6619871   2.1396055  51.0259038  39.3057327   2.4780434  50.7338687
  30.1905267   5.9314156  43.0087270  30.6056415   5.5999180  42.3171766
  29.3597197   5.6983058  42.8807407  30.1293276   5.8485412  42.8878118
  19.5193616   3.4157897  53.2985448  19.3369189   3.3904783  52.4457741
  20.2543285   3.8856835  53.3374357  19.6007680   3.4819259  53.1783367
  35.5893290   3.6509407  50.4418336  35.8248879   3.7954606  49.6145187
  35.7382854   4.4151815  50.8349850  35.6459093   3.7848461  50.3781940
  37.4183747   2.4911073  48.2787940  37.7491964   3.0238713  47.6728035
  37.9916835   2.5449961  48.9349891  37.5517426   2.5780642  48.2865722
  32.6315636   0.3375976  48.9611520  32.7262490   1.0765270  49.4151145
  32.0074479  -0.0906549  49.3946084  32.5524666   0.3837296  49.0919667
  30.8868110   3.5162188  59.6101801  31.4606971   2.8789432  59.7650365
  30.8082913   3.5166271  58.7411458  30.9601344   3.4227300  59.5048212
  19.4864526   0.2951398  53.4484515  20.0638029   0.1587848  54.0876760
  18.7878588  -0.1612818  53.7030099  19.4685547   0.2073664  53.5806805
  32.8838657   2.1824715  42.1948472  32.8018820   2.2526902  43.0603459
  33.5218378   2.7454459  42.0032213  32.9658494   2.2763686  42.2938421
  26.2431828   1.9485453  51.6622998  25.9851073   1.1157188  51.6354298
  26.2980311   2.1743066  50.8215499  26.2131606   1.8583225  51.5343135
  25.2166540  -0.4976784  52.1487893  24.6416132  -0.3384616  52.7851854
  24.8402217  -1.1341375  51.6856344  25.0769353  -0.5678971  52.1742451
  28.8839829  -2.0253435  57.0080271  28.4954262  -2.4499217  56.3532463
  28.2194527  -1.7771285  57.5157298  28.7286757  -2.0514714  56.9868139
  29.9878767   2.2045170  45.2057078  30.8019406   2.4960062  45.0939850
  29.9237909   1.5505032  44.6315371  30.0981506   2.1510364  45.1045916
  36.2088257   4.8871166  59.6186654  35.9726895   4.0559231  59.4998715
  36.8531486   4.8356773  60.2041498  36.2682928   4.7568854  59.6872548
  25.8586676   5.6766687  50.3329390  26.4960622   5.4378435  50.8781184
  26.2841747   5.8803846  49.5982551  26.0162842   5.6717697  50.3046548
  20.5499318   7.9155024  54.2163694  20.5903463   8.1869875  53.3883474
  21.1093842   8.4396932  54.6321482  20.6382664   8.0330779  54.1555582
  26.4989491   0.8968977  44.6704280  26.8834643   0.6776684  45.4220825
  26.2501111   1.7231922  44.8005356  26.5191563   0.9867123  44.8005356
  37.2324678   4.6715614  55.6814949  36.9270495   5.4043671  56.0428264
  36.5130894   4.2653544  55.4007735  37.0812020   4.7197347  55.6928086
  28.2408148   6.1539110  52.0123177  28.3147156   5.9914282  52.8665027
  29.0577654   6.3429299  51.7683658  28.3724506   6.1575852  52.1021202
  42.9326470   1.3108615  55.0083293  42.8650971   1.3304574  54.1385879
  42.9182133   2.1538942  55.2338963  42.9205227   1.4382350  54.9135770
  22.0013904   6.4996972  49.0417620  21.1752022   6.7458710  48.9151899
  22.0625895   6.4209053  49.9079678  21.8888071   6.5241921  49.1506565
  26.7812733   9.1173853  46.7436650  27.0711032   8.7262834  46.0195877
  27.5116214   9.2990558  47.1841925  26.9319617   9.0867666  46.7019457
  40.7185088   0.0853001  53.2829887  41.2693009  -0.5478930  53.5226979
  40.7029203   0.6168394  53.9745391  40.7970284   0.0701950  53.4208745
  27.3707478   3.9191599  57.8289781  26.8719172   4.6307366  57.9074669
  28.1807703   4.2392265  57.7907943  27.4163585   4.0718447  57.8346349
  24.7218649  11.0941235  49.8096800  24.5018944  10.8038590  50.6023467
  24.5013171  10.4356190  49.2814712  24.6566243  10.9540944  49.8485709
  23.6335596   3.1814552  52.0752502  23.3448845   2.5552023  52.6098229
  24.5018944   3.1234839  52.1417182  23.7195848   3.0802096  52.1643456
  34.4213494  -1.6750665  52.3934483  34.0778260  -2.3960330  52.7441733
  34.5206536  -1.8836814  51.5512842  34.3855537  -1.8126462  52.3206163
  26.8886605  12.4670625  48.5927492  27.5410663  11.9347067  48.8218518
  26.1912213  12.1139277  48.9795366  26.8817322  12.3360148  48.6839660
  23.8367869   4.8209803  47.9994867  24.5913837   5.2022842  48.2130329
  23.2438482   5.2720946  48.4541563  23.8604583   4.9438630  48.0977745
  34.8826523   4.7875039  47.9358472  35.4484556   5.4468249  47.8517014
  34.2354426   5.1324737  48.4074874  34.8705279   4.9356980  47.9931228
  25.1566096   5.9918364  53.3734982  24.6346850   6.1318656  54.0586847
  25.5440116   5.2329028  53.5637099  25.1369797   5.9003888  53.5036058
  31.3533101   7.7313823  47.3595551  31.1119777   6.9981684  46.9522616
  31.5334434   8.2800680  46.7061884  31.3440725   7.7036214  47.2025774
  26.5832422   3.0222383  48.7716473  26.3875204   3.6297118  48.1776776
  26.8066767   2.3290327  48.2908147  26.5867063   3.0099909  48.6132554
  24.9810952  -0.0922879  48.8897341  25.7033604   0.0718279  48.4301147
  24.5018944   0.6286786  48.7836681  25.0174682   0.0375351  48.8062955
  32.9404459  -3.7559080  54.2694026  32.1015560  -3.7297801  54.0332290
  33.0108826  -3.1088345  54.8499373  32.8272853  -3.6562954  54.3203143
  22.6318568   2.3135193  57.9951481  23.1439665   2.5919447  57.3460241
  22.3454911   3.0524487  58.3614294  22.6653431   2.4637547  57.9541359
  36.8161983   1.4508907  51.5555268  36.7295958   1.6064333  52.4090047
  36.3612463   2.0946982  51.1814673  36.7365240   1.5684662  51.6262375
  30.6887799  -1.2280346  50.1780828  30.4422513  -1.3084595  51.0117616
  31.0172922  -2.0126878  49.9843355  30.7009043  -1.3554081  50.2728351
  34.5835848   5.4803013  53.9667609  34.4450207   6.1784059  54.4716351
  33.8035846   5.3251669  53.6103791  34.4479075   5.5603180  53.9893883
  32.9213933   1.7799388  60.2189990  32.9161972   0.9079205  60.2232417
  33.6274927   1.9787558  59.7459446  33.0258937   1.6803263  60.1497026
  26.6484826   1.5076372  59.5903811  26.7928202   2.0877580  58.9546921
  26.9960475   1.8852669  60.2953665  26.7212288   1.6497076  59.6002806
  28.8204744   0.7066541  57.3728942  28.0728058   0.8997555  56.9677220
  28.9746269  -0.1188240  57.1353064  28.7327171   0.6131652  57.2774348
  25.7212581   9.6979144  56.4564837  25.8702145   9.1382060  55.8038242
  26.5012583   9.7771146  56.8397356  25.8586675   9.6264710  56.4161787
  36.0789221   4.8381267  44.7284108  35.6996029   4.0518405  44.7213397
  35.4155466   5.3868124  44.5855752  35.9247696   4.8026091  44.7064905
  28.2465882   9.8693787  57.7349328  28.1709553   9.2002598  58.2900117
  28.1755741  10.5711575  58.2489995  28.2246489   9.8738694  57.8926176
  28.9036129   8.3894786  48.5672934  29.6686020   8.1204430  48.2455599
  28.8014219   7.9044796  49.2842997  29.0017624   8.2784350  48.6252762
  26.9388899  -3.4080805  55.1066170  26.1484973  -3.5889345  55.4283506
  27.3349522  -4.1853852  55.0896464  26.8805775  -3.5493344  55.1518718
  31.4254789   5.4206970  40.5472884  32.1927775   5.4807095  40.1378735
  30.9786098   4.8487411  40.0629202  31.4728217   5.3443545  40.4150594
  32.3232585   4.2261625  52.8325616  31.6477587   3.9946858  53.3339003
  32.3324961   3.6182808  52.2067721  32.2251090   4.1020551  52.8141768
  29.4526729  -0.9320546  59.5889669  29.3885870  -0.0710589  59.4609806
  29.5923917  -1.2488552  58.7885220  29.4642199  -0.8520379  59.4517882
  34.3249320   7.0826758  45.0635794  34.4069157   7.8893744  44.7397245
  34.8099062   7.1022717  45.7876567  34.4086477   7.2047420  45.1222692
  28.1345823   1.7611594  53.7305872  27.7108072   1.9616093  52.9944890
  27.9590678   0.9140442  53.8430172  28.0456703   1.6660375  53.6379562
  27.6357516  13.2762107  56.1927329  28.1253447  12.5772896  56.0102994
  27.0641749  12.9785977  56.7803386  27.6242046  13.1288330  56.2528370
  23.4228268   2.2563645  49.1633844  23.5792887   2.1910448  50.0189836
  23.7628861   3.0312198  48.9512524  23.4961503   2.3612843  49.2588438
  29.9607412   1.6321529  48.0327208  30.5022958   1.1291910  48.4965828
  30.2753971   1.5786723  47.2216693  30.0871810   1.5500950  47.9811020
  33.8324520   5.8424176  65.1454120  34.6459385   5.5709325  65.3059252
  33.6719486   5.5431716  64.3414316  33.9294468   5.7579102  65.0499526
  28.1293862   7.0238880  45.3167236  28.1986682   6.1653419  45.4560236
  28.9082317   7.2410761  44.9886260  28.2546712   6.9291744  45.2884393
  31.1096682  -3.4742167  58.0849508  31.3238651  -4.1131253  57.5312862
  30.4930581  -3.0296343  57.6557370  31.0502011  -3.5032023  57.9399939
  32.5201350   9.4476582  49.5303729  32.1281141   9.1443297  48.8126595
  32.6754422  10.2845672  49.3408683  32.4854940   9.5260418  49.3960226
  19.9962529  -0.5601404  49.4794612  20.3761494  -0.1416859  48.8154879
  19.4217894   0.0212051  49.7863455  19.9673854  -0.4123546  49.4271352
  33.2735770  -1.8653102  59.0232815  32.4612452  -2.1727211  59.1045988
  33.7325704  -2.3454101  59.5875527  33.2216155  -1.9816609  59.1187409
  32.6841024   6.0126570  49.4709759  32.3255679   6.1841213  50.2473792
  32.1979735   6.4739776  48.9137758  32.5599721   6.1065541  49.5035029
  27.4729390   1.6925736  42.0109994  27.7621915   2.4690618  42.2853568
  27.5601189   1.1814467  42.7124493  27.5283646   1.7317654  42.1552492
  33.8445764   6.9030466  60.4176960  34.4825484   6.4090662  60.0839416
  33.2019855   6.8307867  59.8329187  33.8439990   6.8189475  60.2819315
  35.5702764  -1.2480388  54.9842876  35.1430372  -1.3354039  54.2290975
  34.9328817  -1.1402612  55.5697720  35.4132371  -1.2447728  54.9588317
  33.9000020   7.5950275  57.0582317  34.6892399   7.2439339  57.1784399
  34.0743618   8.4086663  56.7958951  34.0420302   7.6636132  57.0370185
  23.6393331   1.0059000  54.1110106  22.7981337   0.9062875  54.3189000
  23.8483339   1.7754481  54.4624427  23.5458023   1.1051044  54.1937421
  21.1168898  -1.3721463  51.9394857  20.7225596  -1.2978451  51.1644966
  20.5609015  -0.9863516  52.4903218  20.9771710  -1.3039688  51.9062516
  27.4509996  -1.0659600  53.3607703  27.1473133  -1.6203612  53.9618111
  26.7489416  -0.8867390  52.8735738  27.3026206  -1.1214818  53.3777409
  26.5076093  -3.7559081  47.9252405  26.7835827  -4.4740168  47.5129973
  27.1074762  -3.1574161  47.7173511  26.6369357  -3.7738710  47.8333166
  25.5128347   6.1490120  58.0679801  25.4048702   6.1592182  58.9341859
  25.7224128   6.9744901  57.8784755  25.5278458   6.2731195  58.1683893
  23.5302139   3.4002763  55.5301739  22.9390072   4.0412261  55.5004754
  24.2923162   3.8240380  55.5033038  23.5550399   3.5578601  55.5216886
  39.6492560   3.2308532  56.5279017  39.7075684   3.6795181  57.2738994
  39.0159028   3.6407345  56.0909097  39.5643855   3.3582267  56.5731565
  33.2891655   8.8512074  52.9633763  33.0911344   9.3402889  52.2689975
  32.6679366   9.0553316  53.5417897  33.1679219   8.9528613  52.9456987
  27.3499633   0.6196971  47.3044008  28.0941678   1.0071247  47.5426957
  27.4960329  -0.2245604  47.4684495  27.4810218   0.5527444  47.3637977
  30.3377509  -3.8077556  53.2037927  29.8637463  -4.3335794  53.7143238
  30.7095645  -4.3548083  52.6352788  30.3227398  -3.9661559  53.1953074
  36.6014240   1.2524820  54.6144707  36.3612463   0.4131235  54.6187134
  37.0806247   1.3324987  55.3385481  36.6366423   1.1406220  54.7219510
  32.2661009  -2.9141001  46.2663681  31.7384027  -2.8312257  45.5769390
  32.7256717  -2.1723130  46.2628325  32.2562859  -2.7920339  46.1638376
  38.6019427  -1.9673723  52.5673966  38.3629197  -2.0077889  51.7294751
  38.7653328  -1.1202571  52.6939688  38.5909730  -1.8481638  52.4627448
  35.2065457   2.4176227  58.4979012  35.9299656   1.9648753  58.3190032
  34.9415419   2.6980892  57.7151340  35.2746730   2.3927195  58.3557727
  24.0752325  -2.9863600  55.2331891  23.4505395  -2.9745208  54.6257844
  23.7397920  -2.5103425  55.8823131  23.9337817  -2.9145083  55.2388459
  20.7878001   5.0736860  56.6735655  20.2577925   4.3829299  56.7230630
  21.0603094   5.0647046  55.8448364  20.7502723   4.9703992  56.5583071
  31.8198091   5.6562563  45.3973338  32.5432290   6.1220676  45.2537911
  31.3798682   5.7236172  44.6470935  31.8613784   5.7346399  45.2658119
  30.9884246   2.5160105  56.6474027  30.3741239   1.9718155  56.9422662
  31.5051531   2.0024341  56.1679843  30.9739909   2.3596514  56.6198255
  30.2280544   3.5864375  54.3818325  29.8008152   2.9614093  53.9483761
  30.2205488   3.3039297  55.2077333  30.1639685   3.4517155  54.4398153
  16.0673843   1.7464624  54.0304003  15.9617292   1.7011469  53.1656087
  15.3174063   2.0918405  54.3118288  15.9409446   1.7905533  53.9441333
  26.2581939  -0.2935543  56.2740503  25.4273869  -0.1261725  56.0675751
  26.2033456  -0.6699592  57.0589388  26.1271354  -0.3245811  56.3589031
  24.6317983  -2.0179951  46.8030620  24.7720944  -1.5207487  47.5059262
  25.1300515  -2.7193657  46.9444834  24.7259064  -2.0477972  46.9282199
  24.6618205  -1.1512840  44.1323197  25.2963285  -0.5552415  44.0672659
  24.7443816  -1.4509382  44.9469067  24.7674756  -1.1071932  44.2426284
  37.6400771   1.3802637  57.0009561  38.2318611   2.0199888  57.0327759
  38.0759765   0.6825674  57.2901628  37.7919202   1.3720988  57.0490394
  26.2397188  -5.2198865  44.1068639  26.5613029  -5.6995782  43.4527902
  26.5024132  -4.4099219  43.9159451  26.3263213  -5.1708967  43.9824131
  29.4694161   5.8020010  57.6267455  28.9619252   6.3555857  58.0708086
  29.1720807   5.8628300  56.8086230  29.3499046   5.8926321  57.5715912
  21.1671193   1.0455001  47.4012743  21.6763422   1.6419508  47.7824049
  21.6405465   0.7780974  46.7189163  21.3114569   1.0940816  47.3567266
  32.0801941   9.7183267  45.5571399  31.3631251   9.5444130  45.0918636
  32.7308679   9.4835840  45.0246885  32.0703791   9.6579060  45.4100617
  34.6649912  -1.4052144  49.3012704  33.9941102  -0.8622442  49.1725769
  35.3589662  -0.9357289  49.0594399  34.6678780  -1.2553873  49.2468232
  28.7136646  10.7344568  54.5324462  28.4902300   9.9763397  54.9008489
  28.2246489  10.7642589  53.8104902  28.6080095  10.6266793  54.4801203
  23.5261725  -2.3188741  50.2685924  22.8073714  -1.9024608  50.5358787
  23.8974087  -1.7534502  49.7177562  23.4753656  -2.1739459  50.2268731
  32.8261306  -1.6860892  56.1587919  32.8059233  -1.8677597  57.0122698
  32.8740506  -0.8148873  56.1347503  32.8295947  -1.5844354  56.2811214
  30.7707635   4.9026300  62.0836396  30.7303490   4.2575977  61.4981552
  31.5830954   4.8462918  62.3961808  30.8850789   4.7985267  62.0433345
  27.3615103  10.9545026  51.9861547  26.9475502  10.2919156  51.5965388
  28.0462477  11.1022885  51.4657241  27.4013475  10.8785684  51.8518044
  30.7280397  10.1135111  52.7385163  30.3296680  10.2237382  51.9705984
  30.1131617  10.3217178  53.3211723  30.5779286  10.1608679  52.7116463
  29.3008299  -3.2790741  45.6059303  28.7073138  -2.9573744  45.0543870
  29.3383577  -4.1249645  45.3980409  29.2182688  -3.3566413  45.4942074
  32.1766116  -3.3211236  49.0361053  31.9479809  -3.2978535  48.1939412
  32.4364192  -4.1453769  49.1556064  32.1812304  -3.4395156  48.9286251
  25.2310878  -4.7834690  50.3315249  25.7068244  -4.4217610  49.6965430
  24.7299478  -4.1278222  50.6115392  25.2276237  -4.6340501  50.2791990
  38.4622240   4.6887078  46.1228254  38.8455845   5.4378434  46.3526351
  37.6666353   4.9352898  45.8640243  38.4016022   4.8356772  46.1185828
  27.2737531  -2.6393490  43.6988633  27.6536496  -2.6213861  42.9139748
  26.5330127  -2.1939501  43.5779480  27.2206369  -2.5711716  43.5652201
  32.6263674   0.3486203  52.9400419  33.1217339  -0.3690802  52.9004439
  31.8163450   0.0457000  52.8254905  32.5807567   0.1983849  52.9174144
  28.0722285   4.1984016  45.0897423  27.2633608   3.8750690  45.0430732
  28.5797194   3.4917238  45.0225672  28.0271952   4.0465332  45.0727717
  18.7012563   1.6256209  50.8144787  17.8358082   1.6141900  50.7027558
  18.8011379   1.4386432  51.6615927  18.5886730   1.5962270  50.9233732
  34.6915493   3.0989890  55.6277547  35.1170564   2.5764312  55.0747972
  34.3272413   3.6970728  55.1066170  34.7002095   3.1100117  55.4686557
  24.3269573  11.3954108  54.3874893  24.6416132  12.2090496  54.3952675
  24.7362986  11.0104326  55.0557052  24.4337671  11.4582810  54.4878984
  31.2794092   6.8124155  51.9578705  31.7505270   7.5264417  52.1268690
  31.6154271   6.2122905  52.4938574  31.3989207   6.8295619  52.0611081
  33.3671077   8.4225468  64.1370777  33.4768042   7.6334029  64.4927524
  33.6961973   8.3331404  63.3345115  33.4323483   8.2931321  64.0713168
  31.9168039   6.6042089  58.7206397  31.3688984   5.9799972  58.4526463
  32.3781067   6.7936361  58.0050477  31.9035248   6.5401139  58.5756828
  21.6682593   5.3427216  54.0353501  22.2727450   5.3023050  53.4067322
  21.4609905   6.1898368  54.0657557  21.7271490   5.4615219  53.9469618
  31.4826365   7.6093161  55.2515739  32.3024739   7.4656127  55.5132034
  31.2020442   8.2339360  55.7932176  31.5623108   7.6803513  55.3703678
  16.9033875   4.3261834  53.9052424  16.8058153   3.5158105  54.2142481
  17.6862745   4.3053627  53.5198692  17.0050011   4.2028924  53.8939287
  41.1539700  14.3533664  52.9711545  40.2977596  14.5142162  53.0220662
  41.2007354  13.4825728  52.9916606  41.0338811  14.2484466  52.9817611
  44.4633417  20.6220190  62.5772001  45.1700184  20.1272221  62.7058936
  44.6521352  21.0629271  61.8474659  44.5961322  20.6138540  62.4881047
  43.9991521  16.4125708  55.6143197  44.5447481  17.0910795  55.6737167
  43.9408397  16.2713169  54.7544779  44.0707435  16.4917710  55.4955258
  36.9566336  28.8192363  52.4026405  37.6003791  29.2605527  52.7922564
  37.2822591  28.0145790  52.3156664  37.0998164  28.7657558  52.4471883
  30.3130640  19.9235061  50.6263883  30.0780825  19.0902713  50.5196152
  30.4516281  20.2039726  49.8125084  30.2986303  19.8418564  50.4906238
  32.6120728  12.0920791  53.5248191  31.9925759  11.5013439  53.3558206
  32.5104591  12.6832227  52.8912514  32.5058403  12.0924874  53.4053180
  39.7088623  13.8320333  47.8580654  40.4068788  14.0108461  48.3502117
  40.0240956  13.3090672  47.2351043  39.8583960  13.7814105  47.8382664
  32.3389861  15.6373073  55.7691760  32.2148558  16.2235519  56.4041579
  32.9908145  15.1433269  56.0704035  32.4163510  15.6511877  55.9077689
  39.8976559  20.2190778  47.8460445  40.3370194  19.6107879  48.2915218
  39.7481222  19.8398152  47.0745910  39.9398024  20.0729249  47.7979613
  37.3648202  18.8134790  55.0479271  38.0097204  18.3207233  54.7290219
  37.6049979  18.9559577  55.8745349  37.4958787  18.7612232  55.1228804
  39.9034293  21.6589696  54.6986163  40.1857536  20.8641102  54.4772919
  40.6320453  22.1370283  54.7191224  40.0523857  21.6124293  54.6689179
  37.8815487   9.2012730  51.9401929  37.5518817   9.6523873  51.2705627
  37.2060489   9.1228893  52.4874935  37.7325923   9.2563865  51.9225152
  45.0891895   5.1898253  50.1851539  44.7745336   5.8801731  50.6171962
  44.5718836   5.1343035  49.4837040  44.9656365   5.2833141  50.1448488
  49.8852381  20.7649058  51.6721994  49.0550084  20.9759702  51.8355411
  49.8361634  19.9386113  51.3964278  49.7559117  20.6738664  51.6559360
  36.3203936  19.0865970  45.0996418  35.7361151  19.5916002  45.5062282
  35.9174031  18.8608357  44.3593010  36.1743240  19.1274219  45.0501443
  31.8747965  24.8020732  51.9020089  31.3915543  25.5271221  51.8779673
  32.6871283  25.0996862  52.0130247  31.9238713  24.9523085  51.9147368
  37.9462119  23.5952912  54.5069904  37.4289061  23.2360327  53.9031212
  38.6436510  23.0715087  54.5175970  37.9727700  23.4650600  54.4200162
  41.6025711  24.0447726  60.4686077  41.6909057  23.8573867  61.3164287
  42.0315423  23.3985156  60.0690924  41.6787813  23.9210734  60.5357828
  39.1696171  23.3278886  59.4503739  38.6067006  22.9151496  59.9743400
  39.9317194  23.2531792  59.8696882  39.1990619  23.2556287  59.5896739
  40.7781151  15.3331622  43.5765338  41.0177154  15.5409606  42.7640681
  41.0996992  14.5289131  43.6854283  40.8618309  15.2445724  43.4725891
  36.0871441   7.2625018  47.4224876  36.8417409   7.6303335  47.1841926
  35.9098976   7.6364573  48.1904056  36.1725919   7.3723206  47.5009765
  34.7292162  25.3176907  52.0540369  35.4312741  24.8028897  52.1113126
  34.6489645  25.6451059  52.8587244  34.8215923  25.2891134  52.1813161
  49.3806340  13.4119459  55.4672416  48.5434761  13.4821646  55.7020010
  49.3494571  13.4143954  54.5946718  49.2524622  13.4229686  55.3731964
  35.7771069  15.5552494  61.1820784  35.9491572  15.4458389  62.0306066
  36.3140426  16.2006900  60.9451976  35.8816073  15.6344496  61.2725881
  34.4428506   9.6695337  44.1202989  34.2604079   9.8867218  43.2943982
  35.3054119   9.7834350  44.1761604  34.5433095   9.7185235  44.0057476
  34.0542938  21.5083259  51.5625977  34.8931837  21.7406192  51.6099739
  34.0854707  20.6387571  51.4933013  34.1824655  21.4140206  51.5590622
  34.6795641  21.9284135  55.8639283  35.2193866  21.7855266  56.5342655
  33.9965587  22.3280885  56.2323309  34.6587794  21.9663806  56.0173704
  40.1228225   6.6721748  47.1552013  40.8514385   6.4937703  46.7090169
  40.2123118   7.5139828  47.3659191  40.2434887   6.7705626  47.1205531
  44.1036525  17.6075135  51.0584307  44.8594041  18.0406650  51.0973216
  44.2098850  16.9579905  51.6318943  44.2306696  17.5752619  51.1482333
  47.1416697  21.4348413  51.8086710  46.7051928  21.4385155  52.5645681
  46.8079612  22.1153911  51.3766287  47.0279317  21.5360868  51.8567543
  41.7145770  23.4756745  63.1329860  42.4986187  23.5887593  63.4985602
  41.5142365  22.6497882  63.3288546  41.8011796  23.3703465  63.2164246
  30.0832786  18.1484425  56.0173704  29.8171201  17.3323542  56.1764694
  30.0971350  18.1937581  55.1469220  30.0457508  18.0341330  55.9127186
  47.0614179   8.4762240  54.0516138  47.7040088   8.5460345  54.6378053
  47.3137200   7.8091463  53.5495680  47.1936312   8.3888589  54.0643417
  33.9890533  12.9469510  42.6325462  33.2748710  12.6607689  43.0447895
  34.4734501  13.2866136  43.2731850  33.9549896  12.9551160  42.7881097
  34.8331392  11.6862804  58.6640712  34.1403189  11.2159783  58.9101443
  35.4491719  11.4601108  59.2382419  34.8215922  11.5829936  58.7849864
  41.8716164  25.3866847  56.7796316  41.0731409  25.1466347  57.0370185
  42.3202175  25.4381240  57.5263364  41.8190775  25.3589239  56.9281240
  50.2761043  18.1529332  50.7006347  50.9377477  17.5920001  50.6002256
  49.6352455  17.6581363  51.0259038  50.2789910  17.9965741  50.7338687
  30.4926199  18.9343205  53.2985448  30.3101773  18.9090091  52.4457741
  31.2275868  19.4042143  53.3374357  30.5740263  19.0004567  53.1783367
  46.5625874  19.1694715  50.4418336  46.7981463  19.3139914  49.6145187
  46.7115437  19.9337123  50.8349850  46.6191677  19.3033769  50.3781940
  33.5571951  15.6528208  59.8067557  34.2811923  15.6381238  60.2932452
  33.6588088  16.3623563  59.3089525  33.6790160  15.7552911  59.8046344
  40.9316900  19.1327292  64.6716504  40.1389881  19.4470804  64.8569124
  41.0465828  19.3478761  63.8337289  40.8312311  19.2111129  64.5754839
  43.6048219  15.8561283  48.9611520  43.6995074  16.5950578  49.4151145
  42.9807063  15.4278759  49.3946084  43.5257249  15.9022604  49.0919667
  41.8600693  19.0347496  59.6101801  42.4339555  18.3974740  59.7650365
  41.7815497  19.0351578  58.7411458  41.9333928  18.9412607  59.5048212
  30.4597110  15.8136706  53.4484515  31.0370612  15.6773156  54.0876760
  29.7611171  15.3572490  53.7030099  30.4418131  15.7258972  53.5806805
  37.2164412  17.4670761  51.6622998  36.9583656  16.6342496  51.6354298
  37.2712895  17.6928374  50.8215499  37.1864190  17.3768532  51.5343135
  42.2965462   9.5699212  51.7627091  41.5921789   9.0808397  51.9211010
  42.3450436   9.5821686  50.8915535  42.1995514   9.4988860  51.6566431
  36.1899124  15.0208524  52.1487893  35.6148715  15.1800692  52.7851854
  35.8134800  14.3843933  51.6856344  36.0501936  14.9506337  52.1742451
  39.8572413  13.4931873  57.0080271  39.4686845  13.0686091  56.3532463
  39.1927111  13.7414023  57.5157298  39.7019340  13.4670594  56.9868139
  49.4995682  13.2506878  49.7828101  49.2432247  12.4386819  49.5925984
  50.3424996  13.2584445  49.5558289  49.5861707  13.1318875  49.7212919
  25.9355943  14.6648598  50.1632334  26.0216195  14.2880467  50.9445864
  26.5631740  14.2909044  49.6852292  26.0412494  14.5534081  50.2077811
  43.6798774   7.1906502  54.5204256  44.0609286   6.5084673  54.9072130
  42.8762058   6.9016104  54.3379920  43.6175236   7.0473550  54.5508312
  40.9611351  17.7230478  45.2057078  41.7751990  18.0145370  45.0939850
  40.8970492  17.0690340  44.6315371  41.0714090  17.6695672  45.1045916
  47.1820841  20.4056474  59.6186654  46.9459478  19.5744538  59.4998715
  47.8264070  20.3542081  60.2041498  47.2415512  20.2754162  59.6872548
  36.8319259  21.1951995  50.3329390  37.4693206  20.9563742  50.8781184
  37.2574331  21.3989154  49.5982551  36.9895425  21.1903005  50.3046548
  31.5231902  23.4340331  54.2163694  31.5636047  23.7055183  53.3883474
  32.0826426  23.9582240  54.6321482  31.6115247  23.5516087  54.1555582
  37.4722074  16.4154285  44.6704280  37.8567227  16.1961991  45.4220825
  37.2233694  17.2417230  44.8005356  37.4924147  16.5052431  44.8005356
  37.6390615   9.6960700  64.3866864  37.3244056  10.4660263  64.1236427
  37.3180547   9.1330956  63.8019091  37.5449534   9.7270969  64.2608214
  48.2057262  20.1900922  55.6814949  47.9003079  20.9228979  56.0428264
  47.4863477  19.7838852  55.4007735  48.0544604  20.2382655  55.6928086
  39.2140731  21.6724418  52.0123177  39.2879739  21.5099589  52.8665027
  40.0310237  21.8614607  51.7683658  39.3457090  21.6761160  52.1021202
  53.9059054  16.8293923  55.0083293  53.8383554  16.8489882  54.1385879
  53.8914716  17.6724250  55.2338963  53.8937810  16.9567658  54.9135770
  32.9746488  22.0182280  49.0417620  32.1484605  22.2644018  48.9151899
  33.0358479  21.9394361  49.9079678  32.8620655  22.0427229  49.1506565
  35.1922512   8.0851221  50.0013060  34.3244937   8.1573821  50.0670670
  35.4797716   8.8873300  50.1901035  35.1062260   8.2145369  50.0387827
  44.3155400   8.2329081  58.3324382  45.0608992   8.0438891  57.9187808
  43.8992705   8.7587319  57.7738239  44.3640375   8.2831226  58.1888955
  51.6917671  15.6038309  53.2829887  52.2425593  14.9706378  53.5226979
  51.6761787  16.1353702  53.9745391  51.7702868  15.5887257  53.4208745
  38.3440062  19.4376907  57.8289781  37.8451756  20.1492674  57.9074669
  39.1540286  19.7577573  57.7907943  38.3896169  19.5903755  57.8346349
  34.6068180  18.6999860  52.0752502  34.3181428  18.0737331  52.6098229
  35.4751528  18.6420147  52.1417182  34.6928432  18.5987404  52.1643456
  45.3946077  13.8434643  52.3934483  45.0510843  13.1224978  52.7441733
  45.4939120  13.6348494  51.5512842  45.3588120  13.7058846  52.3206163
  45.8559106  20.3060347  47.9358472  46.4217139  20.9653557  47.8517014
  45.2087010  20.6510045  48.4074874  45.8437863  20.4542288  47.9931228
  37.2707120  12.2957951  63.1252079  36.4606896  12.6015731  63.0141921
  37.7481807  13.0163533  63.2404663  37.2210599  12.4472552  63.1259150
  36.1298680  21.5103672  53.3734982  35.6079433  21.6503964  54.0586847
  36.5172700  20.7514336  53.5637099  36.1102380  21.4189196  53.5036058
  33.1189864  11.5609481  47.4429937  32.8314659  11.1910751  46.7061884
  33.8060332  12.0304336  47.1813642  33.1778761  11.5756450  47.2945012
  37.5565005  18.5407691  48.7716473  37.3607788  19.1482426  48.1776776
  37.7799351  17.8475635  48.2908147  37.5599646  18.5285217  48.6132554
  35.9543535  15.4262429  48.8897341  36.6766187  15.5903587  48.4301147
  35.4751528  16.1472094  48.7836681  35.9907266  15.5560658  48.8062955
  43.9137043  11.7626228  54.2694026  43.0748143  11.7887507  54.0332290
  43.9841410  12.4096963  54.8499373  43.8005436  11.8622354  54.3203143
  33.6051152  17.8320501  57.9951481  34.1172249  18.1104755  57.3460241
  33.3187495  18.5709795  58.3614294  33.6386015  17.9822855  57.9541359
  42.3606321   8.6611605  49.0021642  43.0632674   8.4619353  48.5241600
  42.0950510   7.8887547  49.3090486  42.4252953   8.5174571  48.9767084
  47.7894567  16.9694214  51.5555268  47.7028541  17.1249641  52.4090047
  47.3345047  17.6132290  51.1814673  47.7097823  17.0869970  51.6262375
  30.6918058  12.3390693  48.2915218  30.7934195  13.1416855  48.6196193
  31.4873945  12.1378029  47.9938298  30.8245964  12.4276592  48.2950573
  37.1234877   9.9246890  58.0552523  36.9318074   9.9402024  58.9051946
  37.9733473  10.1210564  58.0319178  37.2210599   9.9561241  58.1775818
  31.5081790  12.4537871  56.0336339  31.3667282  11.6021812  56.1580847
  31.7922354  12.4966532  55.2098545  31.5289636  12.3337621  55.9303963
  41.6620383  14.2904962  50.1780828  41.4155097  14.2100713  51.0117616
  41.9905506  13.5058429  49.9843355  41.6741626  14.1631227  50.2728351
  45.5568431  20.9988321  53.9667609  45.4182791  21.6969367  54.4716351
  44.7768429  20.8436977  53.6103791  45.4211658  21.0788488  53.9893883
  43.8946517  17.2984696  60.2189990  43.8894555  16.4264513  60.2232417
  44.6007510  17.4972865  59.7459446  43.9991521  17.1988570  60.1497026
  37.6217410  17.0261680  59.5903811  37.7660786  17.6062888  58.9546921
  37.9693059  17.4037977  60.2953665  37.6944871  17.1682384  59.6002806
  39.7937327  16.2251849  57.3728942  39.0460641  16.4182863  56.9677220
  39.9478853  15.3997068  57.1353064  39.7059755  16.1316960  57.2774348
  36.6945165  25.2164452  56.4564837  36.8434729  24.6567368  55.8038242
  37.4745167  25.2956454  56.8397356  36.8319259  25.1450017  56.4161787
  39.2198466  25.3879095  57.7349328  39.1442137  24.7187905  58.2900117
  39.1488325  26.0896883  58.2489995  39.1979072  25.3924002  57.8926176
  40.0339104  10.1202399  58.2624346  40.4911718  10.8526374  58.3897138
  40.1095433   9.6968865  59.0211602  40.1130074  10.1659637  58.3925422
  32.2772096  10.3668219  59.3513790  31.7414285   9.7548577  59.6674557
  32.3389860  10.9416355  60.0047456  32.2067728  10.3615147  59.4949216
  44.5066430   3.2992274  52.1318189  44.6249998   3.7568738  51.3985492
  44.3328606   2.4937536  51.8454407  44.4985601   3.2486047  51.9819123
  37.9121482  12.1104503  55.1066170  37.1217557  11.9295963  55.4283506
  38.3082105  11.3331456  55.0896464  37.8538358  11.9691964  55.1518718
  43.2965169  19.7446933  52.8325616  42.6210170  19.5132166  53.3339003
  43.3057545  19.1368116  52.2067721  43.1983673  19.6205859  52.8141768
  40.4259313  14.5864762  59.5889669  40.3618454  15.4474719  59.4609806
  40.5656500  14.2696756  58.7885220  40.4374783  14.6664929  59.4517882
  39.1078406  17.2796902  53.7305872  38.6840656  17.4801401  52.9944890
  38.9323262  16.4325750  53.8430172  39.0189287  17.1845683  53.6379562
  38.6090100  28.7947415  56.1927329  39.0986030  28.0958204  56.0102994
  38.0374332  28.4971285  56.7803386  38.5974630  28.6473638  56.2528370
  34.3960851  17.7748953  49.1633844  34.5525471  17.7095756  50.0189836
  34.7361445  18.5497506  48.9512524  34.4694086  17.8798151  49.2588438
  40.9339996  17.1506837  48.0327208  41.4755541  16.6477218  48.4965828
  41.2486555  17.0972031  47.2216693  41.0604393  17.0686258  47.9811020
  44.8057103  21.3609484  65.1454120  45.6191969  21.0894633  65.3059252
  44.6452070  21.0617024  64.3414316  44.9027052  21.2764410  65.0499526
  42.0829265  12.0443141  58.0849508  42.2971235  11.4054055  57.5312862
  41.4663165  12.4888965  57.6557370  42.0234595  12.0153285  57.9399939
  30.9695113  14.9583904  49.4794612  31.3494078  15.3768449  48.8154879
  30.3950478  15.5397359  49.7863455  30.9406438  15.1061762  49.4271352
  44.2468353  13.6532206  59.0232815  43.4345035  13.3458097  59.1045988
  44.7058288  13.1731207  59.5875527  44.1948738  13.5368699  59.1187409
  43.6573608  21.5311878  49.4709759  43.2988263  21.7026521  50.2473792
  43.1712319  21.9925084  48.9137758  43.5332305  21.6250849  49.5035029
  41.4743994   5.1543077  53.0736851  40.6037552   5.1281798  53.0270160
  41.7284335   4.9820269  52.2562696  41.3837554   5.1253221  52.9456988
  38.4461973  17.2111044  42.0109994  38.7354498  17.9875926  42.2853568
  38.5333772  16.6999775  42.7124493  38.5016230  17.2502962  42.1552492
  41.3421861  15.0592278  63.8061517  41.8121492  15.6834394  64.1929392
  41.3883741  14.3909253  64.3654732  41.4189737  15.0526958  63.9461589
  38.4993135   7.1649305  54.5310321  37.9831623   6.4729497  54.6561900
  37.9387063   7.8320082  54.4772920  38.3399648   7.1612563  54.5416387
  40.5685368   7.7042265  56.3603174  40.1817121   7.7291297  57.1416704
  40.0818305   7.1383944  55.9077690  40.4397877   7.6238016  56.4091077
  44.8178347  22.4215774  60.4176960  45.4558068  21.9275970  60.0839416
  44.1752439  22.3493175  59.8329187  44.8172574  22.3374783  60.2819315
  46.5435347  14.2704920  54.9842876  46.1162956  14.1831269  54.2290975
  45.9061400  14.3782696  55.5697720  46.3864955  14.2737580  54.9588317
  40.2342510   4.5909251  58.6513434  40.8635628   5.1269551  58.3734504
  40.4028372   4.4986610  59.5026999  40.3520304   4.6570613  58.7361962
  40.0356425   9.3780446  60.9239845  40.8629854   9.1065594  60.9798460
  40.0564271  10.1741287  61.2803663  40.1609275   9.4560200  60.9855028
  44.8732604  23.1135583  57.0582317  45.6624982  22.7624647  57.1784399
  45.0476202  23.9271971  56.7958951  45.0152886  23.1821440  57.0370185
  34.6125914  16.5244308  54.1110106  33.7713921  16.4248182  54.3189000
  34.8215922  17.2939789  54.4624427  34.5190607  16.6236352  54.1937421
  32.0901481  14.1463845  51.9394857  31.6958179  14.2206857  51.1644966
  31.5341598  14.5321792  52.4903218  31.9504294  14.2145620  51.9062516
  43.7266428   7.1245139  51.6198736  43.9316022   7.0567447  52.4655733
  43.3992852   7.9303961  51.5519913  43.7081676   7.2331080  51.7358391
  38.4242579  14.4525708  53.3607703  38.1205717  13.8981696  53.9618111
  37.7222000  14.6317917  52.8735738  38.2758789  14.3970490  53.3777409
  37.4808676  11.7626227  47.9252405  37.7568411  11.0445140  47.5129973
  38.0807346  12.3611147  47.7173511  37.6101941  11.7446598  47.8333166
  36.4860930  21.6675428  58.0679801  36.3781285  21.6777490  58.9341859
  36.6956712  22.4930209  57.8784755  36.5011041  21.7916503  58.1683893
  46.9800116   7.6776904  51.1001501  46.3674429   8.1647306  51.4855233
  47.0764291   7.0020394  51.6439152  46.9038014   7.6495212  51.2380359
  40.9819197   9.4339745  46.1999000  41.4362943   9.6050305  46.9246845
  41.4559243   8.8207855  45.7996776  41.1187517   9.3690630  46.2472762
  34.5034722  18.9188071  55.5301739  33.9122656  19.5597569  55.5004754
  35.2655746  19.3425688  55.5033038  34.5282983  19.0763909  55.5216886
  34.8995345  10.0790068  56.1969756  35.3596827  10.1528998  56.9344880
  34.9451452  10.8771322  55.8469578  34.9745900  10.2084215  56.2542513
  36.5478695  10.7456763  60.7641784  36.1564260  10.0990110  61.1997561
  36.7164558  11.3368199  61.3836039  36.5149605  10.7371031  60.9204490
  50.6225144  18.7493840  56.5279017  50.6808268  19.1980489  57.2738994
  49.9891611  19.1592653  56.0909097  50.5376439  18.8767575  56.5731565
  44.2624239  24.3697382  52.9633763  44.0643927  24.8588197  52.2689975
  43.6411950  24.5738624  53.5417897  44.1411803  24.4713920  52.9456987
  38.3232217  16.1382279  47.3044008  39.0674262  16.5256555  47.5426957
  38.4692913  15.2939704  47.4684495  38.4542802  16.0712752  47.3637977
  40.2411792   7.9332538  52.3375869  39.3947837   8.1055346  52.2117219
  40.2382925   7.1281882  52.6741697  40.1158942   7.8393567  52.3686996
  41.3110093  11.7107752  53.2037927  40.8370047  11.1849514  53.7143238
  41.6828229  11.1637225  52.6352788  41.2959982  11.5523749  53.1953074
  31.6883123  13.7079259  58.5721473  32.5508736  13.6074968  58.4858802
  31.3574906  13.1273968  58.0107045  31.7668319  13.6070886  58.4766879
  47.5746823  16.7710128  54.6144707  47.3345046  15.9316543  54.6187134
  48.0538830  16.8510295  55.3385481  47.6099007  16.6591528  54.7219510
  43.2393592  12.6044307  46.2663681  42.7116611  12.6873051  45.5769390
  43.6989301  13.3462178  46.2628325  43.2295443  12.7264969  46.1638376
  49.5752010  13.5511585  52.5673966  49.3361780  13.5107419  51.7294751
  49.7385912  14.3982737  52.6939688  49.5642314  13.6703670  52.4627448
  46.1798040  17.9361534  58.4979012  46.9032239  17.4834061  58.3190032
  45.9148003  18.2166200  57.7151340  46.2479314  17.9112503  58.3557727
  35.0484909  12.5321708  55.2331891  34.4237979  12.5440100  54.6257844
  34.7130504  13.0081883  55.8823131  34.9070401  12.6040225  55.2388459
  35.2326658  10.8746827  41.2904576  34.8839462  11.5266552  41.7536125
  34.7523103  10.8603940  40.5628447  35.1096901  10.9689880  41.2515667
  31.7610584  20.5922168  56.6735655  31.2310509  19.9014607  56.7230630
  32.0335678  20.5832353  55.8448364  31.7235307  20.4889300  56.5583071
  41.9616830  18.0345413  56.6474027  41.3473823  17.4903463  56.9422662
  42.4784115  17.5209649  56.1679843  41.9472492  17.8781822  56.6198255
  41.2013127  19.1049683  54.3818325  40.7740735  18.4799401  53.9483761
  41.1938072  18.8224605  55.2077333  41.1372268  18.9702463  54.4398153
  34.3175654  14.1414856  57.4506759  34.4769141  13.3858180  57.8558481
  34.1368548  14.6905795  58.1047497  34.3141013  14.1108670  57.6069465
  42.2595957   6.3076091  58.0057549  41.7636518   6.5039766  57.3149116
  43.0165019   6.7068760  57.8346350  42.2982782   6.3953825  57.8777686
  39.5298837   9.9818437  54.5960859  39.5541324   9.4478550  53.9073639
  39.7810310   9.4735746  55.2586450  39.5708756   9.8279341  54.5925504
  27.0406427  17.2649932  54.0304003  26.9349876  17.2196777  53.1656087
  26.2906647  17.6103713  54.3118288  26.9142030  17.3090840  53.9441333
  35.8100159   8.7089256  53.9766604  35.8498531   9.2098462  54.6901311
  34.9849824   8.7999649  53.7072527  35.6939685   8.7971072  54.0417142
  37.9929772  18.2749996  62.0786898  37.1425402  18.4121710  62.2144543
  38.1557900  17.5413774  62.5234600  37.8913635  18.1864097  62.1642497
  37.2314522  15.2249765  56.2740503  36.4006452  15.3923583  56.0675751
  37.1766040  14.8485716  57.0589388  37.1003937  15.1939497  56.3589031
  35.0398306   8.7158658  61.9096913  35.6651009   8.1720791  62.1826346
  34.5848786   8.2353576  61.3404704  35.0646566   8.5648140  61.8658507
  35.6050566  13.5005357  46.8030620  35.7453527  13.9977821  47.5059262
  36.1033099  12.7991651  46.9444834  35.6991647  13.4707336  46.9282199
  35.6350789  14.3672468  44.1323197  36.2695868  14.9632893  44.0672659
  35.7176399  14.0675926  44.9469067  35.7407340  14.4113376  44.2426284
  48.6133354  16.8987945  57.0009561  49.2051195  17.5385196  57.0327759
  49.0492349  16.2010982  57.2901628  48.7651786  16.8906296  57.0490394
  37.2129772  10.2986443  44.1068639  37.5345613   9.8189526  43.4527902
  37.4756715  11.1086089  43.9159451  37.2995797  10.3476341  43.9824131
  40.4426744  21.3205318  57.6267455  39.9351835  21.8741165  58.0708086
  40.1453390  21.3813608  56.8086230  40.3231629  21.4111629  57.5715912
  42.6088927   9.6858637  56.4692118  43.0343998   9.2331164  55.8575645
  41.9945920   9.1318708  56.7456906  42.5817572   9.5372614  56.4197144
  32.1403777  16.5640309  47.4012743  32.6496006  17.1604816  47.7824049
  32.6138049  16.2966282  46.7189163  32.2847152  16.6126124  47.3567266
  41.0483149   6.1573737  49.8782695  40.4051467   6.0071383  50.4467834
  40.7082556   5.9116082  49.1131800  40.9028227   6.0985860  49.8485710
  45.6382496  14.1133164  49.3012704  44.9673686  14.6562866  49.1725769
  46.3322246  14.5828019  49.0594399  45.6411363  14.2631435  49.2468232
  39.6869230  26.2529876  54.5324462  39.4634884  25.4948705  54.9008489
  39.1979073  26.2827897  53.8104902  39.5812679  26.1452100  54.4801203
  45.8010623  10.5689048  52.2103077  46.1538233  10.1418770  52.8848876
  44.9425425  10.4839891  52.3404153  45.7260068  10.4933788  52.3298088
  34.4994308  13.1996567  50.2685924  33.7806297  13.6160700  50.5358787
  34.8706671  13.7650806  49.7177562  34.4486240  13.3445849  50.2268731
  43.7993889  13.8324416  56.1587919  43.7791816  13.6507711  57.0122698
  43.8473090  14.7036435  56.1347503  43.8028530  13.9340954  56.2811214
  41.7440219  20.4211608  62.0836396  41.7036074  19.7761285  61.4981552
  42.5563537  20.3648226  62.3961808  41.8583372  20.3170575  62.0433345
  41.7012981  25.6320419  52.7385163  41.3029264  25.7422690  51.9705984
  41.0864200  25.8402486  53.3211723  41.5511870  25.6793987  52.7116463
  40.2740883  12.2394567  45.6059303  39.6805722  12.5611564  45.0543870
  40.3116160  11.3935663  45.3980409  40.1915272  12.1618895  45.4942074
  47.2334683   5.6907459  53.1387390  46.7265548   4.9836599  53.0708567
  48.0302117   5.3600648  53.2688466  47.2761923   5.5380611  53.1486385
  43.1498699  12.1974072  49.0361053  42.9212392  12.2206773  48.1939412
  43.4096775  11.3731539  49.1556064  43.1544887  12.0790152  48.9286251
  37.4317928  14.0508545  58.6386154  36.9196831  13.4429728  58.9971185
  37.2597424  14.7665137  59.1060129  37.3307565  14.0671844  58.7602377
  32.2783642  12.4946120  61.2888515  32.1086233  13.1547495  60.7436722
  31.8349592  12.7052681  62.0101004  32.1882976  12.6232102  61.3150145
  36.2043462  10.7350618  50.3315249  36.6800828  11.0967698  49.6965430
  35.7032061  11.3907086  50.6115392  36.2008821  10.8844807  50.2791990
  41.3086998  11.9732789  61.0788409  41.8658428  11.7446599  60.4466875
  40.9848063  12.7338455  60.8023621  41.3433408  12.0516626  60.9444906
  29.1785707  15.3992986  56.5477005  28.6312426  14.7293631  56.6657873
  29.9678085  15.0322833  56.6120472  29.2137891  15.2457972  56.5745706
  39.0270115  15.0600443  62.0440416  39.7781442  15.3752119  62.3579970
  39.2192692  14.8579614  61.2174338  39.1661529  15.0767824  61.9683812
  38.2470115  12.8791818  43.6988633  38.6269080  12.8971447  42.9139748
  37.5062711  13.3245807  43.5779480  38.1938953  12.9473592  43.5652201
  45.8755405  11.1874009  49.2864212  45.8749632  11.0322666  50.1448488
  45.6711585  12.0336996  49.2305597  45.8455183  11.2894630  49.4052151
  27.9372676  14.6113793  53.7023028  27.7594437  14.1590402  54.4277944
  27.6491698  15.4139955  53.8861506  27.8685630  14.6636351  53.8366531
  43.5996257  15.8671511  52.9400419  44.0949923  15.1494506  52.9004439
  42.7896033  15.5642308  52.8254905  43.5540151  15.7169157  52.9174144
  29.6745146  17.1441517  50.8144787  28.8090666  17.1327208  50.7027558
  29.7743962  16.9571740  51.6615927  29.5619313  17.1147578  50.9233732
  45.6648076  18.6175198  55.6277547  46.0903148  18.0949620  55.0747972
  45.3004996  19.2156036  55.1066170  45.6734679  18.6285425  55.4686557
  35.3002156  26.9139416  54.3874893  35.6148715  27.7275804  54.3952675
  35.7095569  26.5289634  55.0557052  35.4070254  26.9768118  54.4878984
  42.2526676  22.3309463  51.9578705  42.7237854  23.0449725  52.1268690
  42.5886854  21.7308213  52.4938574  42.3721791  22.3480927  52.0611081
  44.3403660  23.9410776  64.1370777  44.4500626  23.1519336  64.4927524
  44.6694557  23.8516712  63.3345115  44.4056066  23.8116629  64.0713168
  39.1696171   7.1036933  58.9136800  39.3024076   6.3067927  59.2417775
  39.5541323   7.6303336  59.4935075  39.2452500   7.0636850  59.0480302
  42.8900622  22.1227397  58.7206397  42.3421568  21.4985280  58.4526463
  43.3513651  22.3121669  58.0050477  42.8767832  22.0586447  58.5756828
  42.2428526   4.0267259  55.5117893  41.4374490   3.9164989  55.8285731
  42.1135261   4.1279715  54.6547759  42.1048659   4.0250929  55.4325933
  45.6994486  10.1912751  56.1057590  45.1157475  10.6921958  55.6935157
  46.0198780   9.6842307  55.4721913  45.6607662  10.1904586  55.9516097
  38.2389286   9.1053346  46.3816264  39.0604980   9.2751659  46.1397959
  37.7758936   9.2600607  45.6582562  38.2920448   9.1535079  46.2387909
  36.8284617   7.0996108  57.1614693  37.3729030   6.7587235  57.7519035
  36.8821553   7.9581570  57.3035978  36.9173737   7.1751368  57.2696567
  32.6415176  20.8612524  54.0353501  33.2460034  20.8208358  53.4067322
  32.4342489  21.7083676  54.0657557  32.7004074  20.9800527  53.9469618
  42.4558948  23.1278469  55.2515739  43.2757322  22.9841435  55.5132034
  42.1753026  23.7524668  55.7932176  42.5355692  23.1988821  55.3703678
  27.8766459  19.8447142  53.9052424  27.7790737  19.0343413  54.2142481
  28.6595328  19.8238935  53.5198692  27.9782595  19.7214232  53.8939287
  58.9272599  30.7843321  48.2158615  58.8966603  31.6387958  48.3876884
  59.5253948  30.4838614  48.7744759  59.0109757  30.8659818  48.3233417
  52.1272284  29.8718972  52.9711545  51.2710179  30.0327470  53.0220662
  52.1739937  29.0011036  52.9916606  52.0071395  29.7669774  52.9817611
  55.4366000  36.1405498  62.5772001  56.1432767  35.6457528  62.7058936
  55.6253936  36.5814579  61.8474659  55.5693906  36.1323848  62.4881047
  54.9724105  31.9311016  55.6143197  55.5180065  32.6096103  55.6737167
  54.9140981  31.7898477  54.7544779  55.0440019  32.0103018  55.4955258
  43.5853311  27.6106099  53.5248191  42.9658343  27.0198747  53.3558206
  43.4837175  28.2017534  52.8912514  43.4790987  27.6110182  53.4053180
  50.6821207  29.3505641  47.8580654  51.3801372  29.5293769  48.3502117
  50.9973539  28.8275980  47.2351043  50.8316544  29.2999413  47.8382664
  43.3122444  31.1558381  55.7691760  43.1881141  31.7420826  56.4041579
  43.9640729  30.6618577  56.0704035  43.3896094  31.1697185  55.9077689
  48.8548070  24.7198038  51.9401929  48.5251400  25.1709181  51.2705627
  48.1793072  24.6414201  52.4874935  48.7058507  24.7749173  51.9225152
  56.0624478  20.7083561  50.1851539  55.7477919  21.3987039  50.6171962
  55.5451420  20.6528343  49.4837040  55.9388949  20.8018449  50.1448488
  60.8584965  36.2834366  51.6721994  60.0282668  36.4945010  51.8355411
  60.8094217  35.4571421  51.3964278  60.7291700  36.1923972  51.6559360
  60.3538923  28.9304767  55.4672416  59.5167344  29.0006954  55.7020010
  60.3227154  28.9329261  54.5946718  60.2257206  28.9414994  55.3731964
  46.7503652  31.0737802  61.1820784  46.9224156  30.9643697  62.0306066
  47.2873010  31.7192208  60.9451976  46.8548656  31.1529804  61.2725881
  58.1149280  36.9533720  51.8086710  57.6784512  36.9570463  52.5645681
  57.7812196  37.6339219  51.3766287  58.0011900  37.0546176  51.8567543
  52.6878354  38.9942053  63.1329860  53.4718770  39.1072901  63.4985602
  52.4874948  38.1683190  63.3288546  52.7744379  38.8888773  63.2164246
  58.0346763  23.9947548  54.0516138  58.6772672  24.0645653  54.6378053
  58.2869784  23.3276771  53.5495680  58.1668895  23.9073897  54.0643417
  45.8063976  27.2048112  58.6640712  45.1135772  26.7345091  58.9101443
  46.4224303  26.9786416  59.2382419  45.7948506  27.1015243  58.7849864
  61.2493626  33.6714640  50.7006347  61.9110060  33.1105309  50.6002256
  60.6085038  33.1766671  51.0259038  61.2522494  33.5151049  50.7338687
  57.5358457  34.6880023  50.4418336  57.7714046  34.8325222  49.6145187
  57.6848021  35.4522431  50.8349850  57.5924260  34.8219077  50.3781940
  44.5304535  31.1713516  59.8067557  45.2544507  31.1566546  60.2932452
  44.6320671  31.8808871  59.3089525  44.6522744  31.2738219  59.8046344
  59.3648914  33.5281689  48.2787940  59.6957131  34.0609329  47.6728035
  59.9382002  33.5820576  48.9349891  59.4982593  33.6151258  48.2865722
  51.9049484  34.6512600  64.6716504  51.1122465  34.9656112  64.8569124
  52.0198411  34.8664069  63.8337289  51.8044895  34.7296437  64.5754839
  52.8333277  34.5532804  59.6101801  53.4072138  33.9160048  59.7650365
  52.7548081  34.5536886  58.7411458  52.9066512  34.4597915  59.5048212
  53.2698046  25.0884520  51.7627091  52.5654372  24.5993705  51.9211010
  53.3183020  25.1006994  50.8915535  53.1728097  25.0174168  51.6566431
  50.8304996  29.0117181  57.0080271  50.4419429  28.5871399  56.3532463
  50.1659695  29.2599330  57.5157298  50.6751924  28.9855902  56.9868139
  60.4728265  28.7692186  49.7828101  60.2164830  27.9572127  49.5925984
  61.3157579  28.7769753  49.5558289  60.5594291  28.6504183  49.7212919
  54.6531358  22.7091810  54.5204256  55.0341869  22.0269981  54.9072130
  53.8494642  22.4201412  54.3379920  54.5907819  22.5658858  54.5508312
  58.1553425  35.9241782  59.6186654  57.9192062  35.0929846  59.4998715
  58.7996654  35.8727389  60.2041498  58.2148095  35.7939470  59.6872548
  48.6123198  25.2146008  64.3866864  48.2976639  25.9845571  64.1236427
  48.2913131  24.6516264  63.8019091  48.5182117  25.2456277  64.2608214
  59.1789845  35.7086230  55.6814949  58.8735662  36.4414287  56.0428264
  58.4596061  35.3024160  55.4007735  59.0277188  35.7567963  55.6928086
  64.8791637  32.3479231  55.0083293  64.8116138  32.3675190  54.1385879
  64.8647300  33.1909558  55.2338963  64.8670394  32.4752966  54.9135770
  46.1655095  23.6036529  50.0013060  45.2977521  23.6759129  50.0670670
  46.4530299  24.4058608  50.1901035  46.0794843  23.7330676  50.0387827
  55.2887984  23.7514389  58.3324382  56.0341576  23.5624199  57.9187808
  54.8725288  24.2772627  57.7738239  55.3372958  23.8016534  58.1888955
  62.6650255  31.1223617  53.2829887  63.2158176  30.4891686  53.5226979
  62.6494370  31.6539010  53.9745391  62.7435451  31.1072565  53.4208745
  49.3172646  34.9562214  57.8289781  48.8184339  35.6677982  57.9074669
  50.1272870  35.2762881  57.7907943  49.3628752  35.1089063  57.8346349
  56.3678661  29.3619951  52.3934483  56.0243427  28.6410286  52.7441733
  56.4671703  29.1533802  51.5512842  56.3320704  29.2244154  52.3206163
  48.2439704  27.8143259  63.1252079  47.4339479  28.1201039  63.0141921
  48.7214390  28.5348841  63.2404663  48.1943182  27.9657860  63.1259150
  54.8869626  27.2811536  54.2694026  54.0480727  27.3072815  54.0332290
  54.9573994  27.9282271  54.8499373  54.7738020  27.3807661  54.3203143
  44.5783735  33.3505809  57.9951481  45.0904832  33.6290063  57.3460241
  44.2920078  34.0895103  58.3614294  44.6118599  33.5008163  57.9541359
  53.3338905  24.1796913  49.0021642  54.0365257  23.9804661  48.5241600
  53.0683093  23.4072855  49.3090486  53.3985537  24.0359879  48.9767084
  58.7627150  32.4879522  51.5555268  58.6761125  32.6434948  52.4090047
  58.3077630  33.1317598  51.1814673  58.6830407  32.6055278  51.6262375
  48.0967461  25.4432198  58.0552523  47.9050658  25.4587332  58.9051946
  48.9466057  25.6395872  58.0319178  48.1943183  25.4746549  58.1775818
  42.4814374  27.9723179  56.0336339  42.3399866  27.1207120  56.1580847
  42.7654937  28.0151840  55.2098545  42.5022220  27.8522929  55.9303963
  52.6352966  29.8090270  50.1780828  52.3887681  29.7286020  51.0117616
  52.9638089  29.0243737  49.9843355  52.6474210  29.6816535  50.2728351
  56.5301015  36.5173629  53.9667609  56.3915374  37.2154675  54.4716351
  55.7501013  36.3622285  53.6103791  56.3944242  36.5973796  53.9893883
  54.8679100  32.8170004  60.2189990  54.8627139  31.9449821  60.2232417
  55.5740094  33.0158173  59.7459446  54.9724104  32.7173878  60.1497026
  48.5949994  32.5446988  59.5903811  48.7393369  33.1248196  58.9546921
  48.9425642  32.9223285  60.2953665  48.6677455  32.6867692  59.6002806
  50.7669911  31.7437156  57.3728942  50.0193225  31.9368171  56.9677220
  50.9211436  30.9182376  57.1353064  50.6792338  31.6502268  57.2774348
  51.0071688  25.6387707  58.2624346  51.4644302  26.3711682  58.3897138
  51.0828017  25.2154172  59.0211602  51.0862658  25.6844945  58.3925422
  43.2504679  25.8853527  59.3513790  42.7146869  25.2733885  59.6674557
  43.3122444  26.4601663  60.0047456  43.1800312  25.8800455  59.4949216
  55.4799014  18.8177582  52.1318189  55.5982582  19.2754046  51.3985492
  55.3061190  18.0122844  51.8454407  55.4718185  18.7671355  51.9819123
  48.8854066  27.6289811  55.1066170  48.0950141  27.4481271  55.4283506
  49.2814689  26.8516764  55.0896464  48.8270942  27.4877272  55.1518718
  54.2697752  35.2632241  52.8325616  53.5942754  35.0317474  53.3339003
  54.2790128  34.6553424  52.2067721  54.1716257  35.1391166  52.8141768
  51.3991896  30.1050070  59.5889669  51.3351037  30.9660027  59.4609806
  51.5389084  29.7882063  58.7885220  51.4107366  30.1850237  59.4517882
  55.7789687  36.8794792  65.1454120  56.5924552  36.6079941  65.3059252
  55.6184653  36.5802332  64.3414316  55.8759635  36.7949718  65.0499526
  53.0561849  27.5628449  58.0849508  53.2703819  26.9239363  57.5312862
  52.4395748  28.0074273  57.6557370  52.9967178  27.5338593  57.9399939
  55.2200937  29.1717514  59.0232815  54.4077619  28.8643405  59.1045988
  55.6790872  28.6916514  59.5875527  55.1681322  29.0554007  59.1187409
  52.4476578  20.6728385  53.0736851  51.5770136  20.6467106  53.0270160
  52.7016919  20.5005577  52.2562696  52.3570138  20.6438528  52.9456988
  52.3154444  30.5777586  63.8061517  52.7854076  31.2019702  64.1929392
  52.3616325  29.9094561  64.3654732  52.3922320  30.5712266  63.9461589
  49.4725718  22.6834613  54.5310321  48.9564207  21.9914805  54.6561900
  48.9119647  23.3505390  54.4772920  49.3132231  22.6797871  54.5416387
  51.5417952  23.2227573  56.3603174  51.1549705  23.2476605  57.1416704
  51.0550889  22.6569252  55.9077690  51.4130460  23.1423324  56.4091077
  55.7910931  37.9401082  60.4176960  56.4290652  37.4461278  60.0839416
  55.1485023  37.8678483  59.8329187  55.7905158  37.8560091  60.2819315
  57.5167931  29.7890228  54.9842876  57.0895539  29.7016577  54.2290975
  56.8793984  29.8968004  55.5697720  57.3597538  29.7922888  54.9588317
  51.2075093  20.1094559  58.6513434  51.8368211  20.6454859  58.3734504
  51.3760956  20.0171918  59.5026999  51.3252888  20.1755921  58.7361962
  51.0089008  24.8965753  60.9239845  51.8362438  24.6250902  60.9798460
  51.0296854  25.6926595  61.2803663  51.1341858  24.9745508  60.9855028
  55.8465188  38.6320891  57.0582317  56.6357566  38.2809955  57.1784399
  56.0208785  39.4457279  56.7958951  55.9885469  38.7006748  57.0370185
  54.6999012  22.6430447  51.6198736  54.9048605  22.5752755  52.4655733
  54.3725436  23.4489268  51.5519913  54.6814260  22.7516388  51.7358391
  49.3975163  29.9711015  53.3607703  49.0938300  29.4167004  53.9618111
  48.6954584  30.1503225  52.8735738  49.2491373  29.9155798  53.3777409
  57.9532699  23.1962211  51.1001501  57.3407013  23.6832614  51.4855233
  58.0496874  22.5205702  51.6439152  57.8770597  23.1680520  51.2380359
  51.9551780  24.9525053  46.1999000  52.4095527  25.1235613  46.9246845
  52.4291826  24.3393163  45.7996776  52.0920101  24.8875938  46.2472762
  45.8727929  25.5975376  56.1969756  46.3329410  25.6714306  56.9344880
  45.9184035  26.3956630  55.8469578  45.9478484  25.7269523  56.2542513
  47.5211278  26.2642071  60.7641784  47.1296844  25.6175418  61.1997561
  47.6897141  26.8553506  61.3836039  47.4882189  26.2556339  60.9204490
  61.5957727  34.2679148  56.5279017  61.6540851  34.7165797  57.2738994
  60.9624195  34.6777961  56.0909097  61.5109023  34.3952883  56.5731565
  55.2356822  39.8882690  52.9633763  55.0376511  40.3773505  52.2689975
  54.6144533  40.0923932  53.5417897  55.1144387  39.9899228  52.9456987
  51.2144376  23.4517846  52.3375869  50.3680421  23.6240654  52.2117219
  51.2115508  22.6467190  52.6741697  51.0891526  23.3578875  52.3686996
  52.2842676  27.2293060  53.2037927  51.8102631  26.7034822  53.7143238
  52.6560812  26.6822533  52.6352788  52.2692565  27.0709057  53.1953074
  42.6615706  29.2264567  58.5721473  43.5241319  29.1260276  58.4858802
  42.3307489  28.6459276  58.0107045  42.7400903  29.1256194  58.4766879
  58.5479407  32.2895436  54.6144707  58.3077630  31.4501851  54.6187134
  59.0271414  32.3695603  55.3385481  58.5831591  32.1776836  54.7219510
  54.2126176  28.1229615  46.2663681  53.6849195  28.2058359  45.5769390
  54.6721884  28.8647486  46.2628325  54.2028026  28.2450277  46.1638376
  60.5484594  29.0696893  52.5673966  60.3094364  29.0292727  51.7294751
  60.7118495  29.9168045  52.6939688  60.5374897  29.1888978  52.4627448
  57.1530624  33.4546842  58.4979012  57.8764823  33.0019369  58.3190032
  56.8880586  33.7351508  57.7151340  57.2211897  33.4297811  58.3557727
  46.0217492  28.0507016  55.2331891  45.3970563  28.0625408  54.6257844
  45.6863087  28.5267191  55.8823131  45.8802984  28.1225533  55.2388459
  52.9349414  33.5530721  56.6474027  52.3206407  33.0088771  56.9422662
  53.4516698  33.0394957  56.1679843  52.9205076  33.3967130  56.6198255
  45.2908238  29.6600164  57.4506759  45.4501725  28.9043488  57.8558481
  45.1101131  30.2091103  58.1047497  45.2873597  29.6293978  57.6069465
  53.2328541  21.8261399  58.0057549  52.7369102  22.0225074  57.3149116
  53.9897603  22.2254068  57.8346350  53.2715365  21.9139133  57.8777686
  50.5031420  25.5003745  54.5960859  50.5273908  24.9663858  53.9073639
  50.7542894  24.9921054  55.2586450  50.5441339  25.3464649  54.5925504
  46.7832743  24.2274563  53.9766604  46.8231114  24.7283770  54.6901311
  45.9582407  24.3184957  53.7072527  46.6672269  24.3156380  54.0417142
  48.9662356  33.7935303  62.0786898  48.1157986  33.9307018  62.2144543
  49.1290483  33.0599082  62.5234600  48.8646219  33.7049405  62.1642497
  48.2047106  30.7435073  56.2740503  47.3739036  30.9108891  56.0675751
  48.1498623  30.3671024  57.0589388  48.0736521  30.7124805  56.3589031
  46.0130889  24.2343966  61.9096913  46.6383593  23.6906099  62.1826346
  45.5581369  23.7538884  61.3404704  46.0379150  24.0833448  61.8658507
  59.5865938  32.4173253  57.0009561  60.1783778  33.0570504  57.0327759
  60.0224933  31.7196290  57.2901628  59.7384369  32.4091604  57.0490394
  51.4159328  36.8390626  57.6267455  50.9084419  37.3926472  58.0708086
  51.1185974  36.8998916  56.8086230  51.2964213  36.9296937  57.5715912
  53.5821510  25.2043945  56.4692118  54.0076582  24.7516472  55.8575645
  52.9678503  24.6504016  56.7456906  53.5550155  25.0557921  56.4197144
  52.0215733  21.6759045  49.8782695  51.3784051  21.5256691  50.4467834
  51.6815140  21.4301390  49.1131800  51.8760810  21.6171168  49.8485710
  56.6115079  29.6318472  49.3012704  55.9406269  30.1748174  49.1725769
  57.3054830  30.1013327  49.0594399  56.6143947  29.7816743  49.2468232
  56.7743207  26.0874355  52.2103077  57.1270817  25.6604078  52.8848876
  55.9158008  26.0025199  52.3404153  56.6992652  26.0119096  52.3298088
  54.7726473  29.3509724  56.1587919  54.7524400  29.1693019  57.0122698
  54.8205673  30.2221743  56.1347503  54.7761114  29.4526262  56.2811214
  52.7172803  35.9396916  62.0836396  52.6768657  35.2946593  61.4981552
  53.5296121  35.8833533  62.3961808  52.8315956  35.8355883  62.0433345
  51.2473466  27.7579875  45.6059303  50.6538306  28.0796872  45.0543870
  51.2848744  26.9120971  45.3980409  51.1647855  27.6804203  45.4942074
  58.2067267  21.2092767  53.1387390  57.6998132  20.5021907  53.0708567
  59.0034701  20.8785956  53.2688466  58.2494506  21.0565919  53.1486385
  54.1231283  27.7159380  49.0361053  53.8944976  27.7392081  48.1939412
  54.3829359  26.8916847  49.1556064  54.1277471  27.5975460  48.9286251
  48.4050511  29.5693853  58.6386154  47.8929414  28.9615036  58.9971185
  48.2330007  30.2850445  59.1060129  48.3040148  29.5857152  58.7602377
  43.2516226  28.0131428  61.2888515  43.0818816  28.6732803  60.7436722
  42.8082176  28.2237989  62.0101004  43.1615560  28.1417410  61.3150145
  47.1776045  26.2535926  50.3315249  47.6533412  26.6153006  49.6965430
  46.6764645  26.9092393  50.6115392  47.1741404  26.4030115  50.2791990
  60.4087407  35.7257694  46.1228254  60.7921013  36.4749050  46.3526351
  59.6131520  35.9723514  45.8640243  60.3481189  35.8727388  46.1185828
  52.2819582  27.4918097  61.0788409  52.8391012  27.2631907  60.4466875
  51.9580647  28.2523763  60.8023621  52.3165992  27.5701934  60.9444906
  40.1518290  30.9178294  56.5477005  39.6045010  30.2478939  56.6657873
  40.9410669  30.5508141  56.6120472  40.1870474  30.7643280  56.5745706
  50.0002699  30.5785751  62.0440416  50.7514026  30.8937427  62.3579970
  50.1925275  30.3764921  61.2174338  50.1394113  30.5953132  61.9683812
  56.8487989  26.7059317  49.2864212  56.8482215  26.5507973  50.1448488
  56.6444169  27.5522304  49.2305597  56.8187767  26.8079938  49.4052151
  38.9105260  30.1299101  53.7023028  38.7327021  29.6775710  54.4277944
  38.6224282  30.9325263  53.8861506  38.8418213  30.1821659  53.8366531
  54.5728841  31.3856819  52.9400419  55.0682506  30.6679814  52.9004439
  53.7628617  31.0827616  52.8254905  54.5272734  31.2354465  52.9174144
  56.6380660  34.1360506  55.6277547  57.0635731  33.6134928  55.0747972
  56.2737580  34.7341344  55.1066170  56.6467262  34.1470733  55.4686557
  55.3136244  39.4596084  64.1370777  55.4233209  38.6704644  64.4927524
  55.6427141  39.3702020  63.3345115  55.3788650  39.3301937  64.0713168
  50.1428754  22.6222241  58.9136800  50.2756660  21.8253234  59.2417775
  50.5273907  23.1488644  59.4935075  50.2185083  22.5822158  59.0480302
  53.8633206  37.6412705  58.7206397  53.3154152  37.0170588  58.4526463
  54.3246234  37.8306977  58.0050477  53.8500415  37.5771755  58.5756828
  53.2161109  19.5452567  55.5117893  52.4107073  19.4350297  55.8285731
  53.0867845  19.6465023  54.6547759  53.0781242  19.5436237  55.4325933
  56.6727070  25.7098059  56.1057590  56.0890059  26.2107266  55.6935157
  56.9931364  25.2027615  55.4721913  56.6340245  25.7089894  55.9516097
  47.8017201  22.6181416  57.1614693  48.3461614  22.2772543  57.7519035
  47.8554137  23.4766878  57.3035978  47.8906320  22.6936675  57.2696567
  53.4291532  38.6463777  55.2515739  54.2489906  38.5026743  55.5132034
  53.1485610  39.2709976  55.7932176  53.5088275  38.7174129  55.3703678
  69.9005182  46.3028629  48.2158615  69.8699187  47.1573266  48.3876884
  70.4986531  46.0023922  48.7744759  69.9842340  46.3845126  48.3233417
  63.1004867  45.3904280  52.9711545  62.2442763  45.5512778  53.0220662
  63.1472521  44.5196344  52.9916606  62.9803979  45.2855082  52.9817611
  57.4846007  54.9266998  48.7348777  56.7328906  54.5482536  48.5064822
  57.9332019  54.9585431  47.9867587  57.4395674  54.8752605  48.5906279
  66.4098584  51.6590806  62.5772001  67.1165351  51.1642836  62.7058936
  66.5986519  52.0999887  61.8474659  66.5426489  51.6509156  62.4881047
  62.9370967  55.3492367  44.1634324  62.6022335  56.0269289  43.7278546
  63.4497837  54.9597679  43.5751196  62.9636548  55.3916946  44.0121116
  62.4775258  57.3006636  50.1045436  62.8614637  57.8693535  49.5650211
  62.4134399  56.5756146  49.6251252  62.5248685  57.2782099  49.9539298
  65.9456688  47.4496324  55.6143197  66.4912648  48.1281411  55.6737167
  65.8873565  47.3083785  54.7544779  66.0172603  47.5288326  55.4955258
  59.0630763  54.9385390  51.0011549  59.1641126  54.1285744  51.3108677
  58.4672508  54.8442336  50.3711228  58.9903302  54.8050418  50.9537788
  67.7221757  48.8780931  46.4876925  67.6061283  49.6288617  46.9169063
  68.5177644  48.6204884  46.7373012  67.8226346  48.9515778  46.5881016
  58.9031503  59.8562979  52.4026405  59.5468958  60.2976143  52.7922564
  59.2287758  59.0516405  52.3156664  59.0463331  59.8028174  52.4471883
  59.6052082  52.8674954  47.7746267  59.9267923  53.4080161  47.1707575
  60.2524179  52.2971725  47.9068557  59.7478138  52.8634129  47.7053303
  61.8441726  51.2561394  47.8460445  62.2835361  50.6478495  48.2915218
  61.6946389  50.8768767  47.0745910  61.8863192  51.1099865  47.7979613
  59.3113369  49.8505406  55.0479271  59.9562371  49.3577849  54.7290219
  59.5515146  49.9930192  55.8745349  59.4423954  49.7982848  55.1228804
  61.8499460  52.6960312  54.6986163  62.1322703  51.9011717  54.4772919
  62.5785621  53.1740899  54.7191224  61.9989024  52.6494909  54.6689179
  59.8280654  40.2383346  51.9401929  59.4983984  40.6894489  51.2705627
  59.1525656  40.1599509  52.4874935  59.6791090  40.2934481  51.9225152
  65.4451062  49.6088575  44.7991215  65.3602357  50.4649542  44.9440783
  65.9335446  49.3332899  45.4673374  65.5039960  49.6945897  44.9193296
  67.0357062  36.2268869  50.1851539  66.7210503  36.9172347  50.6171962
  66.5184003  36.1713651  49.4837040  66.9121532  36.3203757  50.1448488
  66.3769496  46.2273370  46.2988950  65.8480967  46.4433003  46.9586256
  66.8994516  46.9209508  46.2189919  66.3757949  46.3616506  46.3844549
  71.8317549  51.8019674  51.6721994  71.0015252  52.0130318  51.8355411
  71.7826801  50.9756729  51.3964278  71.7024284  51.7109280  51.6559360
  53.8213132  55.8391347  51.9020089  53.3380710  56.5641837  51.8779673
  54.6336450  56.1367477  52.0130247  53.8703880  55.9893701  51.9147368
  59.8927286  54.6323528  54.5069904  59.3754228  54.2730943  53.9031212
  60.5901677  54.1085703  54.5175970  59.9192867  54.5021216  54.4200162
  63.5490878  55.0818342  60.4686077  63.6374224  54.8944483  61.3164287
  63.9780591  54.4355772  60.0690924  63.6252980  54.9581350  60.5357828
  61.1161338  54.3649502  59.4503739  60.5532173  53.9522112  59.9743400
  61.8782361  54.2902408  59.8696882  61.1455786  54.2926903  59.5896739
  56.6757329  56.3547523  52.0540369  57.3777909  55.8399512  52.1113126
  56.5954812  56.6821675  52.8587244  56.7681090  56.3261750  52.1813161
  71.3271507  44.4490075  55.4672416  70.4899928  44.5192262  55.7020010
  71.2959738  44.4514569  54.5946718  71.1989789  44.4600302  55.3731964
  57.7236236  46.5923110  61.1820784  57.8956740  46.4829005  62.0306066
  58.2605593  47.2377516  60.9451976  57.8281240  46.6715112  61.2725881
  56.0008105  52.5453875  51.5625977  56.8397004  52.7776808  51.6099739
  56.0319874  51.6758187  51.4933013  56.1289822  52.4510822  51.5590622
  56.6260808  52.9654750  55.8639283  57.1659033  52.8225882  56.5342655
  55.9430754  53.3651501  56.2323309  56.6052962  53.0034421  56.0173704
  62.0693392  37.7092364  47.1552013  62.7979552  37.5308319  46.7090169
  62.1588285  38.5510444  47.3659191  62.1900054  37.8076242  47.1205531
  66.0501693  48.6445751  51.0584307  66.8059208  49.0777265  51.0973216
  66.1564017  47.9950521  51.6318943  66.1771863  48.6123235  51.1482333
  69.0881864  52.4719028  51.8086710  68.6517096  52.4755771  52.5645681
  68.7544779  53.1524527  51.3766287  68.9744484  52.5731484  51.8567543
  63.6610937  54.5127361  63.1329860  64.4451354  54.6258209  63.4985602
  63.4607532  53.6868498  63.3288546  63.7476963  54.4074081  63.2164246
  69.0079347  39.5132856  54.0516138  69.6505255  39.5830961  54.6378053
  69.2602367  38.8462079  53.5495680  69.1401479  39.4259205  54.0643417
  63.8181331  56.4237463  56.7796316  63.0196576  56.1836963  57.0370185
  64.2667342  56.4751856  57.5263364  63.7655942  56.3959854  56.9281240
  72.2226210  49.1899948  50.7006347  72.8842644  48.6290617  50.6002256
  71.5817622  48.6951979  51.0259038  72.2255077  49.0336357  50.7338687
  63.1103018  52.4870080  43.0087270  63.5254166  52.1555103  42.3171766
  62.2794947  52.2538982  42.8807407  63.0491026  52.4041336  42.8878118
  68.5091041  50.2065331  50.4418336  68.7446630  50.3510530  49.6145187
  68.6580604  50.9707739  50.8349850  68.5656844  50.3404385  50.3781940
  70.3381497  49.0466997  48.2787940  70.6689714  49.5794637  47.6728035
  70.9114586  49.1005884  48.9349891  70.4715177  49.1336565  48.2865722
  62.8782068  50.1697908  64.6716504  62.0855048  50.4841420  64.8569124
  62.9930995  50.3849377  63.8337289  62.7777478  50.2481745  64.5754839
  65.5513387  46.8931899  48.9611520  65.6460241  47.6321193  49.4151145
  64.9272230  46.4649375  49.3946084  65.4722417  46.9393220  49.0919667
  63.8065860  50.0718112  59.6101801  64.3804722  49.4345356  59.7650365
  63.7280664  50.0722194  58.7411458  63.8799095  49.9783223  59.5048212
  65.8036408  48.7380639  42.1948472  65.7216570  48.8082826  43.0603459
  66.4416128  49.3010383  42.0032213  65.8856245  48.8319610  42.2938421
  59.1629579  48.5041377  51.6622998  58.9048823  47.6713112  51.6354298
  59.2178062  48.7298990  50.8215499  59.1329357  48.4139148  51.5343135
  64.2430629  40.6069828  51.7627091  63.5386956  40.1179013  51.9211010
  64.2915603  40.6192302  50.8915535  64.1460681  40.5359476  51.6566431
  61.8037580  44.5302489  57.0080271  61.4152013  44.1056707  56.3532463
  61.1392278  44.7784638  57.5157298  61.6484508  44.5041210  56.9868139
  71.4460849  44.2877493  49.7828101  71.1897414  43.4757435  49.5925984
  72.2890163  44.2955061  49.5558289  71.5326874  44.1689491  49.7212919
  65.6263941  38.2277118  54.5204256  66.0074453  37.5455289  54.9072130
  64.8227226  37.9386720  54.3379920  65.5640403  38.0844166  54.5508312
  69.1286008  51.4427090  59.6186654  68.8924646  50.6115154  59.4998715
  69.7729237  51.3912697  60.2041498  69.1880679  51.3124777  59.6872548
  58.7784426  52.2322611  50.3329390  59.4158373  51.9934358  50.8781184
  59.2039498  52.4359770  49.5982551  58.9360593  52.2273621  50.3046548
  53.4697069  54.4710947  54.2163694  53.5101214  54.7425798  53.3883474
  54.0291593  54.9952855  54.6321482  53.5580415  54.5886702  54.1555582
  59.5855782  40.7331316  64.3866864  59.2709223  41.5030879  64.1236427
  59.2645714  40.1701572  63.8019091  59.4914701  40.7641584  64.2608214
  70.1522429  51.2271538  55.6814949  69.8468246  51.9599595  56.0428264
  69.4328644  50.8209468  55.4007735  70.0009771  51.2753271  55.6928086
  61.1605898  52.7095033  52.0123177  61.2344907  52.5470205  52.8665027
  61.9775405  52.8985223  51.7683658  61.2922257  52.7131776  52.1021202
  75.8524221  47.8664539  55.0083293  75.7848721  47.8860498  54.1385879
  75.8379883  48.7094866  55.2338963  75.8402977  47.9938274  54.9135770
  66.2620567  39.2699697  58.3324382  67.0074159  39.0809507  57.9187808
  65.8457872  39.7957935  57.7738239  66.3105542  39.3201842  58.1888955
  59.7010484  55.6729776  46.7436650  59.9908782  55.2818758  46.0195877
  60.4313965  55.8546481  47.1841925  59.8517368  55.6423590  46.7019457
  73.6382838  46.6408925  53.2829887  74.1890760  46.0076994  53.5226979
  73.6226954  47.1724318  53.9745391  73.7168035  46.6257873  53.4208745
  60.2905229  50.4747522  57.8289781  59.7916923  51.1863290  57.9074669
  61.1005453  50.7948189  57.7907943  60.3361336  50.6274371  57.8346349
  57.6416400  57.6497159  49.8096800  57.4216695  57.3594514  50.6023467
  57.4210922  56.9912114  49.2814712  57.5763994  57.5096867  49.8485709
  67.3411245  44.8805259  52.3934483  66.9976010  44.1595594  52.7441733
  67.4404287  44.6719110  51.5512842  67.3053287  44.7429462  52.3206163
  59.8084355  59.0226549  48.5927492  60.4608413  58.4902991  48.8218518
  59.1109964  58.6695201  48.9795366  59.8015073  58.8916072  48.6839660
  67.8024274  51.3430963  47.9358472  68.3682306  52.0024173  47.8517014
  67.1552177  51.6880661  48.4074874  67.7903030  51.4912904  47.9931228
  59.2172287  43.3328567  63.1252079  58.4072063  43.6386347  63.0141921
  59.6946974  44.0534149  63.2404663  59.1675766  43.4843168  63.1259150
  58.0763847  52.5474288  53.3734982  57.5544600  52.6874580  54.0586847
  58.4637867  51.7884952  53.5637099  58.0567548  52.4559812  53.5036058
  64.2730852  54.2869747  47.3595551  64.0317528  53.5537608  46.9522616
  64.4532185  54.8356604  46.7061884  64.2638476  54.2592138  47.2025774
  59.5030172  49.5778307  48.7716473  59.3072955  50.1853041  48.1776776
  59.7264518  48.8846251  48.2908147  59.5064813  49.5655832  48.6132554
  65.8602210  42.7996844  54.2694026  65.0213311  42.8258122  54.0332290
  65.9306577  43.4467579  54.8499373  65.7470603  42.8992969  54.3203143
  64.3071488  39.6982221  49.0021642  65.0097841  39.4989969  48.5241600
  64.0415677  38.9258163  49.3090486  64.3718121  39.5545187  48.9767084
  69.7359734  48.0064830  51.5555268  69.6493708  48.1620256  52.4090047
  69.2810214  48.6502906  51.1814673  69.6562990  48.1240585  51.6262375
  59.0700044  40.9617506  58.0552523  58.8783241  40.9772640  58.9051946
  59.9198640  41.1581180  58.0319178  59.1675766  40.9931857  58.1775818
  63.6085550  45.3275577  50.1780828  63.3620264  45.2471328  51.0117616
  63.9370673  44.5429045  49.9843355  63.6206793  45.2001843  50.2728351
  67.5033599  52.0358937  53.9667609  67.3647958  52.7339983  54.4716351
  66.7233597  51.8807593  53.6103791  67.3676826  52.1159103  53.9893883
  59.5682577  48.0632296  59.5903811  59.7125953  48.6433504  58.9546921
  59.9158226  48.4408593  60.2953665  59.6410038  48.2053000  59.6002806
  61.7402494  47.2622464  57.3728942  60.9925808  47.4553479  56.9677220
  61.8944020  46.4367684  57.1353064  61.6524922  47.1687576  57.2774348
  58.6410332  56.2535068  56.4564837  58.7899896  55.6937984  55.8038242
  59.4210334  56.3327070  56.8397356  58.7784426  56.1820633  56.4161787
  68.9986971  51.3937191  44.7284108  68.6193780  50.6074328  44.7213397
  68.3353217  51.9424048  44.5855752  68.8445446  51.3582015  44.7064905
  61.1663633  56.4249711  57.7349328  61.0907304  55.7558521  58.2900117
  61.0953492  57.1267499  58.2489995  61.1444240  56.4294618  57.8926176
  61.9804271  41.1573015  58.2624346  62.4376886  41.8896989  58.3897138
  62.0560600  40.7339480  59.0211602  62.0595241  41.2030253  58.3925422
  66.4531597  34.3362890  52.1318189  66.5715166  34.7939354  51.3985492
  66.2793773  33.5308152  51.8454407  66.4450768  34.2856662  51.9819123
  61.8233880  54.9450710  48.5672934  62.5883771  54.6760353  48.2455599
  61.7211970  54.4600720  49.2842997  61.9215375  54.8340274  48.6252762
  59.8586649  43.1475119  55.1066170  59.0682724  42.9666579  55.4283506
  60.2547272  42.3702072  55.0896464  59.8003526  43.0062580  55.1518718
  64.3452540  51.9762893  40.5472884  65.1125525  52.0363018  40.1378735
  63.8983849  51.4043335  40.0629202  64.3925967  51.8999469  40.4150594
  65.2430336  50.7817549  52.8325616  64.5675338  50.5502781  53.3339003
  65.2522712  50.1738732  52.2067721  65.1448840  50.6576474  52.8141768
  67.2447070  53.6382682  45.0635794  67.3266908  54.4449668  44.7397245
  67.7296812  53.6578641  45.7876567  67.3284228  53.7603344  45.1222692
  61.0543574  48.3167518  53.7305872  60.6305823  48.5172017  52.9944890
  60.8788429  47.4696365  53.8430172  60.9654454  48.2216299  53.6379562
  60.5555267  59.8318030  56.1927329  61.0451197  59.1328820  56.0102994
  59.9839499  59.5341900  56.7803386  60.5439797  59.6844254  56.2528370
  66.7522271  52.3980100  65.1454120  67.5657136  52.1265249  65.3059252
  66.5917237  52.0987640  64.3414316  66.8492219  52.3135026  65.0499526
  61.0491613  53.5794804  45.3167236  61.1184433  52.7209343  45.4560236
  61.8280068  53.7966685  44.9886260  61.1744463  53.4847668  45.2884393
  64.0294433  43.0813757  58.0849508  64.2436402  42.4424671  57.5312862
  63.4128332  43.5259581  57.6557370  63.9699762  43.0523901  57.9399939
  65.4399100  56.0032505  49.5303729  65.0478892  55.6999221  48.8126595
  65.5952173  56.8401595  49.3408683  65.4052690  56.0816342  49.3960226
  66.1933521  44.6902822  59.0232815  65.3810202  44.3828713  59.1045988
  66.6523455  44.2101822  59.5875527  66.1413905  44.5739315  59.1187409
  65.6038775  52.5682494  49.4709759  65.2453430  52.7397137  50.2473792
  65.1177486  53.0295700  48.9137758  65.4797472  52.6621465  49.5035029
  63.4209161  36.1913693  53.0736851  62.5502719  36.1652414  53.0270160
  63.6749502  36.0190885  52.2562696  63.3302721  36.1623836  52.9456988
  63.2887028  46.0962894  63.8061517  63.7586659  46.7205010  64.1929392
  63.3348908  45.4279869  64.3654732  63.3654904  46.0897574  63.9461589
  60.4458302  38.2019921  54.5310321  59.9296790  37.5100113  54.6561900
  59.8852231  38.8690698  54.4772920  60.2864815  38.1983179  54.5416387
  62.5150535  38.7412881  56.3603174  62.1282288  38.7661913  57.1416704
  62.0283472  38.1754560  55.9077690  62.3863044  38.6608632  56.4091077
  66.7643515  53.4586390  60.4176960  67.4023235  52.9646586  60.0839416
  66.1217606  53.3863791  59.8329187  66.7637741  53.3745399  60.2819315
  68.4900515  45.3075536  54.9842876  68.0628123  45.2201885  54.2290975
  67.8526568  45.4153312  55.5697720  68.3330122  45.3108196  54.9588317
  62.1807677  35.6279867  58.6513434  62.8100795  36.1640167  58.3734504
  62.3493540  35.5357226  59.5026999  62.2985471  35.6941229  58.7361962
  61.9821592  40.4151061  60.9239845  62.8095021  40.1436210  60.9798460
  62.0029438  41.2111903  61.2803663  62.1074442  40.4930816  60.9855028
  66.8197771  54.1506198  57.0582317  67.6090149  53.7995263  57.1784399
  66.9941369  54.9642587  56.7958951  66.9618053  54.2192056  57.0370185
  65.6731595  38.1615755  51.6198736  65.8781189  38.0938063  52.4655733
  65.3458019  38.9674576  51.5519913  65.6546843  38.2701696  51.7358391
  60.3707746  45.4896323  53.3607703  60.0670884  44.9352312  53.9618111
  59.6687167  45.6688533  52.8735738  60.2223956  45.4341106  53.3777409
  58.4326097  52.7046044  58.0679801  58.3246452  52.7148106  58.9341859
  58.6421879  53.5300824  57.8784755  58.4476209  52.8287119  58.1683893
  68.9265283  38.7147519  51.1001501  68.3139597  39.2017922  51.4855233
  69.0229458  38.0391010  51.6439152  68.8503181  38.6865828  51.2380359
  56.4499889  49.9558686  55.5301739  55.8587823  50.5968185  55.5004754
  57.2120913  50.3796304  55.5033038  56.4748150  50.1134525  55.5216886
  56.8460512  41.1160684  56.1969756  57.3061994  41.1899614  56.9344880
  56.8916619  41.9141938  55.8469578  56.9211068  41.2454831  56.2542513
  58.4943862  41.7827379  60.7641784  58.1029427  41.1360726  61.1997561
  58.6629725  42.3738814  61.3836039  58.4614772  41.7741647  60.9204490
  72.5690311  49.7864456  56.5279017  72.6273435  50.2351105  57.2738994
  71.9356779  50.1963269  56.0909097  72.4841606  49.9138191  56.5731565
  66.2089406  55.4067998  52.9633763  66.0109094  55.8958813  52.2689975
  65.5877117  55.6109240  53.5417897  66.0876970  55.5084536  52.9456987
  62.1876960  38.9703154  52.3375869  61.3413005  39.1425962  52.2117219
  62.1848092  38.1652498  52.6741697  62.0624109  38.8764183  52.3686996
  63.2575260  42.7478368  53.2037927  62.7835214  42.2220130  53.7143238
  63.6293396  42.2007841  52.6352788  63.2425149  42.5894365  53.1953074
  69.5211990  47.8080744  54.6144707  69.2810213  46.9687159  54.6187134
  70.0003998  47.8880911  55.3385481  69.5564174  47.6962144  54.7219510
  65.1858760  43.6414923  46.2663681  64.6581778  43.7243667  45.5769390
  65.6454468  44.3832794  46.2628325  65.1760610  43.7635585  46.1638376
  71.5217178  44.5882201  52.5673966  71.2826947  44.5478035  51.7294751
  71.6851079  45.4353353  52.6939688  71.5107481  44.7074286  52.4627448
  68.1263208  48.9732150  58.4979012  68.8497407  48.5204677  58.3190032
  67.8613170  49.2536816  57.7151340  68.1944481  48.9483119  58.3557727
  64.7395842  52.2118486  45.3973338  65.4630041  52.6776599  45.2537911
  64.2996433  52.2792096  44.6470935  64.7811534  52.2902323  45.2658119
  63.9081997  49.0716029  56.6474027  63.2938990  48.5274079  56.9422662
  64.4249282  48.5580265  56.1679843  63.8937660  48.9152438  56.6198255
  63.1478294  50.1420299  54.3818325  62.7205902  49.5170017  53.9483761
  63.1403239  49.8595221  55.2077333  63.0837435  50.0073079  54.4398153
  64.2061124  37.3446707  58.0057549  63.7101686  37.5410381  57.3149116
  64.9630186  37.7439376  57.8346350  64.2447949  37.4324441  57.8777686
  61.4764004  41.0189053  54.5960859  61.5006491  40.4849165  53.9073639
  61.7275478  40.5106362  55.2586450  61.5173923  40.8649957  54.5925504
  57.7565326  39.7459871  53.9766604  57.7963698  40.2469078  54.6901311
  56.9314991  39.8370265  53.7072527  57.6404852  39.8341688  54.0417142
  59.9394939  49.3120611  62.0786898  59.0890570  49.4492326  62.2144543
  60.1023067  48.5784390  62.5234600  59.8378803  49.2234713  62.1642497
  59.1779690  46.2620381  56.2740503  58.3471619  46.4294199  56.0675751
  59.1231207  45.8856332  57.0589388  59.0469104  46.2310113  56.3589031
  56.9863473  39.7529274  61.9096913  57.6116176  39.2091407  62.1826346
  56.5313953  39.2724192  61.3404704  57.0111733  39.6018755  61.8658507
  70.5598522  47.9358561  57.0009561  71.1516362  48.5755812  57.0327759
  70.9957516  47.2381598  57.2901628  70.7116953  47.9276912  57.0490394
  62.3891911  52.3575934  57.6267455  61.8817003  52.9111780  58.0708086
  62.0918558  52.4184223  56.8086230  62.2696796  52.4482245  57.5715912
  64.9999692  56.2739191  45.5571399  64.2829001  56.1000054  45.0918636
  65.6506429  56.0391764  45.0246885  64.9901542  56.2134984  45.4100617
  62.9948317  37.1944353  49.8782695  62.3516634  37.0441999  50.4467834
  62.6547723  36.9486698  49.1131800  62.8493394  37.1356475  49.8485710
  67.5847663  45.1503780  49.3012704  66.9138853  45.6933482  49.1725769
  68.2787413  45.6198635  49.0594399  67.5876530  45.3002051  49.2468232
  61.6334397  57.2900492  54.5324462  61.4100051  56.5319321  54.9008489
  61.1444240  57.3198513  53.8104902  61.5277846  57.1822716  54.4801203
  67.7475790  41.6059663  52.2103077  68.1003401  41.1789386  52.8848876
  66.8890592  41.5210507  52.3404153  67.6725235  41.5304404  52.3298088
  63.6905386  51.4582224  62.0836396  63.6501241  50.8131901  61.4981552
  64.5028704  51.4018841  62.3961808  63.8048540  51.3541191  62.0433345
  60.2812854  57.5100950  51.9861547  59.8673252  56.8475080  51.5965388
  60.9660228  57.6578809  51.4657241  60.3211225  57.4341608  51.8518044
  63.6478148  56.6691035  52.7385163  63.2494431  56.7793306  51.9705984
  63.0329367  56.8773102  53.3211723  63.4977037  56.7164603  52.7116463
  69.1799851  36.7278075  53.1387390  68.6730715  36.0207215  53.0708567
  69.9767284  36.3971264  53.2688466  69.2227090  36.5751227  53.1486385
  65.0963866  43.2344688  49.0361053  64.8677559  43.2577389  48.1939412
  65.3561943  42.4102155  49.1556064  65.1010054  43.1160767  48.9286251
  59.3783095  45.0879161  58.6386154  58.8661998  44.4800344  58.9971185
  59.2062591  45.8035753  59.1060129  59.2772732  45.1042460  58.7602377
  54.2248810  43.5316736  61.2888515  54.0551400  44.1918111  60.7436722
  53.7814759  43.7423297  62.0101004  54.1348143  43.6602718  61.3150145
  71.3819990  51.2443002  46.1228254  71.7653596  51.9934358  46.3526351
  70.5864104  51.4908822  45.8640243  71.3213773  51.3912696  46.1185828
  63.2552165  43.0103405  61.0788409  63.8123595  42.7817215  60.4466875
  62.9313230  43.7709071  60.8023621  63.2898575  43.0887242  60.9444906
  60.9735282  46.0971059  62.0440416  61.7246609  46.4122735  62.3579970
  61.1657859  45.8950229  61.2174338  61.1126697  46.1138440  61.9683812
  67.8220573  42.2244625  49.2864212  67.8214799  42.0693281  50.1448488
  67.6176753  43.0707612  49.2305597  67.7920350  42.3265246  49.4052151
  65.5461425  46.9042127  52.9400419  66.0415090  46.1865122  52.9004439
  64.7361200  46.6012924  52.8254905  65.5005318  46.7539773  52.9174144
  67.6113243  49.6545814  55.6277547  68.0368315  49.1320236  55.0747972
  67.2470163  50.2526652  55.1066170  67.6199846  49.6656041  55.4686557
  64.1991843  53.3680078  51.9578705  64.6703021  54.0820341  52.1268690
  64.5352021  52.7678829  52.4938574  64.3186958  53.3851543  52.0611081
  66.2868828  54.9781392  64.1370777  66.3965793  54.1889952  64.4927524
  66.6159724  54.8887328  63.3345115  66.3521233  54.8487245  64.0713168
  61.1161338  38.1407549  58.9136800  61.2489243  37.3438542  59.2417775
  61.5006491  38.6673952  59.4935075  61.1917667  38.1007466  59.0480302
  64.8365789  53.1598013  58.7206397  64.2886735  52.5355896  58.4526463
  65.2978818  53.3492285  58.0050477  64.8232999  53.0957063  58.5756828
  64.1893693  35.0637875  55.5117893  63.3839657  34.9535605  55.8285731
  64.0600429  35.1650331  54.6547759  64.0513826  35.0621545  55.4325933
  67.6459654  41.2283367  56.1057590  67.0622642  41.7292573  55.6935157
  67.9663948  40.7212923  55.4721913  67.6072829  41.2275202  55.9516097
  58.7749785  38.1366724  57.1614693  59.3194198  37.7957851  57.7519035
  58.8286720  38.9952186  57.3035978  58.8638904  38.2121983  57.2696567
  54.5880343  51.8983140  54.0353501  55.1925201  51.8578974  53.4067322
  54.3807656  52.7454292  54.0657557  54.6469241  52.0171143  53.9469618
  64.4024116  54.1649085  55.2515739  65.2222489  54.0212051  55.5132034
  64.1218193  54.7895284  55.7932176  64.4820859  54.2359437  55.3703678
  74.0737451  60.9089588  52.9711545  73.2175346  61.0698086  53.0220662
  74.1205104  60.0381652  52.9916606  73.9536562  60.8040390  52.9817611
  68.4578590  70.4452306  48.7348777  67.7061490  70.0667844  48.5064822
  68.9064602  70.4770739  47.9867587  68.4128257  70.3937913  48.5906279
  76.9189272  62.9681632  55.6143197  77.4645232  63.6466718  55.6737167
  76.8606148  62.8269093  54.7544779  76.9905186  63.0473634  55.4955258
  70.0363347  70.4570698  51.0011549  70.1373710  69.6471052  51.3108677
  69.4405092  70.3627644  50.3711228  69.9635885  70.3235726  50.9537788
  63.2328391  66.4790985  50.6263883  62.9978575  65.6458637  50.5196152
  63.3714032  66.7595650  49.8125084  63.2184053  66.3974488  50.4906238
  65.5318478  58.6476715  53.5248191  64.9123510  58.0569362  53.3558206
  65.4302342  59.2388150  52.8912514  65.4256154  58.6480798  53.4053180
  70.5784666  68.3860262  47.7746267  70.9000507  68.9265469  47.1707575
  71.2256762  67.8157033  47.9068557  70.7210721  68.3819437  47.7053303
  72.6286374  60.3876257  47.8580654  73.3266539  60.5664384  48.3502117
  72.9438707  59.8646596  47.2351043  72.7781711  60.3370029  47.8382664
  65.2587611  62.1928997  55.7691760  65.1346308  62.7791442  56.4041579
  65.9105896  61.6989193  56.0704035  65.3361261  62.2067801  55.9077689
  72.8174309  66.7746702  47.8460445  73.2567945  66.1663802  48.2915218
  72.6678972  66.3954075  47.0745910  72.8595775  66.6285173  47.7979613
  70.2845952  65.3690714  55.0479271  70.9294955  64.8763157  54.7290219
  70.5247729  65.5115500  55.8745349  70.4156538  65.3168156  55.1228804
  72.8232044  68.2145620  54.6986163  73.1055287  67.4197025  54.4772919
  73.5518204  68.6926207  54.7191224  72.9721607  68.1680217  54.6689179
  70.8013238  55.7568654  51.9401929  70.4716568  56.2079797  51.2705627
  70.1258239  55.6784817  52.4874935  70.6523674  55.8119789  51.9225152
  76.4183646  65.1273883  44.7991215  76.3334941  65.9834850  44.9440783
  76.9068029  64.8518207  45.4673374  76.4772543  65.2131205  44.9193296
  78.0089645  51.7454176  50.1851539  77.6943086  52.4357655  50.6171962
  77.4916587  51.6898959  49.4837040  77.8854116  51.8389065  50.1448488
  77.3502079  61.7458677  46.2988950  76.8213551  61.9618311  46.9586256
  77.8727099  62.4394816  46.2189919  77.3490532  61.8801814  46.3844549
  69.2401687  65.6421894  45.0996418  68.6558902  66.1471926  45.5062282
  68.8371782  65.4164281  44.3593010  69.0940991  65.6830142  45.0501443
  64.7945716  71.3576655  51.9020089  64.3113294  72.0827145  51.8779673
  65.6069034  71.6552785  52.0130247  64.8436463  71.5079009  51.9147368
  70.8659870  70.1508836  54.5069904  70.3486811  69.7916251  53.9031212
  71.5634261  69.6271010  54.5175970  70.8925451  70.0206524  54.4200162
  73.6978901  61.8887546  43.5765338  73.9374905  62.0965530  42.7640681
  74.0194742  61.0845055  43.6854283  73.7816059  61.8001647  43.4725891
  69.0069192  53.8180942  47.4224876  69.7615160  54.1859259  47.1841926
  68.8296726  54.1920496  48.1904056  69.0923670  53.9279130  47.5009765
  67.6489913  71.8732831  52.0540369  68.3510492  71.3584820  52.1113126
  67.5687396  72.2006983  52.8587244  67.7413673  71.8447057  52.1813161
  68.6968819  62.1108418  61.1820784  68.8689323  62.0014313  62.0306066
  69.2338177  62.7562824  60.9451976  68.8013823  62.1900420  61.2725881
  67.3626256  56.2251261  44.1202989  67.1801830  56.4423142  43.2943982
  68.2251869  56.3390274  44.1761604  67.4630846  56.2741159  44.0057476
  66.9740688  68.0639183  51.5625977  67.8129588  68.2962116  51.6099739
  67.0052457  67.1943495  51.4933013  67.1022406  67.9696130  51.5590622
  67.5993391  68.4840058  55.8639283  68.1391616  68.3411189  56.5342655
  66.9163338  68.8836809  56.2323309  67.5785545  68.5219729  56.0173704
  73.0425976  53.2277672  47.1552013  73.7712136  53.0493627  46.7090169
  73.1320868  54.0695751  47.3659191  73.1632638  53.3261550  47.1205531
  77.0234276  64.1631059  51.0584307  77.7791791  64.5962573  51.0973216
  77.1296601  63.5135829  51.6318943  77.1504447  64.1308543  51.1482333
  63.0030536  64.7040349  56.0173704  62.7368952  63.8879466  56.1764694
  63.0169101  64.7493505  55.1469220  62.9655259  64.5897254  55.9127186
  66.9088283  59.5025434  42.6325462  66.1946460  59.2163613  43.0447895
  67.3932252  59.8422059  43.2731850  66.8747647  59.5107083  42.7881097
  67.7529143  58.2418727  58.6640712  67.0600940  57.7715707  58.9101443
  68.3689470  58.0157032  59.2382419  67.7413673  58.1385859  58.7849864
  74.0835601  68.0055388  43.0087270  74.4986750  67.6740411  42.3171766
  73.2527531  67.7724290  42.8807407  74.0223610  67.9226644  42.8878118
  63.4123950  65.4899129  53.2985448  63.2299523  65.4646015  52.4457741
  64.1473619  65.9598066  53.3374357  63.4938014  65.5560491  53.1783367
  66.4769702  62.2084131  59.8067557  67.2009674  62.1937162  60.2932452
  66.5785838  62.9179487  59.3089525  66.5987911  62.3108835  59.8046344
  76.5245970  62.4117207  48.9611520  76.6192824  63.1506501  49.4151145
  75.9004814  61.9834683  49.3946084  76.4455000  62.4578528  49.0919667
  63.3794860  62.3692629  53.4484515  63.9568363  62.2329080  54.0876760
  62.6808922  61.9128413  53.7030099  63.3615882  62.2814895  53.5806805
  76.7768991  64.2565947  42.1948472  76.6949154  64.3268134  43.0603459
  77.4148712  64.8195691  42.0032213  76.8588829  64.3504918  42.2938421
  70.1362163  64.0226685  51.6622998  69.8781407  63.1898420  51.6354298
  70.1910645  64.2484298  50.8215499  70.1061940  63.9324456  51.5343135
  75.2163213  56.1255136  51.7627091  74.5119539  55.6364321  51.9211010
  75.2648187  56.1377610  50.8915535  75.1193264  56.0544784  51.6566431
  69.1096875  61.5764447  52.1487893  68.5346466  61.7356616  52.7851854
  68.7332551  60.9399857  51.6856344  68.9699687  61.5062260  52.1742451
  72.7770163  60.0487797  57.0080271  72.3884596  59.6242014  56.3532463
  72.1124862  60.2969946  57.5157298  72.6217091  60.0226518  56.9868139
  58.8553694  61.2204522  50.1632334  58.9413945  60.8436391  50.9445864
  59.4829491  60.8464968  49.6852292  58.9610245  61.1090004  50.2077811
  76.5996525  53.7462425  54.5204256  76.9807037  53.0640597  54.9072130
  75.7959809  53.4572028  54.3379920  76.5372987  53.6029474  54.5508312
  73.8809102  64.2786401  45.2057078  74.6949740  64.5701294  45.0939850
  73.8168243  63.6246264  44.6315371  73.9911841  64.2251596  45.1045916
  69.7517010  67.7507919  50.3329390  70.3890957  67.5119666  50.8781184
  70.1772081  67.9545078  49.5982551  69.9093176  67.7458929  50.3046548
  64.4429652  69.9896255  54.2163694  64.4833798  70.2611106  53.3883474
  65.0024176  70.5138163  54.6321482  64.5312998  70.1072010  54.1555582
  70.3919825  62.9710209  44.6704280  70.7764978  62.7517915  45.4220825
  70.1431445  63.7973154  44.8005356  70.4121897  63.0608355  44.8005356
  70.5588365  56.2516624  64.3866864  70.2441806  57.0216186  64.1236427
  70.2378298  55.6886880  63.8019091  70.4647284  56.2826892  64.2608214
  72.1338482  68.2280341  52.0123177  72.2077490  68.0655513  52.8665027
  72.9507988  68.4170531  51.7683658  72.2654840  68.2317084  52.1021202
  65.8944239  68.5738204  49.0417620  65.0682356  68.8199941  48.9151899
  65.9556230  68.4950285  49.9079678  65.7818405  68.5983153  49.1506565
  68.1120262  54.6407145  50.0013060  67.2442688  54.7129745  50.0670670
  68.3995467  55.4429224  50.1901035  68.0260010  54.7701292  50.0387827
  77.2353151  54.7885005  58.3324382  77.9806743  54.5994815  57.9187808
  76.8190456  55.3143243  57.7738239  77.2838125  54.8387150  58.1888955
  70.6743068  71.1915084  46.7436650  70.9641366  70.8004066  46.0195877
  71.4046548  71.3731789  47.1841925  70.8249952  71.1608898  46.7019457
  71.2637813  65.9932830  57.8289781  70.7649506  66.7048598  57.9074669
  72.0738037  66.3133497  57.7907943  71.3093919  66.1459679  57.8346349
  68.6148983  73.1682467  49.8096800  68.3949279  72.8779822  50.6023467
  68.3943505  72.5097422  49.2814712  68.5496577  73.0282175  49.8485709
  67.5265930  65.2555783  52.0752502  67.2379179  64.6293255  52.6098229
  68.3949278  65.1976071  52.1417182  67.6126182  65.1543328  52.1643456
  78.3143828  60.3990567  52.3934483  77.9708594  59.6780902  52.7441733
  78.4136871  60.1904418  51.5512842  78.2785871  60.2614770  52.3206163
  67.7298204  66.8951034  47.9994867  68.4844172  67.2764073  48.2130329
  67.1368816  67.3462178  48.4541563  67.7534917  67.0179862  48.0977745
  70.1904871  58.8513875  63.1252079  69.3804646  59.1571654  63.0141921
  70.6679557  59.5719457  63.2404663  70.1408349  59.0028476  63.1259150
  69.0496430  68.0659596  53.3734982  68.5277184  68.2059887  54.0586847
  69.4370451  67.3070260  53.5637099  69.0300131  67.9745120  53.5036058
  66.0387614  58.1165404  47.4429937  65.7512410  57.7466675  46.7061884
  66.7258083  58.5860260  47.1813642  66.0976512  58.1312374  47.2945012
  70.4762756  65.0963615  48.7716473  70.2805539  65.7038349  48.1776776
  70.6997101  64.4031559  48.2908147  70.4797397  65.0841140  48.6132554
  68.8741286  61.9818353  48.8897341  69.5963938  62.1459511  48.4301147
  68.3949279  62.7028018  48.7836681  68.9105017  62.1116582  48.8062955
  76.8334794  58.3182151  54.2694026  75.9945894  58.3443430  54.0332290
  76.9039161  58.9652887  54.8499373  76.7203187  58.4178277  54.3203143
  66.5248903  64.3876425  57.9951481  67.0370000  64.6660678  57.3460241
  66.2385245  65.1265719  58.3614294  66.5583766  64.5378779  57.9541359
  75.2804072  55.2167529  49.0021642  75.9830425  55.0175277  48.5241600
  75.0148261  54.4443471  49.3090486  75.3450704  55.0730495  48.9767084
  63.6115809  58.8946617  48.2915218  63.7131945  59.6972778  48.6196193
  64.4071696  58.6933953  47.9938298  63.7443715  58.9832516  48.2950573
  70.0432628  56.4802814  58.0552523  69.8515825  56.4957948  58.9051946
  70.8931224  56.6766488  58.0319178  70.1408350  56.5117165  58.1775818
  64.4279541  59.0093795  56.0336339  64.2865033  58.1577736  56.1580847
  64.7120104  59.0522456  55.2098545  64.4487387  58.8893545  55.9303963
  74.5818133  60.8460885  50.1780828  74.3352848  60.7656636  51.0117616
  74.9103256  60.0614353  49.9843355  74.5939377  60.7187151  50.2728351
  70.5415161  63.5817604  59.5903811  70.6858536  64.1618812  58.9546921
  70.8890809  63.9593901  60.2953665  70.6142622  63.7238308  59.6002806
  72.7135078  62.7807772  57.3728942  71.9658392  62.9738787  56.9677220
  72.8676603  61.9552992  57.1353064  72.6257506  62.6872884  57.2774348
  72.9536855  56.6758323  58.2624346  73.4109469  57.4082297  58.3897138
  73.0293184  56.2524788  59.0211602  73.0327825  56.7215561  58.3925422
  65.1969846  56.9224143  59.3513790  64.6612036  56.3104501  59.6674557
  65.2587611  57.4972279  60.0047456  65.1265479  56.9171071  59.4949216
  77.4264181  49.8548198  52.1318189  77.5447749  50.3124662  51.3985492
  77.2526357  49.0493459  51.8454407  77.4183352  49.8041970  51.9819123
  72.7966463  70.4636018  48.5672934  73.5616354  70.1945661  48.2455599
  72.6944553  69.9786028  49.2842997  72.8947959  70.3525582  48.6252762
  70.8319233  58.6660427  55.1066170  70.0415308  58.4851887  55.4283506
  71.2279856  57.8887380  55.0896464  70.7736109  58.5247888  55.1518718
  75.3185124  67.4948201  40.5472884  76.0858109  67.5548326  40.1378735
  74.8716433  66.9228643  40.0629202  75.3658551  67.4184777  40.4150594
  76.2162919  66.3002857  52.8325616  75.5407921  66.0688089  53.3339003
  76.2255295  65.6924040  52.2067721  76.1181424  66.1761782  52.8141768
  72.0276157  63.8352825  53.7305872  71.6038406  64.0357324  52.9944890
  71.8521012  62.9881673  53.8430172  71.9387038  63.7401607  53.6379562
  67.3158602  64.3304877  49.1633844  67.4723221  64.2651680  50.0189836
  67.6559195  65.1053429  48.9512524  67.3891837  64.4354075  49.2588438
  73.8537747  63.7062760  48.0327208  74.3953292  63.2033142  48.4965828
  74.1684306  63.6527955  47.2216693  73.9802144  63.6242181  47.9811020
  72.0224196  69.0980112  45.3167236  72.0917017  68.2394650  45.4560236
  72.8012652  69.3151993  44.9886260  72.1477047  69.0032976  45.2884393
  75.0027016  58.5999065  58.0849508  75.2168986  57.9609979  57.5312862
  74.3860915  59.0444889  57.6557370  74.9432345  58.5709209  57.9399939
  63.8892864  61.5139827  49.4794612  64.2691828  61.9324372  48.8154879
  63.3148228  62.0953283  49.7863455  63.8604188  61.6617686  49.4271352
  77.1666104  60.2088130  59.0232815  76.3542786  59.9014021  59.1045988
  77.6256039  59.7287130  59.5875527  77.1146489  60.0924623  59.1187409
  76.5771359  68.0867802  49.4709759  76.2186014  68.2582445  50.2473792
  76.0910070  68.5481008  48.9137758  76.4530056  68.1806773  49.5035029
  74.3941745  51.7099001  53.0736851  73.5235303  51.6837722  53.0270160
  74.6482086  51.5376193  52.2562696  74.3035305  51.6809144  52.9456988
  71.3659724  63.7666968  42.0109994  71.6552249  64.5431850  42.2853568
  71.4531523  63.2555699  42.7124493  71.4213980  63.8058886  42.1552492
  71.4190885  53.7205229  54.5310321  70.9029374  53.0285421  54.6561900
  70.8584814  54.3876006  54.4772920  71.2597399  53.7168487  54.5416387
  73.4883119  54.2598189  56.3603174  73.1014872  54.2847221  57.1416704
  73.0016056  53.6939868  55.9077690  73.3595628  54.1793940  56.4091077
  73.1540260  51.1465175  58.6513434  73.7833378  51.6825475  58.3734504
  73.3226123  51.0542534  59.5026999  73.2718055  51.2126537  58.7361962
  72.9554175  55.9336369  60.9239845  73.7827605  55.6621518  60.9798460
  72.9762021  56.7297211  61.2803663  73.0807025  56.0116124  60.9855028
  67.5323665  63.0800232  54.1110106  66.6911672  62.9804106  54.3189000
  67.7413673  63.8495712  54.4624427  67.4388358  63.1792275  54.1937421
  65.0099232  60.7019769  51.9394857  64.6155930  60.7762781  51.1644966
  64.4539349  61.0877715  52.4903218  64.8702044  60.7701544  51.9062516
  76.6464179  53.6801063  51.6198736  76.8513772  53.6123371  52.4655733
  76.3190603  54.4859884  51.5519913  76.6279427  53.7887004  51.7358391
  71.3440330  61.0081631  53.3607703  71.0403468  60.4537620  53.9618111
  70.6419751  61.1873841  52.8735738  71.1956540  60.9526414  53.3777409
  70.4006427  58.3182151  47.9252405  70.6766161  57.6001064  47.5129973
  71.0005096  58.9167071  47.7173511  70.5299692  58.3002522  47.8333166
  73.9016948  55.9895668  46.1999000  74.3560694  56.1606229  46.9246845
  74.3756993  55.3763779  45.7996776  74.0385268  55.9246554  46.2472762
  67.4232473  65.4743994  55.5301739  66.8320406  66.1153493  55.5004754
  68.1853497  65.8981612  55.5033038  67.4480734  65.6319833  55.5216886
  67.8193096  56.6345992  56.1969756  68.2794577  56.7084922  56.9344880
  67.8649203  57.4327246  55.8469578  67.8943651  56.7640139  56.2542513
  69.4676446  57.3012687  60.7641784  69.0762011  56.6546034  61.1997561
  69.6362308  57.8924122  61.3836039  69.4347356  57.2926955  60.9204490
  71.2429968  62.6938203  47.3044008  71.9872013  63.0812479  47.5426957
  71.3890664  61.8495628  47.4684495  71.3740553  62.6268676  47.3637977
  73.1609543  54.4888462  52.3375869  72.3145588  54.6611270  52.2117219
  73.1580676  53.6837805  52.6741697  73.0356693  54.3949491  52.3686996
  74.2307843  58.2663676  53.2037927  73.7567798  57.7405438  53.7143238
  74.6025979  57.7193149  52.6352788  74.2157732  58.1079673  53.1953074
  64.6080874  60.2635183  58.5721473  65.4706487  60.1630892  58.4858802
  64.2772657  59.6829892  58.0107045  64.6866070  60.1626810  58.4766879
  76.1591343  59.1600231  46.2663681  75.6314362  59.2428975  45.5769390
  76.6187051  59.9018102  46.2628325  76.1493194  59.2820893  46.1638376
  67.9682660  59.0877632  55.2331891  67.3435730  59.0996024  54.6257844
  67.6328254  59.5637807  55.8823131  67.8268151  59.1596149  55.2388459
  68.1524408  57.4302750  41.2904576  67.8037213  58.0822476  41.7536125
  67.6720854  57.4159863  40.5628447  68.0294652  57.5245804  41.2515667
  64.6808335  67.1478092  56.6735655  64.1508260  66.4570531  56.7230630
  64.9533428  67.1388277  55.8448364  64.6433057  67.0445224  56.5583071
  75.7128426  67.7303794  45.3973338  76.4362625  68.1961907  45.2537911
  75.2729017  67.7977404  44.6470935  75.7544118  67.8087631  45.2658119
  74.8814581  64.5901337  56.6474027  74.2671574  64.0459387  56.9422662
  75.3981866  64.0765573  56.1679843  74.8670243  64.4337746  56.6198255
  74.1210878  65.6605607  54.3818325  73.6938486  65.0355325  53.9483761
  74.1135822  65.3780528  55.2077333  74.0570019  65.5258387  54.4398153
  67.2373405  60.6970780  57.4506759  67.3966892  59.9414104  57.8558481
  67.0566299  61.2461719  58.1047497  67.2338764  60.6664593  57.6069465
  75.1793708  52.8632015  58.0057549  74.6834269  53.0595689  57.3149116
  75.9362770  53.2624683  57.8346350  75.2180533  52.9509749  57.8777686
  72.4496588  56.5374361  54.5960859  72.4739075  56.0034473  53.9073639
  72.7008061  56.0291670  55.2586450  72.4906506  56.3835265  54.5925504
  59.9604177  63.8205856  54.0304003  59.8547626  63.7752700  53.1656087
  59.2104397  64.1659637  54.3118288  59.8339780  63.8646764  53.9441333
  68.7297910  55.2645179  53.9766604  68.7696281  55.7654386  54.6901311
  67.9047574  55.3555573  53.7072527  68.6137436  55.3526996  54.0417142
  70.1512273  61.7805689  56.2740503  69.3204203  61.9479507  56.0675751
  70.0963790  61.4041640  57.0589388  70.0201688  61.7495420  56.3589031
  67.9596056  55.2714582  61.9096913  68.5848760  54.7276715  62.1826346
  67.5046536  54.7909500  61.3404704  67.9844317  55.1204063  61.8658507
  68.5248317  60.0561281  46.8030620  68.6651278  60.5533745  47.5059262
  69.0230850  59.3547575  46.9444834  68.6189398  60.0263259  46.9282199
  68.5548539  60.9228392  44.1323197  69.1893619  61.5188817  44.0672659
  68.6374150  60.6231849  44.9469067  68.6605090  60.9669300  44.2426284
  70.1327522  56.8542367  44.1068639  70.4543363  56.3745450  43.4527902
  70.3954466  57.6642013  43.9159451  70.2193548  56.9032265  43.9824131
  75.5286677  56.2414561  56.4692118  75.9541749  55.7887088  55.8575645
  74.9143670  55.6874632  56.7456906  75.5015323  56.0928537  56.4197144
  65.0601527  63.1196232  47.4012743  65.5693757  63.7160740  47.7824049
  65.5335800  62.8522206  46.7189163  65.2044903  63.1682048  47.3567266
  73.9680900  52.7129661  49.8782695  73.3249218  52.5627307  50.4467834
  73.6280307  52.4672006  49.1131800  73.8225977  52.6541783  49.8485710
  67.4192059  59.7552491  50.2685924  66.7004048  60.1716624  50.5358787
  67.7904421  60.3206730  49.7177562  67.3683991  59.9001772  50.2268731
  76.7191640  60.3880340  56.1587919  76.6989567  60.2063635  57.0122698
  76.7670841  61.2592358  56.1347503  76.7226281  60.4896878  56.2811214
  73.1938633  58.7950491  45.6059303  72.6003473  59.1167487  45.0543870
  73.2313911  57.9491586  45.3980409  73.1113022  58.7174819  45.4942074
  76.0696450  58.7529995  49.0361053  75.8410143  58.7762697  48.1939412
  76.3294526  57.9287462  49.1556064  76.0742638  58.6346075  48.9286251
  70.3515678  60.6064468  58.6386154  69.8394581  59.9985651  58.9971185
  70.1795175  61.3221061  59.1060129  70.2505315  60.6227768  58.7602377
  65.1981393  59.0502044  61.2888515  65.0283983  59.7103419  60.7436722
  64.7547343  59.2608605  62.0101004  65.1080727  59.1788026  61.3150145
  69.1241212  57.2906542  50.3315249  69.5998579  57.6523622  49.6965430
  68.6229812  57.9463009  50.6115392  69.1206571  57.4400731  50.2791990
  74.2284749  58.5288713  61.0788409  74.7856179  58.3002523  60.4466875
  73.9045814  59.2894379  60.8023621  74.2631159  58.6072550  60.9444906
  62.0983458  61.9548909  56.5477005  61.5510177  61.2849555  56.6657873
  62.8875836  61.5878757  56.6120472  62.1335641  61.8013896  56.5745706
  71.1667866  59.4347742  43.6988633  71.5466830  59.4527371  42.9139748
  70.4260462  59.8801730  43.5779480  71.1136703  59.5029516  43.5652201
  78.7953156  57.7429933  49.2864212  78.7947383  57.5878589  50.1448488
  78.5909336  58.5892920  49.2305597  78.7652934  57.8450553  49.4052151
  60.8570427  61.1669717  53.7023028  60.6792188  60.7146326  54.4277944
  60.5689449  61.9695879  53.8861506  60.7883380  61.2192275  53.8366531
  76.5194008  62.4227435  52.9400419  77.0147673  61.7050430  52.9004439
  75.7093784  62.1198232  52.8254905  76.4737901  62.2725081  52.9174144
  71.9652620  66.2725248  45.0897423  71.1563942  65.9491921  45.0430732
  72.4727529  65.5658470  45.0225672  71.9202286  66.1206564  45.0727717
  62.5942897  63.6997441  50.8144787  61.7288416  63.6883131  50.7027558
  62.6941713  63.5127664  51.6615927  62.4817064  63.6703502  50.9233732
  68.2199907  73.4695340  54.3874893  68.5346466  74.2831728  54.3952675
  68.6293320  73.0845558  55.0557052  68.3268005  73.5324042  54.4878984
  75.1724426  68.8865386  51.9578705  75.6435605  69.6005649  52.1268690
  75.5084605  68.2864136  52.4938574  75.2919542  68.9036851  52.0611081
  72.0893921  53.6592857  58.9136800  72.2221827  52.8623850  59.2417775
  72.4739074  54.1859260  59.4935075  72.1650250  53.6192774  59.0480302
  75.1626277  50.5823183  55.5117893  74.3572240  50.4720913  55.8285731
  75.0333012  50.6835639  54.6547759  75.0246409  50.5806853  55.4325933
  78.6192237  56.7468675  56.1057590  78.0355226  57.2477881  55.6935157
  78.9396531  56.2398231  55.4721913  78.5805413  56.7460510  55.9516097
  71.1587036  55.6609270  46.3816264  71.9802731  55.8307583  46.1397959
  70.6956687  55.8156531  45.6582562  71.2118199  55.7091003  46.2387909
  69.7482368  53.6552032  57.1614693  70.2926781  53.3143159  57.7519035
  69.8019304  54.5137494  57.3035978  69.8371488  53.7307291  57.2696567
  65.5612927  67.4168448  54.0353501  66.1657784  67.3764282  53.4067322
  65.3540240  68.2639600  54.0657557  65.6201824  67.5356450  53.9469618
  60.7964209  66.4003066  53.9052424  60.6988487  65.5899337  54.2142481
  61.5793079  66.3794859  53.5198692  60.8980346  66.2770156  53.8939287
  35.2331664   0.8274513  35.6688824  34.4814563   0.4490052  35.4404869
  35.6817675   0.8592947  34.9207634  35.1881331   0.7760120  35.5246326
  40.6856624   1.2499883  31.0974371  40.3507992   1.9276804  30.6618593
  41.1983494   0.8605194  30.5091242  40.7122205   1.2924461  30.9461162
  40.2260915   3.2014151  37.0385482  40.6100294   3.7701050  36.4990258
  40.1620056   2.4763662  36.5591298  40.2734342   3.1789615  36.8879345
  36.8116420   0.8392905  37.9351596  36.9126783   0.0293259  38.2448724
  36.2158165   0.7449852  37.3051275  36.7388959   0.7057933  37.8877835
  36.6517159   5.7570495  39.3366452  37.2954615   6.1983659  39.7262611
  36.9773415   4.9523921  39.2496711  36.7948988   5.7035689  39.3811930
  30.0081464  -3.1386808  37.5603930  29.7731649  -3.9719156  37.4536199
  30.1467105  -2.8582142  36.7465131  29.9937127  -3.2203305  37.4246285
  37.3537739  -1.2317531  34.7086314  37.6753580  -0.6912323  34.1047622
  38.0009836  -1.8020759  34.8408604  37.4963794  -1.2358355  34.6393349
  31.5698789   1.7398863  38.8360136  31.0866367   2.4649352  38.8119720
  32.3822107   2.0374993  38.9470294  31.6189537   1.8901216  38.8487415
  37.6412943   0.5331043  41.4409951  37.1239885   0.1738458  40.8371259
  38.3387334   0.0093218  41.4516017  37.6678524   0.4028731  41.3540209
  41.2976535   0.9825857  47.4026124  41.3859881   0.7951998  48.2504334
  41.7266247   0.3363287  47.0030970  41.3738637   0.8588865  47.4697875
  38.8646995   0.2657017  46.3843786  38.3017829  -0.1470373  46.9083447
  39.6268018   0.1909923  46.8036929  38.8941443   0.1934418  46.5236786
  34.4242986   2.2555039  38.9880416  35.1263565   1.7407028  39.0453172
  34.3440469   2.5829190  39.7927291  34.5166747   2.2269265  39.1153208
  33.7493762  -1.5538609  38.4966024  34.5882661  -1.3215677  38.5439786
  33.7805531  -2.4234298  38.4273059  33.8775479  -1.6481663  38.4930669
  34.3746465  -1.1337734  42.7979329  34.9144689  -1.2766603  43.4682702
  33.6916411  -0.7340983  43.1663356  34.3538618  -1.0958063  42.9513751
  41.4096594   0.4134877  50.0669907  42.1937011   0.5265724  50.4325649
  41.2093189  -0.4123986  50.2628593  41.4962620   0.3081596  50.1504293
  41.5666987   2.3244979  43.7136363  40.7682233   2.0844479  43.9710231
  42.0152999   2.3759371  44.4603410  41.5141599   2.2967370  43.8621287
  30.1877023  -4.1278664  40.2325495  30.0052596  -4.1531778  39.3797787
  30.9226692  -3.6579726  40.2714404  30.2691087  -4.0617302  40.1123414
  36.5270083  -1.8669874  37.2669437  37.1644030  -2.1058126  37.8121231
  36.9525155  -1.6632715  36.5322598  36.6846249  -1.8718864  37.2386595
  31.2182725   0.3718463  41.1503741  31.2586871   0.6433314  40.3223521
  31.7777250   0.8960371  41.5661529  31.3066071   0.4894218  41.0895629
  38.9091555  -1.3897451  38.9463224  38.9830563  -1.5522279  39.8005073
  39.7261061  -1.2007262  38.7023705  39.0407914  -1.3860709  39.0361249
  32.6697312  -1.0439588  35.9757667  31.8435429  -0.7977851  35.8491946
  32.7309303  -1.1227508  36.8419725  32.5571479  -1.0194639  36.0846611
  37.4496141   1.5737292  33.6776697  37.7394439   1.1826273  32.9535924
  38.1799622   1.7553997  34.1181972  37.6003025   1.5431106  33.6359504
  35.3902056   3.5504674  36.7436847  35.1702352   3.2602029  37.5363514
  35.1696578   2.8919629  36.2154759  35.3249651   3.4104383  36.7825755
  37.5570012   4.9234064  35.5267539  38.2094070   4.3910506  35.7558565
  36.8595621   4.5702716  35.9135413  37.5500730   4.7923587  35.6179707
  34.5051277  -2.7226758  34.9334913  35.2597245  -2.3413719  35.1470376
  33.9121890  -2.2715615  35.3881610  34.5287990  -2.5997931  35.0317792
  35.8249504  -1.5518197  40.3075029  35.3030257  -1.4117905  40.9926893
  36.2123524  -2.3107533  40.4977146  35.8053204  -1.6432673  40.4376105
  42.0216508   0.1877262  34.2935598  41.7803184  -0.5454877  33.8862663
  42.2017841   0.7364119  33.6401931  42.0124132   0.1599654  34.1365820
  36.3895989   2.1542583  43.3904884  36.5385553   1.5945499  42.7378289
  37.1695991   2.2334585  43.7737403  36.5270083   2.0828149  43.3501833
  38.9149290   2.3257226  44.6689375  38.8392961   1.6566037  45.2240163
  38.8439149   3.0275014  45.1830041  38.8929896   2.3302133  44.8266223
  39.5719536   0.8458225  35.5012981  40.3369428   0.5767869  35.1795645
  39.4697626   0.3608235  36.2183044  39.6701032   0.7347790  35.5592809
  38.3040924   5.7325546  43.1267376  38.7936854   5.0336335  42.9443041
  37.7325156   5.4349416  43.7143433  38.2925454   5.5851769  43.1868417
  38.7977270  -0.5197681  32.2507282  38.8670090  -1.3783142  32.3900283
  39.5765725  -0.3025800  31.9226307  38.9230120  -0.6144817  32.2224440
  43.1884757   1.9040021  36.4643776  42.7964549   1.6006736  35.7466642
  43.3437829   2.7409111  36.2748729  43.1538347   1.9823857  36.3300273
  36.1811754  -1.3946441  45.0019848  36.0732109  -1.3844378  45.8681906
  36.3907536  -0.5691660  44.8124802  36.1961865  -1.2705366  45.1023940
  43.9575062   1.3075513  39.8973810  43.7594751   1.7966328  39.2030021
  43.3362774   1.5116755  40.4757943  43.8362627   1.4092052  39.8797033
  31.4561408  -2.4699701  43.6075702  30.9261333  -3.1607262  43.6570677
  31.7286502  -2.4789515  42.7788410  31.4186131  -2.5732569  43.4923118
  26.7357251  -5.7971937  40.9644050  26.6300700  -5.8425092  40.0996134
  25.9857471  -5.4518156  41.2458335  26.6092854  -5.7531028  40.8781380
  40.1377568  -1.7416551  44.5607502  39.6302659  -1.1880704  45.0048133
  39.8404214  -1.6808261  43.7426277  40.0182453  -1.6510240  44.5055959
  42.7485349   2.1746707  32.4911446  42.0314658   2.0007569  32.0258683
  43.3992086   1.9399279  31.9586932  42.7387199   2.1142499  32.3440664
  39.3820054   3.1908007  41.4664509  39.1585708   2.4326836  41.8348535
  38.8929897   3.2206028  40.7444949  39.2763503   3.0830232  41.4141250
  38.0298510   3.4108465  38.9201594  37.6158909   2.7482595  38.5305435
  38.7145885   3.5586324  38.3997288  38.0696882   3.3349123  38.7858091
  41.3963805   2.5698551  39.6725210  40.9980088   2.6800821  38.9046030
  40.7815024   2.7780617  40.2551770  41.2462694   2.6172119  39.6456510
  34.9952980   3.8517547  41.3214940  35.3099539   4.6653935  41.3292721
  35.4046393   3.4667766  41.9897099  35.1021078   3.9146249  41.4219031
  44.0354484   0.8788907  51.0710824  44.1451450   0.0897468  51.4267571
  44.3645381   0.7894843  50.2685162  44.1006890   0.7494760  51.0053214
  32.3366000  -2.2009345  40.9693548  32.9410858  -2.2413510  40.3407369
  32.1293313  -1.3538193  40.9997604  32.3954897  -2.0821342  40.8809665
  42.1509772   0.0656601  42.1855785  42.9708146  -0.0780433  42.4472081
  41.8703850   0.6902799  42.7272223  42.2306516   0.1366953  42.3043725
  27.5717282  -3.2174727  40.8392471  27.4741561  -4.0278456  41.1482528
  28.3546152  -3.2382934  40.4538739  27.6733419  -3.3407637  40.8279334
  58.6223423   7.7221452  35.1498662  58.5917427   8.5766089  35.3216931
  59.2204771   7.4216745  35.7084805  58.7060581   7.8037949  35.2573464
  51.8223108   6.8097103  39.9051592  50.9661003   6.9705602  39.9560709
  51.8690761   5.9389167  39.9256653  51.7022219   6.7047905  39.9157658
  55.1316824  13.0783629  49.5112048  55.8383591  12.5835660  49.6398983
  55.3204760  13.5192710  48.7814706  55.2644730  13.0701979  49.4221094
  51.6589207  16.7685191  31.0974371  51.3240576  17.4462112  30.6618593
  52.1716078  16.3790502  30.5091242  51.6854788  16.8109769  30.9461162
  51.1993498  18.7199459  37.0385482  51.5832878  19.2886358  36.4990258
  51.1352640  17.9948970  36.5591298  51.2466926  18.6974923  36.8879345
  54.6674929   8.8689147  42.5483244  55.2130889   9.5474234  42.6077213
  54.6091805   8.7276608  41.6884825  54.7390843   8.9481149  42.4295304
  40.9814048  12.3798500  37.5603930  40.7464232  11.5466152  37.4536199
  41.1199688  12.6603166  36.7465131  40.9669710  12.2982003  37.4246285
  43.2804135   4.5484230  40.4588238  42.6609167   3.9576878  40.2898252
  43.1787999   5.1395666  39.8252561  43.1741811   4.5488313  40.3393227
  50.3772031   6.2883772  34.7920701  51.0752196   6.4671900  35.2842164
  50.6924363   5.7654112  34.1691090  50.5267368   6.2377544  34.7722711
  43.0073268   8.0936512  42.7031807  42.8831965   8.6798958  43.3381625
  43.6591553   7.5996708  43.0044082  43.0846918   8.1075317  42.8417736
  48.0331609  11.2698229  41.9819318  48.6780612  10.7770672  41.6630266
  48.2733386  11.4123016  42.8085396  48.1642194  11.2175671  42.0568851
  50.5717701  14.1153135  41.6326210  50.8540943  13.3204541  41.4112966
  51.3003861  14.5933722  41.6531271  50.7207264  14.0687732  41.6029225
  48.5498894   1.6576169  38.8741975  48.2202224   2.1087312  38.2045674
  47.8743896   1.5792332  39.4214982  48.4009331   1.7127304  38.8565199
  54.1669303  11.0281399  31.7331261  54.0820598  11.8842365  31.8780830
  54.6553686  10.7525723  32.4013421  54.2258200  11.1138720  31.8533343
  55.0987736   7.6466193  33.2328997  54.5699207   7.8625826  33.8926303
  55.6212756   8.3402331  33.1529966  55.0976189   7.7809330  33.3184596
  60.5535789  13.2212497  38.6062041  59.7233492  13.4323141  38.7695458
  60.5045041  12.3949552  38.3304325  60.4242524  13.1302103  38.5899406
  46.9887344  11.5429410  32.0336465  46.4044559  12.0479441  32.4402328
  46.5857439  11.3171796  31.2933056  46.8426648  11.5837658  31.9841490
  52.2709118  16.5011165  47.4026124  52.3592464  16.3137306  48.2504334
  52.6998831  15.8548595  47.0030970  52.3471221  16.3774173  47.4697875
  51.4464558   7.7895062  30.5105385  51.6860562   7.9973045  29.6980728
  51.7680399   6.9852570  30.6194330  51.5301716   7.7009163  30.4065938
  60.0489747   5.8682898  42.4012462  59.2118168   5.9385085  42.6360057
  60.0177978   5.8707393  41.5286765  59.9208030   5.8793125  42.3072010
  46.4454476   8.0115933  48.1160831  46.6174980   7.9021828  48.9646112
  46.9823834   8.6570339  47.8792023  46.5499480   8.0907935  48.2065928
  45.1111913   2.1258776  31.0543036  44.9287486   2.3430657  30.2284029
  45.9737526   2.2397789  31.1101650  45.2116503   2.1748674  30.9397523
  54.7719933  10.0638574  37.9924354  55.5277448  10.4970089  38.0313263
  54.8782257   9.4143344  38.5658990  54.8990104  10.0316058  38.0822379
  57.8100104  13.8911852  38.7426757  57.3735336  13.8948594  39.4985728
  57.4763020  14.5717351  38.3106334  57.6962724  13.9924307  38.7907589
  52.3829178  15.9320184  50.0669907  53.1669594  16.0451032  50.4325649
  52.1825772  15.1061322  50.2628593  52.4695203  15.8266904  50.1504293
  40.7516193  10.6047865  42.9513751  40.4854608   9.7886981  43.1104741
  40.7654757  10.6501020  42.0809267  40.7140915  10.4904769  42.8467233
  44.6573940   5.4032949  29.5665509  43.9432117   5.1171128  29.9787942
  45.1417909   5.7429575  30.2071897  44.6233303   5.4114599  29.7221144
  45.5014800   4.1426243  45.5980759  44.8086596   3.6723223  45.8441490
  46.1175127   3.9164547  46.1722466  45.4899329   4.0393375  45.7189911
  60.9444450  10.6092771  37.6346394  61.6060884  10.0483440  37.5342303
  60.3035862  10.1144802  37.9599085  60.9473318  10.4529181  37.6678734
  51.8321258  13.9062903  29.9427317  52.2472407  13.5747927  29.2511813
  51.0013188  13.6731805  29.8147454  51.7709267  13.8234159  29.8218165
  41.1609607  11.3906644  40.2325495  40.9785180  11.3653530  39.3797787
  41.8959276  11.8605582  40.2714404  41.2423671  11.4568006  40.1123414
  44.2255358   8.1091647  46.7407604  44.9495331   8.0944677  47.2272499
  44.3271495   8.8187002  46.2429572  44.3473568   8.2116350  46.7386391
  59.0599738  10.4659820  35.2127987  59.3907955  10.9987460  34.6068081
  59.6332826  10.5198708  35.8689938  59.1933417  10.5529389  35.2205768
  51.6000308  11.5890731  51.6056551  50.8073289  11.9034243  51.7909171
  51.7149235  11.8042200  50.7677336  51.4995718  11.6674568  51.5094886
  54.2731627   8.3124723  35.8951567  54.3678481   9.0514017  36.3491192
  53.6490470   7.8842198  36.3286131  54.1940657   8.3586043  36.0259714
  52.5284101  11.4910935  46.5441848  53.1022962  10.8538179  46.6990412
  52.4498904  11.4915018  45.6751505  52.6017336  11.3976047  46.4388259
  41.1280517   8.2700145  40.3824562  41.7054020   8.1336595  41.0216807
  40.4294579   7.8135929  40.6370146  41.1101539   8.1822411  40.5146852
  54.5254648  10.1573462  29.1288519  54.4434811  10.2275649  29.9943506
  55.1634369  10.7203206  28.9372259  54.6074486  10.2512433  29.2278468
  47.8847819   9.9234200  38.5963045  47.6267064   9.0905935  38.5694345
  47.9396302  10.1491813  37.7555545  47.8547597   9.8331972  38.4683182
  46.8582531   7.4771963  39.0827940  46.2832123   7.6364131  39.7191901
  46.4818208   6.8407372  38.6196390  46.7185344   7.4069776  39.1082498
  50.5255820   5.9495312  43.9420318  50.1370253   5.5249530  43.2872509
  49.8610518   6.1977462  44.4497345  50.3702748   5.9234033  43.9208186
  36.6039350   7.1212038  37.0972380  36.6899602   6.7443906  37.8785910
  37.2315148   6.7472483  36.6192339  36.7095901   7.0097520  37.1417858
  51.6294758  10.1793917  32.1397125  52.4435397  10.4708809  32.0279897
  51.5653900   9.5253779  31.5655418  51.7397497  10.1259111  32.0385963
  57.8504249  12.8619913  46.5526701  57.6142886  12.0307978  46.4338761
  58.4947477  12.8105520  47.1381545  57.9098919  12.7317601  46.6212594
  48.1405482   8.8717724  31.6044327  48.5250634   8.6525431  32.3560872
  47.8917102   9.6980669  31.7345403  48.1607554   8.9615870  31.7345403
  48.3074022   2.1524139  51.3206911  47.9927463   2.9223702  51.0576474
  47.9863955   1.5894395  50.7359138  48.2132941   2.1834408  51.1948261
  58.8740669  12.6464362  42.6154995  58.5686486  13.3792418  42.9768311
  58.1546885  12.2402291  42.3347781  58.7228011  12.6946094  42.6268132
  64.5742461   9.2857362  41.9423340  64.5066962   9.3053321  41.0725926
  64.5598124  10.1287689  42.1679010  64.5621218   9.4131097  41.8475816
  43.6429895  14.4745720  35.9757667  42.8168013  14.7207457  35.8491946
  43.7041887  14.3957800  36.8419725  43.5304062  14.4990668  36.0846611
  45.8605919   0.5414661  36.9353107  44.9928344   0.6137260  37.0010716
  46.1481123   1.3436739  37.1241082  45.7745667   0.6708808  36.9727874
  62.3601079   8.0601748  40.2169934  62.9109000   7.4269817  40.4567026
  62.3445194   8.5917141  40.9085438  62.4386275   8.0450697  40.3548792
  49.0123470  11.8940346  44.7629827  48.5135163  12.6056113  44.8414716
  49.8223694  12.2141012  44.7247990  49.0579576  12.0467194  44.7686396
  45.2751587  11.1563299  39.0092548  44.9864836  10.5300770  39.5438276
  46.1434935  11.0983586  39.0757229  45.3611839  11.0550843  39.0983503
  56.0629485   6.2998082  39.3274530  55.7194251   5.5788417  39.6781780
  56.1622527   6.0911933  38.4852888  56.0271528   6.1622285  39.2546210
  56.5242514  12.7623786  34.8698518  57.0900547  13.4216996  34.7857061
  55.8770417  13.1073484  35.3414920  56.5121270  12.9105727  34.9271275
  47.9390527   4.7521390  50.0592126  47.1290303   5.0579170  49.9481968
  48.4165214   5.4726972  50.1744710  47.8894006   4.9035991  50.0599197
  43.7873271   4.0172920  34.3769983  43.4998067   3.6474190  33.6401931
  44.4743739   4.4867775  34.1153688  43.8462168   4.0319889  34.2285059
  52.9949092  15.7062570  34.2935598  52.7535768  14.9730431  33.8862663
  53.1750425  16.2549427  33.6401931  52.9856716  15.6784961  34.1365820
  46.6226943   7.8825868  35.8237388  47.3449595   8.0467026  35.3641194
  46.1434935   8.6035533  35.7176728  46.6590673   8.0124098  35.7403002
  54.5820450   4.2189667  41.2034073  53.7431551   4.2450946  40.9672336
  54.6524818   4.8660402  41.7839420  54.4688844   4.3185793  41.2543190
  44.2734559  10.2883940  44.9291528  44.7855656  10.5668194  44.2800288
  43.9870902  11.0273234  45.2954341  44.3069423  10.4386294  44.8881406
  58.4577974   9.4257654  38.4895315  58.3711949   9.5813080  39.3430094
  58.0028454  10.0695729  38.1154720  58.3781231   9.5433409  38.5602422
  41.3601466   4.7954132  35.2255265  41.4617602   5.5980294  35.5536240
  42.1557352   4.5941468  34.9278345  41.4929371   4.8840031  35.2290620
  47.7918285   2.3810329  44.9892570  47.6001482   2.3965463  45.8391993
  48.6416881   2.5774003  44.9659224  47.8894007   2.4124680  45.1115864
  42.1765198   4.9101310  42.9676386  42.0350690   4.0585251  43.0920894
  42.4605761   4.9529971  42.1438592  42.1973044   4.7901061  42.8644010
  52.3303790   6.7468401  37.1120874  52.0838504   6.6664152  37.9457663
  52.6588913   5.9621869  36.9183402  52.3425034   6.6194666  37.2068397
  56.2251839  13.4551760  40.9007656  56.0866198  14.1532806  41.4056398
  55.4451837  13.3000417  40.5443837  56.0895066  13.5351927  40.9233930
  54.5629924   9.7548135  47.1530037  54.5577963   8.8827952  47.1572464
  55.2690918   9.9536305  46.6799493  54.6674928   9.6552010  47.0837073
  48.2900817   9.4825119  46.5243857  48.4344193  10.0626327  45.8886967
  48.6376466   9.8601416  47.2293712  48.3628279   9.6245823  46.5342852
  50.4620735   8.6815288  44.3068989  49.7144049   8.8746302  43.9017267
  50.6162260   7.8560507  44.0693110  50.3743162   8.5880399  44.2114395
  57.7205212  12.8130014  31.6624155  57.3412021  12.0267152  31.6553444
  57.0571457  13.3616871  31.5195799  57.5663687  12.7774838  31.6404952
  50.7022512   2.5765838  45.1964393  51.1595126   3.3089813  45.3237185
  50.7778841   2.1532304  45.9551649  50.7813482   2.6223076  45.3265469
  42.9455503   2.8231658  46.2853836  42.4097693   2.2112016  46.6014604
  43.0073268   3.3979794  46.9387503  42.8751136   2.8178586  46.4289263
  48.5804890   4.5667942  42.0406217  47.7900965   4.3859402  42.3623553
  48.9765513   3.7894895  42.0236511  48.5221766   4.4255403  42.0858765
  53.0670781  13.3955717  27.4812930  53.8343766  13.4555842  27.0718782
  52.6202090  12.8236158  26.9969249  53.1144208  13.3192292  27.3490641
  53.9648576  12.2010372  39.7665663  53.2893578  11.9695605  40.2679050
  53.9740952  11.5931555  39.1407768  53.8667081  12.0769298  39.7481815
  51.0942720   7.0428201  46.5229716  51.0301861   7.9038158  46.3949852
  51.2339908   6.7260195  45.7225267  51.1058190   7.1228368  46.3857929
  55.9665311  15.0575505  31.9975841  56.0485148  15.8642491  31.6737292
  56.4515053  15.0771464  32.7216614  56.0502469  15.1796167  32.0562739
  49.7761814   9.7360341  40.6645919  49.3524063   9.9364840  39.9284937
  49.6006669   8.8889189  40.7770218  49.6872695   9.6409122  40.5719609
  45.0644259  10.2312392  36.0973891  45.2208878  10.1659195  36.9529883
  45.4044852  11.0060945  35.8852571  45.1377494  10.3361590  36.1928485
  51.6023404   9.6070276  34.9667254  52.1438949   9.1040657  35.4305875
  51.9169963   9.5535470  34.1556740  51.7287801   9.5249697  34.9151066
  55.4740511  13.8172923  52.0794167  56.2875376  13.5458072  52.2399299
  55.3135477  13.5180463  51.2754362  55.5710459  13.7327849  51.9839572
  52.7512673   4.5006580  45.0189555  52.9654642   3.8617494  44.4652909
  52.1346572   4.9452404  44.5897417  52.6918002   4.4716724  44.8739986
  54.1617341  17.4225329  36.4643776  53.7697133  17.1192044  35.7466642
  54.3170413  18.2594419  36.2748729  54.1270931  17.5009165  36.3300273
  41.6378520   7.4147343  36.4134658  42.0177485   7.8331888  35.7494926
  41.0633885   7.9960798  36.7203502  41.6089845   7.5625201  36.3611399
  54.9151761   6.1095645  45.9572862  54.1028443   5.8021536  46.0386035
  55.3741695   5.6294646  46.5215574  54.8632146   5.9932138  46.0527456
  54.3257016  13.9875317  36.4049806  53.9671670  14.1589960  37.1813839
  53.8395726  14.4488523  35.8477805  54.2015712  14.0814289  36.4375075
  49.1145381   9.6674483  28.9450041  49.4037906  10.4439365  29.2193615
  49.2017180   9.1563214  29.6464540  49.1699637   9.7066401  29.0892538
  52.0105268   7.5155717  50.7401564  52.4804900   8.1397833  51.1269438
  52.0567149   6.8472692  51.2994779  52.0873144   7.5090397  50.8801636
  55.4861755  14.8779213  47.3517007  56.1241475  14.3839409  47.0179463
  54.8435847  14.8056614  46.7669234  55.4855981  14.7938222  47.2159362
  57.2118755   6.7268359  41.9182923  56.7846363   6.6394708  41.1631022
  56.5744808   6.8346135  42.5037767  57.0548362   6.7301019  41.8928364
  55.5416012  15.5699022  43.9922364  56.3308390  15.2188086  44.1124446
  55.7159609  16.3835410  43.7298998  55.6836293  15.6384879  43.9710232
  45.2809322   8.9807747  41.0450153  44.4397329   8.8811622  41.2529047
  45.4899330   9.7503228  41.3964473  45.1874015   9.0799791  41.1277468
  42.7584889   6.6027284  38.8734903  42.3641587   6.6770296  38.0985013
  42.2025006   6.9885231  39.4243265  42.6187701   6.6709059  38.8402563
  49.0925987   6.9089147  40.2947750  48.7889124   6.3545135  40.8958158
  48.3905408   7.0881357  39.8075784  48.9442197   6.8533929  40.3117456
  48.1492084   4.2189666  34.8592452  48.4251818   3.5008579  34.4470020
  48.7490753   4.8174586  34.6513558  48.2785349   4.2010037  34.7673213
  45.1718130  11.3751510  42.4641786  44.5806063  12.0161008  42.4344801
  45.9339153  11.7989127  42.4373085  45.1966390  11.5327348  42.4556933
  45.5678753   2.5353507  43.1309803  46.0280234   2.6092437  43.8684927
  45.6134859   3.3334762  42.7809625  45.6429308   2.6647655  43.1882560
  47.2162102   3.2020202  47.6981830  46.8247667   2.5553549  48.1337608
  47.3847965   3.7931638  48.3176086  47.1833013   3.1934470  47.8544536
  61.2908551  11.2057279  43.4619064  61.3491675  11.6543928  44.2079040
  60.6575019  11.6156092  43.0249144  61.2059846  11.3331014  43.5071612
  54.9307646  16.8260821  39.8973810  54.7327335  17.3151636  39.2030021
  54.3095357  17.0302063  40.4757943  54.8095210  16.9277360  39.8797033
  48.9915624   8.5945718  34.2384054  49.7357669   8.9819994  34.4767004
  49.1376321   7.7503143  34.4024542  49.1226210   8.5276191  34.2978024
  51.9793500   4.1671191  40.1377974  51.5053455   3.6412953  40.6483285
  52.3511636   3.6200664  39.5692835  51.9643389   4.0087188  40.1293121
  42.3566530   6.1642698  45.5061519  43.2192143   6.0638407  45.4198849
  42.0258313   5.5837407  44.9447092  42.4351727   6.0634325  45.4106925
  58.2430231   9.2273567  41.5484754  58.0028454   8.3879982  41.5527181
  58.7222238   9.3073734  42.2725528  58.2782415   9.1154967  41.6559557
  53.9077000   5.0607746  33.2003727  53.3800019   5.1436490  32.5109436
  54.3672708   5.8025617  33.1968372  53.8978850   5.1828408  33.0978423
  60.2435418   6.0075024  39.5014013  60.0045188   5.9670858  38.6634798
  60.4069319   6.8546176  39.6279734  60.2325721   6.1267109  39.3967495
  56.8481448  10.3924974  45.4319058  57.5715647   9.9397500  45.2530078
  56.5831410  10.6729639  44.6491386  56.9162721  10.3675942  45.2897774
  45.7168316   4.9885147  42.1671938  45.0921387   5.0003539  41.5597890
  45.3813911   5.4645322  42.8163178  45.5753808   5.0603664  42.1728506
  45.9010065   3.3310266  28.2244623  45.5522869   3.9829991  28.6876172
  45.4206511   3.3167379  27.4968494  45.7780309   3.4253319  28.1855714
  42.4293992  13.0485607  43.6075702  41.8993916  12.3578046  43.6570677
  42.7019085  13.0395793  42.7788410  42.3918714  12.9452739  43.4923118
  53.4614082  13.6311310  32.3313385  54.1848281  14.0969423  32.1877958
  53.0214673  13.6984919  31.5810982  53.5029775  13.7095146  32.1998166
  52.6300237  10.4908852  43.5814074  52.0157231   9.9466902  43.8762709
  53.1467522   9.9773088  43.1019890  52.6155900  10.3345261  43.5538302
  51.8696535  11.5613122  41.3158372  51.4424143  10.9362841  40.8823808
  51.8621479  11.2788044  42.1417379  51.8055676  11.4265903  41.3738200
  44.9859062   6.5978295  44.3846806  45.1452548   5.8421619  44.7898528
  44.8051955   7.1469234  45.0387544  44.9824421   6.5672109  44.5409512
  50.1982244   2.4381876  41.5300906  50.2224732   1.9041989  40.8413686
  50.4493718   1.9299185  42.1926497  50.2392163   2.2842780  41.5265551
  37.7089834   9.7213371  40.9644050  37.6033283   9.6760216  40.0996134
  36.9590054  10.0667152  41.2458335  37.5825437   9.7654280  40.8781380
  46.4783567   1.1652695  40.9106650  46.5181938   1.6661901  41.6241358
  45.6533231   1.2563088  40.6412574  46.3623093   1.2534511  40.9757189
  48.6613179  10.7313435  49.0126945  47.8108810  10.8685149  49.1484590
  48.8241307   9.9977213  49.4574647  48.5597043  10.6427536  49.0982544
  47.8997930   7.6813204  43.2080549  47.0689860   7.8487022  43.0015798
  47.8449447   7.3049155  43.9929435  47.7687345   7.6502936  43.2929078
  45.7081713   1.1722097  48.8436960  46.3334417   0.6284230  49.1166392
  45.2532193   0.6917015  48.2744751  45.7329974   1.0211579  48.7998554
  46.2733974   5.9568796  33.7370667  46.4136935   6.4541260  34.4399309
  46.7716507   5.2555090  33.8784881  46.3675055   5.9270775  33.8622246
  46.3034196   6.8235907  31.0663244  46.9379276   7.4196332  31.0012706
  46.3859807   6.5239365  31.8809114  46.4090747   6.8676815  31.1766331
  59.2816762   9.3551384  43.9349608  59.8734602   9.9948635  43.9667806
  59.7175756   8.6574421  44.2241675  59.4335193   9.3469735  43.9830441
  47.8813179   2.7549882  31.0408686  48.2029020   2.2752965  30.3867948
  48.1440123   3.5649529  30.8499498  47.9679204   2.8039780  30.9164178
  51.1110152  13.7768757  44.5607502  50.6035243  14.3304604  45.0048133
  50.8136798  13.8377047  43.7426277  50.9915037  13.8675068  44.5055959
  42.8087184   9.0203748  34.3352790  43.3179413   9.6168255  34.7164096
  43.2821456   8.7529721  33.6529210  42.9530560   9.0689563  34.2907313
  53.7217932  17.6932015  32.4911446  53.0047242  17.5192877  32.0258683
  54.3724670  17.4584587  31.9586932  53.7119783  17.6327807  32.3440664
  56.3065903   6.5696603  36.2352751  55.6357093   7.1126305  36.1065816
  57.0005654   7.0391458  35.9934446  56.3094771   6.7194874  36.1808278
  45.1677716   5.6560006  37.2025970  44.4489705   6.0724139  37.4698834
  45.5390078   6.2214245  36.6517609  45.1169648   5.8009288  37.1608777
  54.4677297   6.2887855  43.0927966  54.4475224   6.1071150  43.9462745
  54.5156497   7.1599874  43.0687550  54.4711938   6.3904394  43.2151261
  52.4123626  12.8775047  49.0176443  52.3719481  12.2324724  48.4321599
  53.2246945  12.8211665  49.3301855  52.5266780  12.7734014  48.9773392
  52.3696388  18.0883858  39.6725210  51.9712671  18.1986129  38.9046030
  51.7547608  18.2965925  40.2551770  52.2195277  18.1357426  39.6456510
  50.9424290   4.6958006  32.5399350  50.3489129   5.0175003  31.9883917
  50.9799568   3.8499102  32.3320456  50.8598679   4.6182335  32.4282121
  53.8182107   4.6537511  35.9701100  53.5895800   4.6770212  35.1279458
  54.0780183   3.8294978  36.0896111  53.8228295   4.5353591  35.8626298
  48.1001335   6.5071984  45.5726200  47.5880238   5.8993167  45.9311232
  47.9280831   7.2228576  46.0400176  47.9990972   6.5235283  45.6942424
  42.9467050   4.9509559  48.2228562  42.7769640   5.6110934  47.6776769
  42.5033000   5.1616120  48.9441051  42.8566383   5.0795541  48.2490192
  46.8726869   3.1914057  37.2655296  47.3484236   3.5531137  36.6305477
  46.3715469   3.8470525  37.5455439  46.8692228   3.3408246  37.2132037
  60.1038231  12.6635825  33.0568301  60.4871837  13.4127181  33.2866398
  59.3082344  12.9101645  32.7980290  60.0432013  12.8105519  33.0525874
  51.9770406   4.4296228  48.0128456  52.5341836   4.2010038  47.3806921
  51.6531471   5.1901894  47.7363668  52.0116816   4.5080065  47.8784953
  39.8469114   7.8556425  43.4817052  39.2995834   7.1857070  43.5997920
  40.6361493   7.4886273  43.5460519  39.8821298   7.7021411  43.5085753
  49.6953523   7.5163882  48.9780463  50.4464850   7.8315559  49.2920017
  49.8876099   7.3143053  48.1514385  49.8344937   7.5331264  48.9023859
  48.9153522   5.3355257  30.6328680  49.2952487   5.3534886  29.8479795
  48.1746118   5.7809246  30.5119527  48.8622360   5.4037031  30.4992248
  38.6056084   7.0677232  40.6363075  38.4277845   6.6153841  41.3617991
  38.3175106   7.8703394  40.8201553  38.5369037   7.1199790  40.7706578
  54.2679665   8.3234950  39.8740465  54.7633330   7.6057945  39.8344486
  53.4579441   8.0205748  39.7594952  54.2223558   8.1732596  39.8514191
  49.7138276  12.1732763  32.0237470  48.9049599  11.8499437  31.9770779
  50.2213185  11.4665985  31.9565718  49.6687943  12.0214079  32.0067764
  40.3428554   9.6004956  37.7484834  39.4774073   9.5890647  37.6367605
  40.4427370   9.4135179  38.5955973  40.2302721   9.5711017  37.8573779
  56.3331484  11.0738637  42.5617594  56.7586555  10.5513059  42.0088019
  55.9688404  11.6719475  42.0406217  56.3418086  11.0848864  42.4026604
  52.9210083  14.7872902  38.8918752  53.3921261  15.5013164  39.0608737
  53.2570262  14.1871652  39.4278621  53.0405198  14.8044366  38.9951127
  55.0087068  16.3974215  51.0710824  55.1184033  15.6082776  51.4267571
  55.3377964  16.3080151  50.2685162  55.0739474  16.2680068  51.0053214
  53.5584030  14.5790836  45.6546444  53.0104976  13.9548719  45.3866509
  54.0197058  14.7685108  44.9390524  53.5451239  14.5149886  45.5096875
  48.9072693   1.5616785  33.3156311  49.7288387   1.7315098  33.0738006
  48.4442344   1.7164046  32.5922609  48.9603855   1.6098518  33.1727956
  43.3098584  13.3175963  40.9693548  43.9143441  13.2771797  40.3407369
  43.1025896  14.1647115  40.9997604  43.3687481  13.4363966  40.8809665
  53.1242356  15.5841908  42.1855785  53.9440730  15.4404875  42.4472081
  52.8436434  16.2088107  42.7272223  53.2039099  15.6552261  42.3043725
  38.5449866  12.3010581  40.8392471  38.4474144  11.4906852  41.1482528
  39.3278736  12.2802374  40.4538739  38.6466003  12.1777671  40.8279334
  69.5956006  23.2406760  35.1498662  69.5650011  24.0951397  35.3216931
  70.1937355  22.9402053  35.7084805  69.6793164  23.3223257  35.2573464
  62.7955691  22.3282411  39.9051592  61.9393587  22.4890909  39.9560709
  62.8423345  21.4574475  39.9256653  62.6754803  22.2233213  39.9157658
  66.1049408  28.5968937  49.5112048  66.8116175  28.1020968  49.6398983
  66.2937343  29.0378018  48.7814706  66.2377313  28.5887287  49.4221094
  62.6321791  32.2870499  31.0974371  62.2973159  32.9647420  30.6618593
  63.1448661  31.8975810  30.5091242  62.6587372  32.3295077  30.9461162
  62.1726082  34.2384767  37.0385482  62.5565461  34.8071666  36.4990258
  62.1085223  33.5134278  36.5591298  62.2199509  34.2160231  36.8879345
  65.6407512  24.3874455  42.5483244  66.1863472  25.0659542  42.6077213
  65.5824388  24.2461916  41.6884825  65.7123427  24.4666457  42.4295304
  58.7581587  31.8763521  37.9351596  58.8591950  31.0663875  38.2448724
  58.1623332  31.7820468  37.3051275  58.6854126  31.7428549  37.8877835
  67.4172581  25.8159062  33.4216972  67.3012107  26.5666748  33.8509110
  68.2128467  25.5583015  33.6713059  67.5177170  25.8893909  33.5221063
  54.2536719  20.0669538  40.4588238  53.6341750  19.4762186  40.2898252
  54.1520582  20.6580974  39.8252561  54.1474394  20.0673621  40.3393227
  59.3002906  29.8053085  34.7086314  59.6218747  30.3458293  34.1047622
  59.9475003  29.2349857  34.8408604  59.4428962  29.8012260  34.6393349
  61.3504614  21.8069080  34.7920701  62.0484779  21.9857208  35.2842164
  61.6656947  21.2839420  34.1691090  61.4999952  21.7562852  34.7722711
  53.9805852  23.6121820  42.7031807  53.8564549  24.1984266  43.3381625
  54.6324136  23.1182016  43.0044082  54.0579501  23.6260625  42.8417736
  61.5392550  28.1939525  34.7800492  61.9786185  27.5856626  35.2255265
  61.3897213  27.8146899  34.0085957  61.5814015  28.0477996  34.7319660
  59.0064193  26.7883537  41.9819318  59.6513195  26.2955980  41.6630266
  59.2465970  26.9308324  42.8085396  59.1374778  26.7360979  42.0568851
  61.5450284  29.6338443  41.6326210  61.8273527  28.8389849  41.4112966
  62.2736445  30.1119030  41.6531271  61.6939848  29.5873040  41.6029225
  59.5231478  17.1761477  38.8741975  59.1934808  17.6272620  38.2045674
  58.8476480  17.0977640  39.4214982  59.3741914  17.2312612  38.8565199
  65.1401886  26.5466706  31.7331261  65.0553181  27.4027673  31.8780830
  65.6286270  26.2711031  32.4013421  65.1990784  26.6324028  31.8533343
  66.7307886  13.1647000  37.1191586  66.4161327  13.8550478  37.5512008
  66.2134827  13.1091782  36.4177087  66.6072356  13.2581888  37.0788535
  66.0720320  23.1651501  33.2328997  65.5431791  23.3811134  33.8926303
  66.5945339  23.8587639  33.1529966  66.0708773  23.2994638  33.3184596
  71.5268372  28.7397805  38.6062041  70.6966076  28.9508449  38.7695458
  71.4777625  27.9134860  38.3304325  71.3975108  28.6487411  38.5899406
  57.9619927  27.0614717  32.0336465  57.3777143  27.5664749  32.4402328
  57.5590023  26.8357104  31.2933056  57.8159231  27.1022966  31.9841490
  59.5878110  31.5701659  41.4409951  59.0705052  31.2109074  40.8371259
  60.2852501  31.0463834  41.4516017  59.6143691  31.4399347  41.3540209
  63.2441702  32.0196473  47.4026124  63.3325048  31.8322614  48.2504334
  63.6731415  31.3733903  47.0030970  63.3203804  31.8959481  47.4697875
  60.8112162  31.3027633  46.3843786  60.2482997  30.8900243  46.9083447
  61.5733185  31.2280539  46.8036929  60.8406610  31.2305034  46.5236786
  62.4197142  23.3080370  30.5105385  62.6593145  23.5158353  29.6980728
  62.7412983  22.5037878  30.6194330  62.5034300  23.2194471  30.4065938
  57.7287432  15.2373765  34.3564923  58.4833400  15.6052082  34.1181973
  57.5514967  15.6113320  35.1244103  57.8141910  15.3471953  34.4349812
  71.0222331  21.3868206  42.4012462  70.1850752  21.4570393  42.6360057
  70.9910562  21.3892701  41.5286765  70.8940613  21.3978433  42.3072010
  57.4187060  23.5301241  48.1160831  57.5907564  23.4207136  48.9646112
  57.9556417  24.1755647  47.8792023  57.5232064  23.6093243  48.2065928
  56.0844497  17.6444084  31.0543036  55.9020070  17.8615965  30.2284029
  56.9470110  17.7583097  31.1101650  56.1849086  17.6933982  30.9397523
  55.6958929  29.4832006  38.4966024  56.5347828  29.7154939  38.5439786
  55.7270698  28.6136318  38.4273059  55.8240646  29.3888953  38.4930669
  56.3211632  29.9032882  42.7979329  56.8609857  29.7604013  43.4682702
  55.6381578  30.3029632  43.1663356  56.3003786  29.9412553  42.9513751
  61.7644216  14.6470495  34.0892060  62.4930376  14.4686450  33.6430216
  61.8539109  15.4888575  34.2999238  61.8850878  14.7454373  34.0545578
  65.7452517  25.5823882  37.9924354  66.5010032  26.0155397  38.0313263
  65.8514841  24.9328652  38.5658990  65.8722687  25.5501366  38.0822379
  68.7832688  29.4097160  38.7426757  68.3467920  29.4133902  39.4985728
  68.4495603  30.0902659  38.3106334  68.6695308  29.5109615  38.7907589
  63.3561761  31.4505492  50.0669907  64.1402178  31.5636340  50.4325649
  63.1558356  30.6246629  50.2628593  63.4427787  31.3452212  50.1504293
  51.7248777  26.1233172  42.9513751  51.4587192  25.3072289  43.1104741
  51.7387341  26.1686328  42.0809267  51.6873499  26.0090077  42.8467233
  68.7030171  16.4510987  40.9856185  69.3456079  16.5209092  41.5718100
  68.9553191  15.7840210  40.4835727  68.8352303  16.3637336  40.9983464
  55.6306524  20.9218257  29.5665509  54.9164701  20.6356436  29.9787942
  56.1150492  21.2614883  30.2071897  55.5965887  20.9299907  29.7221144
  56.4747383  19.6611551  45.5980759  55.7819180  19.1908530  45.8441490
  57.0907710  19.4349855  46.1722466  56.4631913  19.5578683  45.7189911
  63.5132155  33.3615594  43.7136363  62.7147400  33.1215094  43.9710231
  63.9618166  33.4129987  44.4603410  63.4606766  33.3337986  43.8621287
  71.9177034  26.1278079  37.6346394  72.5793468  25.5668748  37.5342303
  71.2768446  25.6330110  37.9599085  71.9205901  25.9714488  37.6678734
  62.8053842  29.4248211  29.9427317  63.2204990  29.0933235  29.2511813
  61.9745771  29.1917113  29.8147454  62.7441850  29.3419467  29.8218165
  68.2041865  27.1443462  37.3758383  68.4397454  27.2888661  36.5485233
  68.3531428  27.9085870  37.7689896  68.2607668  27.2782516  37.3121987
  55.1987942  23.6276955  46.7407604  55.9227914  23.6129985  47.2272499
  55.3004079  24.3372310  46.2429572  55.3206151  23.7301658  46.7386391
  70.0332321  25.9845128  35.2127987  70.3640538  26.5172768  34.6068081
  70.6065409  26.0384016  35.8689938  70.1666000  26.0714697  35.2205768
  62.5732891  27.1076039  51.6056551  61.7805872  27.4219551  51.7909171
  62.6881819  27.3227508  50.7677336  62.4728302  27.1859876  51.5094886
  65.2464210  23.8310030  35.8951567  65.3411065  24.5699325  36.3491192
  64.6223054  23.4027506  36.3286131  65.1673241  23.8771351  36.0259714
  63.5016684  27.0096243  46.5441848  64.0755546  26.3723487  46.6990412
  63.4231488  27.0100326  45.6751505  63.5749919  26.9161354  46.4388259
  65.4987232  25.6758770  29.1288519  65.4167394  25.7460957  29.9943506
  66.1366952  26.2388514  28.9372259  65.5807069  25.7697741  29.2278468
  58.8580403  25.4419508  38.5963045  58.5999647  24.6091243  38.5694345
  58.9128886  25.6677121  37.7555545  58.8280181  25.3517279  38.4683182
  63.9381453  17.5447959  38.6967138  63.2337780  17.0557144  38.8551057
  63.9866427  17.5570433  37.8255582  63.8411505  17.4737607  38.5906478
  57.8315115  22.9957271  39.0827940  57.2564706  23.1549439  39.7191901
  57.4550791  22.3592680  38.6196390  57.6917927  22.9255084  39.1082498
  61.4988404  21.4680620  43.9420318  61.1102836  21.0434838  43.2872509
  60.8343102  21.7162770  44.4497345  61.3435331  21.4419341  43.9208186
  71.1411673  21.2255625  36.7168148  70.8848238  20.4135566  36.5266031
  71.9840987  21.2333192  36.4898336  71.2277698  21.1067622  36.6552965
  65.3214765  15.1655249  41.4544302  65.7025277  14.4833420  41.8412177
  64.5178050  14.8764851  41.2719967  65.2591227  15.0222297  41.4848358
  62.6027342  25.6979225  32.1397125  63.4167981  25.9894117  32.0279897
  62.5386483  25.0439087  31.5655418  62.7130081  25.6444419  32.0385963
  68.8236832  28.3805221  46.5526701  68.5875470  27.5493285  46.4338761
  69.4680061  28.3290828  47.1381545  68.8831503  28.2502909  46.6212594
  58.4735250  29.1700742  37.2669437  59.1109197  28.9312490  37.8121231
  58.8990322  29.3737901  36.5322598  58.6311416  29.1651752  37.2386595
  59.1138065  24.3903032  31.6044327  59.4983218  24.1710738  32.3560872
  58.8649686  25.2165977  31.7345403  59.1340138  24.4801178  31.7345403
  59.2806606  17.6709447  51.3206911  58.9660047  18.4409010  51.0576474
  58.9596538  17.1079703  50.7359138  59.1865525  17.7019716  51.1948261
  69.8473253  28.1649669  42.6154995  69.5419070  28.8977726  42.9768311
  69.1279468  27.7587599  42.3347781  69.6960595  28.2131402  42.6268132
  60.8556722  29.6473165  38.9463224  60.9295730  29.4848336  39.8005073
  61.6726229  29.8363354  38.7023705  60.9873081  29.6509907  39.0361249
  75.5475045  24.8042670  41.9423340  75.4799545  24.8238629  41.0725926
  75.5330707  25.6472997  42.1679010  75.5353801  24.9316405  41.8475816
  56.8338503  16.0599968  36.9353107  55.9660928  16.1322568  37.0010716
  57.1213707  16.8622047  37.1241082  56.7478251  16.1894116  36.9727874
  65.9571391  16.2077828  45.2664429  66.7024983  16.0187638  44.8527854
  65.5408696  16.7336066  44.7078285  66.0056366  16.2579973  45.1229002
  59.3961308  32.6107908  33.6776697  59.6859606  32.2196889  32.9535924
  60.1264789  32.7924613  34.1181972  59.5468192  32.5801721  33.6359504
  73.3333662  23.5787056  40.2169934  73.8841584  22.9455125  40.4567026
  73.3177778  24.1102449  40.9085438  73.4118859  23.5636004  40.3548792
  59.9856053  27.4125654  44.7629827  59.4867747  28.1241421  44.8414716
  60.7956277  27.7326320  44.7247990  60.0312160  27.5652502  44.7686396
  56.2484171  26.6748607  39.0092548  55.9597419  26.0486078  39.5438276
  57.1167519  26.6168894  39.0757229  56.3344423  26.5736151  39.0983503
  67.0362068  21.8183390  39.3274530  66.6926834  21.0973725  39.6781780
  67.1355111  21.6097241  38.4852888  67.0004111  21.6807593  39.2546210
  59.5035179  35.9604680  35.5267539  60.1559237  35.4281122  35.7558565
  58.8060788  35.6073332  35.9135413  59.4965897  35.8294203  35.6179707
  56.4516444  28.3143858  34.9334913  57.2062412  28.6956897  35.1470376
  55.8587057  28.7655001  35.3881610  56.4753158  28.4372685  35.0317792
  67.4975098  28.2809094  34.8698518  68.0633130  28.9402304  34.7857061
  66.8503001  28.6258792  35.3414920  67.4853854  28.4291035  34.9271275
  58.9123111  20.2706698  50.0592126  58.1022887  20.5764478  49.9481968
  59.3897798  20.9912280  50.1744710  58.8626590  20.4221299  50.0599197
  57.7714671  29.4852419  40.3075029  57.2495424  29.6252711  40.9926893
  58.1588691  28.7263083  40.4977146  57.7518372  29.3937943  40.4376105
  54.7605855  19.5358228  34.3769983  54.4730650  19.1659498  33.6401931
  55.4476323  20.0053083  34.1153688  54.8194752  19.5505197  34.2285059
  63.9681676  31.2247878  34.2935598  63.7268352  30.4915739  33.8862663
  64.1483009  31.7734735  33.6401931  63.9589300  31.1970269  34.1365820
  59.1980996  26.5156438  35.7056520  59.0023779  27.1231173  35.1116823
  59.4215342  25.8224382  35.2248194  59.2015637  26.5033964  35.5472601
  57.5959526  23.4011176  35.8237388  58.3182178  23.5652334  35.3641194
  57.1167519  24.1220841  35.7176728  57.6323257  23.5309406  35.7403002
  65.5553034  19.7374975  41.2034073  64.7164134  19.7636254  40.9672336
  65.6257401  20.3845710  41.7839420  65.4421427  19.8371101  41.2543190
  55.2467143  25.8069248  44.9291528  55.7588240  26.0853502  44.2800288
  54.9603486  26.5458542  45.2954341  55.2802006  25.9571602  44.8881406
  64.0022312  16.6360352  35.9361689  64.7048665  16.4368100  35.4581647
  63.7366501  15.8636294  36.2430532  64.0668944  16.4923318  35.9107131
  69.4310558  24.9442962  38.4895315  69.3444532  25.0998388  39.3430094
  68.9761038  25.5881037  38.1154720  69.3513814  25.0618717  38.5602422
  52.3334049  20.3139440  35.2255265  52.4350186  21.1165602  35.5536240
  53.1289936  20.1126776  34.9278345  52.4661955  20.4025339  35.2290620
  58.7650868  17.8995637  44.9892570  58.5734065  17.9150771  45.8391993
  59.6149464  18.0959311  44.9659224  58.8626590  17.9309988  45.1115864
  53.1497781  20.4286618  42.9676386  53.0083273  19.5770559  43.0920894
  53.4338345  20.4715279  42.1438592  53.1705627  20.3086368  42.8644010
  63.3036374  22.2653709  37.1120874  63.0571088  22.1849460  37.9457663
  63.6321497  21.4807176  36.9183402  63.3157617  22.1379974  37.2068397
  67.1984423  28.9737068  40.9007656  67.0598782  29.6718114  41.4056398
  66.4184420  28.8185724  40.5443837  67.0627649  29.0537235  40.9233930
  65.5362508  25.2733443  47.1530037  65.5310546  24.4013260  47.1572464
  66.2423502  25.4721612  46.6799493  65.6407512  25.1737317  47.0837073
  59.2633401  25.0010427  46.5243857  59.4076777  25.5811635  45.8886967
  59.6109050  25.3786724  47.2293712  59.3360862  25.1431131  46.5342852
  61.4353318  24.2000596  44.3068989  60.6876632  24.3931610  43.9017267
  61.5894844  23.3745815  44.0693110  61.3475746  24.1065707  44.2114395
  58.3361156  33.1913199  43.3904884  58.4850720  32.6316115  42.7378289
  59.1161158  33.2705201  43.7737403  58.4735250  33.1198765  43.3501833
  68.6937795  28.3315322  31.6624155  68.3144604  27.5452460  31.6553444
  68.0304041  28.8802179  31.5195799  68.5396270  28.2960146  31.6404952
  60.8614457  33.3627842  44.6689375  60.7858128  32.6936652  45.2240163
  60.7904316  34.0645630  45.1830041  60.8395064  33.3672749  44.8266223
  61.6755095  18.0951146  45.1964393  62.1327710  18.8275121  45.3237185
  61.7511424  17.6717612  45.9551649  61.7546065  18.1408384  45.3265469
  53.9188087  18.3416966  46.2853836  53.3830276  17.7297324  46.6014604
  53.9805851  18.9165102  46.9387503  53.8483719  18.3363894  46.4289263
  66.1482421  11.2741022  39.0658236  66.2665989  11.7317485  38.3325538
  65.9744597  10.4686283  38.7794453  66.1401592  11.2234794  38.9159169
  61.5184704  31.8828841  35.5012981  62.2834595  31.6138485  35.1795645
  61.4162794  31.3978851  36.2183044  61.6166199  31.7718405  35.5592809
  59.5537473  20.0853250  42.0406217  58.7633548  19.9044710  42.3623553
  59.9498096  19.3080203  42.0236511  59.4954350  19.9440711  42.0858765
  64.0403364  28.9141025  27.4812930  64.8076349  28.9741150  27.0718782
  63.5934673  28.3421466  26.9969249  64.0876791  28.8377600  27.3490641
  64.9381160  27.7195680  39.7665663  64.2626161  27.4880913  40.2679050
  64.9473536  27.1116863  39.1407768  64.8399664  27.5954606  39.7481815
  62.0675304  22.5613509  46.5229716  62.0034445  23.4223466  46.3949852
  62.2072491  22.2445503  45.7225267  62.0790774  22.6413676  46.3857929
  66.9397894  30.5760813  31.9975841  67.0217732  31.3827799  31.6737292
  67.4247636  30.5956772  32.7216614  67.0235052  30.6981475  32.0562739
  60.7494398  25.2545649  40.6645919  60.3256647  25.4550148  39.9284937
  60.5739253  24.4074497  40.7770218  60.6605278  25.1594430  40.5719609
  56.0376842  25.7497700  36.0973891  56.1941462  25.6844503  36.9529883
  56.3777436  26.5246253  35.8852571  56.1110077  25.8546898  36.1928485
  62.5755987  25.1255584  34.9667254  63.1171533  24.6225965  35.4305875
  62.8902546  25.0720778  34.1556740  62.7020384  25.0435005  34.9151066
  66.4473095  29.3358231  52.0794167  67.2607960  29.0643380  52.2399299
  66.2868061  29.0365771  51.2754362  66.5443043  29.2513157  51.9839572
  60.7442437  30.5172935  32.2507282  60.8135257  29.6587474  32.3900283
  61.5230892  30.7344816  31.9226307  60.8695287  30.4225799  32.2224440
  63.7245256  20.0191888  45.0189555  63.9387226  19.3802802  44.4652909
  63.1079156  20.4637712  44.5897417  63.6650586  19.9902032  44.8739986
  65.1349924  32.9410637  36.4643776  64.7429716  32.6377352  35.7466642
  65.2902997  33.7779726  36.2748729  65.1003514  33.0194473  36.3300273
  52.6111104  22.9332651  36.4134658  52.9910069  23.3517196  35.7494926
  52.0366469  23.5146106  36.7203502  52.5822429  23.0810509  36.3611399
  65.8884344  21.6280953  45.9572862  65.0761026  21.3206844  46.0386035
  66.3474279  21.1479954  46.5215574  65.8364729  21.5117446  46.0527456
  65.2989599  29.5060625  36.4049806  64.9404254  29.6775268  37.1813839
  64.8128310  29.9673831  35.8477805  65.1748296  29.5999596  36.4375075
  63.1159985  13.1291824  40.0076898  62.2453543  13.1030545  39.9610207
  63.3700326  12.9569016  39.1902743  63.0253545  13.1001968  39.8797034
  60.0877965  25.1859791  28.9450041  60.3770489  25.9624673  29.2193615
  60.1749763  24.6748522  29.6464540  60.1432221  25.2251709  29.0892538
  62.9837852  23.0341025  50.7401564  63.4537483  23.6583141  51.1269438
  63.0299732  22.3658000  51.2994779  63.0605728  23.0275705  50.8801636
  60.1409126  15.1398052  41.4650368  59.6247614  14.4478244  41.5901947
  59.5803055  15.8068829  41.4112967  59.9815639  15.1361310  41.4756434
  62.2101359  15.6791012  43.2943221  61.8233112  15.7040044  44.0756750
  61.7234296  15.1132691  42.8417737  62.0813868  15.5986763  43.3431124
  66.4594339  30.3964521  47.3517007  67.0974059  29.9024717  47.0179463
  65.8168430  30.3241922  46.7669234  66.4588565  30.3123530  47.2159362
  68.1851339  22.2453667  41.9182923  67.7578947  22.1580016  41.1631022
  67.5477392  22.3531443  42.5037767  68.0280946  22.2486327  41.8928364
  61.8758501  12.5657998  45.5853480  62.5051619  13.1018298  45.3074551
  62.0444364  12.4735357  46.4367046  61.9936295  12.6319360  45.6702009
  61.6772416  17.3529193  47.8579892  62.5045845  17.0814341  47.9138507
  61.6980262  18.1490034  48.2143710  61.8025266  17.4308947  47.9195075
  66.5148595  31.0884330  43.9922364  67.3040973  30.7373394  44.1124446
  66.6892193  31.9020718  43.7298998  66.6568877  31.1570187  43.9710232
  56.2541906  24.4993055  41.0450153  55.4129912  24.3996930  41.2529047
  56.4631913  25.2688536  41.3964473  56.1606598  24.5985099  41.1277468
  53.7317472  22.1212592  38.8734903  53.3374170  22.1955604  38.0985013
  53.1757589  22.5070539  39.4243265  53.5920285  22.1894367  38.8402563
  65.3682419  15.0993886  38.5538782  65.5732013  15.0316194  39.3995779
  65.0408843  15.9052708  38.4859960  65.3497667  15.2079827  38.6698437
  60.0658570  22.4274455  40.2947750  59.7621708  21.8730443  40.8958158
  59.3637991  22.6066665  39.8075784  59.9174780  22.3719237  40.3117456
  59.1224667  19.7374974  34.8592452  59.3984402  19.0193887  34.4470020
  59.7223337  20.3359894  34.6513558  59.2517932  19.7195345  34.7673213
  58.1276921  29.6424175  45.0019848  58.0197276  29.6526237  45.8681906
  58.3372703  30.4678956  44.8124802  58.1427032  29.7665250  45.1023940
  68.6216107  15.6525651  38.0341548  68.0090421  16.1396053  38.4195280
  68.7180282  14.9769141  38.5779199  68.5454005  15.6243959  38.1720406
  62.6235188  17.4088492  33.1339047  63.0778935  17.5799052  33.8586892
  63.0975234  16.7956602  32.7336823  62.7603508  17.3439377  33.1812809
  56.1450713  26.8936818  42.4641786  55.5538647  27.5346316  42.4344801
  56.9071737  27.3174435  42.4373085  56.1698974  27.0512656  42.4556933
  56.5411336  18.0538815  43.1309803  57.0012818  18.1277745  43.8684927
  56.5867443  18.8520069  42.7809625  56.6161892  18.1832962  43.1882560
  58.1894686  18.7205510  47.6981830  57.7980251  18.0738857  48.1337608
  58.3580549  19.3116946  48.3176086  58.1565596  18.7119778  47.8544536
  72.2641135  26.7242587  43.4619064  72.3224259  27.1729236  44.2079040
  71.6307603  27.1341400  43.0249144  72.1792430  26.8516322  43.5071612
  65.9040230  32.3446129  39.8973810  65.7059918  32.8336944  39.2030021
  65.2827941  32.5487371  40.4757943  65.7827794  32.4462667  39.8797033
  59.9648208  24.1131026  34.2384054  60.7090253  24.5005302  34.4767004
  60.1108904  23.2688451  34.4024542  60.0958793  24.0461499  34.2978024
  61.8827783  15.9081285  39.2715916  61.0363829  16.0804093  39.1457266
  61.8798916  15.1030629  39.6081744  61.7574933  15.8142314  39.3027043
  62.9526084  19.6856499  40.1377974  62.4786038  19.1598261  40.6483285
  63.3244220  19.1385972  39.5692835  62.9375973  19.5272496  40.1293121
  53.3299114  21.6828006  45.5061519  54.1924727  21.5823715  45.4198849
  52.9990897  21.1022715  44.9447092  53.4084310  21.5819633  45.4106925
  69.2162814  24.7458875  41.5484754  68.9761037  23.9065290  41.5527181
  69.6954822  24.8259042  42.2725528  69.2514998  24.6340275  41.6559557
  64.8809584  20.5793054  33.2003727  64.3532602  20.6621798  32.5109436
  65.3405292  21.3210925  33.1968372  64.8711434  20.7013716  33.0978423
  71.2168001  21.5260332  39.5014013  70.9777771  21.4856166  38.6634798
  71.3801903  22.3731484  39.6279734  71.2058305  21.6452417  39.3967495
  67.8214032  25.9110282  45.4319058  68.5448230  25.4582808  45.2530078
  67.5563994  26.1914947  44.6491386  67.8895305  25.8861250  45.2897774
  56.6900900  20.5070455  42.1671938  56.0653970  20.5188847  41.5597890
  56.3546495  20.9830630  42.8163178  56.5486392  20.5788972  42.1728506
  56.8742649  18.8495574  28.2244623  56.5255453  19.5015299  28.6876172
  56.3939094  18.8352687  27.4968494  56.7512893  18.9438627  28.1855714
  53.4026575  28.5670915  43.6075702  52.8726500  27.8763354  43.6570677
  53.6751669  28.5581100  42.7788410  53.3651298  28.4638047  43.4923118
  64.4346666  29.1496618  32.3313385  65.1580865  29.6154731  32.1877958
  63.9947257  29.2170227  31.5810982  64.4762358  29.2280454  32.1998166
  63.6032821  26.0094160  43.5814074  62.9889814  25.4652210  43.8762709
  64.1200106  25.4958396  43.1019890  63.5888483  25.8530569  43.5538302
  62.8429118  27.0798430  41.3158372  62.4156726  26.4548148  40.8823808
  62.8354063  26.7973352  42.1417379  62.7788259  26.9451210  41.3738200
  55.9591645  22.1163603  44.3846806  56.1185132  21.3606927  44.7898528
  55.7784539  22.6654542  45.0387544  55.9557004  22.0857417  44.5409512
  63.9011948  14.2824838  44.9397596  63.4052510  14.4788513  44.2489162
  64.6581010  14.6817507  44.7686397  63.9398773  14.3702572  44.8117732
  61.1714828  17.9567184  41.5300906  61.1957315  17.4227297  40.8413686
  61.4226302  17.4484493  42.1926497  61.2124747  17.8028088  41.5265551
  57.4516150  16.6838003  40.9106650  57.4914522  17.1847209  41.6241358
  56.6265815  16.7748396  40.6412574  57.3355676  16.7719819  40.9757189
  59.6345763  26.2498743  49.0126945  58.7841394  26.3870457  49.1484590
  59.7973891  25.5162521  49.4574647  59.5329627  26.1612844  49.0982544
  58.8730514  23.1998512  43.2080549  58.0422443  23.3672330  43.0015798
  58.8182031  22.8234463  43.9929435  58.7419928  23.1688244  43.2929078
  56.6814297  16.6907405  48.8436960  57.3067000  16.1469538  49.1166392
  56.2264777  16.2102323  48.2744751  56.7062557  16.5396887  48.7998554
  57.2466557  21.4754104  33.7370667  57.3869518  21.9726568  34.4399309
  57.7449090  20.7740398  33.8784881  57.3407638  21.4456083  33.8622246
  57.2766780  22.3421215  31.0663244  57.9111859  22.9381640  31.0012706
  57.3592391  22.0424673  31.8809114  57.3823331  22.3862123  31.1766331
  70.2549346  24.8736692  43.9349608  70.8467186  25.5133943  43.9667806
  70.6908340  24.1759729  44.2241675  70.4067777  24.8655043  43.9830441
  58.8545763  18.2735190  31.0408686  59.1761604  17.7938273  30.3867948
  59.1172706  19.0834836  30.8499498  58.9411788  18.3225088  30.9164178
  62.0842735  29.2954065  44.5607502  61.5767826  29.8489912  45.0048133
  61.7869382  29.3562355  43.7426277  61.9647620  29.3860376  44.5055959
  64.2504918  17.6607384  43.4032165  64.6759989  17.2079911  42.7915692
  63.6361911  17.1067455  43.6796953  64.2233563  17.5121361  43.3537190
  53.7819768  24.5389056  34.3352790  54.2911997  25.1353563  34.7164096
  54.2554040  24.2715029  33.6529210  53.9263143  24.5874871  34.2907313
  64.6950516  33.2117322  32.4911446  63.9779825  33.0378185  32.0258683
  65.3457253  32.9769895  31.9586932  64.6852366  33.1513115  32.3440664
  62.6899140  14.1322484  36.8122742  62.0467458  13.9820131  37.3807881
  62.3498547  13.8864829  36.0471847  62.5444218  14.0734607  36.7825757
  67.2798487  22.0881911  36.2352751  66.6089677  22.6311613  36.1065816
  67.9738237  22.5576766  35.9934446  67.2827354  22.2380182  36.1808278
  61.3285221  34.2278623  41.4664509  61.1050875  33.4697452  41.8348535
  60.8395064  34.2576644  40.7444949  61.2228670  34.1200847  41.4141250
  67.4426614  18.5437795  39.1443124  67.7954224  18.1167518  39.8188923
  66.5841416  18.4588638  39.2744200  67.3676059  18.4682535  39.2638134
  56.1410299  21.1745314  37.2025970  55.4222288  21.5909447  37.4698834
  56.5122662  21.7399553  36.6517609  56.0902231  21.3194596  37.1608777
  65.4409880  21.8073163  43.0927966  65.4207807  21.6256458  43.9462745
  65.4889081  22.6785182  43.0687550  65.4444521  21.9089701  43.2151261
  63.3856210  28.3960355  49.0176443  63.3452065  27.7510032  48.4321599
  64.1979528  28.3396973  49.3301855  63.4999364  28.2919322  48.9773392
  59.9763678  34.4479081  38.9201594  59.5624076  33.7853211  38.5305435
  60.6611052  34.5956940  38.3997288  60.0162049  34.3719739  38.7858091
  63.3428972  33.6069166  39.6725210  62.9445255  33.7171437  38.9046030
  62.7280191  33.8151233  40.2551770  63.1927861  33.6542734  39.6456510
  61.9156874  20.2143314  32.5399350  61.3221713  20.5360311  31.9883917
  61.9532151  19.3684410  32.3320456  61.8331263  20.1367642  32.4282121
  68.8750674  13.6656206  40.0727436  68.3681539  12.9585346  40.0048614
  69.6718108  13.3349395  40.2028513  68.9177914  13.5129358  40.0826431
  64.7914690  20.1722819  35.9701100  64.5628383  20.1955520  35.1279458
  65.0512767  19.3480286  36.0896111  64.7960878  20.0538899  35.8626298
  59.0733919  22.0257292  45.5726200  58.5612822  21.4178475  45.9311232
  58.9013415  22.7413884  46.0400176  58.9723556  22.0420591  45.6942424
  53.9199633  20.4694867  48.2228562  53.7502224  21.1296242  47.6776769
  53.4765583  20.6801428  48.9441051  53.8298967  20.5980849  48.2490192
  57.8459453  18.7099365  37.2655296  58.3216819  19.0716445  36.6305477
  57.3448052  19.3655833  37.5455439  57.8424812  18.8593554  37.2132037
  71.0770814  28.1821133  33.0568301  71.4604420  28.9312489  33.2866398
  70.2814928  28.4286953  32.7980290  71.0164597  28.3290827  33.0525874
  62.9502989  19.9481536  48.0128456  63.5074419  19.7195346  47.3806921
  62.6264054  20.7087202  47.7363668  62.9849399  20.0265373  47.8784953
  60.6686106  23.0349190  48.9780463  61.4197433  23.3500867  49.2920017
  60.8608683  22.8328361  48.1514385  60.8077521  23.0516571  48.9023859
  59.8886106  20.8540565  30.6328680  60.2685071  20.8720194  29.8479795
  59.1478702  21.2994554  30.5119527  59.8354944  20.9222339  30.4992248
  67.5171397  19.1622756  36.2204258  67.5165623  19.0071413  37.0788535
  67.3127577  20.0085743  36.1645644  67.4871174  19.2643377  36.3392198
  65.2412249  23.8420258  39.8740465  65.7365914  23.1243253  39.8344486
  64.4312024  23.5391055  39.7594952  65.1956142  23.6917904  39.8514191
  60.6870860  27.6918071  32.0237470  59.8782183  27.3684745  31.9770779
  61.1945769  26.9851293  31.9565718  60.6420527  27.5399387  32.0067764
  67.3064067  26.5923945  42.5617594  67.7319139  26.0698367  42.0088019
  66.9420987  27.1904783  42.0406217  67.3150670  26.6034172  42.4026604
  63.8942667  30.3058210  38.8918752  64.3653845  31.0198472  39.0608737
  64.2302845  29.7056960  39.4278621  64.0137782  30.3229674  38.9951127
  65.9819651  31.9159523  51.0710824  66.0916617  31.1268084  51.4267571
  66.3110548  31.8265459  50.2685162  66.0472057  31.7865376  51.0053214
  60.8112162  15.0785680  45.8476846  60.9440067  14.2816674  46.1757822
  61.1957315  15.6052083  46.4275122  60.8868491  15.0385597  45.9820349
  64.5316613  30.0976144  45.6546444  63.9837559  29.4734027  45.3866509
  64.9929642  30.2870416  44.9390524  64.5183823  30.0335194  45.5096875
  63.8844517  12.0016006  42.4457940  63.0790481  11.8913736  42.7625778
  63.7551252  12.1028462  41.5887805  63.7464650  11.9999676  42.3665980
  67.3410478  18.1661498  43.0397636  66.7573466  18.6670705  42.6275204
  67.6614772  17.6591054  42.4061960  67.3023653  18.1653333  42.8856144
  59.8805277  17.0802093  33.3156311  60.7020971  17.2500406  33.0738006
  59.4174928  17.2349354  32.5922609  59.9336439  17.1283826  33.1727956
  58.4700609  15.0744855  44.0954740  59.0145022  14.7335982  44.6859082
  58.5237544  15.9330317  44.2376025  58.5589728  15.1500115  44.2036613
  54.2831167  28.8361271  40.9693548  54.8876025  28.7957105  40.3407369
  54.0758480  29.6832423  40.9997604  54.3420065  28.9549274  40.8809665
  64.0974939  31.1027216  42.1855785  64.9173313  30.9590182  42.4472081
  63.8169017  31.7273415  42.7272223  64.1771683  31.1737568  42.3043725
  73.7688275  37.8467719  39.9051592  72.9126170  38.0076217  39.9560709
  73.8155928  36.9759783  39.9256653  73.6487386  37.7418521  39.9157658
  68.1529414  47.3830437  35.6688824  67.4012314  47.0045975  35.4404869
  68.6015426  47.4148871  34.9207634  68.1079081  47.3316044  35.5246326
  77.0781991  44.1154245  49.5112048  77.7848759  43.6206275  49.6398983
  77.2669927  44.5563326  48.7814706  77.2109897  44.1072595  49.4221094
  73.6054374  47.8055806  31.0974371  73.2705743  48.4832728  30.6618593
  74.1181245  47.4161118  30.5091242  73.6319955  47.8480385  30.9461162
  73.1458666  49.7570075  37.0385482  73.5298045  50.3256974  36.4990258
  73.0817807  49.0319585  36.5591298  73.1932093  49.7345539  36.8879345
  76.6140096  39.9059763  42.5483244  77.1596056  40.5844850  42.6077213
  76.5556972  39.7647224  41.6884825  76.6856010  39.9851765  42.4295304
  69.7314171  47.3948829  37.9351596  69.8324534  46.5849183  38.2448724
  69.1355916  47.3005776  37.3051275  69.6586709  47.2613857  37.8877835
  69.5714910  52.3126418  39.3366452  70.2152366  52.7539582  39.7262611
  69.8971166  51.5079844  39.2496711  69.7146739  52.2591613  39.3811930
  65.2269302  35.5854846  40.4588238  64.6074334  34.9947494  40.2898252
  65.1253166  36.1766282  39.8252561  65.1206978  35.5858929  40.3393227
  70.2735490  45.3238393  34.7086314  70.5951331  45.8643600  34.1047622
  70.9207586  44.7535165  34.8408604  70.4161545  45.3197568  34.6393349
  72.3237198  37.3254388  34.7920701  73.0217363  37.5042516  35.2842164
  72.6389530  36.8024727  34.1691090  72.4732535  37.2748160  34.7722711
  64.9538435  39.1307128  42.7031807  64.8297132  39.7169574  43.3381625
  65.6056720  38.6367324  43.0044082  65.0312085  39.1445932  42.8417736
  72.5125133  43.7124833  34.7800492  72.9518769  43.1041934  35.2255265
  72.3629796  43.3332206  34.0085957  72.5546599  43.5663304  34.7319660
  69.9796776  42.3068845  41.9819318  70.6245779  41.8141288  41.6630266
  70.2198553  42.4493632  42.8085396  70.1107361  42.2546287  42.0568851
  72.5182868  45.1523751  41.6326210  72.8006111  44.3575157  41.4112966
  73.2469028  45.6304338  41.6531271  72.6672431  45.1058348  41.6029225
  70.4964062  32.6946785  38.8741975  70.1667392  33.1457928  38.2045674
  69.8209063  32.6162948  39.4214982  70.3474498  32.7497920  38.8565199
  76.1134470  42.0652014  31.7331261  76.0285765  42.9212981  31.8780830
  76.6018853  41.7896338  32.4013421  76.1723367  42.1509336  31.8533343
  77.7040469  28.6832308  37.1191586  77.3893910  29.3735786  37.5512008
  77.1867411  28.6277090  36.4177087  77.5804940  28.7767196  37.0788535
  77.0452903  38.6836809  33.2328997  76.5164375  38.8996442  33.8926303
  77.5677923  39.3772947  33.1529966  77.0441356  38.8179945  33.3184596
  68.9352511  42.5800025  32.0336465  68.3509726  43.0850057  32.4402328
  68.5322606  42.3542412  31.2933056  68.7891815  42.6208274  31.9841490
  64.4896540  48.2954786  38.8360136  64.0064118  49.0205276  38.8119720
  65.3019858  48.5930917  38.9470294  64.5387287  48.4457140  38.8487415
  70.5610694  47.0886967  41.4409951  70.0437635  46.7294382  40.8371259
  71.2585085  46.5649142  41.4516017  70.5876275  46.9584655  41.3540209
  74.2174286  47.5381781  47.4026124  74.3057631  47.3507922  48.2504334
  74.6463998  46.8919211  47.0030970  74.2936388  47.4144789  47.4697875
  71.7844745  46.8212941  46.3843786  71.2215580  46.4085551  46.9083447
  72.5465769  46.7465847  46.8036929  71.8139194  46.7490342  46.5236786
  73.3929725  38.8265677  30.5105385  73.6325729  39.0343661  29.6980728
  73.7145566  38.0223186  30.6194330  73.4766883  38.7379779  30.4065938
  68.7020016  30.7559073  34.3564923  69.4565984  31.1237390  34.1181973
  68.5247550  31.1298628  35.1244103  68.7874494  30.8657261  34.4349812
  67.3440737  48.8110962  38.9880416  68.0461316  48.2962951  39.0453172
  67.2638220  49.1385114  39.7927291  67.4364497  48.7825189  39.1153208
  68.3919643  39.0486549  48.1160831  68.5640147  38.9392444  48.9646112
  68.9289001  39.6940955  47.8792023  68.4964647  39.1278551  48.2065928
  67.0577080  33.1629392  31.0543036  66.8752653  33.3801273  30.2284029
  67.9202693  33.2768405  31.1101650  67.1581670  33.2119290  30.9397523
  67.2944215  45.4218190  42.7979329  67.8342440  45.2789321  43.4682702
  66.6114162  45.8214940  43.1663356  67.2736369  45.4597861  42.9513751
  72.7376799  30.1655803  34.0892060  73.4662960  29.9871758  33.6430216
  72.8271692  31.0073883  34.2999238  72.8583462  30.2639681  34.0545578
  76.7185100  41.1009190  37.9924354  77.4742615  41.5340705  38.0313263
  76.8247425  40.4513960  38.5658990  76.8455271  41.0686674  38.0822379
  74.3294345  46.9690800  50.0669907  75.1134761  47.0821648  50.4325649
  74.1290939  46.1431937  50.2628593  74.4160370  46.8637520  50.1504293
  66.6039107  36.4403565  29.5665509  65.8897284  36.1541744  29.9787942
  67.0883076  36.7800191  30.2071897  66.5698471  36.4485214  29.7221144
  67.4479967  35.1796859  45.5980759  66.7551763  34.7093838  45.8441490
  68.0640294  34.9535163  46.1722466  67.4364497  35.0763990  45.7189911
  74.4864738  48.8800902  43.7136363  73.6879984  48.6400402  43.9710231
  74.9350750  48.9315295  44.4603410  74.4339349  48.8523294  43.8621287
  73.7786425  44.9433519  29.9427317  74.1937574  44.6118543  29.2511813
  72.9478355  44.7102421  29.8147454  73.7174434  44.8604775  29.8218165
  66.1720526  39.1462263  46.7407604  66.8960498  39.1315293  47.2272499
  66.2736662  39.8557618  46.2429572  66.2938735  39.2486966  46.7386391
  73.5465475  42.6261347  51.6056551  72.7538456  42.9404859  51.7909171
  73.6614402  42.8412816  50.7677336  73.4460886  42.7045184  51.5094886
  76.2196794  39.3495338  35.8951567  76.3143648  40.0884632  36.3491192
  75.5955638  38.9212814  36.3286131  76.1405824  39.3956659  36.0259714
  74.4749268  42.5281551  46.5441848  75.0488130  41.8908795  46.6990412
  74.3964072  42.5285633  45.6751505  74.5482503  42.4346662  46.4388259
  76.4719815  41.1944078  29.1288519  76.3899978  41.2646265  29.9943506
  77.1099536  41.7573822  28.9372259  76.5539653  41.2883049  29.2278468
  69.8312986  40.9604816  38.5963045  69.5732231  40.1276551  38.5694345
  69.8861469  41.1862429  37.7555545  69.8012764  40.8702587  38.4683182
  74.9114037  33.0633267  38.6967138  74.2070363  32.5742452  38.8551057
  74.9599011  33.0755741  37.8255582  74.8144088  32.9922915  38.5906478
  68.8047699  38.5142579  39.0827940  68.2297290  38.6734747  39.7191901
  68.4283375  37.8777988  38.6196390  68.6650511  38.4440392  39.1082498
  72.4720987  36.9865928  43.9420318  72.0835420  36.5620146  43.2872509
  71.8075686  37.2348078  44.4497345  72.3167915  36.9604649  43.9208186
  76.2947349  30.6840557  41.4544302  76.6757861  30.0018728  41.8412177
  75.4910633  30.3950159  41.2719967  76.2323811  30.5407605  41.4848358
  73.5759926  41.2164532  32.1397125  74.3900564  41.5079425  32.0279897
  73.5119067  40.5624395  31.5655418  73.6862665  41.1629727  32.0385963
  69.4467834  44.6886050  37.2669437  70.0841781  44.4497797  37.8121231
  69.8722905  44.8923209  36.5322598  69.6044000  44.6837060  37.2386595
  70.0870649  39.9088340  31.6044327  70.4715802  39.6896046  32.3560872
  69.8382269  40.7351285  31.7345403  70.1072721  39.9986486  31.7345403
  70.2539189  33.1894755  51.3206911  69.9392630  33.9594318  51.0576474
  69.9329122  32.6265011  50.7359138  70.1598108  33.2205024  51.1948261
  71.8289306  45.1658473  38.9463224  71.9028314  45.0033644  39.8005073
  72.6458812  45.3548662  38.7023705  71.9605664  45.1695215  39.0361249
  67.8071086  31.5785276  36.9353107  66.9393512  31.6507876  37.0010716
  68.0946291  32.3807355  37.1241082  67.7210834  31.7079423  36.9727874
  76.9303975  31.7263136  45.2664429  77.6757567  31.5372946  44.8527854
  76.5141280  32.2521374  44.7078285  76.9788949  31.7765281  45.1229002
  70.3693891  48.1293216  33.6776697  70.6592190  47.7382197  32.9535924
  71.0997372  48.3109921  34.1181972  70.5200776  48.0987029  33.6359504
  70.9588637  42.9310962  44.7629827  70.4600330  43.6426729  44.8414716
  71.7688861  43.2511628  44.7247990  71.0044743  43.0837810  44.7686396
  68.3099807  50.1060598  36.7436847  68.0900102  49.8157953  37.5363514
  68.0894329  49.4475553  36.2154759  68.2447401  49.9660306  36.7825755
  78.0094652  37.3368698  39.3274530  77.6659418  36.6159033  39.6781780
  78.1087695  37.1282549  38.4852888  77.9736695  37.1992901  39.2546210
  70.4767763  51.4789988  35.5267539  71.1291821  50.9466430  35.7558565
  69.7793371  51.1258640  35.9135413  70.4698481  51.3479511  35.6179707
  69.8855695  35.7892006  50.0592126  69.0755470  36.0949786  49.9481968
  70.3630381  36.5097588  50.1744710  69.8359173  35.9406607  50.0599197
  68.7447254  45.0037727  40.3075029  68.2228008  45.1438019  40.9926893
  69.1321275  44.2448391  40.4977146  68.7250955  44.9123251  40.4376105
  65.7338438  35.0543536  34.3769983  65.4463234  34.6844806  33.6401931
  66.4208907  35.5238391  34.1153688  65.7927336  35.0690505  34.2285059
  74.9414259  46.7433186  34.2935598  74.7000935  46.0101047  33.8862663
  75.1215592  47.2920043  33.6401931  74.9321883  46.7155577  34.1365820
  70.1713580  42.0341746  35.7056520  69.9756362  42.6416480  35.1116823
  70.3947925  41.3409690  35.2248194  70.1748221  42.0219271  35.5472601
  68.5692110  38.9196484  35.8237388  69.2914762  39.0837642  35.3641194
  68.0900103  39.6406149  35.7176728  68.6055841  39.0494713  35.7403002
  76.5285617  35.2560283  41.2034073  75.6896718  35.2821562  40.9672336
  76.5989985  35.9031018  41.7839420  76.4154011  35.3556409  41.2543190
  66.2199727  41.3254556  44.9291528  66.7320823  41.6038810  44.2800288
  65.9336069  42.0643850  45.2954341  66.2534590  41.4756910  44.8881406
  74.9754896  32.1545660  35.9361689  75.6781249  31.9553408  35.4581647
  74.7099084  31.3821602  36.2430532  75.0401528  32.0108626  35.9107131
  63.3066633  35.8324748  35.2255265  63.4082769  36.6350910  35.5536240
  64.1022520  35.6312084  34.9278345  63.4394539  35.9210647  35.2290620
  69.7383452  33.4180945  44.9892570  69.5466649  33.4336079  45.8391993
  70.5882048  33.6144619  44.9659224  69.8359174  33.4495296  45.1115864
  64.1230365  35.9471926  42.9676386  63.9815857  35.0955867  43.0920894
  64.4070928  35.9900587  42.1438592  64.1438211  35.8271676  42.8644010
  74.2768957  37.7839017  37.1120874  74.0303672  37.7034767  37.9457663
  74.6054080  36.9992484  36.9183402  74.2890201  37.6565282  37.2068397
  78.1717006  44.4922376  40.9007656  78.0331365  45.1903422  41.4056398
  77.3917004  44.3371032  40.5443837  78.0360233  44.5722543  40.9233930
  76.5095091  40.7918751  47.1530037  76.5043130  39.9198568  47.1572464
  77.2156085  40.9906920  46.6799493  76.6140095  40.6922625  47.0837073
  70.2365985  40.5195735  46.5243857  70.3809360  41.0996943  45.8886967
  70.5841633  40.8972032  47.2293712  70.3093446  40.6616439  46.5342852
  72.4085902  39.7185904  44.3068989  71.6609216  39.9116918  43.9017267
  72.5627427  38.8931123  44.0693110  72.3208330  39.6251015  44.2114395
  69.3093740  48.7098507  43.3904884  69.4583303  48.1501423  42.7378289
  70.0893742  48.7890509  43.7737403  69.4467833  48.6384072  43.3501833
  71.8347040  48.8813150  44.6689375  71.7590711  48.2121960  45.2240163
  71.7636899  49.5830938  45.1830041  71.8127647  48.8858057  44.8266223
  72.6487679  33.6136454  45.1964393  73.1060293  34.3460429  45.3237185
  72.7244008  33.1902919  45.9551649  72.7278649  33.6593692  45.3265469
  64.8920670  33.8602274  46.2853836  64.3562860  33.2482632  46.6014604
  64.9538435  34.4350410  46.9387503  64.8216303  33.8549202  46.4289263
  77.1215005  26.7926329  39.0658236  77.2398573  27.2502793  38.3325538
  76.9477181  25.9871591  38.7794453  77.1134176  26.7420102  38.9159169
  72.4917287  47.4014149  35.5012981  73.2567178  47.1323792  35.1795645
  72.3895377  46.9164159  36.2183044  72.5898783  47.2903713  35.5592809
  70.5270057  35.6038558  42.0406217  69.7366132  35.4230018  42.3623553
  70.9230680  34.8265511  42.0236511  70.4686933  35.4626019  42.0858765
  75.0135948  44.4326332  27.4812930  75.7808933  44.4926457  27.0718782
  74.5667257  43.8606774  26.9969249  75.0609375  44.3562908  27.3490641
  75.9113743  43.2380988  39.7665663  75.2358745  43.0066221  40.2679050
  75.9206119  42.6302171  39.1407768  75.8132248  43.1139914  39.7481815
  73.0407887  38.0798817  46.5229716  72.9767028  38.9408774  46.3949852
  73.1805075  37.7630810  45.7225267  73.0523357  38.1598984  46.3857929
  77.9130478  46.0946121  31.9975841  77.9950315  46.9013107  31.6737292
  78.3980220  46.1142080  32.7216614  77.9967636  46.2166783  32.0562739
  71.7226981  40.7730957  40.6645919  71.2989230  40.9735456  39.9284937
  71.5471836  39.9259805  40.7770218  71.6337862  40.6779738  40.5719609
  71.2238675  52.2881470  43.1267376  71.7134605  51.5892259  42.9443041
  70.6522907  51.9905340  43.7143433  71.2123204  52.1407693  43.1868417
  67.0109426  41.2683008  36.0973891  67.1674045  41.2029811  36.9529883
  67.3510019  42.0431561  35.8852571  67.0842661  41.3732206  36.1928485
  73.5488571  40.6440892  34.9667254  74.0904116  40.1411273  35.4305875
  73.8635130  40.5906086  34.1556740  73.6752968  40.5620313  34.9151066
  77.4205678  44.8543539  52.0794167  78.2340543  44.5828688  52.2399299
  77.2600644  44.5551079  51.2754362  77.5175627  44.7698465  51.9839572
  71.7175020  46.0358243  32.2507282  71.7867841  45.1772782  32.3900283
  72.4963476  46.2530124  31.9226307  71.8427870  45.9411107  32.2224440
  74.6977840  35.5377196  45.0189555  74.9119810  34.8988110  44.4652909
  74.0811739  35.9823020  44.5897417  74.6383169  35.5087340  44.8739986
  76.1082508  48.4595944  36.4643776  75.7162300  48.1562660  35.7466642
  76.2635580  49.2965034  36.2748729  76.0736098  48.5379781  36.3300273
  63.5843688  38.4517959  36.4134658  63.9642652  38.8702503  35.7494926
  63.0099052  39.0331414  36.7203502  63.5555012  38.5995817  36.3611399
  76.8616928  37.1466261  45.9572862  76.0493610  36.8392152  46.0386035
  77.3206863  36.6665261  46.5215574  76.8097313  37.0302754  46.0527456
  76.2722183  45.0245933  36.4049806  75.9136837  45.1960576  37.1813839
  75.7860894  45.4859139  35.8477805  76.1480880  45.1184904  36.4375075
  74.0892569  28.6477132  40.0076898  73.2186127  28.6215853  39.9610207
  74.3432910  28.4754324  39.1902743  73.9986129  28.6187276  39.8797034
  71.0610548  40.7045099  28.9450041  71.3503073  41.4809981  29.2193615
  71.1482347  40.1933830  29.6464540  71.1164804  40.7437017  29.0892538
  73.9570436  38.5526333  50.7401564  74.4270067  39.1768449  51.1269438
  74.0032316  37.8843308  51.2994779  74.0338311  38.5461013  50.8801636
  71.1141709  30.6583360  41.4650368  70.5980198  29.9663552  41.5901947
  70.5535638  31.3254137  41.4112967  70.9548222  30.6546618  41.4756434
  73.1833943  31.1976320  43.2943221  72.7965696  31.2225352  44.0756750
  72.6966880  30.6317999  42.8417737  73.0546452  31.1172071  43.3431124
  77.4326922  45.9149829  47.3517007  78.0706643  45.4210025  47.0179463
  76.7901014  45.8427230  46.7669234  77.4321149  45.8308838  47.2159362
  72.8491084  28.0843306  45.5853480  73.4784202  28.6203606  45.3074551
  73.0176947  27.9920665  46.4367046  72.9668879  28.1504668  45.6702009
  72.6504999  32.8714500  47.8579892  73.4778429  32.5999649  47.9138507
  72.6712845  33.6675342  48.2143710  72.7757849  32.9494255  47.9195075
  77.4881179  46.6069638  43.9922364  78.2773557  46.2558702  44.1124446
  77.6624777  47.4206026  43.7298998  77.6301460  46.6755495  43.9710232
  67.2274489  40.0178363  41.0450153  66.3862496  39.9182237  41.2529047
  67.4364497  40.7873844  41.3964473  67.1339182  40.1170407  41.1277468
  64.7050056  37.6397900  38.8734903  64.3106754  37.7140912  38.0985013
  64.1490173  38.0255847  39.4243265  64.5652868  37.7079675  38.8402563
  76.3415003  30.6179194  38.5538782  76.5464596  30.5501502  39.3995779
  76.0141427  31.4238015  38.4859960  76.3230251  30.7265135  38.6698437
  71.0391154  37.9459762  40.2947750  70.7354291  37.3915751  40.8958158
  70.3370575  38.1251972  39.8075784  70.8907364  37.8904545  40.3117456
  70.0957251  35.2560282  34.8592452  70.3716985  34.5379195  34.4470020
  70.6955920  35.8545202  34.6513558  70.2250516  35.2380653  34.7673213
  69.1009505  45.1609483  45.0019848  68.9929860  45.1711545  45.8681906
  69.3105286  45.9864264  44.8124802  69.1159616  45.2850558  45.1023940
  73.5967772  32.9273800  33.1339047  74.0511518  33.0984360  33.8586892
  74.0707817  32.3141910  32.7336823  73.7336092  32.8624685  33.1812809
  67.1183297  42.4122126  42.4641786  66.5271230  43.0531624  42.4344801
  67.8804321  42.8359743  42.4373085  67.1431558  42.5697964  42.4556933
  67.5143920  33.5724123  43.1309803  67.9745401  33.6463053  43.8684927
  67.5600026  34.3705377  42.7809625  67.5894475  33.7018270  43.1882560
  69.1627270  34.2390818  47.6981830  68.7712835  33.5924165  48.1337608
  69.3313132  34.8302253  48.3176086  69.1298180  34.2305086  47.8544536
  76.8772813  47.8631437  39.8973810  76.6792502  48.3522252  39.2030021
  76.2560524  48.0672679  40.4757943  76.7560378  47.9647975  39.8797033
  70.9380792  39.6316334  34.2384054  71.6822837  40.0190610  34.4767004
  71.0841488  38.7873759  34.4024542  71.0691377  39.5646807  34.2978024
  72.8560367  31.4266593  39.2715916  72.0096412  31.5989401  39.1457266
  72.8531499  30.6215937  39.6081744  72.7307517  31.3327622  39.3027043
  73.9258667  35.2041807  40.1377974  73.4518622  34.6783569  40.6483285
  74.2976803  34.6571280  39.5692835  73.9108556  35.0457804  40.1293121
  64.3031698  37.2013314  45.5061519  65.1657311  37.1009023  45.4198849
  63.9723481  36.6208023  44.9447092  64.3816894  37.1004941  45.4106925
  75.8542167  36.0978362  33.2003727  75.3265186  36.1807106  32.5109436
  76.3137875  36.8396233  33.1968372  75.8444018  36.2199024  33.0978423
  67.6633484  36.0255763  42.1671938  67.0386554  36.0374155  41.5597890
  67.3279078  36.5015938  42.8163178  67.5218975  36.0974280  42.1728506
  67.8475232  34.3680881  28.2244623  67.4988037  35.0200607  28.6876172
  67.3671678  34.3537995  27.4968494  67.7245476  34.4623935  28.1855714
  75.4079250  44.6681925  32.3313385  76.1313448  45.1340038  32.1877958
  74.9679841  44.7355535  31.5810982  75.4494942  44.7465762  32.1998166
  74.5765405  41.5279468  43.5814074  73.9622398  40.9837518  43.8762709
  75.0932690  41.0143704  43.1019890  74.5621067  41.3715877  43.5538302
  73.8161702  42.5983738  41.3158372  73.3889310  41.9733456  40.8823808
  73.8086646  42.3158660  42.1417379  73.7520843  42.4636518  41.3738200
  66.9324229  37.6348911  44.3846806  67.0917716  36.8792235  44.7898528
  66.7517123  38.1839850  45.0387544  66.9289588  37.6042725  44.5409512
  74.8744532  29.8010146  44.9397596  74.3785093  29.9973821  44.2489162
  75.6313594  30.2002815  44.7686397  74.9131357  29.8887880  44.8117732
  72.1447411  33.4752492  41.5300906  72.1689899  32.9412605  40.8413686
  72.3958885  32.9669801  42.1926497  72.1857330  33.3213396  41.5265551
  68.4248734  32.2023311  40.9106650  68.4647105  32.7032517  41.6241358
  67.5998398  32.2933704  40.6412574  68.3088260  32.2905127  40.9757189
  70.6078347  41.7684050  49.0126945  69.7573977  41.9055765  49.1484590
  70.7706474  41.0347829  49.4574647  70.5062210  41.6798152  49.0982544
  69.8463097  38.7183820  43.2080549  69.0155027  38.8857638  43.0015798
  69.7914614  38.3419771  43.9929435  69.7152512  38.6873552  43.2929078
  67.6546880  32.2092713  48.8436960  68.2799584  31.6654846  49.1166392
  67.1997360  31.7287631  48.2744751  67.6795141  32.0582195  48.7998554
  68.2199141  36.9939412  33.7370667  68.3602102  37.4911876  34.4399309
  68.7181674  36.2925706  33.8784881  68.3140222  36.9641391  33.8622246
  68.2499363  37.8606523  31.0663244  68.8844443  38.4566948  31.0012706
  68.3324974  37.5609981  31.8809114  68.3555914  37.9047431  31.1766331
  69.8278346  33.7920498  31.0408686  70.1494187  33.3123581  30.3867948
  70.0905290  34.6020144  30.8499498  69.9144372  33.8410396  30.9164178
  73.0575319  44.8139373  44.5607502  72.5500410  45.3675220  45.0048133
  72.7601965  44.8747663  43.7426277  72.9380204  44.9045684  44.5055959
  75.2237501  33.1792692  43.4032165  75.6492573  32.7265219  42.7915692
  74.6094494  32.6252763  43.6796953  75.1966147  33.0306669  43.3537190
  75.6683099  48.7302630  32.4911446  74.9512409  48.5563493  32.0258683
  76.3189837  48.4955203  31.9586932  75.6584950  48.6698423  32.3440664
  73.6631724  29.6507792  36.8122742  73.0200042  29.5005438  37.3807881
  73.3231131  29.4050137  36.0471847  73.5176801  29.5919915  36.7825757
  78.2531070  37.6067219  36.2352751  77.5822260  38.1496921  36.1065816
  78.9470821  38.0762074  35.9934446  78.2559938  37.7565490  36.1808278
  72.3017804  49.7463931  41.4664509  72.0783459  48.9882760  41.8348535
  71.8127648  49.7761952  40.7444949  72.1961253  49.6386155  41.4141250
  78.4159198  34.0623103  39.1443124  78.7686808  33.6352825  39.8188923
  77.5573999  33.9773946  39.2744200  78.3408643  33.9867843  39.2638134
  67.1142883  36.6930622  37.2025970  66.3954872  37.1094755  37.4698834
  67.4855245  37.2584861  36.6517609  67.0634815  36.8379904  37.1608777
  76.4142464  37.3258471  43.0927966  76.3940391  37.1441766  43.9462745
  76.4621664  38.1970490  43.0687550  76.4177105  37.4275009  43.2151261
  74.3588794  43.9145663  49.0176443  74.3184648  43.2695340  48.4321599
  75.1712112  43.8582281  49.3301855  74.4731947  43.8104630  48.9773392
  70.9496261  49.9664389  38.9201594  70.5356660  49.3038519  38.5305435
  71.6343635  50.1142248  38.3997288  70.9894633  49.8905047  38.7858091
  74.3161555  49.1254474  39.6725210  73.9177839  49.2356745  38.9046030
  73.7012775  49.3336541  40.2551770  74.1660445  49.1728042  39.6456510
  72.8889457  35.7328622  32.5399350  72.2954297  36.0545619  31.9883917
  72.9264735  34.8869718  32.3320456  72.8063846  35.6552950  32.4282121
  75.7647274  35.6908127  35.9701100  75.5360967  35.7140828  35.1279458
  76.0245350  34.8665594  36.0896111  75.7693462  35.5724207  35.8626298
  70.0466502  37.5442600  45.5726200  69.5345405  36.9363783  45.9311232
  69.8745998  38.2599192  46.0400176  69.9456139  37.5605899  45.6942424
  64.8932217  35.9880175  48.2228562  64.7234807  36.6481550  47.6776769
  64.4498167  36.1986736  48.9441051  64.8031551  36.1166157  48.2490192
  68.8192036  34.2284673  37.2655296  69.2949403  34.5901753  36.6305477
  68.3180636  34.8841141  37.5455439  68.8157395  34.3778862  37.2132037
  73.9235573  35.4666844  48.0128456  74.4807003  35.2380654  47.3806921
  73.5996638  36.2272510  47.7363668  73.9581983  35.5450681  47.8784953
  71.6418690  38.5534498  48.9780463  72.3930017  38.8686174  49.2920017
  71.8341266  38.3513669  48.1514385  71.7810104  38.5701879  48.9023859
  70.8618690  36.3725873  30.6328680  71.2417654  36.3905502  29.8479795
  70.1211286  36.8179862  30.5119527  70.8087527  36.4407647  30.4992248
  78.4903980  34.6808064  36.2204258  78.4898206  34.5256720  37.0788535
  78.2860160  35.5271051  36.1645644  78.4603758  34.7828685  36.3392198
  76.2144832  39.3605566  39.8740465  76.7098497  38.6428561  39.8344486
  75.4044608  39.0576363  39.7594952  76.1688725  39.2103212  39.8514191
  71.6603444  43.2103379  32.0237470  70.8514766  42.8870053  31.9770779
  72.1678353  42.5036601  31.9565718  71.6153110  43.0584695  32.0067764
  78.2796651  42.1109253  42.5617594  78.7051723  41.5883675  42.0088019
  77.9153571  42.7090091  42.0406217  78.2883254  42.1219480  42.4026604
  67.9150731  50.4073471  41.3214940  68.2297290  51.2209859  41.3292721
  68.3244144  50.0223689  41.9897099  68.0218829  50.4702173  41.4219031
  74.8675250  45.8243517  38.8918752  75.3386429  46.5383780  39.0608737
  75.2035429  45.2242268  39.4278621  74.9870365  45.8414982  38.9951127
  76.9552235  47.4344831  51.0710824  77.0649200  46.6453391  51.4267571
  77.2843132  47.3450767  50.2685162  77.0204641  47.3050684  51.0053214
  71.7844745  30.5970988  45.8476846  71.9172651  29.8001981  46.1757822
  72.1689898  31.1237391  46.4275122  71.8601074  30.5570905  45.9820349
  75.5049197  45.6161452  45.6546444  74.9570143  44.9919335  45.3866509
  75.9662225  45.8055724  44.9390524  75.4916406  45.5520502  45.5096875
  74.8577101  27.5201314  42.4457940  74.0523064  27.4099044  42.7625778
  74.7283836  27.6213770  41.5887805  74.7197233  27.5184984  42.3665980
  78.3143061  33.6846806  43.0397636  77.7306050  34.1856013  42.6275204
  78.6347355  33.1776362  42.4061960  78.2756236  33.6838641  42.8856144
  70.8537860  32.5987401  33.3156311  71.6753555  32.7685714  33.0738006
  70.3907511  32.7534662  32.5922609  70.9069023  32.6469134  33.1727956
  69.4433192  30.5930163  44.0954740  69.9877605  30.2521290  44.6859082
  69.4970128  31.4515625  44.2376025  69.5322312  30.6685422  44.2036613
  75.0707523  46.6212524  42.1855785  75.8905897  46.4775490  42.4472081
  74.7901601  47.2458723  42.7272223  75.1504266  46.6922876  42.3043725
  73.9011798  58.9354424  37.5603930  73.6661983  58.1022076  37.4536199
  74.0397439  59.2159089  36.7465131  73.8867461  58.8537927  37.4246285
  76.2001886  51.1040154  40.4588238  75.5806918  50.5132801  40.2898252
  76.0985750  51.6951589  39.8252561  76.0939561  51.1044237  40.3393227
  75.9271019  54.6492436  42.7031807  75.8029716  55.2354881  43.3381625
  76.5789303  54.1552632  43.0044082  76.0044668  54.6631240  42.8417736
  75.4629123  63.8140094  38.8360136  74.9796701  64.5390584  38.8119720
  76.2752441  64.1116224  38.9470294  75.5119871  63.9642448  38.8487415
  78.0309664  48.6814700  31.0543036  77.8485237  48.8986581  30.2284029
  78.8935277  48.7953713  31.1101650  78.1314253  48.7304598  30.9397523
  77.6424096  60.5202622  38.4966024  78.4812995  60.7525555  38.5439786
  77.6735865  59.6506934  38.4273059  77.7705813  60.4259569  38.4930669
  78.2676799  60.9403498  42.7979329  78.8075024  60.7974629  43.4682702
  77.5846745  61.3400248  43.1663356  78.2468953  60.9783168  42.9513751
  73.6713944  57.1603788  42.9513751  73.4052359  56.3442905  43.1104741
  73.6852508  57.2056944  42.0809267  73.6338666  57.0460693  42.8467233
  77.5771691  51.9588873  29.5665509  76.8629868  51.6727052  29.9787942
  78.0615660  52.2985499  30.2071897  77.5431054  51.9670522  29.7221144
  74.0807358  57.9462568  40.2325495  73.8982931  57.9209454  39.3797787
  74.8157026  58.4161506  40.2714404  74.1621421  58.0123930  40.1123414
  77.1453109  54.6647571  46.7407604  77.8693082  54.6500601  47.2272499
  77.2469246  55.3742926  46.2429572  77.2671318  54.7672274  46.7386391
  74.0478268  54.8256068  40.3824562  74.6251771  54.6892519  41.0216807
  73.3492330  54.3691853  40.6370146  74.0299289  54.7378335  40.5146852
  69.5237101  53.6767961  37.0972380  69.6097353  53.2999830  37.8785910
  70.1512899  53.3028407  36.6192339  69.6293652  53.5653443  37.1417858
  75.1113060  62.4459694  41.1503741  75.1517205  62.7174545  40.3223521
  75.6707584  62.9701602  41.5661529  75.1996406  62.5635449  41.0895629
  76.5627646  61.0301643  35.9757667  75.7365764  61.2763380  35.8491946
  76.6239637  60.9513724  36.8419725  76.4501813  61.0546592  36.0846611
  76.7071022  50.5728844  34.3769983  76.4195818  50.2030114  33.6401931
  77.3941490  51.0423699  34.1153688  76.7659919  50.5875813  34.2285059
  77.1932310  56.8439864  44.9291528  77.7053407  57.1224117  44.2800288
  76.9068653  57.5829158  45.2954341  77.2267173  56.9942218  44.8881406
  74.2799216  51.3510056  35.2255265  74.3815353  52.1536217  35.5536240
  75.0755103  51.1497392  34.9278345  74.4127122  51.4395955  35.2290620
  75.0962949  51.4657234  42.9676386  74.9548440  50.6141175  43.0920894
  75.3803512  51.5085895  42.1438592  75.1170795  51.3456984  42.8644010
  75.8653254  49.3787582  46.2853836  75.3295443  48.7667940  46.6014604
  75.9271019  49.9535718  46.9387503  75.7948886  49.3734510  46.4289263
  77.9842010  56.7868316  36.0973891  78.1406629  56.7215119  36.9529883
  78.3242603  57.5616869  35.8852571  78.0575244  56.8917514  36.1928485
  74.5576271  53.9703266  36.4134658  74.9375236  54.3887811  35.7494926
  73.9831636  54.5516722  36.7203502  74.5287596  54.1181125  36.3611399
  78.2007073  55.5363671  41.0450153  77.3595079  55.4367545  41.2529047
  78.4097081  56.3059151  41.3964473  78.1071765  55.6355715  41.1277468
  75.6782640  53.1583208  38.8734903  75.2839337  53.2326220  38.0985013
  75.1222756  53.5441155  39.4243265  75.5385452  53.2264983  38.8402563
  78.0915881  57.9307434  42.4641786  77.5003814  58.5716932  42.4344801
  78.8536904  58.3545051  42.4373085  78.1164141  58.0883272  42.4556933
  78.4876503  49.0909431  43.1309803  78.9477985  49.1648361  43.8684927
  78.5332610  49.8890685  42.7809625  78.5627059  49.2203578  43.1882560
  75.2764281  52.7198622  45.5061519  76.1389894  52.6194331  45.4198849
  74.9456064  52.1393331  44.9447092  75.3549478  52.6190249  45.4106925
  78.6366067  51.5441071  42.1671938  78.0119137  51.5559463  41.5597890
  78.3011662  52.0201246  42.8163178  78.4951559  51.6159588  42.1728506
  78.8207816  49.8866189  28.2244623  78.4720620  50.5385915  28.6876172
  78.3404262  49.8723302  27.4968494  78.6978060  49.9809243  28.1855714
  75.3491743  59.6041531  43.6075702  74.8191667  58.9133970  43.6570677
  75.6216836  59.5951716  42.7788410  75.3116465  59.5008663  43.4923118
  77.9056812  53.1534219  44.3846806  78.0650299  52.3977543  44.7898528
  77.7249706  53.7025158  45.0387544  77.9022171  53.1228032  44.5409512
  70.6287585  56.2769295  40.9644050  70.5231034  56.2316140  40.0996134
  69.8787805  56.6223076  41.2458335  70.5023188  56.3210203  40.8781380
  75.7284935  55.5759672  34.3352790  76.2377164  56.1724179  34.7164096
  76.2019207  55.3085645  33.6529210  75.8728310  55.6245487  34.2907313
  78.0875467  52.2115930  37.2025970  77.3687456  52.6280063  37.4698834
  78.4587829  52.7770169  36.6517609  78.0367398  52.3565212  37.1608777
  75.8664801  51.5065483  48.2228562  75.6967391  52.1666858  47.6776769
  75.4230750  51.7172044  48.9441051  75.7764134  51.6351465  48.2490192
  72.7666865  54.4112348  43.4817052  72.2193585  53.7412994  43.5997920
  73.5559243  54.0442196  43.5460519  72.8019049  54.2577335  43.5085753
  71.5253835  53.6233156  40.6363075  71.3475596  53.1709765  41.3617991
  71.2372857  54.4259318  40.8201553  71.4566788  53.6755714  40.7706578
  73.2626304  56.1560880  37.7484834  72.3971824  56.1446570  37.6367605
  73.3625120  55.9691103  38.5955973  73.1500471  56.1266941  37.8573779
  76.2296335  59.8731887  40.9693548  76.8341192  59.8327721  40.3407369
  76.0223647  60.7203039  40.9997604  76.2885232  59.9919890  40.8809665
  71.4647617  58.8566505  40.8392471  71.3671895  58.0462776  41.1482528
  72.2476486  58.8358298  40.4538739  71.5663753  58.7333595  40.8279334
  56.8747655   8.8023260  22.6028871  56.1230554   8.4238799  22.3744916
  57.3233666   8.8341694  21.8547681  56.8297322   8.7508867  22.4586373
  62.3272615   9.2248630  18.0314418  61.9923983   9.9025551  17.5958640
  62.8399485   8.8353941  17.4431289  62.3538196   9.2673208  17.8801209
  61.8676906  11.1762898  23.9725529  62.2516285  11.7449797  23.4330304
  61.8036047  10.4512409  23.4931345  61.9150333  11.1538362  23.8219392
  58.4532411   8.8141652  24.8691643  58.5542774   8.0042006  25.1788771
  57.8574156   8.7198599  24.2391322  58.3804950   8.6806680  24.8217882
  58.2933151  13.7319242  26.2706499  58.9370606  14.1732406  26.6602657
  58.6189406  12.9272668  26.1836758  58.4364979  13.6784436  26.3151976
  51.6497455   4.8361939  24.4943977  51.4147640   4.0029591  24.3876246
  51.7883096   5.1166605  23.6805178  51.6353118   4.7545442  24.3586332
  58.9953730   6.7431216  21.6426361  59.3169571   7.2836424  21.0387669
  59.6425827   6.1727988  21.7748651  59.1379785   6.7390392  21.5733396
  61.2401108   6.5716574  28.5666257  61.5224351   5.7767980  28.3453013
  61.9687268   7.0497162  28.5871318  61.3890672   6.5251171  28.5369272
  53.2114780   9.7147610  25.7700183  52.7282358  10.4398099  25.7459766
  54.0238098  10.0123740  25.8810341  53.2605528   9.8649963  25.7827462
  59.2828934   8.5079790  28.3749997  58.7655876   8.1487205  27.7711305
  59.9803325   7.9841965  28.3856063  59.3094515   8.3777478  28.2880256
  62.9392526   8.9574605  34.3366170  63.0275872   8.7700745  35.1844381
  63.3682239   8.3112034  33.9371017  63.0154628   8.8337612  34.4037922
  60.5062986   8.2405764  33.3183833  59.9433821   7.8278374  33.8423494
  61.2684009   8.1658670  33.7376976  60.5357434   8.1683165  33.4576833
  56.0658977  10.2303786  25.9220463  56.7679556   9.7155775  25.9793219
  55.9856460  10.5577937  26.7267338  56.1582738  10.2018012  26.0493255
  55.3909753   6.4210138  25.4306071  56.2298652   6.6533070  25.4779832
  55.4221522   5.5514449  25.3613106  55.5191470   6.3267084  25.4270715
  56.0162456   6.8411013  29.7319376  56.5560681   6.6982144  30.4022749
  55.3332402   7.2407764  30.1003403  55.9954610   6.8790684  29.8853798
  63.0512585   8.3883624  37.0009954  63.8353002   8.5014471  37.3665696
  62.8509180   7.5624761  37.1968640  63.1378611   8.2830343  37.0844340
  51.4199601   3.0611304  29.8853798  51.1538016   2.2450420  30.0444788
  51.4338165   3.1064459  29.0149313  51.3824323   2.9468208  29.7807280
  63.2082979  10.2993726  30.6476410  62.4098224  10.0593226  30.9050278
  63.6568990  10.3508118  31.3943457  63.1557590  10.2716117  30.7961334
  51.8293014   3.8470083  27.1665542  51.6468588   3.8216969  26.3137834
  52.5642683   4.3169021  27.2054451  51.9107078   3.9131445  27.0463461
  58.1686074   6.1078873  24.2009484  58.8060021   5.8690621  24.7461277
  58.5941146   6.3116032  23.4662645  58.3262240   6.1029883  24.1726641
  52.8598717   8.3467210  28.0843788  52.9002862   8.6182061  27.2563567
  53.4193241   8.8709118  28.5001576  52.9482062   8.4642965  28.0235676
  60.5507546   6.5851296  25.8803270  60.6246554   6.4226468  26.7345120
  61.3677052   6.7741485  25.6363752  60.6823905   6.5888038  25.9701296
  54.3113303   6.9309159  22.9097714  53.4851420   7.1770896  22.7831993
  54.3725294   6.8521239  23.7759772  54.1987470   6.9554108  23.0186658
  59.0912132   9.5486039  20.6116744  59.3810430   9.1575020  19.8875970
  59.8215613   9.7302744  21.0522019  59.2419016   9.5179853  20.5699551
  57.0318047  11.5253421  23.6776893  56.8118343  11.2350776  24.4703560
  56.8112569  10.8668376  23.1494806  56.9665642  11.3853130  23.7165802
  59.1986003  12.8982811  22.4607586  59.8510061  12.3659254  22.6898612
  58.5011612  12.5451464  22.8475460  59.1916721  12.7672334  22.5519754
  56.1467268   5.2521989  21.8674960  56.9013236   5.6335028  22.0810423
  55.5537881   5.7033132  22.3221657  56.1703982   5.3750816  21.9657839
  57.4665495   6.4230550  27.2415076  56.9446248   6.5630842  27.9266940
  57.8539515   5.6641214  27.4317193  57.4469196   6.3316074  27.3716152
  63.6632500   8.1626009  21.2275644  63.4219175   7.4293870  20.8202709
  63.8433832   8.7112866  20.5741978  63.6540124   8.1348401  21.0705867
  58.0311980  10.1291330  30.3244931  58.1801544   9.5694246  29.6718336
  58.8111982  10.2083332  30.7077450  58.1686074  10.0576896  30.2841880
  60.5565281  10.3005973  31.6029422  60.4808952   9.6314784  32.1580210
  60.4855140  11.0023761  32.1170088  60.5345887  10.3050880  31.7606270
  61.2135528   8.8206972  22.4353028  61.9785419   8.5516616  22.1135692
  61.1113618   8.3356982  23.1523091  61.3117023   8.7096537  22.4932855
  59.9456915  13.7074293  30.0607423  60.4352845  13.0085082  29.8783087
  59.3741147  13.4098163  30.6483480  59.9341445  13.5600517  30.1208464
  60.4393261   7.4551066  19.1847329  60.5086081   6.5965605  19.3240330
  61.2181716   7.6722947  18.8566354  60.5646111   7.3603930  19.1564486
  64.8300748   9.8788768  23.3983823  64.4380540   9.5755483  22.6806689
  64.9853821  10.7157858  23.2088776  64.7954338   9.9572604  23.2640320
  57.8227745   6.5802306  31.9359895  57.7148100   6.5904369  32.8021953
  58.0323527   7.4057087  31.7464849  57.8377856   6.7043381  32.0363986
  55.8401537   3.8314949  29.3981832  55.2489471   4.4724447  29.3684848
  56.6022561   4.2552566  29.3713132  55.8649798   3.9890787  29.3896980
  65.5991054   9.2824260  26.8313857  65.4010742   9.7715075  26.1370068
  64.9778765   9.4865502  27.4097990  65.4778618   9.3840799  26.8137080
  53.0977399   5.5049046  30.5415749  52.5677324   4.8141485  30.5910723
  53.3702493   5.4959232  29.7128457  53.0602122   5.4016178  30.4263165
  48.3773242   2.1776810  27.8984097  48.2716691   2.1323655  27.0336181
  47.6273462   2.5230591  28.1798382  48.2508845   2.2217719  27.8121427
  61.7793559   6.2332196  31.4947549  61.2718650   6.7868043  31.9388179
  61.4820206   6.2940486  30.6766323  61.6598444   6.3238507  31.4396006
  64.3901340  10.1495454  19.4251492  63.6730649   9.9756316  18.9598730
  65.0408077   9.9148026  18.8926978  64.3803190  10.0891246  19.2780710
  61.0236045  11.1656754  28.4004556  60.8001699  10.4075583  28.7688582
  60.5345888  11.1954775  27.6784995  60.9179494  11.0578979  28.3481297
  59.6714502  11.3857212  25.8541640  59.2574900  10.7231342  25.4645482
  60.3561876  11.5335071  25.3337335  59.7112873  11.3097870  25.7198138
  63.0379796  10.5447298  26.6065257  62.6396079  10.6549568  25.8386077
  62.4231015  10.7529364  27.1891817  62.8878685  10.5920866  26.5796556
  56.6368971  11.8266294  28.2554986  56.9515530  12.6402682  28.2632768
  57.0462385  11.4416513  28.9237146  56.7437069  11.8894996  28.3559078
  63.5893491   7.2436341  25.8258798  64.0604669   7.9576603  25.9948784
  63.9253669   6.6435091  26.3618668  63.7088606   7.2607805  25.9291174
  65.6770475   8.8537654  38.0050870  65.7867441   8.0646215  38.3607618
  66.0061372   8.7643590  37.2025209  65.7422881   8.7243507  37.9393261
  53.9781991   5.7739402  27.9033595  54.5826849   5.7335237  27.2747416
  53.7709304   6.6210554  27.9337651  54.0370889   5.8927405  27.8149711
  63.7925763   8.0405348  29.1195832  64.6124137   7.8968314  29.3812127
  63.5119841   8.6651546  29.6612270  63.8722507   8.1115700  29.2383772
  49.2133274   4.7574020  27.7732518  49.1157552   3.9470291  28.0822575
  49.9962143   4.7365813  27.3878786  49.3149410   4.6341110  27.7619381
  73.4639099  14.7845850  26.8391639  72.6076994  14.9454349  26.8900756
  73.5106752  13.9137914  26.8596700  73.3438210  14.6796652  26.8497705
  67.8480238  24.3208568  22.6028871  67.0963138  23.9424106  22.3744916
  68.2966250  24.3527002  21.8547681  67.8029905  24.2694175  22.4586373
  76.7732815  21.0532376  36.4452095  77.4799582  20.5584407  36.5739030
  76.9620751  21.4941457  35.7154753  76.9060721  21.0450726  36.3561141
  73.3005198  24.7433938  18.0314418  72.9656567  25.4210859  17.5958640
  73.8132069  24.3539249  17.4431289  73.3270779  24.7858516  17.8801209
  72.8409490  26.6948206  23.9725529  73.2248869  27.2635105  23.4330304
  72.7768631  25.9697717  23.4931345  72.8882917  26.6723670  23.8219392
  76.3090920  16.8437894  29.4823291  76.8546880  17.5222981  29.5417260
  76.2507796  16.7025355  28.6224872  76.3806834  16.9229896  29.3635351
  69.4264995  24.3326960  24.8691643  69.5275357  23.5227314  25.1788771
  68.8306740  24.2383907  24.2391322  69.3537533  24.1991988  24.8217882
  78.0855988  18.2722501  20.3557018  77.9695514  19.0230187  20.7849157
  78.8811875  18.0146455  20.6053105  78.1860578  18.3457348  20.4561110
  69.2665734  29.2504549  26.2706499  69.9103190  29.6917714  26.6602657
  69.5921990  28.4457976  26.1836758  69.4097563  29.1969744  26.3151976
  62.6230039  20.3547247  24.4943977  62.3880223  19.5214899  24.3876246
  62.7615680  20.6351913  23.6805178  62.6085701  20.2730750  24.3586332
  64.9220126  12.5232978  27.3928284  64.3025158  11.9325625  27.2238299
  64.8203990  13.1144413  26.7592608  64.8157802  12.5237060  27.2733274
  69.9686314  22.2616524  21.6426361  70.2902155  22.8021732  21.0387669
  70.6158410  21.6913296  21.7748651  70.1112369  22.2575699  21.5733396
  72.0188022  14.2632519  21.7260748  72.7168187  14.4420647  22.2182211
  72.3340354  13.7402859  21.1031137  72.1683359  14.2126291  21.7062758
  64.6489259  16.0685259  29.6371853  64.5247956  16.6547705  30.2721672
  65.3007544  15.5745455  29.9384128  64.7262909  16.0824064  29.7757783
  72.2075957  20.6502964  21.7140539  72.6469593  20.0420065  22.1595312
  72.0580620  20.2710338  20.9426004  72.2497423  20.5041435  21.6659706
  69.6747600  19.2446976  28.9159364  70.3196603  18.7519419  28.5970313
  69.9149377  19.3871763  29.7425443  69.8058185  19.1924418  28.9908898
  72.2133692  22.0901882  28.5666257  72.4956935  21.2953288  28.3453013
  72.9419852  22.5682469  28.5871318  72.3623255  22.0436479  28.5369272
  70.1914885   9.6324916  25.8082022  69.8618216  10.0836060  25.1385721
  69.5159887   9.5541079  26.3555029  70.0425322   9.6876051  25.7905245
  75.8085294  19.0030146  18.6671308  75.7236589  19.8591112  18.8120877
  76.2969677  18.7274470  19.3353467  75.8674191  19.0887467  18.7873390
  76.7403727  15.6214940  20.1669043  76.2115199  15.8374573  20.8266350
  77.2628747  16.3151078  20.0870013  76.7392180  15.7558077  20.2524643
  68.6303335  19.5178157  18.9676511  68.0460550  20.0228188  19.3742375
  68.2273430  19.2920543  18.2273103  68.4842639  19.5586405  18.9181537
  64.1847363  25.2332918  25.7700183  63.7014942  25.9583407  25.7459766
  64.9970682  25.5309048  25.8810341  64.2338111  25.3835271  25.7827462
  70.2561518  24.0265098  28.3749997  69.7388459  23.6672513  27.7711305
  70.9535909  23.5027273  28.3856063  70.2827099  23.8962786  28.2880256
  73.9125110  24.4759912  34.3366170  74.0008455  24.2886053  35.1844381
  74.3414822  23.8297342  33.9371017  73.9887212  24.3522920  34.4037922
  71.4795569  23.7591072  33.3183833  70.9166404  23.3463682  33.8423494
  72.2416593  23.6843978  33.7376976  71.5090018  23.6868473  33.4576833
  67.0391561  25.7489094  25.9220463  67.7412140  25.2341083  25.9793219
  66.9589044  26.0763245  26.7267338  67.1315321  25.7203320  26.0493255
  68.0870467  15.9864680  35.0500878  68.2590971  15.8770575  35.8986159
  68.6239825  16.6319086  34.8132070  68.1915471  16.0656682  35.1405975
  66.7527904  10.1007523  17.9883083  66.5703477  10.3179404  17.1624076
  67.6153517  10.2146536  18.0441697  66.8532494  10.1497421  17.8737570
  66.3642336  21.9395446  25.4306071  67.2031236  22.1718378  25.4779832
  66.3954105  21.0699757  25.3613106  66.4924054  21.8452392  25.4270715
  66.9895039  22.3596321  29.7319376  67.5293264  22.2167452  30.4022749
  66.3064985  22.7593072  30.1003403  66.9687193  22.3975992  29.8853798
  76.4135924  18.0387321  24.9264401  77.1693439  18.4718836  24.9653309
  76.5198249  17.3892091  25.4999037  76.5406095  18.0064805  25.0162426
  74.0245169  23.9068931  37.0009954  74.8085585  24.0199779  37.3665696
  73.8241763  23.0810069  37.1968640  74.1111194  23.8015651  37.0844340
  62.3932184  18.5796612  29.8853798  62.1270599  17.7635728  30.0444788
  62.4070748  18.6249767  29.0149313  62.3556907  18.4653516  29.7807280
  66.2989931  13.3781696  16.5005556  65.5848108  13.0919875  16.9127988
  66.7833900  13.7178322  17.1411943  66.2649295  13.3863346  16.6561191
  67.1430791  12.1174990  32.5320806  66.4502587  11.6471970  32.7781537
  67.7591118  11.8913294  33.1062513  67.1315321  12.0142122  32.6529958
  74.1815562  25.8179034  30.6476410  73.3830808  25.5778534  30.9050278
  74.6301574  25.8693426  31.3943457  74.1290173  25.7901425  30.7961334
  73.4737249  21.8811650  16.8767364  73.8888398  21.5496674  16.1851860
  72.6429179  21.6480552  16.7487501  73.4125258  21.7982906  16.7558212
  62.8025598  19.3655391  27.1665542  62.6201171  19.3402277  26.3137834
  63.5375267  19.8354329  27.2054451  62.8839662  19.4316753  27.0463461
  65.8671350  16.0840394  33.6747651  66.5911322  16.0693424  34.1612545
  65.9687486  16.7935749  33.1769619  65.9889559  16.1865097  33.6726438
  73.2416299  19.5639478  38.5396598  72.4489280  19.8782990  38.7249217
  73.3565226  19.7790947  37.7017382  73.1411710  19.6423315  38.4434932
  75.9147618  16.2873470  22.8291614  76.0094472  17.0262764  23.2831239
  75.2906462  15.8590945  23.2626178  75.8356648  16.3334790  22.9599761
  74.1700092  19.4659682  33.4781894  74.7438953  18.8286926  33.6330458
  74.0914896  19.4663765  32.6091552  74.2433327  19.3724794  33.3728305
  62.7696508  16.2448892  27.3164609  63.3470011  16.1085342  27.9556854
  62.0710570  15.7884676  27.5710193  62.7517530  16.1571158  27.4486898
  69.5263810  17.8982947  25.5303092  69.2683055  17.0654682  25.5034391
  69.5812293  18.1240560  24.6895592  69.4963588  17.8080719  25.4023229
  68.4998523  15.4520710  26.0167987  67.9248114  15.6112878  26.6531948
  68.1234199  14.8156119  25.5536437  68.3601335  15.3818523  26.0422545
  72.1671811  13.9244059  30.8760365  71.7786244  13.4998277  30.2212556
  71.5026510  14.1726209  31.3837392  72.0118739  13.8982780  30.8548233
  58.2455341  15.0960785  24.0312427  58.3315593  14.7192653  24.8125957
  58.8731139  14.7221230  23.5532385  58.3511892  14.9846267  24.0757905
  73.2710749  18.1542664  19.0737172  74.0851388  18.4457556  18.9619943
  73.2069891  17.5002526  18.4995465  73.3813489  18.1007858  18.9726009
  69.1418658  21.6264181  24.2009484  69.7792605  21.3875929  24.7461277
  69.5673729  21.8301340  23.4662645  69.2994824  21.6215191  24.1726641
  63.8331300  23.8652518  28.0843788  63.8735445  24.1367369  27.2563567
  64.3925824  24.3894426  28.5001576  63.9214646  23.9828273  28.0235676
  69.7821473  16.8466471  18.5384373  70.1666626  16.6274178  19.2900919
  69.5333093  17.6729416  18.6685450  69.8023545  16.9364617  18.6685450
  69.9490013  10.1272886  38.2546958  69.6343454  10.8972449  37.9916520
  69.6279946   9.5643142  37.6699185  69.8548932  10.1583155  38.1288308
  71.5240130  22.1036604  25.8803270  71.5979138  21.9411776  26.7345120
  72.3409636  22.2926793  25.6363752  71.6556488  22.1073346  25.9701296
  65.2845886  22.4494467  22.9097714  64.4584004  22.6956204  22.7831993
  65.3457878  22.3706547  23.7759772  65.1720053  22.4739416  23.0186658
  67.5021910   8.5163408  23.8693154  66.6344336   8.5886007  23.9350763
  67.7897114   9.3185486  24.0581129  67.4161658   8.6457555  23.9067921
  70.0644715  25.0671347  20.6116744  70.3543014  24.6760328  19.8875970
  70.7948196  25.2488052  21.0522019  70.2151600  25.0365161  20.5699551
  70.6539461  19.8689093  31.6969874  70.1551154  20.5804860  31.7754763
  71.4639685  20.1889759  31.6588037  70.6995567  20.0215941  31.7026443
  68.0050631  27.0438729  23.6776893  67.7850926  26.7536084  24.4703560
  67.7845153  26.3853684  23.1494806  67.9398225  26.9038438  23.7165802
  66.9167578  19.1312046  25.9432595  66.6280827  18.5049517  26.4778322
  67.7850926  19.0732333  26.0097276  67.0027830  19.0299590  26.0323550
  77.7045476  14.2746829  26.2614577  77.3610242  13.5537164  26.6121827
  77.8038519  14.0660680  25.4192935  77.6687519  14.1371032  26.1886257
  70.1718587  28.4168119  22.4607586  70.8242645  27.8844561  22.6898612
  69.4744195  28.0636771  22.8475460  70.1649305  28.2857642  22.5519754
  67.1199852  20.7707297  21.8674960  67.8745820  21.1520336  22.0810423
  66.5270464  21.2218440  22.3221657  67.1436565  20.8936124  21.9657839
  78.1658505  20.7372533  21.8038565  78.7316538  21.3965743  21.7197108
  77.5186408  21.0822231  22.2754967  78.1537261  20.8854474  21.8611322
  69.5806519  12.7270137  36.9932173  68.7706294  13.0327917  36.8822015
  70.0581205  13.4475719  37.1084757  69.5309997  12.8784738  36.9939244
  68.4398078  21.9415858  27.2415076  67.9178832  22.0816150  27.9266940
  68.8272098  21.1826522  27.4317193  68.4201779  21.8501382  27.3716152
  65.4289262  11.9921667  21.3110030  65.1414058  11.6222937  20.5741978
  66.1159730  12.4616522  21.0493735  65.4878160  12.0068636  21.1625106
  74.6365083  23.6811317  21.2275644  74.3951759  22.9479178  20.8202709
  74.8166416  24.2298174  20.5741978  74.6272707  23.6533709  21.0705867
  69.8664404  18.9719877  22.6396567  69.6707186  19.5794612  22.0456870
  70.0898749  18.2787821  22.1588241  69.8699045  18.9597403  22.4812647
  68.2642934  15.8574615  22.7577435  68.9865586  16.0215773  22.2981241
  67.7850927  16.5784280  22.6516775  68.3006664  15.9872845  22.6743049
  76.2236441  12.1938414  28.1374120  75.3847542  12.2199693  27.9012383
  76.2940809  12.8409149  28.7179467  76.1104835  12.2934540  28.1883237
  65.9150550  18.2632687  31.8631575  66.4271647  18.5416941  31.2140335
  65.6286893  19.0021982  32.2294388  65.9485414  18.4135041  31.8221453
  63.0017457  12.7702879  22.1595311  63.1033593  13.5729041  22.4876287
  63.7973344  12.5690215  21.8618392  63.1345362  12.8588778  22.1630667
  69.4334276  10.3559076  31.9232616  69.2417473  10.3714210  32.7732040
  70.2832872  10.5522750  31.8999271  69.5309998  10.3873427  32.0455911
  63.8181189  12.8850058  29.9016433  63.6766681  12.0333998  30.0260941
  64.1021752  12.9278718  29.0778639  63.8389035  12.7649808  29.7984057
  73.9719781  14.7217148  24.0460921  73.7254496  14.6412899  24.8797710
  74.3004904  13.9370616  23.8523449  73.9841025  14.5943413  24.1408444
  77.8667830  21.4300507  27.8347702  77.7282189  22.1281553  28.3396445
  77.0867828  21.2749164  27.4783884  77.7311057  21.5100674  27.8573977
  76.2045915  17.7296882  34.0870084  76.1993954  16.8576699  34.0912511
  76.9106909  17.9285052  33.6139540  76.3090919  17.6300757  34.0177119
  69.9316809  17.4573866  33.4583904  70.0760184  18.0375074  32.8227014
  70.2792457  17.8350163  34.1633759  70.0044270  17.5994570  33.4682899
  72.1036726  16.6564035  31.2409036  71.3560040  16.8495049  30.8357314
  72.2578251  15.8309254  31.0033157  72.0159153  16.5629146  31.1454442
  69.0044564  25.6476638  30.3244931  69.1534127  25.0879554  29.6718336
  69.7844566  25.7268640  30.7077450  69.1418657  25.5762204  30.2841880
  71.5297864  25.8191281  31.6029422  71.4541535  25.1500092  32.1580210
  71.4587723  26.5209069  32.1170088  71.5078471  25.8236188  31.7606270
  72.3438503  10.5514585  32.1304440  72.8011117  11.2838560  32.2577232
  72.4194832  10.1281051  32.8891695  72.4229473  10.5971823  32.2605516
  64.5871494  10.7980405  33.2193883  64.0513684  10.1860763  33.5354651
  64.6489259  11.3728541  33.8727550  64.5167127  10.7927333  33.3629310
  72.1868111  24.3392280  22.4353028  72.9518002  24.0701924  22.1135692
  72.0846201  23.8542290  23.1523091  72.2849607  24.2281845  22.4932855
  70.2220881  12.5416689  28.9746264  69.4316956  12.3608149  29.2963599
  70.6181504  11.7643642  28.9576558  70.1637757  12.4004150  29.0198812
  75.6064567  20.1759120  26.7005710  74.9309569  19.9444352  27.2019097
  75.6156943  19.5680302  26.0747815  75.5083072  20.0518045  26.6821862
  72.7358711  15.0176948  33.4569763  72.6717852  15.8786905  33.3289899
  72.8755899  14.7008942  32.6565314  72.7474181  15.0977115  33.3197975
  77.6081302  23.0324252  18.9315887  77.6901139  23.8391238  18.6077338
  78.0931044  23.0520211  19.6556661  77.6918460  23.1544914  18.9902786
  71.4177805  17.7109088  27.5985965  70.9940054  17.9113587  26.8624984
  71.2422660  16.8637936  27.7110265  71.3288686  17.6157869  27.5059656
  70.9189498  29.2259601  30.0607423  71.4085429  28.5270390  29.8783087
  70.3473731  28.9283471  30.6483480  70.9074028  29.0785824  30.1208464
  66.7060250  18.2061139  23.0313938  66.8624869  18.1407942  23.8869930
  67.0460843  18.9809692  22.8192618  66.7793485  18.3110337  23.1268532
  73.2439395  17.5819023  21.9007301  73.7854940  17.0789404  22.3645922
  73.5585954  17.5284217  21.0896786  73.3703792  17.4998444  21.8491113
  77.1156502  21.7921670  39.0134213  77.9291367  21.5206819  39.1739346
  76.9551468  21.4929210  38.2094409  77.2126450  21.7076596  38.9179619
  71.4125844  22.9736374  19.1847329  71.4818665  22.1150913  19.3240330
  72.1914299  23.1908255  18.8566354  71.5378694  22.8789238  19.1564486
  74.3928664  12.4755327  31.9529602  74.6070634  11.8366242  31.3992956
  73.7762563  12.9201151  31.5237463  74.3333993  12.4465471  31.8080033
  75.8033332  25.3974076  23.3983823  75.4113124  25.0940791  22.6806689
  75.9586404  26.2343166  23.2088776  75.7686922  25.4757912  23.2640320
  63.2794512  15.3896090  23.3474705  63.6593476  15.8080635  22.6834972
  62.7049876  15.9709545  23.6543548  63.2505836  15.5373949  23.2951446
  76.5567752  14.0844393  32.8912909  75.7444434  13.7770283  32.9726081
  77.0157687  13.6043393  33.4555621  76.5048137  13.9680885  32.9867503
  75.9673007  21.9624064  23.3389853  75.6087661  22.1338707  24.1153885
  75.4811717  22.4237270  22.7817852  75.8431704  22.0563036  23.3715122
  70.7561372  17.6423230  15.8790087  71.0453897  18.4188112  16.1533662
  70.8433171  17.1311961  16.5804587  70.8115628  17.6815148  16.0232585
  73.6521260  15.4904464  37.6741611  74.1220891  16.1146580  38.0609485
  73.6983140  14.8221439  38.2334826  73.7289135  15.4839144  37.8141682
  77.1277746  22.8527960  34.2857054  77.7657467  22.3588156  33.9519510
  76.4851838  22.7805361  33.7009281  77.1271973  22.7686969  34.1499409
  78.8534746  14.7017106  28.8522970  78.4262354  14.6143455  28.0971069
  78.2160799  14.8094882  29.4377814  78.6964353  14.7049766  28.8268411
  77.1832003  23.5447769  30.9262411  77.9724381  23.1936833  31.0464492
  77.3575600  24.3584157  30.6639045  77.3252284  23.6133626  30.9050279
  66.9225313  16.9556494  27.9790200  66.0813320  16.8560369  28.1869093
  67.1315321  17.7251975  28.3304520  66.8290006  17.0548538  28.0617514
  64.4000880  14.5776031  25.8074950  64.0057578  14.6519043  25.0325060
  63.8440997  14.9633978  26.3583312  64.2603692  14.6457806  25.7742610
  70.7341978  14.8837894  27.2287797  70.4305115  14.3293882  27.8298205
  70.0321399  15.0630104  26.7415831  70.5858188  14.8282676  27.2457503
  69.7908075  12.1938413  21.7932499  70.0667809  11.4757326  21.3810066
  70.3906744  12.7923333  21.5853605  69.9201340  12.1758784  21.7013260
  68.7960329  22.0987614  31.9359895  68.6880684  22.1089676  32.8021953
  69.0056110  22.9242395  31.7464849  68.8110440  22.2228689  32.0363986
  66.8134121  19.3500257  29.3981832  66.2222054  19.9909755  29.3684848
  67.5755144  19.7737874  29.3713132  66.8382382  19.5076095  29.3896980
  67.2094744  10.5102254  30.0649850  67.6696225  10.5841184  30.8024974
  67.2550850  11.3083509  29.7149671  67.2845299  10.6396402  30.1222607
  76.5723637  24.8009568  26.8313857  76.3743326  25.2900383  26.1370068
  75.9511348  25.0050810  27.4097990  76.4511202  24.9026107  26.8137080
  70.6331615  16.5694465  21.1724101  71.3773660  16.9568741  21.4107051
  70.7792312  15.7251891  21.3364589  70.7642201  16.5024938  21.2318071
  73.6209491  12.1419938  27.0718020  73.1469446  11.6161701  27.5823331
  73.9927627  11.5949411  26.5032882  73.6059380  11.9835935  27.0633168
  63.9982521  14.1391445  32.4401566  64.8608135  14.0387154  32.3538896
  63.6674305  13.5586154  31.8787138  64.0767718  14.0383072  32.3446972
  67.3584307  12.9633894  29.1011984  66.7337378  12.9752286  28.4937937
  67.0229902  13.4394069  29.7503225  67.2169799  13.0352411  29.1068553
  67.5426056  11.3059013  15.1584669  67.1938860  11.9578738  15.6216219
  67.0622502  11.2916126  14.4308541  67.4196300  11.4002066  15.1195761
  64.0709983  21.0234354  30.5415749  63.5409908  20.3326793  30.5910723
  64.3435076  21.0144540  29.7128457  64.0334705  20.9201486  30.4263165
  75.1030074  21.6060057  19.2653431  75.8264272  22.0718170  19.1218005
  74.6630665  21.6733666  18.5151028  75.1445766  21.6843893  19.1338213
  74.2716229  18.4657599  30.5154120  73.6573222  17.9215649  30.8102756
  74.7883514  17.9521835  30.0359936  74.2571891  18.3094008  30.4878349
  73.5112526  19.5361869  28.2498419  73.0840134  18.9111588  27.8163854
  73.5037470  19.2536791  29.0757426  73.4471667  19.4014650  28.3078247
  66.6275053  14.5727042  31.3186853  66.7868540  13.8170366  31.7238575
  66.4467946  15.1217982  31.9727591  66.6240412  14.5420856  31.4749559
  71.8398235  10.4130623  28.4640953  71.8640723   9.8790736  27.7753733
  72.0909709   9.9047932  29.1266544  71.8808154  10.2591527  28.4605598
  59.3505825  17.6962118  27.8984097  59.2449274  17.6508963  27.0336181
  58.6006045  18.0415899  28.1798382  59.2241428  17.7403027  27.8121427
  68.1199558   9.1401442  27.8446697  68.1597929   9.6410648  28.5581405
  67.2949222   9.2311835  27.5752620  68.0039084   9.2283258  27.9097236
  70.3029171  18.7062182  35.9466992  69.4524801  18.8433896  36.0824637
  70.4657298  17.9725960  36.3914694  70.2013034  18.6176283  36.0322591
  69.5413921  15.6561952  30.1420596  68.7105851  15.8235769  29.9355844
  69.4865438  15.2797902  30.9269482  69.4103336  15.6251683  30.2269124
  67.3497704   9.1470844  35.7777007  67.9750408   8.6032977  36.0506439
  66.8948184   8.6665762  35.2084797  67.3745965   8.9960326  35.7338601
  67.9149965  13.9317543  20.6710714  68.0552926  14.4290007  21.3739355
  68.4132498  13.2303837  20.8124928  68.0091046  13.9019522  20.7962293
  67.9450187  14.7984654  18.0003291  68.5795267  15.3945079  17.9352753
  68.0275798  14.4988112  18.8149161  68.0506738  14.8425562  18.1106377
  69.5229170  10.7298629  17.9748733  69.8445011  10.2501712  17.3207995
  69.7856114  11.5398276  17.7839544  69.6095196  10.7788527  17.8504225
  72.7526143  21.7517504  31.4947549  72.2451234  22.3053351  31.9388179
  72.4552789  21.8125794  30.6766323  72.6331028  21.8423815  31.4396006
  64.4503175  16.9952495  21.2692837  64.9595404  17.5917002  21.6504142
  64.9237447  16.7278468  20.5869256  64.5946551  17.0438310  21.2247360
  75.3633923  25.6680762  19.4251492  74.6463233  25.4941624  18.9598730
  76.0140661  25.4333334  18.8926978  75.3535774  25.6076554  19.2780710
  77.9481894  14.5445350  23.1692797  77.2773084  15.0875052  23.0405863
  78.6421645  15.0140205  22.9274492  77.9510762  14.6943621  23.1148325
  71.9968628  26.6842062  28.4004556  71.7734283  25.9260891  28.7688582
  71.5078471  26.7140083  27.6784995  71.8912077  26.5764287  28.3481297
  66.8093707  13.6308753  24.1366017  66.0905696  14.0472886  24.4038881
  67.1806069  14.1962992  23.5857655  66.7585639  13.7758035  24.0948824
  76.1093288  14.2636602  30.0268013  76.0891215  14.0819897  30.8802792
  76.1572488  15.1348621  30.0027597  76.1127929  14.3653141  30.1491308
  74.0539618  20.8523794  35.9516490  74.0135472  20.2073471  35.3661645
  74.8662936  20.7960412  36.2641902  74.1682771  20.7482761  35.9113439
  70.6447085  26.9042520  25.8541640  70.2307484  26.2416650  25.4645482
  71.3294459  27.0520379  25.3337335  70.6845457  26.8283178  25.7198138
  74.0112379  26.0632605  26.6065257  73.6128662  26.1734876  25.8386077
  73.3963599  26.2714672  27.1891817  73.8611269  26.1106173  26.5796556
  72.5840281  12.6706753  19.4739397  71.9905121  12.9923750  18.9223964
  72.6215559  11.8247849  19.2660503  72.5014670  12.5931082  19.3622168
  75.4598098  12.6286258  22.9041147  75.2311791  12.6518959  22.0619505
  75.7196174  11.8043725  23.0236157  75.4644286  12.5102338  22.7966345
  69.7417326  14.4820731  32.5066247  69.2296229  13.8741914  32.8651279
  69.5696822  15.1977323  32.9740223  69.6406963  14.4984030  32.6282471
  64.5883041  12.9258306  35.1568609  64.4185631  13.5859681  34.6116816
  64.1448991  13.1364867  35.8781098  64.4982375  13.0544288  35.1830238
  68.5142860  11.1662804  24.1995343  68.9900227  11.5279884  23.5645524
  68.0131460  11.8219272  24.4795485  68.5108219  11.3156993  24.1472084
  73.6186397  12.4044975  34.9468503  74.1757827  12.1758785  34.3146968
  73.2947462  13.1650641  34.6703715  73.6532807  12.4828812  34.8125000
  61.4885105  15.8305172  30.4157099  60.9411825  15.1605817  30.5337967
  62.2777484  15.4635020  30.4800566  61.5237289  15.6770158  30.4425799
  71.3369514  15.4912629  35.9120510  72.0880841  15.8064306  36.2260064
  71.5292090  15.2891800  35.0854432  71.4760928  15.5080011  35.8363906
  70.5569513  13.3104004  17.5668727  70.9368478  13.3283633  16.7819841
  69.8162110  13.7557993  17.4459574  70.5038351  13.3785779  17.4332295
  60.2472075  15.0425980  27.5703122  60.0693836  14.5902589  28.2958037
  59.9591097  15.8452141  27.7541599  60.1785028  15.0948537  27.7046625
  75.9095656  16.2983697  26.8080512  76.4049321  15.5806692  26.7684532
  75.0995432  15.9954495  26.6934999  75.8639549  16.1481343  26.7854238
  71.3554268  20.1481510  18.9577517  70.5465590  19.8248184  18.9110826
  71.8629176  19.4414732  18.8905765  71.3103934  19.9962827  18.9407811
  61.9844545  17.5753703  24.6824881  61.1190064  17.5639394  24.5707652
  62.0843361  17.3883926  25.5296020  61.8718712  17.5459765  24.7913825
  77.9747475  19.0487384  29.4957641  78.4002546  18.5261806  28.9428066
  77.6104395  19.6468222  28.9746264  77.9834077  19.0597611  29.3366651
  67.6101555  27.3451602  28.2554986  67.9248114  28.1587990  28.2632768
  68.0194968  26.9601821  28.9237146  67.7169653  27.4080304  28.3559078
  74.5626074  22.7621649  25.8258798  75.0337253  23.4761911  25.9948784
  74.8986253  22.1620399  26.3618668  74.6821189  22.7793113  25.9291174
  76.6503059  24.3722962  38.0050870  76.7600024  23.5831523  38.3607618
  76.9793956  24.2828898  37.2025209  76.7155465  24.2428815  37.9393261
  75.2000021  22.5539583  32.5886491  74.6520967  21.9297466  32.3206556
  75.6613049  22.7433855  31.8730570  75.1867230  22.4898633  32.4436922
  70.5488684   9.5365532  20.2496358  71.3704379   9.7063845  20.0078053
  70.0858335   9.6912793  19.5262656  70.6019846   9.5847265  20.1068002
  64.9514575  21.2924710  27.9033595  65.5559432  21.2520544  27.2747416
  64.7441887  22.1395862  27.9337651  65.0103472  21.4112713  27.8149711
  74.7658347  23.5590655  29.1195832  75.5856721  23.4153622  29.3812127
  74.4852425  24.1836854  29.6612270  74.8455090  23.6301008  29.2383772
  60.1865857  20.2759328  27.7732518  60.0890135  19.4655599  28.0822575
  60.9694727  20.2551121  27.3878786  60.2881994  20.1526418  27.7619381
  73.5962622  35.8732555  24.4943977  73.3612807  35.0400207  24.3876246
  73.7348263  36.1537221  23.6805178  73.5818285  35.7916058  24.3586332
  75.8952710  28.0418285  27.3928284  75.2757741  27.4510933  27.2238299
  75.7936573  28.6329721  26.7592608  75.7890385  28.0422368  27.2733274
  75.6221843  31.5870567  29.6371853  75.4980540  32.1733013  30.2721672
  76.2740127  31.0930763  29.9384128  75.6995492  31.6009372  29.7757783
  75.1579947  40.7518226  25.7700183  74.6747525  41.4768715  25.7459766
  75.9703265  41.0494356  25.8810341  75.2070695  40.9020579  25.7827462
  78.0124144  41.2674402  25.9220463  78.7144724  40.7526391  25.9793219
  77.9321627  41.5948553  26.7267338  78.1047905  41.2388628  26.0493255
  77.7260488  25.6192831  17.9883083  77.5436061  25.8364712  17.1624076
  78.5886101  25.7331844  18.0441697  77.8265077  25.6682729  17.8737570
  77.3374920  37.4580753  25.4306071  78.1763819  37.6903686  25.4779832
  77.3686689  36.5885065  25.3613106  77.4656637  37.3637700  25.4270715
  77.9627623  37.8781629  29.7319376  78.5025848  37.7352760  30.4022749
  77.2797569  38.2778379  30.1003403  77.9419777  37.9161300  29.8853798
  73.3664768  34.0981919  29.8853798  73.1003183  33.2821036  30.0444788
  73.3803332  34.1435075  29.0149313  73.3289490  33.9838824  29.7807280
  77.2722515  28.8967004  16.5005556  76.5580692  28.6105183  16.9127988
  77.7566484  29.2363630  17.1411943  77.2381878  28.9048654  16.6561191
  78.1163374  27.6360298  32.5320806  77.4235171  27.1657277  32.7781537
  78.7323702  27.4098602  33.1062513  78.1047904  27.5327430  32.6529958
  73.7758181  34.8840699  27.1665542  73.5933755  34.8587585  26.3137834
  74.5107850  35.3539637  27.2054451  73.8572245  34.9502061  27.0463461
  76.8403933  31.6025702  33.6747651  77.5643905  31.5878732  34.1612545
  76.9420070  32.3121057  33.1769619  76.9622142  31.7050405  33.6726438
  73.7429092  31.7634200  27.3164609  74.3202594  31.6270650  27.9556854
  73.0443154  31.3069984  27.5710193  73.7250113  31.6756466  27.4486898
  69.2187925  30.6146092  24.0312427  69.3048177  30.2377961  24.8125957
  69.8463723  30.2406538  23.5532385  69.3244476  30.5031575  24.0757905
  74.8063884  39.3837826  28.0843788  74.8468029  39.6552677  27.2563567
  75.3658408  39.9079734  28.5001576  74.8947230  39.5013581  28.0235676
  76.2578470  37.9679774  22.9097714  75.4316588  38.2141512  22.7831993
  76.3190461  37.8891855  23.7759772  76.1452637  37.9924723  23.0186658
  78.4754494  24.0348715  23.8693154  77.6076919  24.1071315  23.9350763
  78.7629698  24.8370794  24.0581129  78.3894242  24.1642863  23.9067921
  77.8900162  34.6497354  25.9432595  77.6013410  34.0234825  26.4778322
  78.7583510  34.5917641  26.0097276  77.9760414  34.5484898  26.0323550
  78.0932435  36.2892605  21.8674960  78.8478403  36.6705644  22.0810423
  77.5003048  36.7403748  22.3221657  78.1169149  36.4121432  21.9657839
  76.4021846  27.5106975  21.3110030  76.1146642  27.1408245  20.5741978
  77.0892314  27.9801830  21.0493735  76.4610743  27.5253944  21.1625106
  76.8883134  33.7817995  31.8631575  77.4004231  34.0602249  31.2140335
  76.6019477  34.5207289  32.2294388  76.9217997  33.9320349  31.8221453
  73.9750040  28.2888187  22.1595311  74.0766177  29.0914349  22.4876287
  74.7705927  28.0875523  21.8618392  74.1077946  28.3774086  22.1630667
  74.7913772  28.4035365  29.9016433  74.6499264  27.5519306  30.0260941
  75.0754336  28.4464026  29.0778639  74.8121619  28.2835115  29.7984057
  75.5604078  26.3165713  33.2193883  75.0246267  25.7046071  33.5354651
  75.6221842  26.8913849  33.8727550  75.4899710  26.3112641  33.3629310
  77.6792834  33.7246447  23.0313938  77.8357453  33.6593250  23.8869930
  78.0193427  34.4995000  22.8192618  77.7526068  33.8295645  23.1268532
  74.2527095  30.9081398  23.3474705  74.6326060  31.3265943  22.6834972
  73.6782460  31.4894853  23.6543548  74.2238420  31.0559256  23.2951446
  77.8957897  32.4741802  27.9790200  77.0545903  32.3745677  28.1869093
  78.1047905  33.2437283  28.3304520  77.8022589  32.5733846  28.0617514
  75.3733464  30.0961339  25.8074950  74.9790161  30.1704351  25.0325060
  74.8173580  30.4819286  26.3583312  75.2336276  30.1643114  25.7742610
  77.7866704  34.8685565  29.3981832  77.1954638  35.5095063  29.3684848
  78.5487728  35.2923182  29.3713132  77.8114965  35.0261403  29.3896980
  78.1827327  26.0287562  30.0649850  78.6428809  26.1026492  30.8024974
  78.2283434  26.8268816  29.7149671  78.2577883  26.1581709  30.1222607
  74.9715105  29.6576753  32.4401566  75.8340718  29.5572462  32.3538896
  74.6406888  29.0771462  31.8787138  75.0500301  29.5568380  32.3446972
  78.3316891  28.4819202  29.1011984  77.7069961  28.4937594  28.4937937
  77.9962486  28.9579377  29.7503225  78.1902383  28.5537719  29.1068553
  78.5158640  26.8244321  15.1584669  78.1671444  27.4764046  15.6216219
  78.0355086  26.8101434  14.4308541  78.3928884  26.9187374  15.1195761
  75.0442567  36.5419662  30.5415749  74.5142491  35.8512101  30.5910723
  75.3167660  36.5329848  29.7128457  75.0067289  36.4386794  30.4263165
  77.6007636  30.0912350  31.3186853  77.7601123  29.3355674  31.7238575
  77.4200530  30.6403289  31.9727591  77.5972995  30.0606164  31.4749559
  70.3238409  33.2147426  27.8984097  70.2181858  33.1694271  27.0336181
  69.5738629  33.5601207  28.1798382  70.1974012  33.2588334  27.8121427
  78.3230288  24.6656152  35.7777007  78.9482991  24.1218285  36.0506439
  77.8680768  24.1851070  35.2084797  78.3478549  24.5145634  35.7338601
  75.4235759  32.5137803  21.2692837  75.9327988  33.1102310  21.6504142
  75.8970031  32.2463776  20.5869256  75.5679134  32.5623618  21.2247360
  77.7826290  29.1494061  24.1366017  77.0638280  29.5658194  24.4038881
  78.1538653  29.7148300  23.5857655  77.7318222  29.2943343  24.0948824
  75.5615625  28.4443614  35.1568609  75.3918215  29.1044989  34.6116816
  75.1181574  28.6550175  35.8781098  75.4714958  28.5729596  35.1830238
  72.4617689  31.3490480  30.4157099  71.9144408  30.6791125  30.5337967
  73.2510067  30.9820328  30.4800566  72.4969873  31.1955466  30.4425799
  71.2204659  30.5611287  27.5703122  71.0426420  30.1087896  28.2958037
  70.9323681  31.3637449  27.7541599  71.1517612  30.6133845  27.7046625
  72.9577128  33.0939011  24.6824881  72.0922648  33.0824702  24.5707652
  73.0575944  32.9069234  25.5296020  72.8451295  33.0645072  24.7913825
  75.9247158  36.8110018  27.9033595  76.5292016  36.7705852  27.2747416
  75.7174471  37.6581170  27.9337651  75.9836056  36.9298021  27.8149711
  71.1598441  35.7944636  27.7732518  71.0622719  34.9840907  28.0822575
  71.9427310  35.7736429  27.3878786  71.2614577  35.6711726  27.7619381
   4.7524390  22.5361229  61.0083929   4.7218395  23.3905866  61.1802198
   5.3505739  22.2356522  61.5670072   4.8361548  22.6177726  61.1158731
   2.5740965  25.1113531  59.2802238   2.4580491  25.8621217  59.7094377
   3.3696851  24.8537485  59.5298325   2.6745554  25.1848378  59.3806330
   1.2288703  22.4605970  59.0914263   0.7000175  22.6765603  59.7511570
   1.7513723  23.1542108  59.0115233   1.2277156  22.5949107  59.1769863
   6.6836756  28.0352274  64.4647308   5.8534460  28.2462918  64.6280724
   6.6346009  27.2089329  64.1889591   6.5543492  27.9441880  64.4484673
   3.9401072  28.7051629  64.6012024   3.5036304  28.7088371  65.3570995
   3.6063987  29.3857128  64.1691601   3.8263692  28.8064084  64.6492856
   7.0745418  25.4232548  63.4931661   7.7361852  24.8623217  63.3927569
   6.4336830  24.9284579  63.8184352   7.0774285  25.2668958  63.5264001
   3.3610249  26.4397931  63.2343650   3.5965838  26.5843130  62.4070500
   3.5099812  27.2040339  63.6275163   3.4176052  26.5736985  63.1707254
   5.1900705  25.2799597  61.0713253   5.5208922  25.8127237  60.4653348
   5.7633793  25.3338485  61.7275204   5.3234384  25.3669166  61.0791035
   2.6543481  27.5763563  60.7283785   3.2201514  28.2356773  60.6442328
   2.0071385  27.9213261  61.2000187   2.6422238  27.7245504  60.7856542
   3.8506179  27.6269791  57.5209422   3.4712988  26.8406929  57.5138711
   3.1872425  28.1756648  57.3781066   3.6964654  27.5914615  57.4990219
   2.0966278  29.8715282  57.8561108   2.1786116  30.6782268  57.5322558
   2.5816020  29.8911241  58.5801881   2.1803436  29.9935944  57.9148006
   6.2339198  27.4775602  58.9153568   6.6172804  28.2266958  59.1451665
   5.4383312  27.7241422  58.6565557   6.1732981  27.6245296  58.9111141
  15.7256974  38.0546537  61.0083929  15.6950978  38.9091174  61.1802198
  16.3238323  37.7541830  61.5670072  15.8094132  38.1363034  61.1158731
   8.9256659  37.1422188  65.7636859   8.0694554  37.3030686  65.8145976
   8.9724312  36.2714252  65.7841920   8.8055770  37.0372990  65.7742925
   3.3097798  46.6784906  61.5274091   2.5580698  46.3000444  61.2990136
   3.7583810  46.7103340  60.7792901   3.2647465  46.6270513  61.3831593
  12.2350375  43.4108714  75.3697315  12.9417142  42.9160745  75.4984250
  12.4238311  43.8517795  74.6399973  12.3678281  43.4027064  75.2806361
   8.7622758  47.1010276  56.9559638   8.4274127  47.7787197  56.5203860
   9.2749629  46.7115587  56.3676509   8.7888339  47.1434854  56.8046429
   8.3027050  49.0524544  62.8970749   8.6866429  49.6211443  62.3575524
   8.2386191  48.3274055  62.4176565   8.3500477  49.0300008  62.7464612
  11.7708480  39.2014232  68.4068511  12.3164440  39.8799319  68.4662480
  11.7125356  39.0601693  67.5470092  11.8424394  39.2806234  68.2880571
   4.8882555  46.6903298  63.7936863   4.9892917  45.8803652  64.1033991
   4.2924300  46.5960245  63.1636542   4.8155093  46.5568326  63.7463102
  13.5473548  40.6298839  59.2802238  13.4313074  41.3806525  59.7094377
  14.3429435  40.3722792  59.5298325  13.6478138  40.7033686  59.3806330
   4.7283294  51.6080887  65.1951719   5.3720750  52.0494051  65.5847878
   5.0539550  50.8034314  65.1081978   4.8715123  51.5546082  65.2397196
   5.4303874  44.6192862  60.5671581   5.7519715  45.1598070  59.9632889
   6.0775970  44.0489634  60.6993871   5.5729929  44.6152037  60.4978616
   7.4805582  36.6208857  60.6505968   8.1785747  36.7996985  61.1427431
   7.7957914  36.0979197  60.0276357   7.6300919  36.5702629  60.6307978
   7.6693517  43.0079302  60.6385759   8.1087153  42.3996403  61.0840532
   7.5198180  42.6286676  59.8671224   7.7114983  42.8617773  60.5904926
   5.1365160  41.6023314  67.8404585   5.7814163  41.1095757  67.5215533
   5.3766937  41.7448101  68.6670663   5.2675745  41.5500756  67.9154118
   7.6751252  44.4478220  67.4911477   7.9574495  43.6529626  67.2698233
   8.4037412  44.9258807  67.5116538   7.8240815  44.4012817  67.4614492
   5.6532446  31.9901254  64.7327242   5.3235776  32.4412397  64.0630941
   4.9777447  31.9117417  65.2800249   5.5042882  32.0452389  64.7150465
  11.2702854  41.3606483  57.5916528  11.1854149  42.2167450  57.7366097
  11.7587237  41.0850808  58.2598687  11.3291751  41.4463805  57.7118610
  12.8608853  27.9786777  62.9776853  12.5462294  28.6690255  63.4097275
  12.3435795  27.9231559  62.2762353  12.7373324  28.0721665  62.9373802
  12.2021287  37.9791278  59.0914263  11.6732759  38.1950911  59.7511570
  12.7246307  38.6727416  59.0115233  12.2009740  38.1134415  59.1769863
  17.6569340  43.5537582  64.4647308  16.8267043  43.7648226  64.6280724
  17.6078592  42.7274637  64.1889591  17.5276075  43.4627188  64.4484673
   4.0920895  41.8754494  57.8921731   3.5078110  42.3804526  58.2987595
   3.6890990  41.6496881  57.1518323   3.9460199  41.9162743  57.8426757
   5.7179078  46.3841436  67.2995217   5.2006019  46.0248851  66.6956525
   6.4153469  45.8603611  67.3101283   5.7444659  46.2539124  67.2125476
   9.3742670  46.8336250  73.2611390   9.4626015  46.6462391  74.1089601
   9.8032382  46.1873680  72.8616237   9.4504772  46.7099258  73.3283142
   8.5498109  38.1220147  56.3690652   8.7894113  38.3298130  55.5565995
   8.8713950  37.3177655  56.4779596   8.6335267  38.0334248  56.2651205
   3.8588400  30.0513542  60.2150190   4.6134368  30.4191859  59.9767240
   3.6815934  30.4253097  60.9829369   3.9442878  30.1611730  60.2935078
   2.5009121  48.1065431  64.8465683   3.2029700  47.5917421  64.9038439
   2.4206604  48.4339583  65.6512558   2.5932881  48.0779658  64.9738475
  17.1523298  36.2007983  68.2597729  16.3151719  36.2710170  68.4945324
  17.1211529  36.2032478  67.3872032  17.0241581  36.2118210  68.1657277
   2.2145464  32.4583861  56.9128303   2.0321037  32.6755742  56.0869296
   3.0771077  32.5722874  56.9686917   2.3150054  32.5073759  56.7982790
   1.8259896  44.2971783  64.3551291   2.6648796  44.5294716  64.4025052
   1.8571665  43.4276095  64.2858326   1.9541614  44.2028730  64.3515935
   7.8945183  29.4610272  59.9477327   8.6231344  29.2826227  59.5015483
   7.9840076  30.3028352  60.1584505   8.0151845  29.5594150  59.9130844
  11.8753484  40.3963659  63.8509621  12.6310999  40.8295174  63.8898529
  11.9815809  39.7468429  64.4244257  12.0023655  40.3641143  63.9407646
  14.9133655  44.2236937  64.6012024  14.4768887  44.2273679  65.3570995
  14.5796571  44.9042436  64.1691601  14.7996275  44.3249392  64.6492856
  14.8331138  31.2650764  66.8441452  15.4757047  31.3348869  67.4303367
  15.0854159  30.5979987  66.3420993  14.9653270  31.1777113  66.8568731
   1.7607491  35.7358034  55.4250776   1.0465668  35.4496213  55.8373208
   2.2451460  36.0754660  56.0657163   1.7266855  35.7439684  55.5806411
   9.6433122  48.1755371  69.5721630   8.8448368  47.9354871  69.8295498
  10.0919134  48.2269764  70.3188677   9.5907733  48.1477763  69.7206554
  18.0478001  40.9417856  63.4931661  18.7094436  40.3808525  63.3927569
  17.4069413  40.4469887  63.8184352  18.0506869  40.7854265  63.5264001
   8.9354809  44.2387988  55.8012584   9.3505958  43.9073012  55.1097080
   8.1046739  44.0056890  55.6732721   8.8742818  44.1559244  55.6803432
  14.3342832  41.9583239  63.2343650  14.5698421  42.1028438  62.4070500
  14.4832396  42.7225647  63.6275163  14.3908635  42.0922293  63.1707254
  16.1633289  40.7984905  61.0713253  16.4941506  41.3312545  60.4653348
  16.7366377  40.8523793  61.7275204  16.2966968  40.8854474  61.0791035
  11.3765178  38.6449807  61.7536834  11.4712032  39.3839102  62.2076459
  10.7524022  38.2167283  62.1871398  11.2974208  38.6911128  61.8844981
   9.6317652  41.8236020  72.4027114  10.2056513  41.1863264  72.5575678
   9.5532456  41.8240103  71.5336772   9.7050887  41.7301131  72.2973525
  11.6288199  40.4898547  54.9873786  11.5468362  40.5600734  55.8528773
  12.2667920  41.0528291  54.7957526  11.7108037  40.5837518  55.0863735
   4.9881370  40.2559285  64.4548312   4.7300615  39.4231020  64.4279611
   5.0429853  40.4816898  63.6140812   4.9581148  40.1657056  64.3268449
  10.0682421  32.3587736  64.5552405   9.3638747  31.8696921  64.7136324
  10.1167395  32.3710210  63.6840849   9.9712472  32.2877384  64.4491744
   3.9616083  37.8097048  64.9413207   3.3865674  37.9689216  65.5777168
   3.5851759  37.1732457  64.4781657   3.8218895  37.7394861  64.9667765
   7.6289371  36.2820397  69.8005585   7.2403804  35.8574615  69.1457776
   6.9644070  36.5302547  70.3082612   7.4736299  36.2559118  69.7793453
  17.2712640  36.0395402  62.5753415  17.0149205  35.2275343  62.3851298
  18.1141954  36.0472969  62.3483602  17.3578666  35.9207399  62.5138232
  11.4515733  29.9795026  67.3129569  11.8326245  29.2973197  67.6997443
  10.6479017  29.6904628  67.1305234  11.3892194  29.8362074  67.3433625
   8.7328309  40.5119002  57.9982392   9.5468948  40.8033894  57.8865163
   8.6687451  39.8578864  57.4240685   8.8431049  40.4584196  57.8971229
  14.9537800  43.1944998  72.4111968  14.7176437  42.3633062  72.2924028
  15.5981029  43.1430605  72.9966812  15.0132470  43.0642686  72.4797861
   4.6036218  43.9840519  63.1254704   5.2410165  43.7452267  63.6706497
   5.0291289  44.1877678  62.3907865   4.7612384  43.9791529  63.0971861
   5.2439033  39.2042809  57.4629593   5.6284186  38.9850515  58.2146139
   4.9950653  40.0305754  57.5930670   5.2641105  39.2940955  57.5930670
  15.9774220  42.9789446  68.4740262  15.6720037  43.7117503  68.8353578
  15.2580436  42.5727376  68.1933048  15.8261563  43.0271179  68.4853399
   6.9857690  44.4612942  64.8048490   7.0596698  44.2988113  65.6590340
   7.8027196  44.6503131  64.5608972   7.1174048  44.4649684  64.8946516
  21.6776012  39.6182447  67.8008606  21.6100513  39.6378406  66.9311193
  21.6631675  40.4612774  68.0264277  21.6654769  39.7456182  67.7061083
   2.9639470  30.8739745  62.7938374   2.0961896  30.9462345  62.8595983
   3.2514674  31.6761824  62.9826349   2.8779218  31.0033893  62.8313141
  12.0872359  31.0217605  71.1249696  12.8325951  30.8327415  70.7113121
  11.6709664  31.5475843  70.5663552  12.1357333  31.0719750  70.9814269
   5.5262275  47.4247685  59.5361964   5.8160574  47.0336666  58.8121190
   6.2565756  47.6064390  59.9767239   5.6769160  47.3941498  59.4944771
  19.4634630  38.3926833  66.0755201  20.0142551  37.7594902  66.3152293
  19.4478745  38.9242226  66.7670705  19.5419826  38.3775781  66.2134059
   6.1157021  42.2265431  70.6215094   5.6168714  42.9381198  70.6999983
   6.9257245  42.5466097  70.5833257   6.1613127  42.3792279  70.6271663
   3.4668191  49.4015067  62.6022113   3.2468486  49.1112422  63.3948780
   3.2462713  48.7430022  62.0740026   3.4015785  49.2614775  62.6411022
   2.3785138  41.4888384  64.8677815   2.0898387  40.8625855  65.4023542
   3.2468486  41.4308671  64.9342496   2.4645390  41.3875928  64.9568770
  13.1663036  36.6323167  65.1859797  12.8227802  35.9113502  65.5367047
  13.2656079  36.4237018  64.3438155  13.1305079  36.4947370  65.1131477
   5.6336147  50.7744457  61.3852806   6.2860205  50.2420899  61.6143832
   4.9361755  50.4213109  61.7720680   5.6266865  50.6433980  61.4764974
   2.5817412  43.1283635  60.7920180   3.3363380  43.5096674  61.0055643
   1.9888024  43.5794778  61.2466877   2.6054125  43.2512462  60.8903059
  13.6276065  43.0948871  60.7283785  14.1934098  43.7542081  60.6442328
  12.9803968  43.4398569  61.2000187  13.6154822  43.2430812  60.7856542
   3.9015638  44.2992196  66.1660296   3.3796392  44.4392488  66.8512160
   4.2889658  43.5402860  66.3562413   3.8819339  44.2077720  66.2961372
  10.0982643  46.0387655  60.1520864   9.8569319  45.3055516  59.7447929
  10.2783976  46.5874512  59.4987198  10.0890267  46.0110046  59.9951087
   5.3281964  41.3296215  61.5641787   5.1324746  41.9370950  60.9702090
   5.5516309  40.6364159  61.0833461   5.3316605  41.3173741  61.4057867
   3.7260494  38.2150953  61.6822655   4.4483146  38.3792111  61.2226461
   3.2468487  38.9360618  61.5761995   3.7624224  38.3449183  61.5988269
  11.6854001  34.5514752  67.0619340  10.8465102  34.5776031  66.8257603
  11.7558369  35.1985487  67.6424687  11.5722395  34.6510878  67.1128457
  10.1323280  31.4500129  61.7946956  10.8349632  31.2507877  61.3166914
   9.8667468  30.6776071  62.1015799  10.1969912  31.3063095  61.7692397
  15.5611525  39.7582739  64.3480582  15.4745500  39.9138165  65.2015361
  15.1062005  40.4020814  63.9739987  15.4814782  39.8758494  64.4187688
   9.4337341  37.0793486  62.9706141   9.1872056  36.9989237  63.8042930
   9.7622464  36.2946953  62.7768669   9.4458585  36.9519751  63.0653664
  13.3285390  43.7876845  66.7592922  13.1899749  44.4857891  67.2641665
  12.5485388  43.6325501  66.4029104  13.1928617  43.8677012  66.7819197
  11.6663475  40.0873220  73.0115304  11.6611514  39.2153037  73.0157731
  12.3724469  40.2861389  72.5384760  11.7708479  39.9877094  72.9422340
   5.3934369  39.8150204  72.3829124   5.5377744  40.3951412  71.7472234
   5.7410017  40.1926501  73.0878979   5.4661830  39.9570908  72.3928119
   7.5654286  39.0140373  70.1654256   6.8177600  39.2071387  69.7602534
   7.7195811  38.1885592  69.9278377   7.4776714  38.9205484  70.0699662
   4.4662124  48.0052976  69.2490151   4.6151687  47.4455892  68.5963556
   5.2462126  48.0844978  69.6322670   4.6036217  47.9338541  69.2087100
  14.8238763  43.1455099  57.5209422  14.4445572  42.3592237  57.5138711
  14.1605008  43.6941956  57.3781066  14.6697238  43.1099923  57.4990219
   6.9915424  48.1767619  70.5274642   6.9159095  47.5076429  71.0825430
   6.9205283  48.8785407  71.0415308   6.9696031  48.1812526  70.6851490
  12.2783389  26.0880799  64.9243503  12.3966957  26.5457262  64.1910805
  12.1045565  25.2826060  64.6379720  12.2702560  26.0374571  64.7744436
   7.6485671  46.6968618  61.3598248   8.4135562  46.4278262  61.0380912
   7.5463761  46.2118628  62.0768311   7.7467167  46.5858182  61.4178075
   5.6838441  34.8993027  67.8991484   4.8934516  34.7184487  68.2208819
   6.0799064  34.1219980  67.8821778   5.6255317  34.7580488  67.9444032
  10.1704332  43.7280802  53.3398197  10.9377317  43.7880927  52.9304049
   9.7235641  43.1561243  52.8554516  10.2177759  43.6517377  53.2075908
  11.0682127  42.5335457  65.6250930  10.3927129  42.3020690  66.1264317
  11.0774503  41.9256640  64.9993035  10.9700632  42.4094383  65.6067082
  13.0698862  45.3900590  57.8561108  13.1518699  46.1967576  57.5322558
  13.5548604  45.4096549  58.5801881  13.1536020  45.5121252  57.9148006
   6.8795365  40.0685426  66.5231185   6.4557614  40.2689925  65.7870204
   6.7040220  39.2214274  66.6355485   6.7906246  39.9734207  66.4304876
   2.1677810  40.5637477  61.9559158   2.3242429  40.4984280  62.8115150
   2.5078403  41.3386030  61.7437838   2.2411045  40.6686675  62.0513752
   8.7056955  39.9395361  60.8252521   9.2472500  39.4365742  61.2891142
   9.0203514  39.8860555  60.0142006   8.8321352  39.8574782  60.7736333
  12.5774062  44.1498008  77.9379433  13.3908927  43.8783157  78.0984566
  12.4169028  43.8505548  77.1339629  12.6744010  44.0652934  77.8424839
   6.8743404  45.3312712  58.1092549   6.9436225  44.4727251  58.2485550
   7.6531859  45.5484593  57.7811574   6.9996254  45.2365576  58.0809707
   9.8546224  34.8331665  70.8774822  10.0688194  34.1942579  70.3238176
   9.2380123  35.2777489  70.4482683   9.7951553  34.8041809  70.7325253
  11.2650892  47.7550414  62.3229043  10.8730684  47.4517129  61.6051909
  11.4203964  48.5919503  62.1333996  11.2304482  47.8334250  62.1885540
  12.0185312  36.4420730  71.8158129  11.2061994  36.1346621  71.8971301
  12.4775247  35.9619731  72.3800841  11.9665697  36.3257223  71.9112723
  11.4290567  44.3200402  62.2635073  11.0705221  44.4915045  63.0399106
  10.9429277  44.7813608  61.7063072  11.3049264  44.4139373  62.2960342
   9.2460953  27.9431601  65.8662164   8.3754511  27.9170322  65.8195474
   9.5001294  27.7708793  65.0488010   9.1554513  27.9141745  65.7382301
   6.2178932  39.9999568  54.8035307   6.5071457  40.7764450  55.0778882
   6.3050731  39.4888299  55.5049807   6.2733188  40.0391486  54.9477805
   6.2710093  29.9537829  67.3235635   5.7548582  29.2618021  67.4487214
   5.7104022  30.6208606  67.2698234   6.1116606  29.9501087  67.3341701
  12.5895306  45.2104298  73.2102274  13.2275027  44.7164494  72.8764730
  11.9469398  45.1381699  72.6254501  12.5889533  45.1263307  73.0744629
  14.3152306  37.0593444  67.7768190  13.8879914  36.9719793  67.0216289
  13.6778359  37.1671220  68.3623034  14.1581913  37.0626104  67.7513631
  12.6449563  45.9024107  69.8507631  13.4341941  45.5513171  69.9709712
  12.8193160  46.7160495  69.5884265  12.7869844  45.9709964  69.8295499
   2.3842873  39.3132832  66.9035420   1.5430880  39.2136707  67.1114313
   2.5932881  40.0828313  67.2549740   2.2907566  39.4124876  66.9862734
  11.4983387  29.9133663  64.4124049  11.7032980  29.8455971  65.2581046
  11.1709811  30.7192485  64.3445227  11.4798635  30.0219604  64.5283704
   6.1959538  37.2414232  66.1533017   5.8922675  36.6870220  66.7543425
   5.4938959  37.4206442  65.6661051   6.0475748  37.1859014  66.1702723
   5.2525635  34.5514751  60.7177719   5.5285369  33.8333664  60.3055286
   5.8524304  35.1499671  60.5098825   5.3818900  34.5335122  60.6258480
  14.7517075  30.4665428  63.8926815  14.1391388  30.9535830  64.2780546
  14.8481249  29.7908918  64.4364466  14.6754972  30.4383736  64.0305673
   8.7536156  32.2228269  58.9924314   9.2079902  32.3938829  59.7172158
   9.2276201  31.6096379  58.5922090   8.8904476  32.1579154  59.0398076
   2.2751681  41.7076595  68.3227052   1.6839614  42.3486093  68.2930068
   3.0372704  42.1314212  68.2958352   2.2999942  41.8652433  68.3142200
  18.3942102  41.5382364  69.3204331  18.4525226  41.9869013  70.0664307
  17.7608570  41.9481177  68.8834411  18.3093398  41.6656099  69.3656879
  12.0341197  47.1585906  65.7559077  11.8360886  47.6476721  65.0615288
  11.4128908  47.3627148  66.3343210  11.9128762  47.2602444  65.7382300
   6.0949176  38.9270803  60.0969321   6.8391220  39.3145079  60.3352271
   6.2409872  38.0828228  60.2609809   6.2259761  38.8601276  60.1563291
   8.0128751  30.7221062  65.1301183   7.1664796  30.8943870  65.0042532
   8.0099883  29.9170406  65.4667011   7.8875901  30.6282091  65.1612310
   9.0827051  34.4996276  65.9963241   8.6087006  33.9738038  66.5068551
   9.4545187  33.9525749  65.4278102   9.0676940  34.3412273  65.9878388
  15.3463782  39.5598652  67.4070021  15.1062005  38.7205067  67.4112447
  15.8255789  39.6398819  68.1310795  15.3815966  39.4480052  67.5144823
  11.0110551  35.3932831  59.0588994  10.4833570  35.4761575  58.3694703
  11.4706259  36.1350702  59.0553639  11.0012401  35.5153493  58.9563689
  17.3468969  36.3400109  65.3599280  17.1078739  36.2995943  64.5220065
  17.5102870  37.1871261  65.4865001  17.3359272  36.4592194  65.2552762
  13.9514999  40.7250059  71.2904325  14.6749198  40.2722585  71.1115345
  13.6864961  41.0054724  70.5076653  14.0196272  40.7001027  71.1483041
   2.8201867  35.3210232  68.0257204   2.1954938  35.3328624  67.4183157
   2.4847462  35.7970407  68.6748445   2.6787359  35.3928749  68.0313773
   3.0043616  33.6635351  54.0829889   2.6556420  34.3155076  54.5461439
   2.5240062  33.6492464  53.3553761   2.8813860  33.7578404  54.0440981
  10.5647634  43.9636395  58.1898651  11.2881832  44.4294507  58.0463225
  10.1248225  44.0310004  57.4396248  10.6063326  44.0420231  58.0583433
   9.7333789  40.8233937  69.4399340   9.1190782  40.2791987  69.7347976
  10.2501074  40.3098173  68.9605156   9.7189451  40.6670346  69.4123569
   8.9730086  41.8938207  67.1743639   8.5457694  41.2687925  66.7409074
   8.9655030  41.6113129  68.0002646   8.9089227  41.7590987  67.2323467
   7.3015795  32.7706961  67.3886173   7.3258283  32.2367074  66.6998953
   7.5527269  32.2624270  68.0511764   7.3425714  32.6167865  67.3850818
   3.5817118  31.4977780  66.7691917   3.6215489  31.9986986  67.4826625
   2.7566782  31.5888173  66.4997840   3.4656644  31.5859596  66.8342456
   5.0031481  38.0138289  69.0665816   4.1723411  38.1812107  68.8601064
   4.9482998  37.6374240  69.8514702   4.8720896  37.9828021  69.1514344
   3.3767525  36.2893881  59.5955934   3.5170486  36.7866345  60.2984575
   3.8750058  35.5880175  59.7370148   3.4708606  36.2595860  59.7207513
   3.4067747  37.1560992  56.9248511   4.0412827  37.7521417  56.8597973
   3.4893358  36.8564450  57.7394381   3.5124298  37.2001900  57.0351597
  16.3850313  39.6876469  69.7934875  16.9768153  40.3273720  69.8253073
  16.8209308  38.9899506  70.0826942  16.5368744  39.6794820  69.8415708
   4.9846730  33.0874967  56.8993953   5.3062571  32.6078050  56.2453215
   5.2473674  33.8974613  56.7084764   5.0712756  33.1364865  56.7749445
   8.2143703  44.1093842  70.4192769   7.7068794  44.6629689  70.8633399
   7.9170349  44.1702132  69.6011543   8.0948588  44.2000153  70.3641226
  10.3805885  32.4747161  69.2617432  10.8060957  32.0219688  68.6500958
   9.7662878  31.9207232  69.5382219  10.3534530  32.3261138  69.2122457
  10.8251483  48.0257099  58.3496712  10.1080793  47.8517962  57.8843950
  11.4758221  47.7909672  57.8172198  10.8153334  47.9652892  58.2025930
   8.8200108  28.9462261  62.6708009   8.1768426  28.7959907  63.2393147
   8.4799515  28.7004606  61.9057114   8.6745185  28.8874384  62.6411024
  13.4099454  36.9021688  62.0938018  12.7390644  37.4451390  61.9651083
  14.1039205  37.3716543  61.8519712  13.4128322  37.0519959  62.0393545
   7.4586188  49.0418400  67.3249776   7.2351843  48.2837229  67.6933802
   6.9696031  49.0716421  66.6030216   7.3529637  48.9340624  67.2726517
  13.5727582  33.3577572  65.0028391  13.9255192  32.9307295  65.6774189
  12.7142383  33.2728415  65.1329467  13.4977027  33.2822312  65.1223401
   2.2711267  35.9885091  63.0611237   1.5523256  36.4049224  63.3284101
   2.6423629  36.5539330  62.5102875   2.2203199  36.1334373  63.0194044
  11.5710848  36.6212940  68.9513233  11.5508775  36.4396235  69.8048012
  11.6190048  37.4924959  68.9272817  11.5745489  36.7229478  69.0736528
   9.5157178  43.2100132  74.8761710   9.4753032  42.5649809  74.2906865
  10.3280496  43.1536750  75.1887122   9.6300331  43.1059099  74.8358659
   6.1064645  49.2618858  64.7786860   5.6925044  48.5992988  64.3890702
   6.7912019  49.4096717  64.2582555   6.1463017  49.1859516  64.6443358
   9.4729939  48.4208943  65.5310477   9.0746222  48.5311214  64.7631297
   8.8581159  48.6291010  66.1137037   9.3228829  48.4682511  65.5041776
   8.0457841  35.0283091  58.3984617   7.4522681  35.3500088  57.8469184
   8.0833119  34.1824187  58.1905723   7.9632230  34.9507419  58.2867388
  15.0051642  28.4795983  65.9312703  14.4982507  27.7725123  65.8633881
  15.8019076  28.1489172  66.0613780  15.0478881  28.3269135  65.9411698
  10.9215658  34.9862596  61.8286367  10.6929351  35.0095297  60.9864725
  11.1813734  34.1620063  61.9481378  10.9261846  34.8678676  61.7211565
   3.9760420  33.5239142  63.1240563   4.4517787  33.8856222  62.4890744
   3.4749020  34.1795610  63.4040705   3.9725779  33.6733331  63.0717304
  17.2071782  42.9960910  58.9153568  17.5905388  43.7452266  59.1451665
  16.4115895  43.2426730  58.6565557  17.1465564  43.1430604  58.9111141
   6.0187073  35.6680342  56.4913947   6.3986038  35.6859971  55.7065061
   5.2779670  36.1134331  56.3704794   5.9655911  35.7362116  56.3577515
  13.6472364  33.9762533  62.0789525  13.6466590  33.8211190  62.9373802
  13.4428544  34.8225520  62.0230911  13.6172142  34.0783154  62.1977465
  11.3713216  38.6560035  65.7325732  11.8666881  37.9383030  65.6929752
  10.5612992  38.3530832  65.6180219  11.3257109  38.5057681  65.7099458
   6.8171828  42.5057848  57.8822737   6.0083150  42.1824522  57.8356046
   7.3246736  41.7991070  57.8150985   6.7721494  42.3539164  57.8653031
  13.4365035  41.4063722  68.4202861  13.8620106  40.8838144  67.8673286
  13.0721955  42.0044560  67.8991484  13.4451637  41.4173949  68.2611871
   3.0719115  49.7027940  67.1800206   3.3865674  50.5164328  67.1877988
   3.4812528  49.3178158  67.8482366   3.1787213  49.7656642  67.2804298
  10.0243634  45.1197987  64.7504018  10.4954813  45.8338249  64.9194004
  10.3603813  44.5196737  65.2863888  10.1438749  45.1369451  64.8536394
  10.6617581  44.9115921  71.5131711  10.1138527  44.2873804  71.2451776
  11.1230609  45.1010193  70.7975790  10.6484790  44.8474971  71.3682142
  13.4711445  32.9801275  68.8982903  12.8874434  33.4810482  68.4860471
  13.7915739  32.4730831  68.2647227  13.4324620  32.9793110  68.7441411
   6.0106244  31.8941870  59.1741578   6.8321939  32.0640183  58.9323273
   5.5475895  32.0489131  58.4507876   6.0637406  31.9423603  59.0313222
  10.2275907  45.9166993  68.0441052  11.0474281  45.7729959  68.3057347
   9.9469985  46.5413192  68.5857490  10.3072650  45.9877345  68.1628992
  26.6989557  53.5731845  61.0083929  26.6683562  54.4276482  61.1802198
  27.2970906  53.2727138  61.5670072  26.7826715  53.6548342  61.1158731
  19.8989242  52.6607496  65.7636859  19.0427138  52.8215994  65.8145976
  19.9456896  51.7899560  65.7841920  19.7788354  52.5558298  65.7742925
  14.2830382  62.1970214  61.5274091  13.5313281  61.8185752  61.2990136
  14.7316394  62.2288648  60.7792901  14.2380049  62.1455821  61.3831593
  23.2082959  58.9294022  75.3697315  23.9149726  58.4346052  75.4984250
  23.3970894  59.3703103  74.6399973  23.3410864  58.9212372  75.2806361
  19.7355342  62.6195583  56.9559638  19.4006710  63.2972505  56.5203860
  20.2482212  62.2300895  56.3676509  19.7620923  62.6620162  56.8046429
  19.2759633  64.5709852  62.8970749  19.6599012  65.1396751  62.3575524
  19.2118774  63.8459362  62.4176565  19.3233060  64.5485316  62.7464612
  22.7441063  54.7199540  68.4068511  23.2897023  55.3984627  68.4662480
  22.6857940  54.5787001  67.5470092  22.8156978  54.7991542  68.2880571
  15.8615138  62.2088606  63.7936863  15.9625501  61.3988960  64.1033991
  15.2656883  62.1145553  63.1636542  15.7887677  62.0753634  63.7463102
  24.5206132  56.1484147  59.2802238  24.4045658  56.8991833  59.7094377
  25.3162019  55.8908100  59.5298325  24.6210721  56.2218994  59.3806330
  15.7015878  67.1266195  65.1951719  16.3453333  67.5679359  65.5847878
  16.0272133  66.3219621  65.1081978  15.8447706  67.0731390  65.2397196
   9.0580182  58.2308893  63.4189197   8.8230367  57.3976545  63.3121466
   9.1965823  58.5113558  62.6050398   9.0435845  58.1492396  63.2831552
  11.3570270  50.3994623  66.3173504  10.7375301  49.8087271  66.1483519
  11.2554133  50.9906059  65.6837828  11.2507945  50.3998706  66.1978494
  16.4036457  60.1378170  60.5671581  16.7252298  60.6783377  59.9632889
  17.0508554  59.5674942  60.6993871  16.5462513  60.1337345  60.4978616
  18.4538165  52.1394165  60.6505968  19.1518330  52.3182293  61.1427431
  18.7690498  51.6164504  60.0276357  18.6033503  52.0887937  60.6307978
  11.0839403  53.9446905  68.5617073  10.9598100  54.5309351  69.1966892
  11.7357687  53.4507101  68.8629348  11.1613052  53.9585709  68.7003003
  18.6426101  58.5264610  60.6385759  19.0819736  57.9181711  61.0840532
  18.4930764  58.1471983  59.8671224  18.6847567  58.3803081  60.5904926
  16.1097744  57.1208622  67.8404585  16.7546746  56.6281065  67.5215533
  16.3499521  57.2633409  68.6670663  16.2408329  57.0686064  67.9154118
  18.6483835  59.9663528  67.4911477  18.9307078  59.1714934  67.2698233
  19.3769996  60.4444115  67.5116538  18.7973399  59.9198125  67.4614492
  16.6265029  47.5086562  64.7327242  16.2968359  47.9597705  64.0630941
  15.9510031  47.4302725  65.2800249  16.4775465  47.5637697  64.7150465
  22.2435437  56.8791791  57.5916528  22.1586733  57.7352758  57.7366097
  22.7319821  56.6036115  58.2598687  22.3024335  56.9649113  57.7118610
  23.8341437  43.4972085  62.9776853  23.5194878  44.1875563  63.4097275
  23.3168379  43.4416867  62.2762353  23.7105907  43.5906973  62.9373802
  23.1753871  53.4976586  59.0914263  22.6465342  53.7136219  59.7511570
  23.6978891  54.1912724  59.0115233  23.1742324  53.6319722  59.1769863
  28.6301924  59.0722890  64.4647308  27.7999627  59.2833534  64.6280724
  28.5811176  58.2459945  64.1889591  28.5008659  58.9812496  64.4484673
  15.0653478  57.3939802  57.8921731  14.4810694  57.8989834  58.2987595
  14.6623574  57.1682189  57.1518323  14.9192782  57.4348051  57.8426757
  10.6197507  63.1094563  64.6945403  10.1365085  63.8345053  64.6704986
  11.4320825  63.4070694  64.8055561  10.6688255  63.2596917  64.7072682
  16.6911661  61.9026744  67.2995217  16.1738603  61.5434159  66.6956525
  17.3886052  61.3788919  67.3101283  16.7177242  61.7724432  67.2125476
  20.3475253  62.3521558  73.2611390  20.4358599  62.1647699  74.1089601
  20.7764966  61.7058988  72.8616237  20.4237355  62.2284566  73.3283142
  14.8320983  45.5698850  60.2150190  15.5866951  45.9377167  59.9767240
  14.6548518  45.9438405  60.9829369  14.9175462  45.6797038  60.2935078
  13.4741704  63.6250739  64.8465683  14.1762284  63.1102728  64.9038439
  13.3939187  63.9524891  65.6512558  13.5665465  63.5964966  64.9738475
  28.1255882  51.7193291  68.2597729  27.2884303  51.7895478  68.4945324
  28.0944113  51.7217786  67.3872032  27.9974164  51.7303518  68.1657277
  14.5220611  53.8626326  73.9746098  14.6941115  53.7532221  74.8231379
  15.0589968  54.5080732  73.7377290  14.6265615  53.9418328  74.0651195
  13.1878048  47.9769169  56.9128303  13.0053621  48.1941050  56.0869296
  14.0503661  48.0908182  56.9686917  13.2882637  48.0259067  56.7982790
  12.7992480  59.8157091  64.3551291  13.6381379  60.0480024  64.4025052
  12.8304249  58.9461403  64.2858326  12.9274197  59.7214038  64.3515935
  13.4245183  60.2357967  68.6564596  13.9643408  60.0929098  69.3267969
  12.7415129  60.6354717  69.0248623  13.4037337  60.2737638  68.8099018
  18.8677767  44.9795580  59.9477327  19.5963927  44.8011535  59.5015483
  18.9572660  45.8213660  60.1584505  18.9884429  45.0779458  59.9130844
  22.8486068  55.9148967  63.8509621  23.6043583  56.3480482  63.8898529
  22.9548392  55.2653737  64.4244257  22.9756238  55.8826451  63.9407646
  25.8866239  59.7422244  64.6012024  25.4501471  59.7458987  65.3570995
  25.5529154  60.4227743  64.1691601  25.7728859  59.8434700  64.6492856
  25.8063722  46.7836072  66.8441452  26.4489630  46.8534177  67.4303367
  26.0586742  46.1165295  66.3420993  25.9385854  46.6962421  66.8568731
  12.7340075  51.2543342  55.4250776  12.0198252  50.9681521  55.8373208
  13.2184044  51.5939968  56.0657163  12.6999438  51.2624991  55.5806411
  13.5780934  49.9936636  71.4566026  12.8852731  49.5233615  71.7026757
  14.1941262  49.7674940  72.0307733  13.5665464  49.8903767  71.5775178
  20.6165706  63.6940679  69.5721630  19.8180951  63.4540179  69.8295498
  21.0651717  63.7455072  70.3188677  20.5640317  63.6663071  69.7206554
  29.0210585  56.4603164  63.4931661  29.6827019  55.8993833  63.3927569
  28.3801997  55.9655195  63.8184352  29.0239452  56.3039573  63.5264001
  19.9087393  59.7573296  55.8012584  20.3238541  59.4258320  55.1097080
  19.0779322  59.5242198  55.6732721  19.8475401  59.6744552  55.6803432
   9.2375741  57.2417037  66.0910762   9.0551315  57.2163923  65.2383054
   9.9725410  57.7115975  66.1299671   9.3189805  57.3078399  65.9708681
  25.3075416  57.4768547  63.2343650  25.5431005  57.6213746  62.4070500
  25.4564979  58.2410955  63.6275163  25.3641219  57.6107601  63.1707254
  12.3021493  53.9602040  72.5992871  13.0261466  53.9455070  73.0857765
  12.4037630  54.6697395  72.1014839  12.4239702  54.0626743  72.5971658
  27.1365872  56.3170213  61.0713253  27.4674090  56.8497853  60.4653348
  27.7098961  56.3709100  61.7275204  27.2699552  56.4039782  61.0791035
  22.3497762  54.1635115  61.7536834  22.4444616  54.9024409  62.2076459
  21.7256605  53.7352591  62.1871398  22.2706792  54.2096436  61.8844981
  20.6050235  57.3421328  72.4027114  21.1789097  56.7048572  72.5575678
  20.5265039  57.3425410  71.5336772  20.6783470  57.2486439  72.2973525
   9.2046652  54.1210537  66.2409829   9.7820154  53.9846988  66.8802074
   8.5060714  53.6646322  66.4955413   9.1867673  54.0332804  66.3732118
  22.6020783  56.0083855  54.9873786  22.5200945  56.0786042  55.8528773
  23.2400503  56.5713599  54.7957526  22.6840620  56.1022826  55.0863735
  15.9613954  55.7744593  64.4548312  15.7033198  54.9416328  64.4279611
  16.0162437  56.0002206  63.6140812  15.9313732  55.6842364  64.3268449
  21.0415004  47.8773044  64.5552405  20.3371331  47.3882229  64.7136324
  21.0899978  47.8895518  63.6840849  20.9445056  47.8062692  64.4491744
  14.9348666  53.3282356  64.9413207  14.3598257  53.4874524  65.5777168
  14.5584342  52.6917765  64.4781657  14.7951479  53.2580169  64.9667765
  18.6021955  51.8005705  69.8005585  18.2136388  51.3759923  69.1457776
  17.9376653  52.0487855  70.3082612  18.4468883  51.7744426  69.7793453
  28.2445224  51.5580710  62.5753415  27.9881789  50.7460651  62.3851298
  29.0874538  51.5658277  62.3483602  28.3311249  51.4392707  62.5138232
   4.6805485  52.9722430  62.9557647   4.7665737  52.5954299  63.7371177
   5.3081283  52.5982876  62.4777606   4.7862036  52.8607913  63.0003125
  22.4248316  45.4980334  67.3129569  22.8058828  44.8158505  67.6997443
  21.6211601  45.2089936  67.1305234  22.3624778  45.3547382  67.3433625
  19.7060893  56.0304309  57.9982392  20.5201532  56.3219202  57.8865163
  19.6420034  55.3764172  57.4240685  19.8163632  55.9769504  57.8971229
  25.9270383  58.7130306  72.4111968  25.6909021  57.8818370  72.2924028
  26.5713612  58.6615913  72.9966812  25.9865054  58.5827994  72.4797861
  15.5768801  59.5025827  63.1254704  16.2142748  59.2637574  63.6706497
  16.0023873  59.7062986  62.3907865  15.7344968  59.4976837  63.0971861
  16.2171616  54.7228117  57.4629593  16.6016769  54.5035823  58.2146139
  15.9683237  55.5491062  57.5930670  16.2373689  54.8126263  57.5930670
  16.3840157  48.0034532  77.1792178  16.0693598  48.7734095  76.9161740
  16.0630089  47.4404788  76.5944405  16.2899076  48.0344801  77.0533528
  26.9506804  58.4974754  68.4740262  26.6452621  59.2302811  68.8353578
  26.2313020  58.0912684  68.1933048  26.7994146  58.5456487  68.4853399
  17.9590273  59.9798250  64.8048490  18.0329282  59.8173421  65.6590340
  18.7759780  60.1688439  64.5608972  18.0906632  59.9834992  64.8946516
  32.6508596  55.1367755  67.8008606  32.5833096  55.1563714  66.9311193
  32.6364258  55.9798082  68.0264277  32.6387352  55.2641490  67.7061083
  11.7196030  60.3256112  61.8342934  10.8934148  60.5717850  61.7077213
  11.7808021  60.2468193  62.7004992  11.6070197  60.3501061  61.9431878
  13.9372054  46.3925053  62.7938374  13.0694479  46.4647653  62.8595983
  14.2247258  47.1947132  62.9826349  13.8511802  46.5219200  62.8313141
  23.0604942  46.5402913  71.1249696  23.8058534  46.3512723  70.7113121
  22.6442247  47.0661151  70.5663552  23.1089917  46.5905058  70.9814269
  16.4994859  62.9432993  59.5361964  16.7893157  62.5521974  58.8121190
  17.2298340  63.1249698  59.9767239  16.6501743  62.9126806  59.4944771
  30.4367213  53.9112141  66.0755201  30.9875135  53.2780210  66.3152293
  30.4211329  54.4427534  66.7670705  30.5152410  53.8961089  66.2134059
  14.4400775  64.9200375  62.6022113  14.2201070  64.6297730  63.3948780
  14.2195297  64.2615330  62.0740026  14.3748369  64.7800083  62.6411022
  13.3517722  57.0073692  64.8677815  13.0630970  56.3811163  65.4023542
  14.2201070  56.9493979  64.9342496  13.4377974  56.9061236  64.9568770
  24.1395620  52.1508475  65.1859797  23.7960385  51.4298810  65.5367047
  24.2388662  51.9422326  64.3438155  24.1037662  52.0132678  65.1131477
  16.6068730  66.2929765  61.3852806  17.2592788  65.7606207  61.6143832
  15.9094339  65.9398417  61.7720680  16.5999448  66.1619288  61.4764974
  13.5549995  58.6468943  60.7920180  14.3095963  59.0281982  61.0055643
  12.9620608  59.0980086  61.2466877  13.5786709  58.7697770  60.8903059
  24.6008649  58.6134179  60.7283785  25.1666681  59.2727389  60.6442328
  23.9536552  58.9583877  61.2000187  24.5887405  58.7616120  60.7856542
  16.0156662  50.6031783  75.9177393  15.2056438  50.9089563  75.8067235
  16.4931349  51.3237365  76.0329977  15.9660141  50.7546384  75.9184464
  14.8748222  59.8177504  66.1660296  14.3528975  59.9577796  66.8512160
  15.2622242  59.0588168  66.3562413  14.8551923  59.7263028  66.2961372
  11.8639406  49.8683313  60.2355250  11.5764202  49.4984583  59.4987198
  12.5509874  50.3378168  59.9738955  11.9228303  49.8830282  60.0870326
  21.0715227  61.5572963  60.1520864  20.8301903  60.8240824  59.7447929
  21.2516560  62.1059820  59.4987198  21.0622851  61.5295354  59.9951087
  16.3014547  56.8481523  61.5641787  16.1057330  57.4556257  60.9702090
  16.5248893  56.1549467  61.0833461  16.3049188  56.8359048  61.4057867
  14.6993077  53.7336261  61.6822655  15.4215729  53.8977419  61.2226461
  14.2201070  54.4545926  61.5761995  14.7356808  53.8634490  61.5988269
  22.6586585  50.0700060  67.0619340  21.8197686  50.0961339  66.8257603
  22.7290952  50.7170795  67.6424687  22.5454978  50.1696186  67.1128457
  21.1055863  46.9685437  61.7946956  21.8082216  46.7693185  61.3166914
  20.8400052  46.1961379  62.1015799  21.1702496  46.8248403  61.7692397
  26.5344109  55.2768046  64.3480582  26.4478083  55.4323472  65.2015361
  26.0794589  55.9206122  63.9739987  26.4547365  55.3943802  64.4187688
   9.4367600  50.6464525  61.0840531   9.5383737  51.4490687  61.4121507
  10.2323487  50.4451861  60.7863612   9.5695506  50.7350424  61.0875887
  15.8684419  48.2320722  70.8477836  15.6767616  48.2475856  71.6977260
  16.7183015  48.4284396  70.8244491  15.9660141  48.2635073  70.9701131
  10.2531332  50.7611703  68.8261653  10.1116824  49.9095644  68.9506161
  10.5371896  50.8040364  68.0023859  10.2739179  50.6411453  68.7229277
  20.4069925  52.5978794  62.9706141  20.1604639  52.5174544  63.8042930
  20.7355048  51.8132261  62.7768669  20.4191168  52.4705059  63.0653664
  24.3017974  59.3062153  66.7592922  24.1632333  60.0043199  67.2641665
  23.5217972  59.1510809  66.4029104  24.1661201  59.3862320  66.7819197
  22.6396059  55.6058528  73.0115304  22.6344097  54.7338345  73.0157731
  23.3457053  55.8046697  72.5384760  22.7441063  55.5062402  72.9422340
  16.3666952  55.3335512  72.3829124  16.5110328  55.9136720  71.7472234
  16.7142601  55.7111809  73.0878979  16.4394413  55.4756216  72.3928119
  18.5386869  54.5325681  70.1654256  17.7910184  54.7256695  69.7602534
  18.6928395  53.7070900  69.9278377  18.4509297  54.4390792  70.0699662
  15.4394707  63.5238284  69.2490151  15.5884271  62.9641200  68.5963556
  16.2194709  63.6030286  69.6322670  15.5768801  63.4523849  69.2087100
  25.7971347  58.6640407  57.5209422  25.4178155  57.8777545  57.5138711
  25.1337592  59.2127264  57.3781066  25.6429821  58.6285231  57.4990219
  17.9648008  63.6952927  70.5274642  17.8891679  63.0261737  71.0825430
  17.8937867  64.3970715  71.0415308  17.9428615  63.6997834  70.6851490
  18.7788647  48.4276231  71.0549660  19.2361261  49.1600206  71.1822452
  18.8544975  48.0042696  71.8136915  18.8579616  48.4733469  71.1850736
  11.0221638  48.6742051  72.1439103  10.4863827  48.0622409  72.4599871
  11.0839402  49.2490187  72.7972770  10.9517270  48.6688979  72.2874530
  23.2515972  41.6066106  64.9243503  23.3699541  42.0642570  64.1910805
  23.0778148  40.8011368  64.6379720  23.2435143  41.5559879  64.7744436
  18.6218255  62.2153926  61.3598248  19.3868146  61.9463569  61.0380912
  18.5196345  61.7303936  62.0768311  18.7199750  62.1043490  61.4178075
  16.6571024  50.4178335  67.8991484  15.8667099  50.2369795  68.2208819
  17.0531647  49.6405288  67.8821778  16.5987901  50.2765796  67.9444032
  21.1436915  59.2466109  53.3398197  21.9109900  59.3066234  52.9304049
  20.6968224  58.6746551  52.8554516  21.1910342  59.1702685  53.2075908
  22.0414711  58.0520765  65.6250930  21.3659713  57.8205998  66.1264317
  22.0507087  57.4441948  64.9993035  21.9433215  57.9279691  65.6067082
  19.1708855  52.8938594  72.3814983  19.1067996  53.7548551  72.2535119
  19.3106042  52.5770587  71.5810534  19.1824325  52.9738761  72.2443195
  24.0431445  60.9085898  57.8561108  24.1251283  61.7152884  57.5322558
  24.5281188  60.9281857  58.5801881  24.1268603  61.0306560  57.9148006
  17.8527949  55.5870734  66.5231185  17.4290198  55.7875233  65.7870204
  17.6772804  54.7399582  66.6355485  17.7638829  55.4919515  66.4304876
  13.1410394  56.0822785  61.9559158  13.2975013  56.0169588  62.8115150
  13.4810987  56.8571338  61.7437838  13.2143628  56.1871983  62.0513752
  19.6789538  55.4580669  60.8252521  20.2205084  54.9551050  61.2891142
  19.9936097  55.4045863  60.0142006  19.8053935  55.3760090  60.7736333
  23.5506646  59.6683316  77.9379433  24.3641511  59.3968465  78.0984566
  23.3901612  59.3690856  77.1339629  23.6476594  59.5838242  77.8424839
  17.8475988  60.8498020  58.1092549  17.9168808  59.9912559  58.2485550
  18.6264443  61.0669901  57.7811574  17.9728838  60.7550884  58.0809707
  20.8278808  50.3516973  70.8774822  21.0420777  49.7127887  70.3238176
  20.2112707  50.7962797  70.4482683  20.7684137  50.3227117  70.7325253
  22.2383475  63.2735721  62.3229043  21.8463267  62.9702437  61.6051909
  22.3936548  64.1104811  62.1333996  22.2037065  63.3519558  62.1885540
   9.7144655  53.2657736  62.2719925  10.0943620  53.6842280  61.6080192
   9.1400020  53.8471191  62.5788768   9.6855980  53.4135594  62.2196666
  22.9917896  51.9606038  71.8158129  22.1794577  51.6531929  71.8971301
  23.4507830  51.4805038  72.3800841  22.9398280  51.8442531  71.9112723
  22.4023150  59.8385710  62.2635073  22.0437805  60.0100353  63.0399106
  21.9161861  60.2998916  61.7063072  22.2781847  59.9324681  62.2960342
  20.2193536  43.4616909  65.8662164  19.3487094  43.4355630  65.8195474
  20.4733877  43.2894101  65.0488010  20.1287096  43.4327053  65.7382301
  17.1911516  55.5184876  54.8035307  17.4804040  56.2949758  55.0778882
  17.2783314  55.0073607  55.5049807  17.2465772  55.5576794  54.9477805
  20.0871403  53.3666110  76.5986831  20.5571034  53.9908226  76.9854705
  20.1333283  52.6983085  77.1580046  20.1639279  53.3600790  76.7386902
  17.2442677  45.4723137  67.3235635  16.7281165  44.7803329  67.4487214
  16.6836606  46.1393914  67.2698234  17.0849190  45.4686395  67.3341701
  19.3134910  46.0116097  69.1528487  18.9266663  46.0365129  69.9342017
  18.8267847  45.4457776  68.7003004  19.1847419  45.9311848  69.2016391
  23.5627890  60.7289606  73.2102274  24.2007610  60.2349802  72.8764730
  22.9201981  60.6567007  72.6254501  23.5622116  60.6448615  73.0744629
  25.2884890  52.5778752  67.7768190  24.8612498  52.4905101  67.0216289
  24.6510943  52.6856528  68.3623034  25.1314497  52.5811412  67.7513631
  18.9792052  42.8983083  71.4438747  19.6085170  43.4343383  71.1659818
  19.1477915  42.8060442  72.2952313  19.0969846  42.9644445  71.5287275
  18.7805967  47.6854277  73.7165159  19.6079396  47.4139426  73.7723773
  18.8013813  48.4815119  74.0728977  18.9058817  47.7634032  73.7780342
  23.6182146  61.4209415  69.8507631  24.4074524  61.0698479  69.9709712
  23.7925744  62.2345803  69.5884265  23.7602428  61.4895272  69.8295499
  13.3575457  54.8318140  66.9035420  12.5163463  54.7322014  67.1114313
  13.5665465  55.6013621  67.2549740  13.2640149  54.9310184  66.9862734
  10.8351024  52.4537677  64.7320170  10.4407721  52.5280689  63.9570280
  10.2791140  52.8395624  65.2828532  10.6953836  52.5219452  64.6987830
  22.4715970  45.4318971  64.4124049  22.6765564  45.3641279  65.2581046
  22.1442394  46.2377792  64.3445227  22.4531218  45.5404912  64.5283704
  17.1692121  52.7599539  66.1533017  16.8655259  52.2055528  66.7543425
  16.4671542  52.9391749  65.6661051  17.0208331  52.7044322  66.1702723
  16.2258219  50.0700059  60.7177719  16.5017953  49.3518972  60.3055286
  16.8256888  50.6684979  60.5098825  16.3551483  50.0520430  60.6258480
  25.7249658  45.9850736  63.8926815  25.1123972  46.4721138  64.2780546
  25.8213833  45.3094226  64.4364466  25.6487556  45.9569044  64.0305673
  19.7268739  47.7413577  58.9924314  20.1812486  47.9124137  59.7172158
  20.2008785  47.1281687  58.5922090  19.8637059  47.6764462  59.0398076
  13.2484264  57.2261903  68.3227052  12.6572198  57.8671401  68.2930068
  14.0105288  57.6499520  68.2958352  13.2732525  57.3837741  68.3142200
  13.6444887  48.3863900  68.9895070  14.1046369  48.4602830  69.7270194
  13.6900994  49.1845154  68.6394891  13.7195443  48.5158047  69.0467827
  15.2928237  49.0530595  73.5567097  14.9013802  48.4063942  73.9922875
  15.4614100  49.6442030  74.1761353  15.2599147  49.0444863  73.7129803
  29.3674686  57.0567672  69.3204331  29.4257810  57.5054321  70.0664307
  28.7341154  57.4666485  68.8834411  29.2825981  57.1841407  69.3656879
  23.0073781  62.6771214  65.7559077  22.8093469  63.1662029  65.0615288
  22.3861492  62.8812456  66.3343210  22.8861345  62.7787752  65.7382300
  17.0681759  54.4456111  60.0969321  17.8123804  54.8330387  60.3352271
  17.2142455  53.6013536  60.2609809  17.1992344  54.3786584  60.1563291
  18.9861335  46.2406370  65.1301183  18.1397380  46.4129178  65.0042532
  18.9832467  45.4355714  65.4667011  18.8608484  46.1467399  65.1612310
  20.0559635  50.0181584  65.9963241  19.5819589  49.4923346  66.5068551
  20.4277771  49.4711057  65.4278102  20.0409524  49.8597581  65.9878388
  10.4332665  52.0153091  71.3646786  11.2958278  51.9148800  71.2784116
  10.1024448  51.4347800  70.8032358  10.5117861  51.9144718  71.2692192
  26.3196366  55.0783960  67.4070021  26.0794588  54.2390375  67.4112447
  26.7988373  55.1584127  68.1310795  26.3548549  54.9665360  67.5144823
  21.9843135  50.9118139  59.0588994  21.4566153  50.9946883  58.3694703
  22.4438843  51.6536010  59.0553639  21.9744985  51.0338801  58.9563689
  28.3201553  51.8585417  65.3599280  28.0811323  51.8181251  64.5220065
  28.4835454  52.7056569  65.4865001  28.3091856  51.9777502  65.2552762
  24.9247583  56.2435366  71.2904325  25.6481782  55.7907893  71.1115345
  24.6597545  56.5240032  70.5076653  24.9928856  56.2186335  71.1483041
  13.7934451  50.8395540  68.0257204  13.1687521  50.8513932  67.4183157
  13.4580046  51.3155715  68.6748445  13.6519943  50.9114057  68.0313773
  13.9776200  49.1820658  54.0829889  13.6289004  49.8340384  54.5461439
  13.4972646  49.1677772  53.3553761  13.8546444  49.2763712  54.0440981
  21.5380217  59.4821702  58.1898651  22.2614416  59.9479815  58.0463225
  21.0980808  59.5495312  57.4396248  21.5795909  59.5605539  58.0583433
  20.7066372  56.3419245  69.4399340  20.0923365  55.7977295  69.7347976
  21.2233657  55.8283481  68.9605156  20.6922035  56.1855654  69.4123569
  19.9462669  57.4123515  67.1743639  19.5190277  56.7873233  66.7409074
  19.9387614  57.1298437  68.0002646  19.8821811  57.2776295  67.2323467
  13.0625196  52.4488688  70.2432073  13.2218683  51.6932012  70.6483795
  12.8818090  52.9979627  70.8972811  13.0590555  52.4182502  70.3994779
  21.0045499  44.6149923  70.7982862  20.5086061  44.8113598  70.1074429
  21.7614561  45.0142592  70.6271664  21.0432324  44.7027657  70.6702999
  18.2748379  48.2892269  67.3886173  18.2990866  47.7552382  66.6998953
  18.5259853  47.7809578  68.0511764  18.3158298  48.1353173  67.3850818
  14.5549701  47.0163088  66.7691917  14.5948073  47.5172294  67.4826625
  13.7299366  47.1073481  66.4997840  14.4389227  47.1044904  66.8342456
  15.9764065  53.5323597  69.0665816  15.1455994  53.6997415  68.8601064
  15.9215582  53.1559548  69.8514702  15.8453480  53.5013329  69.1514344
  13.7847848  47.0232490  74.7022227  14.4100551  46.4794623  74.9751659
  13.3298328  46.5427408  74.1330017  13.8096109  46.8721972  74.6583821
  14.3500108  51.8079189  59.5955934  14.4903070  52.3051653  60.2984575
  14.8482641  51.1065483  59.7370148  14.4441189  51.7781168  59.7207513
  14.3800331  52.6746300  56.9248511  15.0145410  53.2706725  56.8597973
  14.4625942  52.3749758  57.7394381  14.4856882  52.7187208  57.0351597
  27.3582897  55.2061777  69.7934875  27.9500737  55.8459028  69.8253073
  27.7941891  54.5084814  70.0826942  27.5101328  55.1980128  69.8415708
  15.9579314  48.6060275  56.8993953  16.2795155  48.1263358  56.2453215
  16.2206257  49.4159921  56.7084764  16.0445339  48.6550173  56.7749445
  19.1876286  59.6279150  70.4192769  18.6801378  60.1814997  70.8633399
  18.8902933  59.6887440  69.6011543  19.0681171  59.7185461  70.3641226
  21.3538469  47.9932469  69.2617432  21.7793540  47.5404996  68.6500958
  20.7395462  47.4392540  69.5382219  21.3267114  47.8446445  69.2122457
  10.8853319  54.8714141  60.1938057  11.3945548  55.4678648  60.5749362
  11.3587591  54.6040114  59.5114476  11.0296694  54.9199956  60.1492580
  21.7984067  63.5442407  58.3496712  21.0813376  63.3703270  57.8843950
  22.4490804  63.3094980  57.8172198  21.7885917  63.4838200  58.2025930
  19.7932692  44.4647569  62.6708009  19.1501009  44.3145215  63.2393147
  19.4532099  44.2189914  61.9057114  19.6477769  44.4059692  62.6411024
  24.3832038  52.4206996  62.0938018  23.7123228  52.9636698  61.9651083
  25.0771788  52.8901851  61.8519712  24.3860906  52.5705267  62.0393545
  18.4318772  64.5603708  67.3249776  18.2084426  63.8022537  67.6933802
  17.9428615  64.5901729  66.6030216  18.3262221  64.4525932  67.2726517
  24.5460165  48.8762880  65.0028391  24.8987776  48.4492602  65.6774189
  23.6874967  48.7913723  65.1329467  24.4709610  48.8007620  65.1223401
  13.2443850  51.5070399  63.0611237  12.5255840  51.9234532  63.3284101
  13.6156213  52.0724638  62.5102875  13.1935782  51.6519681  63.0194044
  22.5443431  52.1398248  68.9513233  22.5241359  51.9581543  69.8048012
  22.5922632  53.0110267  68.9272817  22.5478072  52.2414786  69.0736528
  20.4889761  58.7285440  74.8761710  20.4485616  58.0835117  74.2906865
  21.3013079  58.6722057  75.1887122  20.6032915  58.6244407  74.8358659
  17.0797229  64.7804166  64.7786860  16.6657627  64.1178296  64.3890702
  17.7644603  64.9282025  64.2582555  17.1195600  64.7044824  64.6443358
  20.4462523  63.9394251  65.5310477  20.0478806  64.0496522  64.7631297
  19.8313742  64.1476318  66.1137037  20.2961412  63.9867819  65.5041776
  19.0190425  50.5468399  58.3984617  18.4255264  50.8685396  57.8469184
  19.0565703  49.7009495  58.1905723  18.9364814  50.4692727  58.2867388
  25.9784226  43.9981291  65.9312703  25.4715090  43.2910431  65.8633881
  26.7751659  43.6674480  66.0613780  26.0211465  43.8454443  65.9411698
  21.8948241  50.5047904  61.8286367  21.6661934  50.5280605  60.9864725
  22.1546318  49.6805371  61.9481378  21.8994429  50.3863984  61.7211565
  16.1767470  52.3582377  71.4311467  15.6646373  51.7503560  71.7896499
  16.0046966  53.0738969  71.8985443  16.0757107  52.3745676  71.5527691
  14.9493004  49.0424450  63.1240563  15.4250370  49.4041530  62.4890744
  14.4481604  49.6980917  63.4040705  14.9458363  49.1918639  63.0717304
  28.1804366  58.5146218  58.9153568  28.5637971  59.2637574  59.1451665
  27.3848479  58.7612038  58.6565557  28.1198148  58.6615912  58.9111141
  20.0536540  50.2806621  73.8713723  20.6107970  50.0520431  73.2392188
  19.7297605  51.0412287  73.5948935  20.0882950  50.3590458  73.7370220
  17.7719657  53.3674275  74.8365730  18.5230984  53.6825951  75.1505284
  17.9642234  53.1653446  74.0099652  17.9111072  53.3841656  74.7609126
  16.9919657  51.1865650  56.4913947  17.3718622  51.2045279  55.7065061
  16.2512253  51.6319639  56.3704794  16.9388495  51.2547424  56.3577515
  24.6204948  49.4947841  62.0789525  24.6199174  49.3396497  62.9373802
  24.4161128  50.3410828  62.0230911  24.5904725  49.5968462  62.1977465
   6.6822219  52.9187625  66.4948342   6.5043980  52.4664234  67.2203257
   6.3941241  53.7213787  66.6786819   6.6135172  52.9710183  66.6291845
  22.3445800  54.1745343  65.7325732  22.8399465  53.4568338  65.6929752
  21.5345575  53.8716140  65.6180219  22.2989693  54.0242989  65.7099458
  17.7904411  58.0243156  57.8822737  16.9815734  57.7009830  57.8356046
  18.2979320  57.3176378  57.8150985  17.7454078  57.8724472  57.8653031
   8.4194688  55.4515349  63.6070101   7.5540208  55.4401040  63.4952872
   8.5193504  55.2645572  64.4541240   8.3068855  55.4221410  63.7159045
  24.4097619  56.9249030  68.4202861  24.8352690  56.4023452  67.8673286
  24.0454538  57.5229868  67.8991484  24.4184221  56.9359257  68.2611871
  14.0451698  65.2213248  67.1800206  14.3598257  66.0349636  67.1877988
  14.4545112  64.8363466  67.8482366  14.1519796  65.2841950  67.2804298
  20.9976218  60.6383294  64.7504018  21.4687396  61.3523557  64.9194004
  21.3336396  60.0382045  65.2863888  21.1171333  60.6554759  64.8536394
  17.9145713  45.4110765  71.7062113  18.0473619  44.6141758  72.0343089
  18.2990866  45.9377168  72.2860389  17.9902042  45.3710682  71.8405616
  21.6350164  60.4301229  71.5131711  21.0871110  59.8059112  71.2451776
  22.0963193  60.6195501  70.7975790  21.6217374  60.3660279  71.3682142
  20.9878068  42.3341091  68.3043206  20.1824032  42.2238821  68.6211045
  20.8584804  42.4353547  67.4473072  20.8498201  42.3324761  68.2251247
  24.4444029  48.4986583  68.8982903  23.8607017  48.9995790  68.4860471
  24.7648323  47.9916139  68.2647227  24.4057204  48.4978418  68.7441411
  16.9838828  47.4127178  59.1741578  17.8054522  47.5825491  58.9323273
  16.5208479  47.5674439  58.4507876  17.0369990  47.4608911  59.0313222
  15.5734160  45.4069940  69.9540007  16.1178573  45.0661067  70.5444349
  15.6271095  46.2655402  70.0961292  15.6623279  45.4825199  70.0621880
  11.3864718  59.1686356  66.8278815  11.9909576  59.1282190  66.1992636
  11.1792031  60.0157508  66.8582871  11.4453616  59.2874359  66.7394931
  21.2008491  61.4352301  68.0441052  22.0206864  61.2915267  68.3057347
  20.9202568  62.0598500  68.5857490  21.2805234  61.5062653  68.1628992
  37.6722141  69.0917153  61.0083929  37.6416145  69.9461790  61.1802198
  38.2703490  68.7912446  61.5670072  37.7559299  69.1733650  61.1158731
  30.8721826  68.1792804  65.7636859  30.0159721  68.3401302  65.8145976
  30.9189480  67.3084868  65.7841920  30.7520937  68.0743606  65.7742925
  33.7173647  70.2384848  68.4068511  34.2629607  70.9169935  68.4662480
  33.6590523  70.0972309  67.5470092  33.7889561  70.3176850  68.2880571
  35.4938715  71.6669455  59.2802238  35.3778241  72.4177141  59.7094377
  36.2894602  71.4093408  59.5298325  35.5943305  71.7404302  59.3806330
  20.0312766  73.7494201  63.4189197  19.7962950  72.9161853  63.3121466
  20.1698407  74.0298866  62.6050398  20.0168428  73.6677704  63.2831552
  22.3302853  65.9179931  66.3173504  21.7107885  65.3272578  66.1483519
  22.2286717  66.5091366  65.6837828  22.2240529  65.9184014  66.1978494
  27.3769041  75.6563478  60.5671581  27.6984882  76.1968685  59.9632889
  28.0241138  75.0860249  60.6993871  27.5195096  75.6522653  60.4978616
  29.4270749  67.6579473  60.6505968  30.1250914  67.8367601  61.1427431
  29.7423082  67.1349812  60.0276357  29.5766086  67.6073245  60.6307978
  22.0571986  69.4632213  68.5617073  21.9330683  70.0494658  69.1966892
  22.7090271  68.9692409  68.8629348  22.1345636  69.4771017  68.7003003
  29.6158684  74.0449918  60.6385759  30.0552320  73.4367019  61.0840532
  29.4663347  73.6657291  59.8671224  29.6580150  73.8988389  60.5904926
  27.0830327  72.6393930  67.8404585  27.7279330  72.1466373  67.5215533
  27.3232104  72.7818716  68.6670663  27.2140913  72.5871372  67.9154118
  29.6216419  75.4848836  67.4911477  29.9039662  74.6900241  67.2698233
  30.3502579  75.9629423  67.5116538  29.7705983  75.4383433  67.4614492
  27.5997613  63.0271870  64.7327242  27.2700943  63.4783013  64.0630941
  26.9242614  62.9488033  65.2800249  27.4508049  63.0823005  64.7150465
  33.2168021  72.3977099  57.5916528  33.1319316  73.2538066  57.7366097
  33.7052404  72.1221423  58.2598687  33.2756918  72.4834421  57.7118610
  34.8074020  59.0157393  62.9776853  34.4927461  59.7060871  63.4097275
  34.2900962  58.9602175  62.2762353  34.6838491  59.1092281  62.9373802
  34.1486454  69.0161894  59.0914263  33.6197926  69.2321527  59.7511570
  34.6711474  69.7098032  59.0115233  34.1474907  69.1505030  59.1769863
  39.6034507  74.5908198  64.4647308  38.7732210  74.8018842  64.6280724
  39.5543759  73.7645253  64.1889591  39.4741243  74.4997804  64.4484673
  26.0386062  72.9125110  57.8921731  25.4543277  73.4175142  58.2987595
  25.6356157  72.6867497  57.1518323  25.8925366  72.9533359  57.8426757
  30.4963276  69.1590762  56.3690652  30.7359280  69.3668746  55.5565995
  30.8179117  68.3548271  56.4779596  30.5800434  69.0704864  56.2651205
  25.8053567  61.0884158  60.2150190  26.5599535  61.4562475  59.9767240
  25.6281101  61.4623712  60.9829369  25.8908045  61.1982346  60.2935078
  39.0988465  67.2378599  68.2597729  38.2616887  67.3080786  68.4945324
  39.0676696  67.2403093  67.3872032  38.9706748  67.2488826  68.1657277
  25.4953194  69.3811634  73.9746098  25.6673698  69.2717529  74.8231379
  26.0322552  70.0266040  73.7377290  25.5998198  69.4603636  74.0651195
  24.1610631  63.4954477  56.9128303  23.9786205  63.7126358  56.0869296
  25.0236244  63.6093490  56.9686917  24.2615221  63.5444375  56.7982790
  23.7725063  75.3342399  64.3551291  24.6113963  75.5665332  64.4025052
  23.8036832  74.4646711  64.2858326  23.9006781  75.2399346  64.3515935
  29.8410351  60.4980888  59.9477327  30.5696511  60.3196843  59.5015483
  29.9305243  61.3398968  60.1584505  29.9617013  60.5964766  59.9130844
  33.8218651  71.4334275  63.8509621  34.5776166  71.8665789  63.8898529
  33.9280976  70.7839045  64.4244257  33.9488822  71.4011759  63.9407646
  36.8598822  75.2607552  64.6012024  36.4234054  75.2644295  65.3570995
  36.5261738  75.9413051  64.1691601  36.7461442  75.3620008  64.6492856
  36.7796305  62.3021380  66.8441452  37.4222214  62.3719485  67.4303367
  37.0319326  61.6350603  66.3420993  36.9118437  62.2147729  66.8568731
  23.7072658  66.7728650  55.4250776  22.9930836  66.4866829  55.8373208
  24.1916627  67.1125276  56.0657163  23.6732022  66.7810299  55.5806411
  24.5513518  65.5121944  71.4566026  23.8585315  65.0418923  71.7026757
  25.1673845  65.2860248  72.0307733  24.5398048  65.4089075  71.5775178
  39.9943169  71.9788472  63.4931661  40.6559603  71.4179141  63.3927569
  39.3534581  71.4840503  63.8184352  39.9972036  71.8224881  63.5264001
  30.8819976  75.2758604  55.8012584  31.2971125  74.9443628  55.1097080
  30.0511906  75.0427506  55.6732721  30.8207985  75.1929860  55.6803432
  20.2108325  72.7602345  66.0910762  20.0283898  72.7349231  65.2383054
  20.9457994  73.2301283  66.1299671  20.2922389  72.8263707  65.9708681
  36.2807999  72.9953855  63.2343650  36.5163588  73.1399054  62.4070500
  36.4297563  73.7596263  63.6275163  36.3373803  73.1292909  63.1707254
  23.2754077  69.4787348  72.5992871  23.9994049  69.4640378  73.0857765
  23.3770213  70.1882703  72.1014839  23.3972286  69.5812051  72.5971658
  38.1098456  71.8355521  61.0713253  38.4406673  72.3683161  60.4653348
  38.6831544  71.8894408  61.7275204  38.2432135  71.9225089  61.0791035
  33.3230345  69.6820423  61.7536834  33.4177200  70.4209717  62.2076459
  32.6989189  69.2537899  62.1871398  33.2439375  69.7281744  61.8844981
  20.1779235  69.6395845  66.2409829  20.7552738  69.5032296  66.8802074
  19.4793297  69.1831630  66.4955413  20.1600257  69.5518112  66.3732118
  33.5753366  71.5269163  54.9873786  33.4933529  71.5971350  55.8528773
  34.2133087  72.0898907  54.7957526  33.6573204  71.6208134  55.0863735
  26.9346538  71.2929901  64.4548312  26.6765782  70.4601636  64.4279611
  26.9895020  71.5187514  63.6140812  26.9046315  71.2027672  64.3268449
  32.0147588  63.3958352  64.5552405  31.3103914  62.9067537  64.7136324
  32.0632562  63.4080826  63.6840849  31.9177639  63.3248000  64.4491744
  25.9081250  68.8467664  64.9413207  25.3330841  69.0059832  65.5777168
  25.5316926  68.2103073  64.4781657  25.7684062  68.7765476  64.9667765
  29.5754538  67.3191013  69.8005585  29.1868971  66.8945231  69.1457776
  28.9109237  67.5673162  70.3082612  29.4201466  67.2929734  69.7793453
  39.2177808  67.0766017  62.5753415  38.9614372  66.2645959  62.3851298
  40.0607121  67.0843585  62.3483602  39.3043833  66.9578015  62.5138232
  15.6538069  68.4907738  62.9557647  15.7398320  68.1139607  63.7371177
  16.2813866  68.1168184  62.4777606  15.7594620  68.3793220  63.0003125
  33.3980900  61.0165642  67.3129569  33.7791412  60.3343813  67.6997443
  32.5944184  60.7275244  67.1305234  33.3357362  60.8732690  67.3433625
  30.6793477  71.5489617  57.9982392  31.4934115  71.8404510  57.8865163
  30.6152618  70.8949480  57.4240685  30.7896216  71.4954812  57.8971229
  26.5501385  75.0211135  63.1254704  27.1875332  74.7822882  63.6706497
  26.9756456  75.2248294  62.3907865  26.7077551  75.0162145  63.0971861
  27.1904200  70.2413425  57.4629593  27.5749353  70.0221131  58.2146139
  26.9415820  71.0676370  57.5930670  27.2106273  70.3311571  57.5930670
  27.3572740  63.5219840  77.1792178  27.0426181  64.2919403  76.9161740
  27.0362673  62.9590096  76.5944405  27.2631659  63.5530109  77.0533528
  28.9322857  75.4983557  64.8048490  29.0061865  75.3358729  65.6590340
  29.7492363  75.6873747  64.5608972  29.0639215  75.5020300  64.8946516
  24.9104637  61.9110361  62.7938374  24.0427063  61.9832961  62.8595983
  25.1979842  62.7132440  62.9826349  24.8244385  62.0404508  62.8313141
  34.0337526  62.0588221  71.1249696  34.7791118  61.8698031  70.7113121
  33.6174831  62.5846459  70.5663552  34.0822500  62.1090366  70.9814269
  41.4099797  69.4297449  66.0755201  41.9607718  68.7965518  66.3152293
  41.3943912  69.9612842  66.7670705  41.4884993  69.4146397  66.2134059
  28.0622188  73.2636046  70.6215094  27.5633881  73.9751814  70.6999983
  28.8722412  73.5836713  70.5833257  28.1078294  73.4162895  70.6271663
  24.3250305  72.5258999  64.8677815  24.0363554  71.8996471  65.4023542
  25.1933653  72.4679287  64.9342496  24.4110557  72.4246544  64.9568770
  35.1128203  67.6693783  65.1859797  34.7692969  66.9484118  65.5367047
  35.2121246  67.4607634  64.3438155  35.0770246  67.5317986  65.1131477
  24.5282579  74.1654251  60.7920180  25.2828547  74.5467290  61.0055643
  23.9353191  74.6165394  61.2466877  24.5519292  74.2883078  60.8903059
  35.5741232  74.1319487  60.7283785  36.1399265  74.7912697  60.6442328
  34.9269136  74.4769185  61.2000187  35.5619989  74.2801428  60.7856542
  26.9889246  66.1217091  75.9177393  26.1789021  66.4274871  75.8067235
  27.4663932  66.8422673  76.0329977  26.9392725  66.2731692  75.9184464
  25.8480805  75.3362812  66.1660296  25.3261559  75.4763104  66.8512160
  26.2354826  74.5773476  66.3562413  25.8284506  75.2448336  66.2961372
  22.8371989  65.3868621  60.2355250  22.5496785  65.0169891  59.4987198
  23.5242458  65.8563476  59.9738955  22.8960887  65.4015590  60.0870326
  32.0447810  77.0758271  60.1520864  31.8034486  76.3426132  59.7447929
  32.2249143  77.6245128  59.4987198  32.0355434  77.0480662  59.9951087
  27.2747131  72.3666831  61.5641787  27.0789914  72.9741565  60.9702090
  27.4981477  71.6734775  61.0833461  27.2781772  72.3544356  61.4057867
  25.6725661  69.2521569  61.6822655  26.3948313  69.4162727  61.2226461
  25.1933654  69.9731234  61.5761995  25.7089392  69.3819798  61.5988269
  33.6319169  65.5885368  67.0619340  32.7930269  65.6146646  66.8257603
  33.7023536  66.2356103  67.6424687  33.5187562  65.6881493  67.1128457
  32.0788447  62.4870745  61.7946956  32.7814800  62.2878493  61.3166914
  31.8132636  61.7146687  62.1015799  32.1435079  62.3433711  61.7692397
  37.5076692  70.7953354  64.3480582  37.4210667  70.9508780  65.2015361
  37.0527172  71.4391430  63.9739987  37.4279949  70.9129109  64.4187688
  20.4100184  66.1649833  61.0840531  20.5116320  66.9675994  61.4121507
  21.2056071  65.9637169  60.7863612  20.5428090  66.2535732  61.0875887
  26.8417003  63.7506030  70.8477836  26.6500200  63.7661164  71.6977260
  27.6915599  63.9469704  70.8244491  26.9392725  63.7820381  70.9701131
  21.2263916  66.2797011  68.8261653  21.0849408  65.4280952  68.9506161
  21.5104479  66.3225672  68.0023859  21.2471762  66.1596761  68.7229277
  31.3802508  68.1164101  62.9706141  31.1337223  68.0359852  63.8042930
  31.7087631  67.3317569  62.7768669  31.3923752  67.9890367  63.0653664
  35.2750557  74.8247461  66.7592922  35.1364917  75.5228507  67.2641665
  34.4950555  74.6696117  66.4029104  35.1393784  74.9047627  66.7819197
  27.3399536  70.8520820  72.3829124  27.4842911  71.4322028  71.7472234
  27.6875184  71.2297117  73.0878979  27.4126997  70.9941524  72.3928119
  29.5119453  70.0510988  70.1654256  28.7642767  70.2442003  69.7602534
  29.6660978  69.2256208  69.9278377  29.4241881  69.9576100  70.0699662
  36.7703930  74.1825715  57.5209422  36.3910739  73.3962853  57.5138711
  36.1070176  74.7312572  57.3781066  36.6162405  74.1470539  57.4990219
  29.7521230  63.9461539  71.0549660  30.2093844  64.6785513  71.1822452
  29.8277559  63.5228004  71.8136915  29.8312200  63.9918777  71.1850736
  21.9954221  64.1927359  72.1439103  21.4596411  63.5807717  72.4599871
  22.0571986  64.7675495  72.7972770  21.9249854  64.1874287  72.2874530
  34.2248556  57.1251414  64.9243503  34.3432124  57.5827878  64.1910805
  34.0510732  56.3196676  64.6379720  34.2167727  57.0745186  64.7744436
  27.6303608  65.9363643  67.8991484  26.8399683  65.7555103  68.2208819
  28.0264231  65.1590596  67.8821778  27.5720484  65.7951104  67.9444032
  32.1169499  74.7651417  53.3398197  32.8842484  74.8251542  52.9304049
  31.6700808  74.1931859  52.8554516  32.1642926  74.6887993  53.2075908
  33.0147294  73.5706073  65.6250930  32.3392296  73.3391305  66.1264317
  33.0239670  72.9627256  64.9993035  32.9165799  73.4464998  65.6067082
  30.1441438  68.4123902  72.3814983  30.0800580  69.2733859  72.2535119
  30.2838626  68.0955895  71.5810534  30.1556908  68.4924069  72.2443195
  35.0164029  76.4271206  57.8561108  35.0983866  77.2338192  57.5322558
  35.5013771  76.4467165  58.5801881  35.1001187  76.5491868  57.9148006
  28.8260532  71.1056042  66.5231185  28.4022781  71.3060541  65.7870204
  28.6505387  70.2584890  66.6355485  28.7371413  71.0104823  66.4304876
  24.1142977  71.6008093  61.9559158  24.2707596  71.5354896  62.8115150
  24.4543570  72.3756646  61.7437838  24.1876212  71.7057291  62.0513752
  30.6522122  70.9765977  60.8252521  31.1937667  70.4736358  61.2891142
  30.9668681  70.9231171  60.0142006  30.7786519  70.8945397  60.7736333
  28.8208571  76.3683328  58.1092549  28.8901392  75.5097867  58.2485550
  29.5997027  76.5855209  57.7811574  28.9461422  76.2736192  58.0809707
  31.8011391  65.8702281  70.8774822  32.0153361  65.2313195  70.3238176
  31.1845290  66.3148105  70.4482683  31.7416720  65.8412425  70.7325253
  20.6877239  68.7843043  62.2719925  21.0676203  69.2027588  61.6080192
  20.1132603  69.3656499  62.5788768  20.6588564  68.9320902  62.2196666
  33.9650479  67.4791346  71.8158129  33.1527161  67.1717237  71.8971301
  34.4240414  66.9990346  72.3800841  33.9130864  67.3627839  71.9112723
  33.3755734  75.3571018  62.2635073  33.0170389  75.5285661  63.0399106
  32.8894445  75.8184224  61.7063072  33.2514431  75.4509989  62.2960342
  31.1926120  58.9802217  65.8662164  30.3219678  58.9540938  65.8195474
  31.4466461  58.8079409  65.0488010  31.1019680  58.9512360  65.7382301
  28.1644099  71.0370184  54.8035307  28.4536624  71.8135066  55.0778882
  28.2515898  70.5258915  55.5049807  28.2198355  71.0762102  54.9477805
  28.2175260  60.9908445  67.3235635  27.7013749  60.2988637  67.4487214
  27.6569189  61.6579222  67.2698234  28.0581774  60.9871703  67.3341701
  30.2867494  61.5301405  69.1528487  29.8999247  61.5550437  69.9342017
  29.8000431  60.9643084  68.7003004  30.1580003  61.4497156  69.2016391
  36.2617473  68.0964060  67.7768190  35.8345081  68.0090409  67.0216289
  35.6243526  68.2041836  68.3623034  36.1047081  68.0996720  67.7513631
  29.9524635  58.4168391  71.4438747  30.5817753  58.9528691  71.1659818
  30.1210498  58.3245750  72.2952313  30.0702430  58.4829753  71.5287275
  29.7538550  63.2039585  73.7165159  30.5811980  62.9324734  73.7723773
  29.7746396  64.0000427  74.0728977  29.8791400  63.2819340  73.7780342
  24.3308040  70.3503448  66.9035420  23.4896047  70.2507322  67.1114313
  24.5398048  71.1198928  67.2549740  24.2372733  70.4495492  66.9862734
  21.8083607  67.9722985  64.7320170  21.4140305  68.0465997  63.9570280
  21.2523724  68.3580932  65.2828532  21.6686420  68.0404760  64.6987830
  33.4448554  60.9504279  64.4124049  33.6498147  60.8826587  65.2581046
  33.1174978  61.7563100  64.3445227  33.4263802  61.0590220  64.5283704
  28.1424705  68.2784847  66.1533017  27.8387843  67.7240836  66.7543425
  27.4404126  68.4577057  65.6661051  27.9940915  68.2229630  66.1702723
  27.1990802  65.5885367  60.7177719  27.4750536  64.8704280  60.3055286
  27.7989471  66.1870287  60.5098825  27.3284067  65.5705738  60.6258480
  36.6982242  61.5036043  63.8926815  36.0856555  61.9906446  64.2780546
  36.7946417  60.8279534  64.4364466  36.6220139  61.4754352  64.0305673
  30.7001323  63.2598885  58.9924314  31.1545069  63.4309445  59.7172158
  31.1741368  62.6466995  58.5922090  30.8369643  63.1949770  59.0398076
  24.2216848  72.7447211  68.3227052  23.6304781  73.3856709  68.2930068
  24.9837872  73.1684828  68.2958352  24.2465109  72.9023049  68.3142200
  24.6177471  63.9049208  68.9895070  25.0778952  63.9788138  69.7270194
  24.6633578  64.7030462  68.6394891  24.6928026  64.0343355  69.0467827
  26.2660821  64.5715903  73.5567097  25.8746386  63.9249250  73.9922875
  26.4346683  65.1627338  74.1761353  26.2331731  64.5630171  73.7129803
  33.9806364  78.1956522  65.7559077  33.7826053  78.6847337  65.0615288
  33.3594075  78.3997764  66.3343210  33.8593929  78.2973060  65.7382300
  28.0414343  69.9641419  60.0969321  28.7856388  70.3515695  60.3352271
  28.1875039  69.1198844  60.2609809  28.1724928  69.8971892  60.1563291
  29.9593918  61.7591678  65.1301183  29.1129963  61.9314486  65.0042532
  29.9565051  60.9541022  65.4667011  29.8341068  61.6652707  65.1612310
  31.0292219  65.5366892  65.9963241  30.5552173  65.0108654  66.5068551
  31.4010354  64.9896365  65.4278102  31.0142107  65.3782889  65.9878388
  21.4065249  67.5338399  71.3646786  22.2690862  67.4334108  71.2784116
  21.0757032  66.9533108  70.8032358  21.4850445  67.4330026  71.2692192
  37.2928949  70.5969268  67.4070021  37.0527172  69.7575683  67.4112447
  37.7720956  70.6769435  68.1310795  37.3281133  70.4850668  67.5144823
  32.9575718  66.4303447  59.0588994  32.4298737  66.5132191  58.3694703
  33.4171426  67.1721318  59.0553639  32.9477569  66.5524109  58.9563689
  39.2934136  67.3770725  65.3599280  39.0543906  67.3366559  64.5220065
  39.4568037  68.2241877  65.4865001  39.2824440  67.4962810  65.2552762
  24.7667035  66.3580848  68.0257204  24.1420105  66.3699240  67.4183157
  24.4312630  66.8341023  68.6748445  24.6252526  66.4299365  68.0313773
  24.9508783  64.7005966  54.0829889  24.6021588  65.3525692  54.5461439
  24.4705229  64.6863079  53.3553761  24.8279027  64.7949020  54.0440981
  32.5112801  75.0007010  58.1898651  33.2347000  75.4665123  58.0463225
  32.0713392  75.0680620  57.4396248  32.5528493  75.0790847  58.0583433
  31.6798956  71.8604553  69.4399340  31.0655949  71.3162603  69.7347976
  32.1966241  71.3468789  68.9605156  31.6654618  71.7040962  69.4123569
  30.9195253  72.9308823  67.1743639  30.4922861  72.3058541  66.7409074
  30.9120197  72.6483745  68.0002646  30.8554394  72.7961603  67.2323467
  24.0357780  67.9673996  70.2432073  24.1951267  67.2117320  70.6483795
  23.8550674  68.5164935  70.8972811  24.0323139  67.9367809  70.3994779
  31.9778083  60.1335231  70.7982862  31.4818644  60.3298906  70.1074429
  32.7347145  60.5327900  70.6271664  32.0164908  60.2212965  70.6702999
  29.2480963  63.8077577  67.3886173  29.2723450  63.2737690  66.6998953
  29.4992436  63.2994886  68.0511764  29.2890881  63.6538481  67.3850818
  25.5282285  62.5348395  66.7691917  25.5680656  63.0357602  67.4826625
  24.7031949  62.6258789  66.4997840  25.4121811  62.6230212  66.8342456
  26.9496648  69.0508905  69.0665816  26.1188578  69.2182723  68.8601064
  26.8948165  68.6744856  69.8514702  26.8186063  69.0198637  69.1514344
  24.7580431  62.5417798  74.7022227  25.3833135  61.9979931  74.9751659
  24.3030911  62.0612716  74.1330017  24.7828692  62.3907280  74.6583821
  25.3232692  67.3264497  59.5955934  25.4635653  67.8236961  60.2984575
  25.8215225  66.6250791  59.7370148  25.4173773  67.2966476  59.7207513
  25.3532914  68.1931608  56.9248511  25.9877994  68.7892033  56.8597973
  25.4358525  67.8935065  57.7394381  25.4589465  68.2372516  57.0351597
  26.9311897  64.1245583  56.8993953  27.2527738  63.6448666  56.2453215
  27.1938841  64.9345229  56.7084764  27.0177923  64.1735481  56.7749445
  30.1608870  75.1464458  70.4192769  29.6533961  75.7000304  70.8633399
  29.8635516  75.2072747  69.6011543  30.0413755  75.2370769  70.3641226
  32.3271052  63.5117777  69.2617432  32.7526124  63.0590304  68.6500958
  31.7128045  62.9577848  69.5382219  32.2999698  63.3631753  69.2122457
  21.8585902  70.3899449  60.1938057  22.3678132  70.9863956  60.5749362
  22.3320175  70.1225422  59.5114476  22.0029278  70.4385264  60.1492580
  30.7665275  59.9832877  62.6708009  30.1233593  59.8330523  63.2393147
  30.4264682  59.7375222  61.9057114  30.6210352  59.9244999  62.6411024
  35.3564622  67.9392304  62.0938018  34.6855811  68.4822006  61.9651083
  36.0504372  68.4087159  61.8519712  35.3593489  68.0890575  62.0393545
  35.5192749  64.3948187  65.0028391  35.8720359  63.9677910  65.6774189
  34.6607551  64.3099031  65.1329467  35.4442194  64.3192928  65.1223401
  24.2176434  67.0255707  63.0611237  23.4988423  67.4419840  63.3284101
  24.5888796  67.5909946  62.5102875  24.1668366  67.1704989  63.0194044
  33.5176015  67.6583556  68.9513233  33.4973942  67.4766851  69.8048012
  33.5655216  68.5295575  68.9272817  33.5210656  67.7600094  69.0736528
  29.9923008  66.0653707  58.3984617  29.3987848  66.3870704  57.8469184
  30.0298286  65.2194802  58.1905723  29.9097398  65.9878035  58.2867388
  36.9516809  59.5166599  65.9312703  36.4447674  58.8095739  65.8633881
  37.7484243  59.1859788  66.0613780  36.9944048  59.3639751  65.9411698
  32.8680825  66.0233212  61.8286367  32.6394518  66.0465913  60.9864725
  33.1278901  65.1990679  61.9481378  32.8727013  65.9049291  61.7211565
  27.1500053  67.8767685  71.4311467  26.6378957  67.2688868  71.7896499
  26.9779550  68.5924277  71.8985443  27.0489690  67.8930984  71.5527691
  25.9225587  64.5609758  63.1240563  26.3982954  64.9226838  62.4890744
  25.4214187  65.2166225  63.4040705  25.9190946  64.7103947  63.0717304
  39.1536949  74.0331526  58.9153568  39.5370555  74.7822882  59.1451665
  38.3581062  74.2797346  58.6565557  39.0930731  74.1801220  58.9111141
  31.0269124  65.7991929  73.8713723  31.5840554  65.5705739  73.2392188
  30.7030189  66.5597595  73.5948935  31.0615534  65.8775766  73.7370220
  27.9652241  66.7050958  56.4913947  28.3451205  66.7230587  55.7065061
  27.2244837  67.1504946  56.3704794  27.9121078  66.7732732  56.3577515
  35.5937531  65.0133149  62.0789525  35.5931758  64.8581805  62.9373802
  35.3893711  65.8596136  62.0230911  35.5637309  65.1153770  62.1977465
  17.6554802  68.4372933  66.4948342  17.4776563  67.9849542  67.2203257
  17.3673824  69.2399095  66.6786819  17.5867755  68.4895491  66.6291845
  33.3178383  69.6930651  65.7325732  33.8132049  68.9753646  65.6929752
  32.5078159  69.3901448  65.6180219  33.2722277  69.5428297  65.7099458
  28.7636995  73.5428464  57.8822737  27.9548317  73.2195137  57.8356046
  29.2711904  72.8361686  57.8150985  28.7186662  73.3909780  57.8653031
  19.3927272  70.9700657  63.6070101  18.5272791  70.9586347  63.4952872
  19.4926088  70.7830880  64.4541240  19.2801439  70.9406718  63.7159045
  35.3830202  72.4434338  68.4202861  35.8085274  71.9208760  67.8673286
  35.0187122  73.0415176  67.8991484  35.3916805  72.4544565  68.2611871
  31.9708802  76.1568602  64.7504018  32.4419980  76.8708865  64.9194004
  32.3068980  75.5567353  65.2863888  32.0903917  76.1740067  64.8536394
  28.8878297  60.9296073  71.7062113  29.0206202  60.1327066  72.0343089
  29.2723449  61.4562476  72.2860389  28.9634625  60.8895990  71.8405616
  31.9610652  57.8526399  68.3043206  31.1556615  57.7424129  68.6211045
  31.8317387  57.9538855  67.4473072  31.8230785  57.8510069  68.2251247
  35.4176612  64.0171891  68.8982903  34.8339601  64.5181098  68.4860471
  35.7380906  63.5101447  68.2647227  35.3789788  64.0163726  68.7441411
  27.9571411  62.9312486  59.1741578  28.7787106  63.1010799  58.9323273
  27.4941062  63.0859747  58.4507876  28.0102574  62.9794219  59.0313222
  26.5466743  60.9255248  69.9540007  27.0911156  60.5846375  70.5444349
  26.6003679  61.7840710  70.0961292  26.6355863  61.0010507  70.0621880
  32.1741074  76.9537609  68.0441052  32.9939448  76.8100575  68.3057347
  31.8935152  77.5783808  68.5857490  32.2537818  77.0247961  68.1628992
  38.5730196  78.5457178  64.7327242  38.2433526  78.9968321  64.0630941
  37.8975198  78.4673341  65.2800249  38.4240633  78.6008313  64.7150465
  45.7806604  74.5342700  62.9776853  45.4660045  75.2246179  63.4097275
  45.2633546  74.4787483  62.2762353  45.6571074  74.6277589  62.9373802
  36.7786150  76.6069466  60.2150190  37.5332118  76.9747783  59.9767240
  36.6013685  76.9809020  60.9829369  36.8640629  76.7167654  60.2935078
  35.1343215  79.0139785  56.9128303  34.9518788  79.2311666  56.0869296
  35.9968828  79.1278798  56.9686917  35.2347804  79.0629683  56.7982790
  40.8142934  76.0166196  59.9477327  41.5429095  75.8382151  59.5015483
  40.9037827  76.8584275  60.1584505  40.9349596  76.1150074  59.9130844
  35.8837221  77.4295669  62.7938374  35.0159646  77.5018269  62.8595983
  36.1712425  78.2317748  62.9826349  35.7976969  77.5589816  62.8313141
  43.0521030  78.0056053  61.7946956  43.7547383  77.8063801  61.3166914
  42.7865219  77.2331995  62.1015799  43.1167663  77.8619019  61.7692397
  45.1981140  72.6436722  64.9243503  45.3164708  73.1013186  64.1910805
  45.0243315  71.8381983  64.6379720  45.1900311  72.5930494  64.7744436
  42.1658703  74.4987525  65.8662164  41.2952261  74.4726246  65.8195474
  42.4199045  74.3264717  65.0488010  42.0752263  74.4697668  65.7382301
  41.6733906  78.7784192  58.9924314  42.1277653  78.9494753  59.7172158
  42.1473952  78.1652303  58.5922090  41.8102226  78.7135078  59.0398076
  40.9326502  77.2776986  65.1301183  40.0862547  77.4499794  65.0042532
  40.9297634  76.4726329  65.4667011  40.8073652  77.1838015  65.1612310
  43.9308302  81.9488755  59.0588994  43.4031320  82.0317499  58.3694703
  44.3904010  82.6906626  59.0553639  43.9210152  82.0709417  58.9563689
  37.9044481  79.6430891  56.8993953  38.2260322  79.1633974  56.2453215
  38.1671425  80.4530537  56.7084764  37.9910506  79.6920789  56.7749445
  41.7397859  75.5018185  62.6708009  41.0966177  75.3515831  63.2393147
  41.3997266  75.2560530  61.9057114  41.5942936  75.4430307  62.6411024
  38.9303995  78.4497794  59.1741578  39.7519689  78.6196107  58.9323273
  38.4673646  78.6045055  58.4507876  38.9835157  78.4979527  59.0313222
  15.4207798  14.9924668  47.9423975  15.3901802  15.8469305  48.1142245
  16.0189146  14.6919961  48.5010119  15.5044956  15.0741165  48.0498778
   8.6207483  14.0800319  52.6976906   7.7645378  14.2408818  52.7486023
   8.6675136  13.2092383  52.7181967   8.5006594  13.9751121  52.7082972
   3.0048622  23.6163037  48.4614137   2.2531522  23.2378576  48.2330182
   3.4534634  23.6481471  47.7132948   2.9598289  23.5648644  48.3171640
  11.9301199  20.3486845  62.3037362  12.6367966  19.8538876  62.4324296
  12.1189135  20.7895926  61.5740020  12.0629105  20.3405195  62.2146407
   8.4573582  24.0388407  43.8899684   8.1224951  24.7165328  43.4543907
   8.9700453  23.6493718  43.3016556   8.4839163  24.0812985  43.7386476
   7.9977873  25.9902675  49.8310796   8.3817253  26.5589574  49.2915571
   7.9337015  25.2652186  49.3516612   8.0451301  25.9678139  49.6804659
  11.4659304  16.1392363  55.3408557  12.0115264  16.8177450  55.4002527
  11.4076180  15.9979824  54.4810139  11.5375218  16.2184365  55.2220618
   4.5833378  23.6281429  50.7276910   4.6843741  22.8181783  51.0374038
   3.9875124  23.5338376  50.0976588   4.5105917  23.4946457  50.6803148
  13.2424372  17.5676970  46.2142285  13.1263898  18.3184656  46.6434423
  14.0380259  17.3100924  46.4638372  13.3428962  17.6411817  46.3146377
   4.4234118  28.5459019  52.1291766   5.0671574  28.9872183  52.5187924
   4.7490374  27.7412445  52.0422025   4.5665947  28.4924213  52.1737243
   5.1254698  21.5570993  47.5011628   5.4470539  22.0976201  46.8972936
   5.7726794  20.9867765  47.6333917   5.2680753  21.5530169  47.4318663
   7.1756406  13.5586988  47.5846014   7.8736571  13.7375116  48.0767478
   7.4908738  13.0357328  46.9616404   7.3251743  13.5080760  47.5648024
   7.3644341  19.9457433  47.5725806   7.8037977  19.3374534  48.0180579
   7.2149004  19.5664807  46.8011271   7.4065807  19.7995904  47.5244973
   4.8315984  18.5401445  54.7744631   5.4764987  18.0473888  54.4555580
   5.0717761  18.6826232  55.6010710   4.9626569  18.4878887  54.8494165
   7.3702076  21.3856351  54.4251524   7.6525318  20.5907757  54.2038280
   8.0988236  21.8636939  54.4456585   7.5191639  21.3390948  54.3954539
  10.9653678  18.2984615  44.5256575  10.8804973  19.1545581  44.6706144
  11.4538061  18.0228939  45.1938734  11.0242575  18.3841936  44.6458657
  12.5559677   4.9164908  49.9116900  12.2413118   5.6068386  50.3437322
  12.0386619   4.8609690  49.2102400  12.4324148   5.0099796  49.8713849
  11.8972111  14.9169409  46.0254310  11.3683582  15.1329042  46.6851616
  12.4197131  15.6105547  45.9455280  11.8960564  15.0512546  46.1109909
  17.3520164  20.4915713  51.3987355  16.5217867  20.7026357  51.5620771
  17.3029416  19.6652768  51.1229638  17.2226899  20.4005320  51.3824720
   3.7871719  18.8132626  44.8261778   3.2028934  19.3182657  45.2327642
   3.3841814  18.5875013  44.0858370   3.6411023  18.8540874  44.7766803
   5.4129902  23.3219567  54.2335264   4.8956843  22.9626982  53.6296572
   6.1104293  22.7981742  54.2441330   5.4395483  23.1917255  54.1465523
   9.0693493  23.7714382  60.1951437   9.1576839  23.5840522  61.0429648
   9.4983206  23.1251811  59.7956284   9.1455596  23.6477389  60.2623189
   6.6363953  23.0545541  59.1769099   6.0734788  22.6418151  59.7008761
   7.3984977  22.9798447  59.5962243   6.6658402  22.9822942  59.3162100
   8.2448933  15.0598278  43.3030699   8.4844937  15.2676261  42.4906042
   8.5664774  14.2555786  43.4119643   8.3286091  14.9712379  43.1991252
   2.1959945  25.0443563  51.7805730   2.8980524  24.5295552  51.8378486
   2.1157428  25.3717714  52.5852605   2.2883705  25.0157789  51.9078522
  16.8474122  13.1386114  55.1937776  16.0102543  13.2088301  55.4285370
  16.8162353  13.1410609  54.3212078  16.7192405  13.1496341  55.0997324
   1.5210720  21.2349915  51.2891338   2.3599620  21.4672847  51.3365099
   1.5522489  20.3654226  51.2198373   1.6492438  21.1406861  51.2855982
   2.1463423  21.6550790  55.5904643   2.6861648  21.5121921  56.2608015
   1.4633369  22.0547541  55.9588669   2.1255577  21.6930461  55.7439065
  11.5704308  17.3341790  50.7849667  12.3261823  17.7673305  50.8238576
  11.6766632  16.6846560  51.3584303  11.6974479  17.3019274  50.8747693
  14.6084479  21.1615068  51.5352070  14.1719711  21.1651810  52.2911042
  14.2747395  21.8420567  51.1031648  14.4947099  21.2627523  51.5832903
   9.1813553  23.2023401  62.8595221   9.9653969  23.3154248  63.2250963
   8.9810147  22.3764538  63.0553907   9.2679578  23.0970120  62.9429607
  14.5281962   8.2028896  53.7781498  15.1707870   8.2727000  54.3643414
  14.7804983   7.5358118  53.2761040  14.6604094   8.1155244  53.7908778
   1.4558315  12.6736165  42.3590823   0.7416492  12.3874345  42.7713255
   1.9402284  13.0132791  42.9997210   1.4217679  12.6817815  42.5146458
   9.3383946  25.1133503  56.5061676   8.5399192  24.8733003  56.7635545
   9.7869958  25.1647895  57.2528724   9.2858557  25.0855894  56.6546601
  17.7428825  17.8795988  50.4271708  18.4045259  17.3186656  50.3267616
  17.1020237  17.3848018  50.7524399  17.7457693  17.7232397  50.4604048
   8.6305633  21.1766119  42.7352631   9.0456782  20.8451143  42.0437127
   7.7997563  20.9435021  42.6072768   8.5693642  21.0937375  42.6143478
  14.0293656  18.8961370  50.1683696  14.2649245  19.0406569  49.3410547
  14.1783220  19.6603778  50.5615210  14.0859459  19.0300424  50.1047300
  15.8584113  17.7363036  48.0053300  16.1892330  18.2690676  47.3993395
  16.4317201  17.7901924  48.6615251  15.9917792  17.8232605  48.0131082
  11.0716002  15.5827939  48.6876880  11.1662856  16.3217233  49.1416506
  10.4474845  15.1545414  49.1211445  10.9925032  15.6289259  48.8185028
   9.3268476  18.7614151  59.3367161   9.9007337  18.1241395  59.4915725
   9.2483279  18.7618234  58.4676819   9.4001711  18.6679263  59.2313572
  11.3239023  17.4276678  41.9213832  11.2419186  17.4978866  42.7868819
  11.9618744  17.9906422  41.7297573  11.4058861  17.5215650  42.0203782
   4.6832194  17.1937416  51.3888359   4.4251439  16.3609151  51.3619658
   4.7380677  17.4195029  50.5480859   4.6531972  17.1035188  51.2608495
   9.7633245   9.2965867  51.4892451   9.0589571   8.8075053  51.6476371
   9.8118219   9.3088341  50.6180896   9.6663296   9.2255515  51.3831791
   3.6566907  14.7475179  51.8753253   3.0816498  14.9067347  52.5117214
   3.2802583  14.1110588  51.4121704   3.5169719  14.6772992  51.9007812
   7.3240195  13.2198528  56.7345632   6.9354628  12.7952746  56.0797823
   6.6594894  13.4680678  57.2422658   7.1687123  13.1937249  56.7133500
  16.9663464  12.9773533  49.5093462  16.7100029  12.1653474  49.3191345
  17.8092778  12.9851100  49.2823649  17.0529490  12.8585530  49.4478279
  11.1466557   6.9173157  54.2469616  11.5277068   6.2351328  54.6337490
  10.3429841   6.6282759  54.0645281  11.0843018   6.7740205  54.2773672
   8.4279133  17.4497133  44.9322439   9.2419772  17.7412026  44.8205210
   8.3638275  16.7956995  44.3580732   8.5381872  17.3962327  44.8311276
  14.6488624  20.1323129  59.3452014  14.4127261  19.3011194  59.2264075
  15.2931853  20.0808736  59.9306859  14.7083294  20.0020817  59.4137908
   4.2987042  20.9218650  50.0594751   4.9360989  20.6830398  50.6046544
   4.7242113  21.1255809  49.3247912   4.4563208  20.9169660  50.0311908
   4.9389857  16.1420940  44.3969640   5.3235009  15.9228647  45.1486185
   4.6901477  16.9683885  44.5270717   4.9591929  16.2319086  44.5270717
  15.6725044  19.9167578  55.4080309  15.3670861  20.6495634  55.7693625
  14.9531260  19.5105507  55.1273095  15.5212387  19.9649311  55.4193446
   6.6808514  21.3991073  51.7388537   6.7547522  21.2366245  52.5930387
   7.4978020  21.5881262  51.4949019   6.8124872  21.4027815  51.8286563
  21.3726836  16.5560578  54.7348653  21.3051337  16.5756537  53.8651240
  21.3582499  17.3990906  54.9604324  21.3605593  16.6834313  54.6401130
   5.2213099  24.3625816  46.4702011   5.5111398  23.9714797  45.7461237
   5.9516580  24.5442521  46.9107286   5.3719984  24.3319630  46.4284818
  19.1585454  15.3304965  53.0095248  19.7093375  14.6973034  53.2492340
  19.1429569  15.8620357  53.7010752  19.2370650  15.3153913  53.1474106
   5.8107845  19.1643562  57.5555141   5.3119538  19.8759329  57.6340030
   6.6208069  19.4844228  57.5173303   5.8563951  19.3170410  57.5611710
   3.1619015  26.3393198  49.5362160   2.9419310  26.0490553  50.3288827
   2.9413537  25.6808153  49.0080073   3.0966609  26.1992907  49.5751069
   2.0735962  18.4266515  51.8017862   1.7849211  17.8003986  52.3363589
   2.9419310  18.3686802  51.8682542   2.1596214  18.3254059  51.8908817
  12.8613860  13.5701298  52.1199844  12.5178626  12.8491633  52.4707094
  12.9606902  13.3615149  51.2778202  12.8255903  13.4325501  52.0471524
   5.3286971  27.7122588  48.3192853   5.9811029  27.1799031  48.5483879
   4.6312579  27.3591241  48.7060727   5.3217689  27.5812111  48.4105020
   2.2768235  20.0661766  47.7260227   3.0314203  20.4474805  47.9395690
   1.6838848  20.5172909  48.1806924   2.3004949  20.1890593  47.8243105
  13.3226889  20.0327002  47.6623832  13.8884922  20.6920212  47.5782375
  12.6754792  20.3776700  48.1340234  13.3105645  20.1808944  47.7196588
   3.5966462  21.2370327  53.1000342   3.0747216  21.3770619  53.7852207
   3.9840482  20.4780991  53.2902460   3.5770163  21.1455851  53.2301419
   9.7933467  22.9765786  47.0860911   9.5520143  22.2433647  46.6787976
   9.9734800  23.5252643  46.4327244   9.7841091  22.9488178  46.9291134
   5.0232788  18.2674346  48.4981833   4.8275570  18.8749081  47.9042136
   5.2467133  17.5742290  48.0173507   5.0267429  18.2551872  48.3397914
   3.4211318  15.1529084  48.6162702   4.1433970  15.3170242  48.1566508
   2.9419311  15.8738749  48.5102042   3.4575048  15.2827314  48.5328316
  11.3804825  11.4892883  53.9959387  10.5415926  11.5154162  53.7597650
  11.4509193  12.1363618  54.5764733  11.2673219  11.5889009  54.0468504
   1.0718934  17.5587157  57.7216842   1.5840031  17.8371410  57.0725601
   0.7855277  18.2976451  58.0879655   1.1053798  17.7089510  57.6806720
   9.8274104   8.3878260  48.7287003  10.5300456   8.1886008  48.2506961
   9.5618292   7.6154202  49.0355846   9.8920736   8.2441226  48.7032444
  15.2562349  16.6960870  51.2820629  15.1696324  16.8516296  52.1355407
  14.8012829  17.3398945  50.9080034  15.1765606  16.8136625  51.3527735
   9.1288165  14.0171617  49.9046188   8.8822880  13.9367368  50.7382977
   9.4573288  13.2325085  49.7108716   9.1409409  13.8897882  49.9993711
  13.0236214  20.7254976  53.6932969  12.8850573  21.4236022  54.1981712
  12.2436212  20.5703633  53.3369151  12.8879441  20.8055143  53.7159243
  11.3614299  17.0251352  59.9455351  11.3562338  16.1531168  59.9497777
  12.0675293  17.2239521  59.4724807  11.4659303  16.9255226  59.8762386
   5.0885193  16.7528335  59.3169171   5.2328568  17.3329544  58.6812281
   5.4360841  17.1304632  60.0219026   5.1612654  16.8949039  59.3268166
   7.2605110  15.9518504  57.0994303   6.5128424  16.1449518  56.6942581
   7.4146635  15.1263723  56.8618424   7.1727537  15.8583615  57.0039709
   4.1612947  24.9431107  56.1830198   4.3102511  24.3834023  55.5303602
   4.9412950  25.0223109  56.5662717   4.2987041  24.8716673  56.1427147
   6.6866248  25.1145750  57.4614689   6.6109919  24.4454561  58.0165477
   6.6156107  25.8163538  57.9755355   6.6646855  25.1190657  57.6191537
   7.3436495  23.6346749  48.2938295   8.1086386  23.3656393  47.9720959
   7.2414585  23.1496759  49.0108358   7.4417991  23.5236314  48.3518122
   5.3789265  11.8371158  54.8331530   4.5885340  11.6562619  55.1548866
   5.7749888  11.0598111  54.8161825   5.3206141  11.6958619  54.8784079
   9.8655156  20.6658933  40.2738244  10.6328141  20.7259058  39.8644096
   9.4186465  20.0939374  39.7894563   9.9128583  20.5895508  40.1415954
  10.7632951  19.4713589  52.5590976  10.0877953  19.2398821  53.0604363
  10.7725327  18.8634771  51.9333081  10.6651456  19.3472514  52.5407129
   7.8927095  14.3131418  59.3155029   7.8286236  15.1741374  59.1875166
   8.0324283  13.9963411  58.5150581   7.9042565  14.3931584  59.1783242
  12.7649686  22.3278721  44.7901154  12.8469523  23.1345707  44.4662605
  13.2499428  22.3474680  45.5141928  12.8486844  22.4499383  44.8488053
   6.5746189  17.0063557  53.4571232   6.1508438  17.2068056  52.7210251
   6.3991044  16.1592405  53.5695532   6.4857070  16.9112338  53.3644922
   6.0757882  28.5214070  55.9192690   6.5653813  27.8224859  55.7368354
   5.5042115  28.2237940  56.5068747   6.0642412  28.3740294  55.9793730
   1.8628634  17.5015608  48.8899205   2.0193253  17.4362411  49.7455197
   2.2029227  18.2764161  48.6777884   1.9361869  17.6064806  48.9853799
   8.4007779  16.8773492  47.7592568   8.9423324  16.3743873  48.2231189
   8.7154338  16.8238687  46.9482053   8.5272176  16.7952913  47.7076380
  12.2724886  21.0876139  64.8719480  13.0859751  20.8161288  65.0324613
  12.1119852  20.7883679  64.0679676  12.3694834  21.0031065  64.7764886
   6.5694228  22.2690843  45.0432596   6.6387049  21.4105382  45.1825596
   7.3482683  22.4862724  44.7151621   6.6947078  22.1743707  45.0149753
   9.5497048  11.7709796  57.8114868   9.7639018  11.1320711  57.2578222
   8.9330947  12.2155620  57.3822730   9.4902377  11.7419940  57.6665300
  10.9601716  24.6928545  49.2569089  10.5681508  24.3895260  48.5391956
  11.1154788  25.5297635  49.0674043  10.9255306  24.7712381  49.1225586
  11.7136136  13.3798862  58.7498176  10.9012818  13.0724752  58.8311348
  12.1726071  12.8997862  59.3140888  11.6616521  13.2635354  58.8452770
  11.1241391  21.2578534  49.1975120  10.7656045  21.4293176  49.9739152
  10.6380101  21.7191739  48.6403118  11.0000088  21.3517505  49.2300389
   5.9129756  16.9377699  41.7375354   6.2022281  17.7142581  42.0118929
   6.0001555  16.4266430  42.4389854   5.9684012  16.9769617  41.8817852
  12.2846130  22.1482429  60.1442321  12.9225850  21.6542625  59.8104777
  11.6420222  22.0759830  59.5594548  12.2840356  22.0641438  60.0084676
  14.0103130  13.9971575  54.7108236  13.5830738  13.9097924  53.9556336
  13.3729183  14.1049351  55.2963080  13.8532737  14.0004235  54.6853678
  12.3400387  22.8402238  56.7847678  13.1292765  22.4891302  56.9049759
  12.5143984  23.6538626  56.5224311  12.4820668  22.9088095  56.7635546
   2.0793697  16.2510964  53.8375466   1.2381704  16.1514838  54.0454360
   2.2883705  17.0206444  54.1889787   1.9858390  16.3503007  53.9202781
  11.1934211   6.8511794  51.3464096  11.3983804   6.7834102  52.1921093
  10.8660635   7.6570616  51.2785273  11.1749459   6.9597735  51.4623751
   5.8910362  14.1792363  53.0873064   5.5873499  13.6248351  53.6883472
   5.1889783  14.3584573  52.6001098   5.7426572  14.1237145  53.1042770
   4.9476459  11.4892882  47.6517766   5.2236193  10.7711795  47.2395333
   5.5475128  12.0877802  47.4438872   5.0769724  11.4713253  47.5598527
   3.9528713  21.3942083  57.7945162   3.8449068  21.4044146  58.6607220
   4.1624494  22.2196864  57.6050115   3.9678824  21.5183158  57.8949253
  14.4467898   7.4043559  50.8266861  13.8342212   7.8913961  51.2120593
  14.5432073   6.7287050  51.3704513  14.3705796   7.3761867  50.9645720
   8.4486979   9.1606400  45.9264361   8.9030726   9.3316960  46.6512205
   8.9227025   8.5474511  45.5262136   8.5855300   9.0957285  45.9738122
   1.9702505  18.6454726  55.2567099   1.3790438  19.2864224  55.2270114
   2.7323528  19.0692343  55.2298399   1.9950765  18.8030564  55.2482246
  18.0892926  18.4760495  56.2544378  18.1476050  18.9247144  57.0004354
  17.4559394  18.8859308  55.8174458  18.0044222  18.6034230  56.2996926
  11.7292021  24.0964037  52.6899124  11.5311710  24.5854852  51.9955335
  11.1079732  24.3005279  53.2683257  11.6079586  24.1980576  52.6722347
   5.7899999  15.8648934  47.0309368   6.5342044  16.2523211  47.2692318
   5.9360696  15.0206360  47.1949856   5.9210585  15.7979407  47.0903338
   8.7777875  11.4374408  52.9303287   8.3037830  10.9116170  53.4408598
   9.1496011  10.8903880  52.3618149   8.7627764  11.2790404  52.9218435
  15.0414606  16.4976783  54.3410068  14.8012829  15.6583198  54.3452494
  15.5206613  16.5776950  55.0650841  15.0766790  16.3858183  54.4484870
  10.7061375  12.3310962  45.9929041  10.1784394  12.4139706  45.3034750
  11.1657083  13.0728834  45.9893686  10.6963225  12.4531625  45.8903736
  17.0419793  13.2778240  52.2939327  16.8029563  13.2374075  51.4560112
  17.2053694  14.1249392  52.4205048  17.0310096  13.3970325  52.1892809
  13.6465823  17.6628190  58.2244372  14.3700022  17.2100716  58.0455392
  13.3815785  17.9432855  57.4416700  13.7147096  17.6379158  58.0823087
   2.5152691  12.2588363  54.9597251   1.8905762  12.2706755  54.3523204
   2.1798286  12.7348538  55.6088491   2.3738183  12.3306880  54.9653820
  10.2598457  20.9014526  45.1238698  10.9832656  21.3672639  44.9803271
   9.8199048  20.9688135  44.3736295  10.3014150  20.9798362  44.9923480
   9.4284613  17.7612068  56.3739387   8.8141606  17.2170118  56.6688022
   9.9451897  17.2476304  55.8945203   9.4140275  17.6048477  56.3463616
   8.6680910  18.8316338  54.1083686   8.2408518  18.2066057  53.6749121
   8.6605854  18.5491260  54.9342693   8.6040051  18.6969119  54.1663513
   6.9966619   9.7085093  54.3226220   7.0209107   9.1745205  53.6339000
   7.2478093   9.2002401  54.9851810   7.0376538   9.5545996  54.3190864
   4.6982305  14.9516421  56.0005863   3.8674235  15.1190239  55.7941111
   4.6433822  14.5752371  56.7854748   4.5671720  14.9206152  56.0854391
   3.0718349  13.2272012  46.5295981   3.2121310  13.7244476  47.2324622
   3.5700882  12.5258307  46.6710194   3.1659430  13.1973991  46.6547560
   3.1018571  14.0939123  43.8588558   3.7363651  14.6899548  43.7938019
   3.1844182  13.7942581  44.6734428   3.2075122  14.1380031  43.9691644
  16.0801137  16.6254601  56.7274922  16.6718977  17.2651851  56.7593120
  16.5160132  15.9277637  57.0166989  16.2319568  16.6172951  56.7755754
   4.6797554  10.0253099  43.8334000   5.0013395   9.5456181  43.1793262
   4.9424498  10.8352745  43.6424811   4.7663579  10.0742996  43.7089492
   7.9094527  21.0471973  57.3532816   7.4019618  21.6007820  57.7973446
   7.6121173  21.1080263  56.5351590   7.7899412  21.1378284  57.2981272
  10.0756709   9.4125293  56.1957479  10.5011781   8.9597819  55.5841005
   9.4613702   8.8585363  56.4722266  10.0485354   9.2639269  56.1462504
  10.5202307  24.9635231  45.2836759   9.8031617  24.7896093  44.8183997
  11.1709045  24.7287803  44.7512245  10.5104158  24.9031023  45.1365977
  13.1050278  13.8399819  49.0278064  12.4341468  14.3829521  48.8991130
  13.7990029  14.3094674  48.7859759  13.1079146  13.9898090  48.9733592
   7.1537012  25.9796531  54.2589823   6.9302667  25.2215360  54.6273849
   6.6646855  26.0094552  53.5370262   7.0480461  25.8718756  54.2066564
  13.2678406  10.2955703  51.9368438  13.6206016   9.8685426  52.6114236
  12.4093207  10.2106546  52.0669514  13.1927850  10.2200443  52.0563448
   1.9662091  12.9263222  49.9951284   1.2474080  13.3427355  50.2624148
   2.3374453  13.4917461  49.4442922   1.9154023  13.0712504  49.9534091
  11.2661672  13.5591071  55.8853280  11.2459599  13.3774367  56.7388059
  11.3140872  14.4303090  55.8612863  11.2696313  13.6607610  56.0076575
   9.2108001  20.1478263  61.8101756   9.1703856  19.5027940  61.2246912
  10.0231320  20.0914881  62.1227168   9.3251155  20.0437230  61.7698706
   5.8015469  26.1996989  51.7126907   5.3875868  25.5371119  51.3230749
   6.4862843  26.3474848  51.1922601   5.8413841  26.1237647  51.5783404
   9.1680763  25.3587075  52.4650524   8.7697046  25.4689345  51.6971344
   8.5531983  25.5669141  53.0477084   9.0179652  25.4060643  52.4381823
   7.7408665  11.9661222  45.3324664   7.1473504  12.2878219  44.7809231
   7.7783943  11.1202318  45.1245770   7.6583054  11.8885551  45.2207435
  14.7002466   5.4174115  52.8652750  14.1933331   4.7103254  52.7973928
  15.4969900   5.0867303  52.9953827  14.7429705   5.2647266  52.8751745
  10.6166482  11.9240727  48.7626414  10.3880175  11.9473428  47.9204772
  10.8764558  11.0998194  48.8821424  10.6212670  11.8056807  48.6551611
   3.6711244  10.4617273  50.0580609   4.1468611  10.8234353  49.4230791
   3.1699844  11.1173741  50.3380752   3.6676603  10.6111462  50.0057350
  16.9022606  19.9339041  45.8493614  17.2856212  20.6830397  46.0791711
  16.1066719  20.1804861  45.5905604  16.8416388  20.0808735  45.8451188
   5.7137897  12.6058473  43.4253993   6.0936862  12.6238102  42.6405108
   4.9730493  13.0512462  43.3044841   5.6606735  12.6740248  43.2917562
  13.3423188  10.9140664  49.0129572  13.3417414  10.7589321  49.8713848
  13.1379368  11.7603651  48.9570958  13.3122966  11.0161285  49.1317511
  11.0664040  15.5938166  52.6665779  11.5617705  14.8761161  52.6269799
  10.2563816  15.2908964  52.5520266  11.0207933  15.4435812  52.6439505
   6.5122652  19.4435979  44.8162783   5.7033974  19.1202653  44.7696093
   7.0197560  18.7369201  44.7491032   6.4672318  19.2917296  44.7993078
  13.1315859  18.3441853  55.3542908  13.5570930  17.8216275  54.8013333
  12.7672779  18.9422691  54.8331531  13.1402461  18.3552080  55.1951917
   2.7669939  26.6406071  54.1140253   3.0816498  27.4542459  54.1218035
   3.1763352  26.2556290  54.7822412   2.8738037  26.7034773  54.2144345
   9.7194458  22.0576118  51.6844065  10.1905637  22.7716380  51.8534050
  10.0554637  21.4574868  52.2203935   9.8389573  22.0747582  51.7876441
  11.8071443  23.6677431  63.8636137  11.9168408  22.8785992  64.2192884
  12.1362340  23.5783367  63.0610475  11.8723849  23.5383284  63.7978528
  10.3568405  21.8494052  58.4471758   9.8089351  21.2251936  58.1791823
  10.8181433  22.0388324  57.7315837  10.3435614  21.7853102  58.3022189
  13.1662269   9.9179406  55.8322950  12.5825258  10.4188613  55.4200518
  13.4866563   9.4108963  55.1987273  13.1275444   9.9171241  55.6781457
   5.7057068   8.8320001  46.1081625   6.5272762   9.0018314  45.8663320
   5.2426719   8.9867262  45.3847923   5.7588230   8.8801734  45.9653269
   9.9226731  22.8545125  54.9781099  10.7425105  22.7108091  55.2397394
   9.6420809  23.4791323  55.5197537  10.0023474  22.9255477  55.0969038
  26.3940381  30.5109976  47.9423975  26.3634386  31.3654613  48.1142245
  26.9921730  30.2105269  48.5010119  26.4777539  30.5926473  48.0498778
  19.5940066  29.5985627  52.6976906  18.7377962  29.7594126  52.7486023
  19.6407720  28.7277691  52.7181967  19.4739178  29.4936429  52.7082972
  13.9781206  39.1348345  48.4614137  13.2264105  38.7563883  48.2330182
  14.4267218  39.1666779  47.7132948  13.9330873  39.0833952  48.3171640
  22.9033783  35.8672153  62.3037362  23.6100550  35.3724184  62.4324296
  23.0921718  36.3081234  61.5740020  23.0361688  35.8590503  62.2146407
  19.4306166  39.5573715  43.8899684  19.0957534  40.2350636  43.4543907
  19.9433036  39.1679026  43.3016556  19.4571747  39.5998293  43.7386476
  18.9710457  41.5087983  49.8310796  19.3549836  42.0774882  49.2915571
  18.9069598  40.7837494  49.3516612  19.0183884  41.4863447  49.6804659
  22.4391887  31.6577671  55.3408557  22.9847847  32.3362758  55.4002527
  22.3808764  31.5165132  54.4810139  22.5107802  31.7369673  55.2220618
  15.5565962  39.1466737  50.7276910  15.6576325  38.3367091  51.0374038
  14.9607707  39.0523684  50.0976588  15.4838501  39.0131765  50.6803148
  24.2156956  33.0862278  46.2142285  24.0996482  33.8369964  46.6434423
  25.0112843  32.8286232  46.4638372  24.3161545  33.1597125  46.3146377
  15.3966702  44.0644326  52.1291766  16.0404157  44.5057491  52.5187924
  15.7222957  43.2597753  52.0422025  15.5398530  44.0109521  52.1737243
   8.7531006  35.1687024  50.3529244   8.5181191  34.3354676  50.2461512
   8.8916647  35.4491690  49.5390444   8.7386669  35.0870527  50.2171599
  11.0521094  27.3372754  53.2513551  10.4326125  26.7465402  53.0823566
  10.9504957  27.9284190  52.6177874  10.9458769  27.3376837  53.1318541
  16.0987281  37.0756301  47.5011628  16.4203122  37.6161509  46.8972936
  16.7459378  36.5053073  47.6333917  16.2413337  37.0715476  47.4318663
  18.1488989  29.0772296  47.5846014  18.8469154  29.2560424  48.0767478
  18.4641322  28.5542636  46.9616404  18.2984327  29.0266068  47.5648024
  10.7790227  30.8825036  55.4957120  10.6548924  31.4687482  56.1306939
  11.4308511  30.3885232  55.7969395  10.8563876  30.8963841  55.6343050
  18.3376925  35.4642741  47.5725806  18.7770560  34.8559842  48.0180579
  18.1881588  35.0850115  46.8011271  18.3798391  35.3181212  47.5244973
  15.8048568  34.0586753  54.7744631  16.4497570  33.5659196  54.4555580
  16.0450345  34.2011540  55.6010710  15.9359153  34.0064195  54.8494165
  18.3434659  36.9041659  54.4251524  18.6257902  36.1093065  54.2038280
  19.0720820  37.3822246  54.4456585  18.4924223  36.8576256  54.3954539
  16.3215853  24.4464693  51.6667289  15.9919183  24.8975837  50.9970988
  15.6460855  24.3680856  52.2140295  16.1726289  24.5015828  51.6490512
  21.9386261  33.8169923  44.5256575  21.8537556  34.6730889  44.6706144
  22.4270645  33.5414247  45.1938734  21.9975159  33.9027244  44.6458657
  23.5292261  20.4350216  49.9116900  23.2145702  21.1253694  50.3437322
  23.0119202  20.3794998  49.2102400  23.4056731  20.5285104  49.8713849
  14.7604302  34.3317934  44.8261778  14.1761518  34.8367965  45.2327642
  14.3574398  34.1060320  44.0858370  14.6143606  34.3726182  44.7766803
  10.3148331  40.0472695  51.6285450   9.8315909  40.7723184  51.6045033
  11.1271649  40.3448825  51.7395607  10.3639079  40.1975048  51.6412729
  16.3862485  38.8404875  54.2335264  15.8689427  38.4812290  53.6296572
  17.0836876  38.3167050  54.2441330  16.4128066  38.7102563  54.1465523
  20.0426077  39.2899689  60.1951437  20.1309423  39.1025830  61.0429648
  20.4715790  38.6437119  59.7956284  20.1188179  39.1662697  60.2623189
  17.6096537  38.5730849  59.1769099  17.0467372  38.1603459  59.7008761
  18.3717560  38.4983755  59.5962243  17.6390985  38.5008250  59.3162100
  19.2181517  30.5783586  43.3030699  19.4577521  30.7861569  42.4906042
  19.5397358  29.7741094  43.4119643  19.3018675  30.4897687  43.1991252
  14.5271807  22.5076981  47.1490237  15.2817775  22.8755298  46.9107287
  14.3499342  22.8816536  47.9169416  14.6126285  22.6175169  47.2275125
  13.1692528  40.5628871  51.7805730  13.8713108  40.0480860  51.8378486
  13.0890011  40.8903022  52.5852605  13.2616289  40.5343097  51.9078522
  14.2171435  30.8004457  60.9086145  14.3891939  30.6910352  61.7571426
  14.7540792  31.4458863  60.6717337  14.3216439  30.8796459  60.9991241
  12.8828872  24.9147300  43.8468350  12.7004445  25.1319181  43.0209342
  13.7454485  25.0286313  43.9026964  12.9833461  24.9637198  43.7322837
  12.4943304  36.7535223  51.2891338  13.3332203  36.9858155  51.3365099
  12.5255073  35.8839534  51.2198373  12.6225021  36.6592169  51.2855982
  13.1196007  37.1736098  55.5904643  13.6594232  37.0307229  56.2608015
  12.4365953  37.5732849  55.9588669  13.0988161  37.2115769  55.7439065
  18.5628591  21.9173711  46.8817373  19.2914751  21.7389666  46.4355530
  18.6523484  22.7591791  47.0924552  18.6835253  22.0157589  46.8470891
  22.5436892  32.8527098  50.7849667  23.2994407  33.2858613  50.8238576
  22.6499216  32.2031868  51.3584303  22.6707062  32.8204582  50.8747693
  25.5817063  36.6800376  51.5352070  25.1452295  36.6837118  52.2911042
  25.2479978  37.3605875  51.1031648  25.4679683  36.7812831  51.5832903
  20.1546136  38.7208708  62.8595221  20.9386553  38.8339556  63.2250963
  19.9542731  37.8949846  63.0553907  20.2412162  38.6155428  62.9429607
   8.5233152  33.3936389  55.7439065   8.2571567  32.5775505  55.9030055
   8.5371716  33.4389544  54.8734580   8.4857874  33.2793293  55.6392547
  25.5014546  23.7214203  53.7781498  26.1440454  23.7912308  54.3643414
  25.7537566  23.0543426  53.2761040  25.6336678  23.6340552  53.7908778
  12.4290899  28.1921473  42.3590823  11.7149076  27.9059652  42.7713255
  12.9134867  28.5318099  42.9997210  12.3950262  28.2003123  42.5146458
  13.2731758  26.9314767  58.3906072  12.5803555  26.4611747  58.6366804
  13.8892085  26.7053071  58.9647779  13.2616288  26.8281899  58.5115225
  20.3116530  40.6318811  56.5061676  19.5131775  40.3918311  56.7635545
  20.7602541  40.6833203  57.2528724  20.2591141  40.6041202  56.6546601
  19.6038217  36.6951427  42.7352631  20.0189365  36.3636451  42.0437127
  18.7730146  36.4620329  42.6072768  19.5426225  36.6122683  42.6143478
   8.9326565  34.1795168  53.0250809   8.7502139  34.1542054  52.1723101
   9.6676234  34.6494106  53.0639718   9.0140629  34.2456530  52.9048727
  25.0026240  34.4146678  50.1683696  25.2381829  34.5591877  49.3410547
  25.1515803  35.1789086  50.5615210  25.0592043  34.5485732  50.1047300
  11.9972317  30.8980171  59.5332918  12.7212289  30.8833201  60.0197812
  12.0988454  31.6075526  59.0354886  12.1190526  31.0004874  59.5311704
  26.8316696  33.2548344  48.0053300  27.1624913  33.7875984  47.3993395
  27.4049784  33.3087232  48.6615251  26.9650375  33.3417913  48.0131082
  22.0448585  31.1013247  48.6876880  22.1395440  31.8402541  49.1416506
  21.4207429  30.6730722  49.1211445  21.9657616  31.1474567  48.8185028
  20.3001059  34.2799459  59.3367161  20.8739921  33.6426703  59.4915725
  20.2215863  34.2803542  58.4676819  20.3734294  34.1864571  59.2313572
   8.8997476  31.0588669  53.1749875   9.4770978  30.9225119  53.8142121
   8.2011537  30.6024453  53.4295460   8.8818497  30.9710935  53.3072165
  22.2971607  32.9461986  41.9213832  22.2151769  33.0164173  42.7868819
  22.9351327  33.5091730  41.7297573  22.3791444  33.0400957  42.0203782
  15.6564778  32.7122724  51.3888359  15.3984022  31.8794459  51.3619658
  15.7113261  32.9380337  50.5480859  15.6264556  32.6220496  51.2608495
  20.7365828  24.8151175  51.4892451  20.0322155  24.3260360  51.6476371
  20.7850802  24.8273649  50.6180896  20.6395880  24.7440823  51.3831791
  14.6299490  30.2660487  51.8753253  14.0549081  30.4252655  52.5117214
  14.2535166  29.6295896  51.4121704  14.4902302  30.1958300  51.9007812
  18.2972779  28.7383836  56.7345632  17.9087212  28.3138054  56.0797823
  17.6327477  28.9865986  57.2422658  18.1419707  28.7122557  56.7133500
  27.9396048  28.4958841  49.5093462  27.6832613  27.6838782  49.3191345
  28.7825362  28.5036408  49.2823649  28.0262073  28.3770838  49.4478279
   4.3756309  29.9100562  49.8897694   4.4616561  29.5332430  50.6711224
   5.0032106  29.5361007  49.4117652   4.4812860  29.7986044  49.9343171
  22.1199140  22.4358465  54.2469616  22.5009652  21.7536636  54.6337490
  21.3162425  22.1468067  54.0645281  22.0575602  22.2925513  54.2773672
  19.4011717  32.9682441  44.9322439  20.2152356  33.2597333  44.8205210
  19.3370858  32.3142303  44.3580732  19.5114456  32.9147635  44.8311276
  25.6221207  35.6508437  59.3452014  25.3859845  34.8196502  59.2264075
  26.2664436  35.5994044  59.9306859  25.6815878  35.5206125  59.4137908
  15.2719625  36.4403958  50.0594751  15.9093572  36.2015706  50.6046544
  15.6974697  36.6441117  49.3247912  15.4295792  36.4354968  50.0311908
   9.9632268  38.6792295  53.9429055  10.0036413  38.9507146  53.1148834
  10.5226792  39.2034203  54.3586843  10.0515614  38.7968050  53.8820943
  15.9122440  31.6606248  44.3969640  16.2967593  31.4413955  45.1486185
  15.6634061  32.4869193  44.5270717  15.9324513  31.7504394  44.5270717
  16.0790981  24.9412663  64.1132225  15.7644422  25.7112226  63.8501787
  15.7580913  24.3782919  63.5284451  15.9849900  24.9722932  63.9873574
  17.6541097  36.9176381  51.7388537  17.7280105  36.7551553  52.5930387
  18.4710604  37.1066570  51.4949019  17.7857456  36.9213123  51.8286563
  11.4146854  37.2634244  48.7682981  10.5884972  37.5095981  48.6417259
  11.4758845  37.1846324  49.6345039  11.3021021  37.2879193  48.8771925
  13.6322878  23.3303185  49.7278421  12.7645303  23.4025784  49.7936030
  13.9198082  24.1325263  49.9166396  13.5462626  23.4597332  49.7653187
  22.7555766  23.4781044  58.0589743  23.5009358  23.2890854  57.6453168
  22.3393071  24.0039282  57.5003599  22.8040741  23.5283189  57.9154316
  16.1945683  39.8811124  46.4702011  16.4843981  39.4900105  45.7461237
  16.9249164  40.0627829  46.9107286  16.3452567  39.8504938  46.4284818
  16.7840428  34.6828870  57.5555141  16.2852122  35.3944637  57.6340030
  17.5940652  35.0029536  57.5173303  16.8296535  34.8355718  57.5611710
  14.1351599  41.8578506  49.5362160  13.9151894  41.5675861  50.3288827
  13.9146121  41.1993461  49.0080073  14.0699193  41.7178215  49.5751069
  13.0468546  33.9451823  51.8017862  12.7581794  33.3189294  52.3363589
  13.9151894  33.8872110  51.8682542  13.1328798  33.8439367  51.8908817
  23.8346444  29.0886606  52.1199844  23.4911209  28.3676941  52.4707094
  23.9339486  28.8800457  51.2778202  23.7988486  28.9510809  52.0471524
  16.3019554  43.2307896  48.3192853  16.9543612  42.6984338  48.5483879
  15.6045163  42.8776548  48.7060727  16.2950272  43.0997419  48.4105020
  13.2500819  35.5847074  47.7260227  14.0046787  35.9660113  47.9395690
  12.6571432  36.0358217  48.1806924  13.2737533  35.7075901  47.8243105
  24.2959473  35.5512310  47.6623832  24.8617505  36.2105520  47.5782375
  23.6487376  35.8962008  48.1340234  24.2838229  35.6994251  47.7196588
  15.7107486  27.5409914  62.8517439  14.9007262  27.8467694  62.7407282
  16.1882173  28.2615496  62.9670023  15.6610965  27.6924515  62.8524510
  14.5699046  36.7555635  53.1000342  14.0479799  36.8955927  53.7852207
  14.9573066  35.9966299  53.2902460  14.5502747  36.6641159  53.2301419
  11.5590230  26.8061444  47.1695297  11.2715025  26.4362714  46.4327244
  12.2460698  27.2756299  46.9079002  11.6179127  26.8208413  47.0210373
  20.7666051  38.4951094  47.0860911  20.5252727  37.7618955  46.6787976
  20.9467384  39.0437951  46.4327244  20.7573675  38.4673486  46.9291134
  15.9965371  33.7859654  48.4981833  15.8008154  34.3934389  47.9042136
  16.2199717  33.0927598  48.0173507  16.0000012  33.7737180  48.3397914
  14.3943901  30.6714392  48.6162702  15.1166553  30.8355550  48.1566508
  13.9151894  31.3924057  48.5102042  14.4307632  30.8012622  48.5328316
  22.3537409  27.0078191  53.9959387  21.5148510  27.0339470  53.7597650
  22.4241776  27.6548926  54.5764733  22.2405802  27.1074317  54.0468504
  12.0451518  33.0772464  57.7216842  12.5572615  33.3556718  57.0725601
  11.7587861  33.8161759  58.0879655  12.0786381  33.2274818  57.6806720
  20.8006687  23.9063568  48.7287003  21.5033040  23.7071316  48.2506961
  20.5350876  23.1339510  49.0355846  20.8653319  23.7626534  48.7032444
   9.1318424  27.5842656  48.0180578   9.2334561  28.3868818  48.3461554
   9.9274311  27.3829992  47.7203659   9.2646330  27.6728555  48.0215934
  15.5635243  25.1698853  57.7817883  15.3718440  25.1853987  58.6317307
  16.4133839  25.3662527  57.7584538  15.6610965  25.2013204  57.9041178
   9.9482156  27.6989835  55.7601700   9.8067648  26.8473775  55.8846208
  10.2322720  27.7418495  54.9363906   9.9690003  27.5789585  55.6569324
  20.1020749  29.5356925  49.9046188  19.8555463  29.4552676  50.7382977
  20.4305872  28.7510393  49.7108716  20.1141992  29.4083190  49.9993711
  23.9968798  36.2440284  53.6932969  23.8583157  36.9421330  54.1981712
  23.2168796  36.0888941  53.3369151  23.8612024  36.3240451  53.7159243
  22.3346883  32.5436659  59.9455351  22.3294921  31.6716476  59.9497777
  23.0407877  32.7424829  59.4724807  22.4391887  32.4440534  59.8762386
  16.0617776  32.2713643  59.3169171  16.2061152  32.8514851  58.6812281
  16.4093425  32.6489940  60.0219026  16.1345237  32.4134347  59.3268166
  18.2337693  31.4703812  57.0994303  17.4861007  31.6634826  56.6942581
  18.3879219  30.6449031  56.8618424  18.1460121  31.3768923  57.0039709
  15.1345531  40.4616415  56.1830198  15.2835095  39.9019331  55.5303602
  15.9145533  40.5408417  56.5662717  15.2719625  40.3901981  56.1427147
  25.4922170  35.6018538  44.4549468  25.1128979  34.8155676  44.4478758
  24.8288416  36.1505395  44.3121113  25.3380645  35.5663362  44.4330265
  17.6598832  40.6331058  57.4614689  17.5842503  39.9639869  58.0165477
  17.5888691  41.3348846  57.9755355  17.6379439  40.6375965  57.6191537
  18.4739470  25.3654362  57.9889706  18.9312085  26.0978337  58.1162499
  18.5495799  24.9420828  58.7476962  18.5530440  25.4111600  58.1190783
  10.7172462  25.6120182  59.0779150  10.1814651  25.0000540  59.3939917
  10.7790226  26.1868318  59.7312817  10.6468094  25.6067110  59.2214577
  22.9466796  18.5444238  51.8583549  23.0650365  19.0020701  51.1250852
  22.7728972  17.7389499  51.5719767  22.9385967  18.4938010  51.7084483
  18.3169079  39.1532057  48.2938295  19.0818970  38.8841701  47.9720959
  18.2147169  38.6682067  49.0108358  18.4150574  39.0421622  48.3518122
  16.3521848  27.3556466  54.8331530  15.5617923  27.1747926  55.1548866
  16.7482471  26.5783419  54.8161825  16.2938725  27.2143927  54.8784079
  21.7365535  34.9898896  52.5590976  21.0610536  34.7584129  53.0604363
  21.7457911  34.3820079  51.9333081  21.6384039  34.8657822  52.5407129
  18.8659679  29.8316725  59.3155029  18.8018820  30.6926682  59.1875166
  19.0056866  29.5148719  58.5150581  18.8775149  29.9116892  59.1783242
  23.7382269  37.8464029  44.7901154  23.8202107  38.6531015  44.4662605
  24.2232011  37.8659988  45.5141928  23.8219427  37.9684691  44.8488053
  17.5478773  32.5248865  53.4571232  17.1241022  32.7253364  52.7210251
  17.3723628  31.6777713  53.5695532  17.4589653  32.4297646  53.3644922
  17.0490466  44.0399378  55.9192690  17.5386396  43.3410167  55.7368354
  16.4774698  43.7423248  56.5068747  17.0374996  43.8925601  55.9793730
  12.8361218  33.0200916  48.8899205  12.9925837  32.9547719  49.7455197
  13.1761811  33.7949469  48.6777884  12.9094452  33.1250114  48.9853799
  19.3740362  32.3958800  47.7592568  19.9155908  31.8929181  48.2231189
  19.6886921  32.3423994  46.9482053  19.5004759  32.3138221  47.7076380
  23.2457470  36.6061447  64.8719480  24.0592335  36.3346596  65.0324613
  23.0852436  36.3068987  64.0679676  23.3427418  36.5216373  64.7764886
  17.5426812  37.7876151  45.0432596  17.6119632  36.9290690  45.1825596
  18.3215267  38.0048032  44.7151621  17.6679662  37.6929015  45.0149753
  20.5229632  27.2895104  57.8114868  20.7371601  26.6506019  57.2578222
  19.9063531  27.7340928  57.3822730  20.4634961  27.2605248  57.6665300
  21.9334299  40.2113853  49.2569089  21.5414091  39.9080568  48.5391956
  22.0887372  41.0482943  49.0674043  21.8987889  40.2897689  49.1225586
   9.4095479  30.2035867  49.2059972   9.7894444  30.6220412  48.5420239
   8.8350844  30.7849322  49.5128815   9.3806804  30.3513726  49.1536713
  22.6868720  28.8984169  58.7498176  21.8745401  28.5910060  58.8311348
  23.1458654  28.4183170  59.3140888  22.6349104  28.7820662  58.8452770
  22.0973974  36.7763841  49.1975120  21.7388629  36.9478484  49.9739152
  21.6112685  37.2377047  48.6403118  21.9732671  36.8702813  49.2300389
  19.9144360  20.3995040  52.8002211  19.0437918  20.3733761  52.7535521
  20.1684701  20.2272232  51.9828057  19.8237920  20.3705184  52.6722348
  16.8862340  32.4563007  41.7375354  17.1754864  33.2327889  42.0118929
  16.9734138  31.9451738  42.4389854  16.9416596  32.4954925  41.8817852
  19.7822227  30.3044241  63.5326878  20.2521858  30.9286357  63.9194752
  19.8284107  29.6361216  64.0920093  19.8590103  30.2978921  63.6726949
  16.9393501  22.4101268  54.2575682  16.4231989  21.7181460  54.3827261
  16.3787430  23.0772045  54.2038280  16.7800014  22.4064526  54.2681748
  19.0085734  22.9494228  56.0868534  18.6217487  22.9743260  56.8682064
  18.5218671  22.3835907  55.6343051  18.8798243  22.8689979  56.1356438
  23.2578714  37.6667737  60.1442321  23.8958434  37.1727933  59.8104777
  22.6152805  37.5945138  59.5594548  23.2572940  37.5826746  60.0084676
  24.9835714  29.5156883  54.7108236  24.5563322  29.4283232  53.9556336
  24.3461767  29.6234659  55.2963080  24.8265321  29.5189543  54.6853678
  18.6742876  19.8361214  58.3778794  19.3035994  20.3721514  58.0999864
  18.8428739  19.7438573  59.2292360  18.7920670  19.9022576  58.4627322
  18.4756791  24.6232409  60.6505206  19.3030220  24.3517558  60.7063820
  18.4964637  25.4193250  61.0069024  18.6009641  24.7012163  60.7120389
  23.3132970  38.3587546  56.7847678  24.1025348  38.0076610  56.9049759
  23.4876568  39.1723934  56.5224311  23.4553252  38.4273403  56.7635546
  13.0526281  31.7696271  53.8375466  12.2114287  31.6700146  54.0454360
  13.2616289  32.5391752  54.1889787  12.9590973  31.8688315  53.9202781
  10.5301848  29.3915808  51.6660217  10.1358545  29.4658820  50.8910327
   9.9741964  29.7773755  52.2168579  10.3904660  29.4597583  51.6327877
  22.1666794  22.3697102  51.3464096  22.3716388  22.3019410  52.1921093
  21.8393218  23.1755924  51.2785273  22.1482042  22.4783043  51.4623751
  16.8642945  29.6977671  53.0873064  16.5606083  29.1433659  53.6883472
  16.1622366  29.8769881  52.6001098  16.7159155  29.6422453  53.1042770
  15.9209043  27.0078190  47.6517766  16.1968777  26.2897103  47.2395333
  16.5207712  27.6063110  47.4438872  16.0502307  26.9898561  47.5598527
  14.9261296  36.9127391  57.7945162  14.8181651  36.9229453  58.6607220
  15.1357078  37.7382172  57.6050115  14.9411407  37.0368466  57.8949253
  25.4200482  22.9228867  50.8266861  24.8074796  23.4099269  51.2120593
  25.5164657  22.2472358  51.3704513  25.3438380  22.8947175  50.9645720
  19.4219563  24.6791708  45.9264361  19.8763310  24.8502268  46.6512205
  19.8959609  24.0659818  45.5262136  19.5587883  24.6142593  45.9738122
  12.9435088  34.1640034  55.2567099  12.3523022  34.8049532  55.2270114
  13.7056112  34.5877651  55.2298399  12.9683349  34.3215872  55.2482246
  13.3395711  25.3242031  55.9235117  13.7997193  25.3980961  56.6610241
  13.3851818  26.1223286  55.5734938  13.4146267  25.4536179  55.9807873
  14.9879061  25.9908726  60.4907144  14.5964626  25.3442073  60.9262922
  15.1564924  26.5820162  61.1101399  14.9549971  25.9822994  60.6469850
  22.7024605  39.6149345  52.6899124  22.5044293  40.1040160  51.9955335
  22.0812316  39.8190587  53.2683257  22.5812169  39.7165884  52.6722347
  16.7632583  31.3834242  47.0309368  17.5074628  31.7708518  47.2692318
  16.9093279  30.5391668  47.1949856  16.8943168  31.3164715  47.0903338
  18.6812158  23.1784501  52.0641229  17.8348204  23.3507309  51.9382579
  18.6783291  22.3733845  52.4007058  18.5559308  23.0845530  52.0952356
  19.7510459  26.9559715  52.9303287  19.2770413  26.4301477  53.4408598
  20.1228595  26.4089188  52.3618149  19.7360348  26.7975712  52.9218435
  10.1283489  28.9531222  58.2986833  10.9909102  28.8526931  58.2124163
   9.7975272  28.3725931  57.7372405  10.2068685  28.8522849  58.2032239
  21.6793959  27.8496270  45.9929041  21.1516977  27.9325014  45.3034750
  22.1389667  28.5914141  45.9893686  21.6695809  27.9716932  45.8903736
  28.0152376  28.7963548  52.2939327  27.7762146  28.7559382  51.4560112
  28.1786278  29.6434700  52.4205048  28.0042680  28.9155633  52.1892809
  24.6198407  33.1813498  58.2244372  25.3432605  32.7286024  58.0455392
  24.3548369  33.4618163  57.4416700  24.6879680  33.1564466  58.0823087
  13.4885275  27.7773671  54.9597251  12.8638345  27.7892063  54.3523204
  13.1530870  28.2533846  55.6088491  13.3470767  27.8492188  54.9653820
  13.6727024  26.1198790  41.0169936  13.3239828  26.7718515  41.4801486
  13.1923470  26.1055903  40.2893807  13.5497268  26.2141843  40.9781028
  10.2010951  35.8374131  56.4001016   9.6710875  35.1466570  56.4495990
  10.4736044  35.8284317  55.5713724  10.1635673  35.7341263  56.2848432
  21.2331041  36.4199834  45.1238698  21.9565240  36.8857947  44.9803271
  20.7931632  36.4873443  44.3736295  21.2746733  36.4983670  44.9923480
  20.4017196  33.2797376  56.3739387  19.7874189  32.7355426  56.6688022
  20.9184481  32.7661612  55.8945203  20.3872859  33.1233785  56.3463616
  19.6413493  34.3501646  54.1083686  19.2141101  33.7251365  53.6749121
  19.6338438  34.0676568  54.9342693  19.5772634  34.2154427  54.1663513
  12.7576020  29.3866819  57.1772120  12.9169507  28.6310143  57.5823842
  12.5768914  29.9357758  57.8312857  12.7541379  29.3560633  57.3334826
  20.6996323  21.5528055  57.7322909  20.2036885  21.7491729  57.0414476
  21.4565385  21.9520723  57.5611711  20.7383148  21.6405788  57.6043046
  17.9699203  25.2270400  54.3226220  17.9941690  24.6930513  53.6339000
  18.2210677  24.7187709  54.9851810  18.0109122  25.0731304  54.3190864
   5.4806793  32.5101895  53.7569364   5.3750242  32.4648740  52.8921448
   4.7307013  32.8555676  54.0383649   5.3542396  32.5542804  53.6706694
  14.2500525  23.9541219  53.7031964  14.2898897  24.4550425  54.4166672
  13.4250190  24.0451612  53.4337887  14.1340051  24.0423035  53.7682502
  16.4330138  33.5201959  61.8052259  15.5825769  33.6573673  61.9409904
  16.5958266  32.7865737  62.2499960  16.3314002  33.4316060  61.8907858
  15.6714889  30.4701728  56.0005863  14.8406818  30.6375546  55.7941111
  15.6166406  30.0937679  56.7854748  15.5404303  30.4391460  56.0854391
  13.4798672  23.9610621  61.6362274  14.1051375  23.4172754  61.9091706
  13.0249152  23.4805539  61.0670064  13.5046932  23.8100103  61.5923868
  14.0450932  28.7457320  46.5295981  14.1853893  29.2429784  47.2324622
  14.5433465  28.0443614  46.6710194  14.1392013  28.7159299  46.6547560
  14.0751155  29.6124431  43.8588558  14.7096234  30.2084856  43.7938019
  14.1576766  29.3127889  44.6734428  14.1807706  29.6565339  43.9691644
  27.0533721  32.1439908  56.7274922  27.6451561  32.7837159  56.7593120
  27.4892715  31.4462945  57.0166989  27.2052152  32.1358259  56.7755754
  15.6530138  25.5438406  43.8334000  15.9745979  25.0641489  43.1793262
  15.9157081  26.3538053  43.6424811  15.7396163  25.5928304  43.7089492
  18.8827110  36.5657281  57.3532816  18.3752202  37.1193128  57.7973446
  18.5853757  36.6265571  56.5351590  18.7631995  36.6563592  57.2981272
  21.0489293  24.9310600  56.1957479  21.4744364  24.4783127  55.5841005
  20.4346286  24.3770671  56.4722266  21.0217938  24.7824577  56.1462504
  10.5804143  31.8092272  47.1278104  11.0896372  32.4056779  47.5089409
  11.0538415  31.5418245  46.4454523  10.7247518  31.8578087  47.0832626
  21.4934891  40.4820539  45.2836759  20.7764200  40.3081401  44.8183997
  22.1441628  40.2473111  44.7512245  21.4836741  40.4216331  45.1365977
  19.4883515  21.4025700  49.6048056  18.8451833  21.2523347  50.1733194
  19.1482922  21.1568046  48.8397160  19.3428593  21.3437823  49.5751071
  24.0782862  29.3585127  49.0278064  23.4074052  29.9014829  48.8991130
  24.7722612  29.8279982  48.7859759  24.0811729  29.5083398  48.9733592
  18.1269596  41.4981839  54.2589823  17.9035250  40.7400668  54.6273849
  17.6379439  41.5279860  53.5370262  18.0213045  41.3904064  54.2066564
  24.2410989  25.8141011  51.9368438  24.5938599  25.3870734  52.6114236
  23.3825791  25.7291854  52.0669514  24.1660434  25.7385751  52.0563448
  12.9394674  28.4448530  49.9951284  12.2206664  28.8612663  50.2624148
  13.3107037  29.0102769  49.4442922  12.8886606  28.5897812  49.9534091
  22.2394255  29.0776379  55.8853280  22.2192183  28.8959674  56.7388059
  22.2873456  29.9488398  55.8612863  22.2428896  29.1792918  56.0076575
  20.1840585  35.6663571  61.8101756  20.1436440  35.0213248  61.2246912
  20.9963903  35.6100189  62.1227168  20.2983739  35.5622538  61.7698706
  16.7748053  41.7182297  51.7126907  16.3608451  41.0556427  51.3230749
  17.4595427  41.8660156  51.1922601  16.8146424  41.6422955  51.5783404
  20.1413347  40.8772382  52.4650524  19.7429630  40.9874653  51.6971344
  19.5264566  41.0854449  53.0477084  19.9912236  40.9245950  52.4381823
  18.7141249  27.4846530  45.3324664  18.1206088  27.8063527  44.7809231
  18.7516526  26.6387626  45.1245770  18.6315638  27.4070859  45.2207435
  25.6735050  20.9359423  52.8652750  25.1665914  20.2288562  52.7973928
  26.4702483  20.6052611  52.9953827  25.7162289  20.7832574  52.8751745
  21.5899065  27.4426035  48.7626414  21.3612758  27.4658736  47.9204772
  21.8497142  26.6183502  48.8821424  21.5945253  27.3242115  48.6551611
  15.8718294  29.2960508  58.3651514  15.3597197  28.6881691  58.7236545
  15.6997790  30.0117100  58.8325490  15.7707931  29.3123807  58.4867738
  10.7184009  27.7398083  61.0153876  10.5486599  28.3999458  60.4702082
  10.2749958  27.9504644  61.7366365  10.6283342  27.8684065  61.0415505
  14.6443828  25.9802581  50.0580609  15.1201194  26.3419661  49.4230791
  14.1432427  26.6359049  50.3380752  14.6409187  26.1296770  50.0057350
  27.8755189  35.4524349  45.8493614  28.2588795  36.2015705  46.0791711
  27.0799303  35.6990169  45.5905604  27.8148972  35.5994043  45.8451188
  19.7487364  27.2184752  60.8053770  20.3058794  26.9898562  60.1732235
  19.4248429  27.9790418  60.5288982  19.7833774  27.2968589  60.6710267
   7.6186073  30.6444949  56.2742366   7.0712792  29.9745594  56.3923234
   8.4078451  30.2774797  56.3385833   7.6538257  30.4909935  56.3011066
  17.4670481  30.3052406  61.7705777  18.2181808  30.6204083  62.0845331
  17.6593058  30.1031577  60.9439698  17.6061896  30.3219788  61.6949172
  16.6870481  28.1243781  43.4253993  17.0669446  28.1423410  42.6405108
  15.9463077  28.5697770  43.3044841  16.6339319  28.1925556  43.2917562
  24.3155772  26.4325972  49.0129572  24.3149998  26.2774629  49.8713848
  24.1111952  27.2788959  48.9570958  24.2855549  26.5346593  49.1317511
   6.3773042  29.8565757  53.4288389   6.1994804  29.4042366  54.1543304
   6.0892065  30.6591918  53.6126866   6.3085996  29.9088314  53.5631892
  22.0396624  31.1123474  52.6665779  22.5350289  30.3946469  52.6269799
  21.2296399  30.8094272  52.5520266  21.9940517  30.9621120  52.6439505
  17.4855235  34.9621287  44.8162783  16.6766558  34.6387961  44.7696093
  17.9930144  34.2554509  44.7491032  17.4404902  34.8102604  44.7993078
   8.1145512  32.3893480  50.5410148   7.2491032  32.3779171  50.4292919
   8.2144328  32.2023703  51.3881287   8.0019679  32.3599542  50.6499092
  24.1048442  33.8627161  55.3542908  24.5303514  33.3401583  54.8013333
  23.7405362  34.4607999  54.8331531  24.1135045  33.8737388  55.1951917
  13.7402522  42.1591379  54.1140253  14.0549081  42.9727767  54.1218035
  14.1495936  41.7741598  54.7822412  13.8470620  42.2220081  54.2144345
  20.6927042  37.5761426  51.6844065  21.1638220  38.2901688  51.8534050
  21.0287220  36.9760176  52.2203935  20.8122157  37.5932890  51.7876441
  22.7804026  39.1862739  63.8636137  22.8900992  38.3971300  64.2192884
  23.1094923  39.0968675  63.0610475  22.8456432  39.0568592  63.7978528
  17.6096537  22.3488896  58.6402160  17.7424442  21.5519890  58.9683136
  17.9941690  22.8755299  59.2200436  17.6852866  22.3088813  58.7745663
  21.3300988  37.3679360  58.4471758  20.7821934  36.7437243  58.1791823
  21.7914017  37.5573632  57.7315837  21.3168198  37.3038410  58.3022189
  20.6828892  19.2719222  55.2383253  19.8774856  19.1616952  55.5551092
  20.5535627  19.3731678  54.3813119  20.5449025  19.2702892  55.1591294
  24.1394853  25.4364714  55.8322950  23.5557841  25.9373921  55.4200518
  24.4599147  24.9294270  55.1987273  24.1008028  25.4356549  55.6781457
  16.6789652  24.3505309  46.1081625  17.5005346  24.5203622  45.8663320
  16.2159303  24.5052570  45.3847923  16.7320814  24.3987042  45.9653269
  15.2684984  22.3448071  56.8880054  15.8129397  22.0039198  57.4784395
  15.3221919  23.2033533  57.0301338  15.3574103  22.4203331  56.9961927
  11.0815542  36.1064487  53.7618862  11.6860400  36.0660321  53.1332682
  10.8742855  36.9535639  53.7922917  11.1404440  36.2252490  53.6734978
  20.8959315  38.3730432  54.9781099  21.7157688  38.2293399  55.2397394
  20.6153392  38.9976631  55.5197537  20.9756058  38.4440785  55.0969038
   6.3166825  35.0899105  53.6317785   6.2191103  34.2795376  53.9407841
   7.0995694  35.0690898  53.2464053   6.4182961  34.9666195  53.6204648
  30.5672650  45.1170935  52.6976906  29.7110545  45.2779433  52.7486023
  30.6140303  44.2462999  52.7181967  30.4471761  45.0121737  52.7082972
  24.9513789  54.6533653  48.4614137  24.1996689  54.2749191  48.2330182
  25.3999801  54.6852087  47.7132948  24.9063456  54.6019260  48.3171640
  33.8766366  51.3857461  62.3037362  34.5833134  50.8909492  62.4324296
  34.0654302  51.8266542  61.5740020  34.0094272  51.3775811  62.2146407
  30.4038749  55.0759023  43.8899684  30.0690118  55.7535944  43.4543907
  30.9165620  54.6864334  43.3016556  30.4304330  55.1183601  43.7386476
  29.9443041  57.0273291  49.8310796  30.3282420  57.5960190  49.2915571
  29.8802182  56.3022802  49.3516612  29.9916468  57.0048755  49.6804659
  33.4124471  47.1762979  55.3408557  33.9580431  47.8548066  55.4002527
  33.3541347  47.0350440  54.4810139  33.4840385  47.2554981  55.2220618
  26.5298546  54.6652045  50.7276910  26.6308909  53.8552399  51.0374038
  25.9340291  54.5708992  50.0976588  26.4571084  54.5317073  50.6803148
  26.3699285  59.5829634  52.1291766  27.0136741  60.0242798  52.5187924
  26.6955541  58.7783061  52.0422025  26.5131114  59.5294829  52.1737243
  19.7263590  50.6872332  50.3529244  19.4913774  49.8539984  50.2461512
  19.8649231  50.9676997  49.5390444  19.7119252  50.6055835  50.2171599
  22.0253677  42.8558062  53.2513551  21.4058709  42.2650710  53.0823566
  21.9237541  43.4469498  52.6177874  21.9191353  42.8562145  53.1318541
  27.0719865  52.5941609  47.5011628  27.3935706  53.1346817  46.8972936
  27.7191961  52.0238381  47.6333917  27.2145920  52.5900784  47.4318663
  21.7522810  46.4010344  55.4957120  21.6281507  46.9872790  56.1306939
  22.4041095  45.9070540  55.7969395  21.8296460  46.4149149  55.6343050
  29.3109508  50.9828049  47.5725806  29.7503144  50.3745150  48.0180579
  29.1614171  50.6035423  46.8011271  29.3530974  50.8366520  47.5244973
  26.7781151  49.5772061  54.7744631  27.4230154  49.0844504  54.4555580
  27.0182928  49.7196848  55.6010710  26.9091736  49.5249503  54.8494165
  29.3167243  52.4226967  54.4251524  29.5990486  51.6278373  54.2038280
  30.0453403  52.9007554  54.4456585  29.4656806  52.3761564  54.3954539
  32.9118845  49.3355231  44.5256575  32.8270140  50.1916197  44.6706144
  33.4003228  49.0599555  45.1938734  32.9707742  49.4212552  44.6458657
  25.7336886  49.8503241  44.8261778  25.1494101  50.3553273  45.2327642
  25.3306981  49.6245628  44.0858370  25.5876190  49.8911490  44.7766803
  21.2880915  55.5658003  51.6285450  20.8048493  56.2908492  51.6045033
  22.1004233  55.8634133  51.7395607  21.3371662  55.7160356  51.6412729
  27.3595069  54.3590183  54.2335264  26.8422010  53.9997598  53.6296572
  28.0569460  53.8352358  54.2441330  27.3860650  54.2287871  54.1465523
  31.0158661  54.8084997  60.1951437  31.1042006  54.6211138  61.0429648
  31.4448373  54.1622427  59.7956284  31.0920763  54.6848005  60.2623189
  28.5829120  54.0916157  59.1769099  28.0199955  53.6788767  59.7008761
  29.3450144  54.0169063  59.5962243  28.6123569  54.0193558  59.3162100
  24.1425112  56.0814179  51.7805730  24.8445691  55.5666168  51.8378486
  24.0622595  56.4088330  52.5852605  24.2348872  56.0528405  51.9078522
  25.1904018  46.3189765  60.9086145  25.3624522  46.2095660  61.7571426
  25.7273376  46.9644171  60.6717337  25.2949022  46.3981767  60.9991241
  23.4675887  52.2720530  51.2891338  24.3064787  52.5043463  51.3365099
  23.4987656  51.4024842  51.2198373  23.5957605  52.1777477  51.2855982
  24.0928590  52.6921406  55.5904643  24.6326815  52.5492537  56.2608015
  23.4098537  53.0918156  55.9588669  24.0720744  52.7301077  55.7439065
  33.5169475  48.3712406  50.7849667  34.2726990  48.8043921  50.8238576
  33.6231800  47.7217176  51.3584303  33.6439646  48.3389890  50.8747693
  36.5549646  52.1985684  51.5352070  36.1184878  52.2022426  52.2911042
  36.2212562  52.8791183  51.1031648  36.4412266  52.2998139  51.5832903
  31.1278720  54.2394016  62.8595221  31.9119137  54.3524864  63.2250963
  30.9275314  53.4135153  63.0553907  31.2144745  54.1340736  62.9429607
  19.4965735  48.9121696  55.7439065  19.2304151  48.0960813  55.9030055
  19.5104299  48.9574852  54.8734580  19.4590458  48.7978601  55.6392547
  24.2464342  42.4500075  58.3906072  23.5536138  41.9797054  58.6366804
  24.8624669  42.2238379  58.9647779  24.2348872  42.3467207  58.5115225
  31.2849113  56.1504118  56.5061676  30.4864359  55.9103619  56.7635545
  31.7335125  56.2018511  57.2528724  31.2323724  56.1226510  56.6546601
  30.5770800  52.2136735  42.7352631  30.9921949  51.8821759  42.0437127
  29.7462730  51.9805637  42.6072768  30.5158809  52.1307991  42.6143478
  19.9059149  49.6980476  53.0250809  19.7234722  49.6727362  52.1723101
  20.6408818  50.1679414  53.0639718  19.9873213  49.7641838  52.9048727
  22.9704901  46.4165479  59.5332918  23.6944873  46.4018509  60.0197812
  23.0721037  47.1260834  59.0354886  23.0923110  46.5190182  59.5311704
  30.3449850  49.8964563  64.3981865  29.5522831  50.2108075  64.5834484
  30.4598777  50.1116032  63.5602649  30.2445261  49.9748400  64.3020199
  31.2733643  49.7984767  59.3367161  31.8472505  49.1612011  59.4915725
  31.1948447  49.7988850  58.4676819  31.3466878  49.7049879  59.2313572
  19.8730059  46.5773977  53.1749875  20.4503562  46.4410427  53.8142121
  19.1744121  46.1209761  53.4295460  19.8551081  46.4896243  53.3072165
  26.6297362  48.2308032  51.3888359  26.3716606  47.3979767  51.3619658
  26.6845844  48.4565645  50.5480859  26.5997139  48.1405803  51.2608495
  25.6032074  45.7845795  51.8753253  25.0281665  45.9437963  52.5117214
  25.2267750  45.1481204  51.4121704  25.4634886  45.7143608  51.9007812
  29.2705362  44.2569144  56.7345632  28.8819795  43.8323362  56.0797823
  28.6060061  44.5051294  57.2422658  29.1152290  44.2307865  56.7133500
  15.3488893  45.4285869  49.8897694  15.4349144  45.0517738  50.6711224
  15.9764690  45.0546315  49.4117652  15.4545444  45.3171352  49.9343171
  30.3744301  48.4867749  44.9322439  31.1884939  48.7782641  44.8205210
  30.3103442  47.8327611  44.3580732  30.4847040  48.4332943  44.8311276
  36.5953791  51.1693745  59.3452014  36.3592428  50.3381810  59.2264075
  37.2397020  51.1179352  59.9306859  36.6548462  51.0391433  59.4137908
  26.2452209  51.9589266  50.0594751  26.8826156  51.7201014  50.6046544
  26.6707280  52.1626425  49.3247912  26.4028375  51.9540276  50.0311908
  20.9364851  54.1977603  53.9429055  20.9768997  54.4692454  53.1148834
  21.4959375  54.7219511  54.3586843  21.0248197  54.3153358  53.8820943
  27.0523564  40.4597971  64.1132225  26.7377005  41.2297534  63.8501787
  26.7313497  39.8968227  63.5284451  26.9582483  40.4908240  63.9873574
  37.6190211  50.9538193  55.4080309  37.3136028  51.6866250  55.7693625
  36.8996427  50.5476123  55.1273095  37.4677554  51.0019926  55.4193446
  28.6273681  52.4361689  51.7388537  28.7012689  52.2736861  52.5930387
  29.4443187  52.6251878  51.4949019  28.7590039  52.4398431  51.8286563
  22.3879437  52.7819551  48.7682981  21.5617555  53.0281289  48.6417259
  22.4491429  52.7031632  49.6345039  22.2753604  52.8064500  48.8771925
  24.6055461  38.8488492  49.7278421  23.7377887  38.9211092  49.7936030
  24.8930666  39.6510571  49.9166396  24.5195209  38.9782640  49.7653187
  33.7288350  38.9966352  58.0589743  34.4741942  38.8076162  57.6453168
  33.3125655  39.5224590  57.5003599  33.7773324  39.0468497  57.9154316
  27.1678266  55.3996432  46.4702011  27.4576565  55.0085413  45.7461237
  27.8981747  55.5813137  46.9107286  27.3185151  55.3690245  46.4284818
  27.7573012  50.2014178  57.5555141  27.2584705  50.9129945  57.6340030
  28.5673236  50.5214844  57.5173303  27.8029118  50.3541026  57.5611710
  25.1084182  57.3763814  49.5362160  24.8884478  57.0861169  50.3288827
  24.8878704  56.7178769  49.0080073  25.0431776  57.2363522  49.5751069
  24.0201129  49.4637131  51.8017862  23.7314378  48.8374602  52.3363589
  24.8884477  49.4057418  51.8682542  24.1061381  49.3624675  51.8908817
  27.2752138  58.7493204  48.3192853  27.9276196  58.2169646  48.5483879
  26.5777747  58.3961856  48.7060727  27.2682856  58.6182727  48.4105020
  24.2233403  51.1032382  47.7260227  24.9779371  51.4845421  47.9395690
  23.6304015  51.5543525  48.1806924  24.2470116  51.2261209  47.8243105
  35.2692056  51.0697618  47.6623832  35.8350089  51.7290828  47.5782375
  34.6219960  51.4147316  48.1340234  35.2570813  51.2179559  47.7196588
  26.6840070  43.0595222  62.8517439  25.8739845  43.3653002  62.7407282
  27.1614756  43.7800804  62.9670023  26.6343548  43.2109823  62.8524510
  25.5431629  52.2740943  53.1000342  25.0212383  52.4141235  53.7852207
  25.9305650  51.5151607  53.2902460  25.5235330  52.1826467  53.2301419
  22.5322813  42.3246752  47.1695297  22.2447609  41.9548022  46.4327244
  23.2193282  42.7941607  46.9079002  22.5911711  42.3393721  47.0210373
  31.7398634  54.0136402  47.0860911  31.4985310  53.2804263  46.6787976
  31.9199967  54.5623259  46.4327244  31.7306258  53.9858793  46.9291134
  26.9697955  49.3044962  48.4981833  26.7740738  49.9119697  47.9042136
  27.1932300  48.6112906  48.0173507  26.9732596  49.2922488  48.3397914
  25.3676485  46.1899700  48.6162702  26.0899137  46.3540858  48.1566508
  24.8884478  46.9109365  48.5102042  25.4040216  46.3197930  48.5328316
  33.3269993  42.5263499  53.9959387  32.4881093  42.5524778  53.7597650
  33.3974360  43.1734234  54.5764733  33.2138386  42.6259625  54.0468504
  23.0184102  48.5957772  57.7216842  23.5305199  48.8742026  57.0725601
  22.7320444  49.3347066  58.0879655  23.0518965  48.7460126  57.6806720
  20.1051008  43.1027964  48.0180578  20.2067144  43.9054126  48.3461554
  20.9006895  42.9015300  47.7203659  20.2378914  43.1913863  48.0215934
  26.5367827  40.6884161  57.7817883  26.3451024  40.7039295  58.6317307
  27.3866423  40.8847835  57.7584538  26.6343549  40.7198512  57.9041178
  20.9214740  43.2175142  55.7601700  20.7800232  42.3659083  55.8846208
  21.2055303  43.2603803  54.9363906  20.9422586  43.0974892  55.6569324
  34.9701381  51.7625592  53.6932969  34.8315740  52.4606638  54.1981712
  34.1901379  51.6074248  53.3369151  34.8344608  51.8425759  53.7159243
  33.3079466  48.0621967  59.9455351  33.3027505  47.1901784  59.9497777
  34.0140460  48.2610137  59.4724807  33.4124470  47.9625842  59.8762386
  27.0350360  47.7898951  59.3169171  27.1793735  48.3700159  58.6812281
  27.3826008  48.1675248  60.0219026  27.1077821  47.9319655  59.3268166
  29.2070277  46.9889120  57.0994303  28.4593591  47.1820134  56.6942581
  29.3611802  46.1634339  56.8618424  29.1192705  46.8954231  57.0039709
  26.1078115  55.9801723  56.1830198  26.2567678  55.4204639  55.5303602
  26.8878117  56.0593725  56.5662717  26.2452208  55.9087289  56.1427147
  28.6331415  56.1516366  57.4614689  28.5575086  55.4825177  58.0165477
  28.5621274  56.8534154  57.9755355  28.6112022  56.1561273  57.6191537
  29.4472054  40.8839670  57.9889706  29.9044668  41.6163645  58.1162499
  29.5228383  40.4606136  58.7476962  29.5263024  40.9296908  58.1190783
  21.6905045  41.1305490  59.0779150  21.1547235  40.5185848  59.3939917
  21.7522810  41.7053626  59.7312817  21.6200678  41.1252418  59.2214577
  29.2901662  54.6717365  48.2938295  30.0551553  54.4027009  47.9720959
  29.1879752  54.1867375  49.0108358  29.3883158  54.5606929  48.3518122
  27.3254432  42.8741774  54.8331530  26.5350507  42.6933234  55.1548866
  27.7215055  42.0968727  54.8161825  27.2671308  42.7329235  54.8784079
  32.7098118  50.5084204  52.5590976  32.0343120  50.2769437  53.0604363
  32.7190494  49.9005387  51.9333081  32.6116623  50.3843130  52.5407129
  29.8392262  45.3502033  59.3155029  29.7751403  46.2111990  59.1875166
  29.9789450  45.0334027  58.5150581  29.8507732  45.4302200  59.1783242
  34.7114853  53.3649337  44.7901154  34.7934690  54.1716323  44.4662605
  35.1964595  53.3845296  45.5141928  34.7952011  53.4869999  44.8488053
  28.5211356  48.0434173  53.4571232  28.0973605  48.2438672  52.7210251
  28.3456211  47.1963021  53.5695532  28.4322237  47.9482954  53.3644922
  28.0223050  59.5584686  55.9192690  28.5118980  58.8595475  55.7368354
  27.4507282  59.2608556  56.5068747  28.0107580  59.4110909  55.9793730
  23.8093801  48.5386224  48.8899205  23.9658420  48.4733027  49.7455197
  24.1494394  49.3134777  48.6777884  23.8827036  48.6435422  48.9853799
  30.3472946  47.9144108  47.7592568  30.8888491  47.4114489  48.2231189
  30.6619505  47.8609302  46.9482053  30.4737343  47.8323529  47.7076380
  34.2190053  52.1246755  64.8719480  35.0324918  51.8531904  65.0324613
  34.0585019  51.8254295  64.0679676  34.3160002  52.0401681  64.7764886
  28.5159395  53.3061459  45.0432596  28.5852216  52.4475998  45.1825596
  29.2947851  53.5233340  44.7151621  28.6412246  53.2114323  45.0149753
  31.4962215  42.8080412  57.8114868  31.7104185  42.1691326  57.2578222
  30.8796114  43.2526236  57.3822730  31.4367544  42.7790556  57.6665300
  32.9066883  55.7299161  49.2569089  32.5146675  55.4265876  48.5391956
  33.0619955  56.5668250  49.0674043  32.8720473  55.8082997  49.1225586
  20.3828063  45.7221175  49.2059972  20.7627027  46.1405720  48.5420239
  19.8083427  46.3034630  49.5128815  20.3539387  45.8699033  49.1536713
  33.6601303  44.4169477  58.7498176  32.8477985  44.1095368  58.8311348
  34.1191238  43.9368478  59.3140888  33.6081688  44.3005970  58.8452770
  33.0706558  52.2949149  49.1975120  32.7121213  52.4663792  49.9739152
  32.5845269  52.7562355  48.6403118  32.9465255  52.3888120  49.2300389
  30.7554811  45.8229549  63.5326878  31.2254442  46.4471665  63.9194752
  30.8016691  45.1546524  64.0920093  30.8322686  45.8164229  63.6726949
  29.9818318  38.4679536  56.0868534  29.5950071  38.4928568  56.8682064
  29.4951255  37.9021215  55.6343051  29.8530827  38.3875287  56.1356438
  34.2311297  53.1853045  60.1442321  34.8691018  52.6913241  59.8104777
  33.5885389  53.1130446  59.5594548  34.2305524  53.1012054  60.0084676
  29.6475459  35.3546522  58.3778794  30.2768577  35.8906822  58.0999864
  29.8161322  35.2623881  59.2292360  29.7653254  35.4207884  58.4627322
  29.4489374  40.1417717  60.6505206  30.2762804  39.8702865  60.7063820
  29.4697220  40.9378558  61.0069024  29.5742224  40.2197471  60.7120389
  34.2865554  53.8772854  56.7847678  35.0757932  53.5261918  56.9049759
  34.4609152  54.6909242  56.5224311  34.4285835  53.9458711  56.7635546
  24.0258864  47.2881579  53.8375466  23.1846871  47.1885454  54.0454360
  24.2348872  48.0577060  54.1889787  23.9323557  47.3873623  53.9202781
  21.5034431  44.9101116  51.6660217  21.1091129  44.9844128  50.8910327
  20.9474548  45.2959063  52.2168579  21.3637243  44.9782891  51.6327877
  27.8375529  45.2162979  53.0873064  27.5338667  44.6618967  53.6883472
  27.1354950  45.3955189  52.6001098  27.6891739  45.1607761  53.1042770
  25.8993880  52.4312699  57.7945162  25.7914235  52.4414761  58.6607220
  26.1089662  53.2567480  57.6050115  25.9143991  52.5553774  57.8949253
  23.9167672  49.6825342  55.2567099  23.3255605  50.3234840  55.2270114
  24.6788696  50.1062959  55.2298399  23.9415933  49.8401180  55.2482246
  24.3128295  40.8427339  55.9235117  24.7729776  40.9166269  56.6610241
  24.3584402  41.6408593  55.5734938  24.3878850  40.9721486  55.9807873
  25.9611645  41.5094034  60.4907144  25.5697210  40.8627381  60.9262922
  26.1297507  42.1005470  61.1101399  25.9282555  41.5008302  60.6469850
  33.6757188  55.1334653  52.6899124  33.4776877  55.6225468  51.9955335
  33.0544899  55.3375895  53.2683257  33.5544753  55.2351192  52.6722347
  27.7365167  46.9019550  47.0309368  28.4807212  47.2893826  47.2692318
  27.8825863  46.0576975  47.1949856  27.8675752  46.8350023  47.0903338
  21.1016073  44.4716530  58.2986833  21.9641686  44.3712239  58.2124163
  20.7707856  43.8911239  57.7372405  21.1801269  44.3708157  58.2032239
  35.5930990  48.6998806  58.2244372  36.3165189  48.2471332  58.0455392
  35.3280953  48.9803471  57.4416700  35.6612263  48.6749774  58.0823087
  24.4617859  43.2958979  54.9597251  23.8370929  43.3077371  54.3523204
  24.1263453  43.7719154  55.6088491  24.3203350  43.3677496  54.9653820
  21.1743534  51.3559439  56.4001016  20.6443459  50.6651878  56.4495990
  21.4468627  51.3469625  55.5713724  21.1368256  51.2526571  56.2848432
  32.2063625  51.9385142  45.1238698  32.9297824  52.4043255  44.9803271
  31.7664216  52.0058751  44.3736295  32.2479317  52.0168978  44.9923480
  31.3749780  48.7982684  56.3739387  30.7606773  48.2540734  56.6688022
  31.8917065  48.2846920  55.8945203  31.3605442  48.6419093  56.3463616
  30.6146077  49.8686954  54.1083686  30.1873685  49.2436672  53.6749121
  30.6071021  49.5861876  54.9342693  30.5505218  49.7339734  54.1663513
  23.7308604  44.9052127  57.1772120  23.8902091  44.1495451  57.5823842
  23.5501498  45.4543066  57.8312857  23.7273963  44.8745941  57.3334826
  31.6728907  37.0713362  57.7322909  31.1769468  37.2677037  57.0414476
  32.4297969  37.4706031  57.5611711  31.7115732  37.1591096  57.6043046
  28.9431787  40.7455708  54.3226220  28.9674274  40.2115821  53.6339000
  29.1943260  40.2373017  54.9851810  28.9841705  40.5916612  54.3190864
  16.4539376  48.0287203  53.7569364  16.3482825  47.9834048  52.8921448
  15.7039596  48.3740984  54.0383649  16.3274979  48.0728111  53.6706694
  25.2233109  39.4726527  53.7031964  25.2631480  39.9735733  54.4166672
  24.3982773  39.5636920  53.4337887  25.1072635  39.5608343  53.7682502
  27.4062722  49.0387267  61.8052259  26.5558352  49.1758981  61.9409904
  27.5690849  48.3051045  62.2499960  27.3046585  48.9501368  61.8907858
  26.6447472  45.9887036  56.0005863  25.8139402  46.1560854  55.7941111
  26.5898989  45.6122987  56.7854748  26.5136887  45.9576768  56.0854391
  24.4531255  39.4795929  61.6362274  25.0783959  38.9358062  61.9091706
  23.9981735  38.9990847  61.0670064  24.4779516  39.3285411  61.5923868
  29.8559694  52.0842589  57.3532816  29.3484785  52.6378436  57.7973446
  29.5586340  52.1450879  56.5351590  29.7364579  52.1748900  57.2981272
  32.0221876  40.4495908  56.1957479  32.4476948  39.9968435  55.5841005
  31.4078869  39.8955979  56.4722266  31.9950522  40.3009885  56.1462504
  21.5536726  47.3277580  47.1278104  22.0628956  47.9242087  47.5089409
  22.0270999  47.0603553  46.4454523  21.6980102  47.3763395  47.0832626
  32.4667474  56.0005846  45.2836759  31.7496784  55.8266709  44.8183997
  33.1174212  55.7658419  44.7512245  32.4569325  55.9401639  45.1365977
  29.1002179  57.0167147  54.2589823  28.8767834  56.2585976  54.6273849
  28.6112023  57.0465168  53.5370262  28.9945628  56.9089372  54.2066564
  23.9127258  43.9633838  49.9951284  23.1939247  44.3797971  50.2624148
  24.2839620  44.5288077  49.4442922  23.8619190  44.1083120  49.9534091
  33.2126839  44.5961687  55.8853280  33.1924766  44.4144982  56.7388059
  33.2606040  45.4673706  55.8612863  33.2161480  44.6978225  56.0076575
  31.1573169  51.1848879  61.8101756  31.1169024  50.5398556  61.2246912
  31.9696487  51.1285497  62.1227168  31.2716322  51.0807846  61.7698706
  27.7480636  57.2367605  51.7126907  27.3341035  56.5741735  51.3230749
  28.4328010  57.3845464  51.1922601  27.7879008  57.1608263  51.5783404
  31.1145930  56.3957690  52.4650524  30.7162214  56.5059961  51.6971344
  30.4997150  56.6039757  53.0477084  30.9644820  56.4431258  52.4381823
  26.8450877  44.8145816  58.3651514  26.3329780  44.2066999  58.7236545
  26.6730374  45.5302408  58.8325490  26.7440514  44.8309115  58.4867738
  21.6916592  43.2583391  61.0153876  21.5219182  43.9184766  60.4702082
  21.2482542  43.4689952  61.7366365  21.6015926  43.3869373  61.0415505
  30.7219948  42.7370060  60.8053770  31.2791378  42.5083870  60.1732235
  30.3981013  43.4975726  60.5288982  30.7566358  42.8153897  60.6710267
  18.5918657  46.1630257  56.2742366  18.0445376  45.4930902  56.3923234
  19.3811035  45.7960105  56.3385833  18.6270840  46.0095243  56.3011066
  28.4403065  45.8237714  61.7705777  29.1914392  46.1389391  62.0845331
  28.6325641  45.6216885  60.9439698  28.5794479  45.8405096  61.6949172
  17.3505626  45.3751064  53.4288389  17.1727387  44.9227673  54.1543304
  17.0624648  46.1777226  53.6126866  17.2818579  45.4273622  53.5631892
  33.0129207  46.6308782  52.6665779  33.5082872  45.9131777  52.6269799
  32.2028983  46.3279579  52.5520266  32.9673100  46.4806428  52.6439505
  28.4587819  50.4806595  44.8162783  27.6499141  50.1573269  44.7696093
  28.9662728  49.7739817  44.7491032  28.4137485  50.3287911  44.7993078
  19.0878096  47.9078788  50.5410148  18.2223615  47.8964479  50.4292919
  19.1876912  47.7209011  51.3881287  18.9752263  47.8784849  50.6499092
  35.0781026  49.3812469  55.3542908  35.5036098  48.8586891  54.8013333
  34.7137946  49.9793307  54.8331531  35.0867629  49.3922696  55.1951917
  24.7135106  57.6776687  54.1140253  25.0281665  58.4913075  54.1218035
  25.1228519  57.2926905  54.7822412  24.8203204  57.7405389  54.2144345
  31.6659625  53.0946734  51.6844065  32.1370804  53.8086996  51.8534050
  32.0019804  52.4945484  52.2203935  31.7854741  53.1118198  51.7876441
  33.7536610  54.7048047  63.8636137  33.8633576  53.9156608  64.2192884
  34.0827507  54.6153983  63.0610475  33.8189016  54.5753900  63.7978528
  28.5829120  37.8674204  58.6402160  28.7157026  37.0705198  58.9683136
  28.9674273  38.3940607  59.2200436  28.6585449  37.8274121  58.7745663
  32.3033572  52.8864668  58.4471758  31.7554518  52.2622551  58.1791823
  32.7646601  53.0758940  57.7315837  32.2900781  52.8223718  58.3022189
  35.1127436  40.9550022  55.8322950  34.5290425  41.4559229  55.4200518
  35.4331730  40.4479578  55.1987273  35.0740611  40.9541857  55.6781457
  26.2417567  37.8633379  56.8880054  26.7861980  37.5224506  57.4784395
  26.2954503  38.7218841  57.0301338  26.3306687  37.9388639  56.9961927
  22.0548126  51.6249795  53.7618862  22.6592983  51.5845629  53.1332682
  21.8475438  52.4720947  53.7922917  22.1137023  51.7437798  53.6734978
  31.8691898  53.8915740  54.9781099  32.6890272  53.7478706  55.2397394
  31.5885976  54.5161939  55.5197537  31.9488641  53.9626092  55.0969038
  17.2899408  50.6084413  53.6317785  17.1923686  49.7980684  53.9407841
  18.0728278  50.5876206  53.2464053  17.3915545  50.4851503  53.6204648
  48.3405548  61.5480592  47.9423975  48.3099553  62.4025229  48.1142245
  48.9386897  61.2475885  48.5010119  48.4242706  61.6297089  48.0498778
  41.5405233  60.6356243  52.6976906  40.6843129  60.7964741  52.7486023
  41.5872887  59.7648307  52.7181967  41.4204345  60.5307045  52.7082972
  35.9246373  70.1718961  48.4614137  35.1729273  69.7934499  48.2330182
  36.3732385  70.2037395  47.7132948  35.8796040  70.1204568  48.3171640
  44.8498950  66.9042769  62.3037362  45.5565717  66.4094799  62.4324296
  45.0386885  67.3451850  61.5740020  44.9826855  66.8961119  62.2146407
  41.3771333  70.5944331  43.8899684  41.0422701  71.2721252  43.4543907
  41.8898203  70.2049642  43.3016556  41.4036914  70.6368909  43.7386476
  40.9175624  72.5458599  49.8310796  41.3015004  73.1145498  49.2915571
  40.8534765  71.8208110  49.3516612  40.9649051  72.5234063  49.6804659
  44.3857054  62.6948287  55.3408557  44.9313014  63.3733374  55.4002527
  44.3273931  62.5535748  54.4810139  44.4572969  62.7740289  55.2220618
  37.5031129  70.1837353  50.7276910  37.6041492  69.3737707  51.0374038
  36.9072874  70.0894300  50.0976588  37.4303668  70.0502381  50.6803148
  46.1622123  64.1232894  46.2142285  46.0461649  64.8740580  46.6434423
  46.9578010  63.8656847  46.4638372  46.2626712  64.1967741  46.3146377
  37.3431869  75.1014942  52.1291766  37.9869324  75.5428106  52.5187924
  37.6688124  74.2968369  52.0422025  37.4863697  75.0480137  52.1737243
  30.6996174  66.2057640  50.3529244  30.4646358  65.3725292  50.2461512
  30.8381814  66.4862305  49.5390444  30.6851836  66.1241143  50.2171599
  32.9986261  58.3743370  53.2513551  32.3791293  57.7836018  53.0823566
  32.8970125  58.9654806  52.6177874  32.8923936  58.3747453  53.1318541
  38.0452449  68.1126917  47.5011628  38.3668290  68.6532125  46.8972936
  38.6924545  67.5423689  47.6333917  38.1878504  68.1086092  47.4318663
  40.0954157  60.1142912  47.5846014  40.7934321  60.2931040  48.0767478
  40.4106489  59.5913251  46.9616404  40.2449494  60.0636684  47.5648024
  32.7255394  61.9195652  55.4957120  32.6014091  62.5058098  56.1306939
  33.3773678  61.4255848  55.7969395  32.8029043  61.9334456  55.6343050
  40.2842092  66.5013357  47.5725806  40.7235727  65.8930458  48.0180579
  40.1346755  66.1220730  46.8011271  40.3263558  66.3551828  47.5244973
  37.7513735  65.0957369  54.7744631  38.3962738  64.6029812  54.4555580
  37.9915512  65.2382156  55.6010710  37.8824320  65.0434811  54.8494165
  40.2899826  67.9412275  54.4251524  40.5723069  67.1463681  54.2038280
  41.0185987  68.4192862  54.4456585  40.4389390  67.8946872  54.3954539
  38.2681020  55.4835309  51.6667289  37.9384350  55.9346452  50.9970988
  37.5926022  55.4051472  52.2140295  38.1191456  55.5386444  51.6490512
  43.8851429  64.8540538  44.5256575  43.8002724  65.7101505  44.6706144
  44.3735812  64.5784863  45.1938734  43.9440326  64.9397860  44.6458657
  44.8169862  61.4725333  46.0254310  44.2881333  61.6884966  46.6851616
  45.3394882  62.1661471  45.9455280  44.8158315  61.6068470  46.1109909
  50.2717915  67.0471637  51.3987355  49.4415618  67.2582281  51.5620771
  50.2227167  66.2208692  51.1229638  50.1424650  66.9561243  51.3824720
  36.7069470  65.3688549  44.8261778  36.1226685  65.8738581  45.2327642
  36.3039565  65.1430936  44.0858370  36.5608773  65.4096798  44.7766803
  32.2613498  71.0843311  51.6285450  31.7781076  71.8093800  51.6045033
  33.0736816  71.3819441  51.7395607  32.3104246  71.2345664  51.6412729
  38.3327652  69.8775491  54.2335264  37.8154594  69.5182906  53.6296572
  39.0302043  69.3537666  54.2441330  38.3593233  69.7473179  54.1465523
  41.9891244  70.3270305  60.1951437  42.0774590  70.1396446  61.0429648
  42.4180957  69.6807735  59.7956284  42.0653347  70.2033313  60.2623189
  39.5561704  69.6101465  59.1769099  38.9932539  69.1974075  59.7008761
  40.3182727  69.5354371  59.5962243  39.5856153  69.5378866  59.3162100
  41.1646684  61.6154201  43.3030699  41.4042688  61.8232185  42.4906042
  41.4862525  60.8111710  43.4119643  41.2483842  61.5268303  43.1991252
  36.4736974  53.5447597  47.1490237  37.2282942  53.9125914  46.9107287
  36.2964509  53.9187152  47.9169416  36.5591453  53.6545785  47.2275125
  35.1157695  71.5999486  51.7805730  35.8178275  71.0851475  51.8378486
  35.0355179  71.9273638  52.5852605  35.2081456  71.5713713  51.9078522
  49.7671873  59.6942038  55.1937776  48.9300294  59.7644225  55.4285370
  49.7360104  59.6966533  54.3212078  49.6390155  59.7052265  55.0997324
  36.1636602  61.8375073  60.9086145  36.3357106  61.7280968  61.7571426
  36.7005960  62.4829479  60.6717337  36.2681606  61.9167075  60.9991241
  34.8294039  55.9517916  43.8468350  34.6469612  56.1689797  43.0209342
  35.6919652  56.0656929  43.9026964  34.9298628  56.0007814  43.7322837
  34.4408471  67.7905838  51.2891338  35.2797370  68.0228771  51.3365099
  34.4720240  66.9210150  51.2198373  34.5690188  67.6962785  51.2855982
  35.0661174  68.2106714  55.5904643  35.6059399  68.0677845  56.2608015
  34.3831120  68.6103464  55.9588669  35.0453328  68.2486385  55.7439065
  44.4902059  63.8897714  50.7849667  45.2459574  64.3229229  50.8238576
  44.5964383  63.2402484  51.3584303  44.6172229  63.8575198  50.8747693
  47.5282230  67.7170992  51.5352070  47.0917462  67.7207734  52.2911042
  47.1945145  68.3976490  51.1031648  47.4144850  67.8183447  51.5832903
  42.1011303  69.7579324  62.8595221  42.8851720  69.8710172  63.2250963
  41.9007898  68.9320461  63.0553907  42.1877329  69.6526044  62.9429607
  30.4698319  64.4307004  55.7439065  30.2036734  63.6146121  55.9030055
  30.4836883  64.4760160  54.8734580  30.4323041  64.3163909  55.6392547
  47.4479713  54.7584819  53.7781498  48.0905621  54.8282924  54.3643414
  47.7002733  54.0914042  53.2761040  47.5801845  54.6711168  53.7908778
  34.3756066  59.2292089  42.3590823  33.6614243  58.9430268  42.7713255
  34.8600035  59.5688715  42.9997210  34.3415429  59.2373738  42.5146458
  35.2196925  57.9685383  58.3906072  34.5268722  57.4982362  58.6366804
  35.8357253  57.7423687  58.9647779  35.2081455  57.8652515  58.5115225
  42.2581697  71.6689426  56.5061676  41.4596943  71.4288926  56.7635545
  42.7067708  71.7203819  57.2528724  42.2056308  71.6411818  56.6546601
  50.6626576  64.4351911  50.4271708  51.3243010  63.8742580  50.3267616
  50.0217988  63.9403942  50.7524399  50.6655444  64.2788320  50.4604048
  41.5503384  67.7322043  42.7352631  41.9654532  67.4007067  42.0437127
  40.7195313  67.4990945  42.6072768  41.4891393  67.6493299  42.6143478
  30.8791733  65.2165784  53.0250809  30.6967306  65.1912670  52.1723101
  31.6141402  65.6864722  53.0639718  30.9605796  65.2827146  52.9048727
  46.9491407  65.4517294  50.1683696  47.1846996  65.5962493  49.3410547
  47.0980970  66.2159702  50.5615210  47.0057210  65.5856348  50.1047300
  33.9437484  61.9350787  59.5332918  34.6677457  61.9203817  60.0197812
  34.0453621  62.6446142  59.0354886  34.0655693  62.0375490  59.5311704
  48.7781864  64.2918960  48.0053300  49.1090081  64.8246600  47.3993395
  49.3514952  64.3457847  48.6615251  48.9115543  64.3788529  48.0131082
  41.3182434  65.4149871  64.3981865  40.5255414  65.7293383  64.5834484
  41.4331361  65.6301340  63.5602649  41.2177844  65.4933708  64.3020199
  43.9913753  62.1383862  48.6876880  44.0860607  62.8773157  49.1416506
  43.3672596  61.7101338  49.1211445  43.9122783  62.1845183  48.8185028
  42.2466226  65.3170075  59.3367161  42.8205088  64.6797319  59.4915725
  42.1681030  65.3174157  58.4676819  42.3199461  65.2235186  59.2313572
  30.8462643  62.0959285  53.1749875  31.4236146  61.9595735  53.8142121
  30.1476705  61.6395069  53.4295460  30.8283664  62.0081551  53.3072165
  44.2436774  63.9832602  41.9213832  44.1616936  64.0534789  42.7868819
  44.8816494  64.5462346  41.7297573  44.3256611  64.0771573  42.0203782
  37.6029945  63.7493340  51.3888359  37.3449189  62.9165075  51.3619658
  37.6578428  63.9750953  50.5480859  37.5729723  63.6591111  51.2608495
  36.5764657  61.3031103  51.8753253  36.0014249  61.4623271  52.5117214
  36.2000334  60.6666512  51.4121704  36.4367470  61.2328916  51.9007812
  40.2437946  59.7754452  56.7345632  39.8552379  59.3508670  56.0797823
  39.5792644  60.0236602  57.2422658  40.0884874  59.7493173  56.7133500
  49.8861215  59.5329457  49.5093462  49.6297780  58.7209398  49.3191345
  50.7290529  59.5407024  49.2823649  49.9727240  59.4141454  49.4478279
  26.3221476  60.9471177  49.8897694  26.4081728  60.5703046  50.6711224
  26.9497274  60.5731623  49.4117652  26.4278027  60.8356660  49.9343171
  44.0664307  53.4729081  54.2469616  44.4474819  52.7907252  54.6337490
  43.2627592  53.1838683  54.0645281  44.0040769  53.3296129  54.2773672
  41.3476884  64.0053057  44.9322439  42.1617523  64.2967949  44.8205210
  41.2836025  63.3512919  44.3580732  41.4579623  63.9518251  44.8311276
  47.5686374  66.6879053  59.3452014  47.3325012  65.8567117  59.2264075
  48.2129603  66.6364660  59.9306859  47.6281045  66.5576741  59.4137908
  37.2184792  67.4774574  50.0594751  37.8558739  67.2386321  50.6046544
  37.6439864  67.6811733  49.3247912  37.3760959  67.4725584  50.0311908
  31.9097435  69.7162910  53.9429055  31.9501580  69.9877762  53.1148834
  32.4691959  70.2404819  54.3586843  31.9980781  69.8338666  53.8820943
  37.8587607  62.6976864  44.3969640  38.2432760  62.4784570  45.1486185
  37.6099228  63.5239809  44.5270717  37.8789680  62.7875010  44.5270717
  38.0256148  55.9783279  64.1132225  37.7109589  56.7482842  63.8501787
  37.7046080  55.4153535  63.5284451  37.9315067  56.0093548  63.9873574
  48.5922795  66.4723501  55.4080309  48.2868612  67.2051558  55.7693625
  47.8729011  66.0661431  55.1273095  48.4410137  66.5205234  55.4193446
  39.6006264  67.9546997  51.7388537  39.6745273  67.7922168  52.5930387
  40.4175771  68.1437186  51.4949019  39.7322623  67.9583739  51.8286563
  54.2924587  63.1116502  54.7348653  54.2249087  63.1312461  53.8651240
  54.2780250  63.9546829  54.9604324  54.2803344  63.2390237  54.6401130
  33.3612021  68.3004859  48.7682981  32.5350139  68.5466597  48.6417259
  33.4224012  68.2216940  49.6345039  33.2486188  68.3249808  48.8771925
  35.5788045  54.3673800  49.7278421  34.7110470  54.4396400  49.7936030
  35.8663249  55.1695879  49.9166396  35.4927793  54.4967947  49.7653187
  44.7020934  54.5151660  58.0589743  45.4474526  54.3261470  57.6453168
  44.2858238  55.0409898  57.5003599  44.7505908  54.5653805  57.9154316
  38.1410850  70.9181740  46.4702011  38.4309148  70.5270721  45.7461237
  38.8714331  71.0998445  46.9107286  38.2917734  70.8875553  46.4284818
  52.0783204  61.8860888  53.0095248  52.6291126  61.2528957  53.2492340
  52.0627320  62.4176281  53.7010752  52.1568401  61.8709836  53.1474106
  38.7305595  65.7199486  57.5555141  38.2317289  66.4315253  57.6340030
  39.5405820  66.0400152  57.5173303  38.7761702  65.8726334  57.5611710
  36.0816766  72.8949122  49.5362160  35.8617061  72.6046477  50.3288827
  35.8611288  72.2364077  49.0080073  36.0164360  72.7548830  49.5751069
  34.9933713  64.9822439  51.8017862  34.7046961  64.3559910  52.3363589
  35.8617061  64.9242726  51.8682542  35.0793965  64.8809983  51.8908817
  45.7811611  60.1257222  52.1199844  45.4376377  59.4047557  52.4707094
  45.8804653  59.9171073  51.2778202  45.7453653  59.9881425  52.0471524
  38.2484721  74.2678512  48.3192853  38.9008779  73.7354954  48.5483879
  37.5510330  73.9147164  48.7060727  38.2415439  74.1368035  48.4105020
  35.1965986  66.6217690  47.7260227  35.9511954  67.0030729  47.9395690
  34.6036599  67.0728833  48.1806924  35.2202700  66.7446517  47.8243105
  46.2424640  66.5882926  47.6623832  46.8082672  67.2476136  47.5782375
  45.5952543  66.9332624  48.1340234  46.2303396  66.7364867  47.7196588
  37.6572653  58.5780530  62.8517439  36.8472429  58.8838310  62.7407282
  38.1347340  59.2986112  62.9670023  37.6076132  58.7295131  62.8524510
  36.5164213  67.7926251  53.1000342  35.9944966  67.9326543  53.7852207
  36.9038233  67.0336915  53.2902460  36.4967914  67.7011775  53.2301419
  33.5055397  57.8432060  47.1695297  33.2180193  57.4733330  46.4327244
  34.1925865  58.3126915  46.9079002  33.5644294  57.8579029  47.0210373
  42.7131218  69.5321710  47.0860911  42.4717894  68.7989571  46.6787976
  42.8932551  70.0808567  46.4327244  42.7038842  69.5044101  46.9291134
  37.9430538  64.8230270  48.4981833  37.7473321  65.4305005  47.9042136
  38.1664884  64.1298214  48.0173507  37.9465179  64.8107796  48.3397914
  36.3409068  61.7085008  48.6162702  37.0631720  61.8726166  48.1566508
  35.8617061  62.4294673  48.5102042  36.3772799  61.8383237  48.5328316
  44.3002576  58.0448807  53.9959387  43.4613677  58.0710086  53.7597650
  44.3706943  58.6919542  54.5764733  44.1870970  58.1444933  54.0468504
  33.9916685  64.1143080  57.7216842  34.5037782  64.3927334  57.0725601
  33.7053028  64.8532374  58.0879655  34.0251548  64.2645434  57.6806720
  48.1760100  63.2516793  51.2820629  48.0894074  63.4072220  52.1355407
  47.7210580  63.8954869  50.9080034  48.0963357  63.3692549  51.3527735
  31.0783591  58.6213272  48.0180578  31.1799728  59.4239434  48.3461554
  31.8739478  58.4200608  47.7203659  31.2111497  58.7099171  48.0215934
  37.5100411  56.2069469  57.7817883  37.3183608  56.2224603  58.6317307
  38.3599007  56.4033143  57.7584538  37.6076133  56.2383820  57.9041178
  31.8947324  58.7360450  55.7601700  31.7532815  57.8844391  55.8846208
  32.1787887  58.7789111  54.9363906  31.9155170  58.6160200  55.6569324
  42.0485916  60.5727541  49.9046188  41.8020630  60.4923291  50.7382977
  42.3771039  59.7881008  49.7108716  42.0607160  60.4453806  49.9993711
  45.9433965  67.2810900  53.6932969  45.8048324  67.9791946  54.1981712
  45.1633963  67.1259556  53.3369151  45.8077192  67.3611067  53.7159243
  44.2812050  63.5807275  59.9455351  44.2760088  62.7087092  59.9497777
  44.9873044  63.7795444  59.4724807  44.3857054  63.4811149  59.8762386
  38.0082943  63.3084259  59.3169171  38.1526319  63.8885467  58.6812281
  38.3558592  63.6860556  60.0219026  38.0810405  63.4504963  59.3268166
  40.1802861  62.5074428  57.0994303  39.4326175  62.7005442  56.6942581
  40.3344386  61.6819647  56.8618424  40.0925288  62.4139539  57.0039709
  37.0810698  71.4987031  56.1830198  37.2300262  70.9389947  55.5303602
  37.8610700  71.5779033  56.5662717  37.2184792  71.4272596  56.1427147
  47.4387338  66.6389154  44.4549468  47.0594146  65.8526292  44.4478758
  46.7753583  67.1876011  44.3121113  47.2845812  66.6033978  44.4330265
  39.6063999  71.6701674  57.4614689  39.5307670  71.0010484  58.0165477
  39.5353858  72.3719462  57.9755355  39.5844606  71.6746581  57.6191537
  40.4204638  56.4024978  57.9889706  40.8777252  57.1348953  58.1162499
  40.4960966  55.9791444  58.7476962  40.4995607  56.4482216  58.1190783
  32.6637629  56.6490798  59.0779150  32.1279818  56.0371156  59.3939917
  32.7255394  57.2238934  59.7312817  32.5933261  56.6437726  59.2214577
  40.2634246  70.1902673  48.2938295  41.0284137  69.9212316  47.9720959
  40.1612336  69.7052683  49.0108358  40.3615741  70.0792237  48.3518122
  38.2987016  58.3927082  54.8331530  37.5083090  58.2118542  55.1548866
  38.6947638  57.6154035  54.8161825  38.2403892  58.2514543  54.8784079
  42.7852906  67.2214857  40.2738244  43.5525891  67.2814981  39.8644096
  42.3384215  66.6495298  39.7894563  42.8326334  67.1451432  40.1415954
  43.6830702  66.0269512  52.5590976  43.0075704  65.7954745  53.0604363
  43.6923078  65.4190695  51.9333081  43.5849206  65.9028438  52.5407129
  40.8124846  60.8687341  59.3155029  40.7483987  61.7297298  59.1875166
  40.9522034  60.5519335  58.5150581  40.8240316  60.9487508  59.1783242
  45.6847436  68.8834645  44.7901154  45.7667274  69.6901631  44.4662605
  46.1697179  68.9030604  45.5141928  45.7684594  69.0055307  44.8488053
  39.4943940  63.5619481  53.4571232  39.0706189  63.7623980  52.7210251
  39.3188795  62.7148329  53.5695532  39.4054820  63.4668262  53.3644922
  38.9955633  75.0769994  55.9192690  39.4851563  74.3780783  55.7368354
  38.4239865  74.7793864  56.5068747  38.9840163  74.9296217  55.9793730
  34.7826385  64.0571532  48.8899205  34.9391004  63.9918335  49.7455197
  35.1226978  64.8320085  48.6777884  34.8559620  64.1620730  48.9853799
  41.3205529  63.4329416  47.7592568  41.8621075  62.9299797  48.2231189
  41.6352088  63.3794610  46.9482053  41.4469926  63.3508837  47.7076380
  45.1922637  67.6432063  64.8719480  46.0057502  67.3717212  65.0324613
  45.0317603  67.3439603  64.0679676  45.2892585  67.5586989  64.7764886
  39.4891979  68.8246767  45.0432596  39.5584799  67.9661306  45.1825596
  40.2680434  69.0418648  44.7151621  39.6144829  68.7299631  45.0149753
  42.4694799  58.3265720  57.8114868  42.6836768  57.6876634  57.2578222
  41.8528698  58.7711544  57.3822730  42.4100128  58.2975864  57.6665300
  43.8799467  71.2484468  49.2569089  43.4879258  70.9451184  48.5391956
  44.0352539  72.0853558  49.0674043  43.8453056  71.3268305  49.1225586
  31.3560646  61.2406483  49.2059972  31.7359611  61.6591027  48.5420239
  30.7816011  61.8219938  49.5128815  31.3271971  61.3884341  49.1536713
  44.6333887  59.9354785  58.7498176  43.8210568  59.6280676  58.8311348
  45.0923821  59.4553785  59.3140888  44.5814271  59.8191278  58.8452770
  44.0439141  67.8134457  49.1975120  43.6853796  67.9849100  49.9739152
  43.5577852  68.2747663  48.6403118  43.9197838  67.9073428  49.2300389
  38.8327507  63.4933623  41.7375354  39.1220032  64.2698505  42.0118929
  38.9199306  62.9822354  42.4389854  38.8881763  63.5325541  41.8817852
  41.7287394  61.3414857  63.5326878  42.1987025  61.9656973  63.9194752
  41.7749274  60.6731832  64.0920093  41.8055270  61.3349537  63.6726949
  40.9550901  53.9864844  56.0868534  40.5682654  54.0113876  56.8682064
  40.4683839  53.4206523  55.6343051  40.8263410  53.9060595  56.1356438
  45.2043881  68.7038353  60.1442321  45.8423601  68.2098549  59.8104777
  44.5617972  68.6315754  59.5594548  45.2038107  68.6197362  60.0084676
  46.9300881  60.5527499  54.7108236  46.5028489  60.4653848  53.9556336
  46.2926934  60.6605275  55.2963080  46.7730488  60.5560159  54.6853678
  40.6208043  50.8731830  58.3778794  41.2501161  51.4092130  58.0999864
  40.7893906  50.7809189  59.2292360  40.7385838  50.9393192  58.4627322
  40.4221958  55.6603025  60.6505206  41.2495387  55.3888173  60.7063820
  40.4429804  56.4563866  61.0069024  40.5474808  55.7382779  60.7120389
  45.2598137  69.3958162  56.7847678  46.0490515  69.0447226  56.9049759
  45.4341735  70.2094550  56.5224311  45.4018419  69.4644019  56.7635546
  34.9991448  62.8066887  53.8375466  34.1579454  62.7070761  54.0454360
  35.2081456  63.5762368  54.1889787  34.9056140  62.9058931  53.9202781
  32.4767015  60.4286424  51.6660217  32.0823712  60.5029436  50.8910327
  31.9207132  60.8144371  52.2168579  32.3369827  60.4968199  51.6327877
  38.8108113  60.7348286  53.0873064  38.5071250  60.1804275  53.6883472
  38.1087533  60.9140496  52.6001098  38.6624322  60.6793069  53.1042770
  37.8674210  58.0448806  47.6517766  38.1433944  57.3267719  47.2395333
  38.4672879  58.6433726  47.4438872  37.9967474  58.0269177  47.5598527
  36.8726464  67.9498007  57.7945162  36.7646818  67.9600069  58.6607220
  37.0822245  68.7752788  57.6050115  36.8876575  68.0739082  57.8949253
  41.3684730  55.7162324  45.9264361  41.8228477  55.8872884  46.6512205
  41.8424776  55.1030434  45.5262136  41.5053050  55.6513209  45.9738122
  34.8900256  65.2010650  55.2567099  34.2988189  65.8420148  55.2270114
  35.6521279  65.6248267  55.2298399  34.9148516  65.3586488  55.2482246
  35.2860878  56.3612647  55.9235117  35.7462360  56.4351577  56.6610241
  35.3316985  57.1593901  55.5734938  35.3611434  56.4906794  55.9807873
  36.9344228  57.0279342  60.4907144  36.5429793  56.3812689  60.9262922
  37.1030091  57.6190778  61.1101399  36.9015138  57.0193610  60.6469850
  51.0090677  65.0316419  56.2544378  51.0673801  65.4803068  57.0004354
  50.3757145  65.4415232  55.8174458  50.9241972  65.1590154  56.2996926
  44.6489772  70.6519961  52.6899124  44.4509460  71.1410776  51.9955335
  44.0277483  70.8561203  53.2683257  44.5277336  70.7536499  52.6722347
  38.7097750  62.4204858  47.0309368  39.4539795  62.8079134  47.2692318
  38.8558446  61.5762283  47.1949856  38.8408335  62.3535331  47.0903338
  41.6975626  57.9930331  52.9303287  41.2235580  57.4672093  53.4408598
  42.0693762  57.4459804  52.3618149  41.6825515  57.8346328  52.9218435
  32.0748656  59.9901838  58.2986833  32.9374269  59.8897547  58.2124163
  31.7440439  59.4096547  57.7372405  32.1533853  59.8893465  58.2032239
  47.9612357  63.0532707  54.3410068  47.7210579  62.2139122  54.3452494
  48.4404364  63.1332874  55.0650841  47.9964540  62.9414107  54.4484870
  43.6259126  58.8866886  45.9929041  43.0982144  58.9695630  45.3034750
  44.0854834  59.6284757  45.9893686  43.6160976  59.0087548  45.8903736
  49.9617544  59.8334164  52.2939327  49.7227314  59.7929998  51.4560112
  50.1251445  60.6805316  52.4205048  49.9507847  59.9526249  52.1892809
  46.5663574  64.2184113  58.2244372  47.2897773  63.7656640  58.0455392
  46.3013536  64.4988779  57.4416700  46.6344847  64.1935082  58.0823087
  35.4350442  58.8144287  54.9597251  34.8103512  58.8262679  54.3523204
  35.0996037  59.2904462  55.6088491  35.2935934  58.8862804  54.9653820
  35.6192191  57.1569406  41.0169936  35.2704995  57.8089131  41.4801486
  35.1388637  57.1426519  40.2893807  35.4962435  57.2512459  40.9781028
  32.1476118  66.8744747  56.4001016  31.6176042  66.1837186  56.4495990
  32.4201211  66.8654932  55.5713724  32.1100840  66.7711879  56.2848432
  43.1796208  67.4570449  45.1238698  43.9030407  67.9228562  44.9803271
  42.7396799  67.5244059  44.3736295  43.2211900  67.5354286  44.9923480
  42.3482363  64.3167992  56.3739387  41.7339356  63.7726042  56.6688022
  42.8649648  63.8032228  55.8945203  42.3338026  64.1604401  56.3463616
  41.5878660  65.3872262  54.1083686  41.1606268  64.7621980  53.6749121
  41.5803605  65.1047184  54.9342693  41.5237802  65.2525042  54.1663513
  34.7041188  60.4237435  57.1772120  34.8634674  59.6680759  57.5823842
  34.5234081  60.9728374  57.8312857  34.7006547  60.3931249  57.3334826
  42.6461491  52.5898670  57.7322909  42.1502052  52.7862345  57.0414476
  43.4030553  52.9891339  57.5611711  42.6848315  52.6776404  57.6043046
  39.9164370  56.2641016  54.3226220  39.9406857  55.7301129  53.6339000
  40.1675844  55.7558325  54.9851810  39.9574289  56.1101920  54.3190864
  27.4271960  63.5472511  53.7569364  27.3215409  63.5019356  52.8921448
  26.6772180  63.8926292  54.0383649  27.3007563  63.5913419  53.6706694
  36.1965692  54.9911835  53.7031964  36.2364064  55.4921041  54.4166672
  35.3715357  55.0822228  53.4337887  36.0805218  55.0793651  53.7682502
  38.3795305  64.5572575  61.8052259  37.5290936  64.6944289  61.9409904
  38.5423433  63.8236353  62.2499960  38.2779169  64.4686676  61.8907858
  37.6180056  61.5072344  56.0005863  36.7871985  61.6746162  55.7941111
  37.5631573  61.1308295  56.7854748  37.4869471  61.4762076  56.0854391
  35.4263839  54.9981237  61.6362274  36.0516542  54.4543370  61.9091706
  34.9714319  54.5176155  61.0670064  35.4512100  54.8470719  61.5923868
  35.9916100  59.7827936  46.5295981  36.1319061  60.2800400  47.2324622
  36.4898632  59.0814230  46.6710194  36.0857180  59.7529915  46.6547560
  36.0216322  60.6495047  43.8588558  36.6561401  61.2455472  43.7938019
  36.1041933  60.3498505  44.6734428  36.1272873  60.6935955  43.9691644
  48.9998888  63.1810524  56.7274922  49.5916728  63.8207775  56.7593120
  49.4357882  62.4833561  57.0166989  49.1517319  63.1728875  56.7755754
  37.5995305  56.5809022  43.8334000  37.9211146  56.1012105  43.1793262
  37.8622249  57.3908668  43.6424811  37.6861330  56.6298920  43.7089492
  40.8292278  67.6027897  57.3532816  40.3217369  68.1563744  57.7973446
  40.5318924  67.6636187  56.5351590  40.7097163  67.6934208  57.2981272
  42.9954460  55.9681216  56.1957479  43.4209531  55.5153743  55.5841005
  42.3811453  55.4141287  56.4722266  42.9683105  55.8195193  56.1462504
  32.5269310  62.8462888  47.1278104  33.0361539  63.4427395  47.5089409
  33.0003582  62.5788861  46.4454523  32.6712686  62.8948703  47.0832626
  43.4400058  71.5191154  45.2836759  42.7229368  71.3452017  44.8183997
  44.0906795  71.2843727  44.7512245  43.4301908  71.4586947  45.1365977
  46.0248029  60.3955743  49.0278064  45.3539219  60.9385445  48.8991130
  46.7187779  60.8650598  48.7859759  46.0276897  60.5454014  48.9733592
  40.0734763  72.5352455  54.2589823  39.8500417  71.7771284  54.6273849
  39.5844606  72.5650476  53.5370262  39.9678212  72.4274679  54.2066564
  46.1876157  56.8511627  51.9368438  46.5403767  56.4241349  52.6114236
  45.3290958  56.7662470  52.0669514  46.1125601  56.7756367  52.0563448
  34.8859842  59.4819146  49.9951284  34.1671831  59.8983279  50.2624148
  35.2572204  60.0473385  49.4442922  34.8351773  59.6268428  49.9534091
  44.1859422  60.1146995  55.8853280  44.1657350  59.9330290  56.7388059
  44.2338623  60.9859014  55.8612863  44.1894063  60.2163533  56.0076575
  42.1305752  66.7034187  61.8101756  42.0901607  66.0583864  61.2246912
  42.9429070  66.6470805  62.1227168  42.2448906  66.5993154  61.7698706
  38.7213220  72.7552913  51.7126907  38.3073618  72.0927043  51.3230749
  39.4060594  72.9030772  51.1922601  38.7611591  72.6793571  51.5783404
  42.0878514  71.9142998  52.4650524  41.6894797  72.0245269  51.6971344
  41.4729733  72.1225065  53.0477084  41.9377403  71.9616566  52.4381823
  40.6606416  58.5217146  45.3324664  40.0671255  58.8434143  44.7809231
  40.6981694  57.6758242  45.1245770  40.5780805  58.4441474  45.2207435
  43.5364233  58.4796651  48.7626414  43.3077926  58.5029352  47.9204772
  43.7962309  57.6554118  48.8821424  43.5410421  58.3612731  48.6551611
  37.8183461  60.3331124  58.3651514  37.3062364  59.7252307  58.7236545
  37.6462957  61.0487716  58.8325490  37.7173098  60.3494423  58.4867738
  32.6649176  58.7768699  61.0153876  32.4951766  59.4370074  60.4702082
  32.2215126  58.9875260  61.7366365  32.5748509  58.9054681  61.0415505
  36.5908995  57.0173197  50.0580609  37.0666361  57.3790277  49.4230791
  36.0897595  57.6729665  50.3380752  36.5874354  57.1667386  50.0057350
  49.8220357  66.4894965  45.8493614  50.2053962  67.2386321  46.0791711
  49.0264470  66.7360785  45.5905604  49.7614139  66.6364659  45.8451188
  41.6952531  58.2555368  60.8053770  42.2523961  58.0269178  60.1732235
  41.3713596  59.0161034  60.5288982  41.7298941  58.3339205  60.6710267
  29.5651240  61.6815565  56.2742366  29.0177960  61.0116210  56.3923234
  30.3543618  61.3145412  56.3385833  29.6003424  61.5280551  56.3011066
  39.4135649  61.3423022  61.7705777  40.1646976  61.6574698  62.0845331
  39.6058225  61.1402193  60.9439698  39.5527063  61.3590403  61.6949172
  38.6335648  59.1614397  43.4253993  39.0134613  59.1794026  42.6405108
  37.8928244  59.6068386  43.3044841  38.5804486  59.2296171  43.2917562
  46.2620939  57.4696588  49.0129572  46.2615165  57.3145245  49.8713848
  46.0577119  58.3159575  48.9570958  46.2320717  57.5717209  49.1317511
  28.3238210  60.8936372  53.4288389  28.1459971  60.4412981  54.1543304
  28.0357232  61.6962534  53.6126866  28.2551163  60.9458930  53.5631892
  43.9861791  62.1494090  52.6665779  44.4815456  61.4317085  52.6269799
  43.1761566  61.8464887  52.5520266  43.9405684  61.9991736  52.6439505
  39.4320402  65.9991903  44.8162783  38.6231725  65.6758577  44.7696093
  39.9395311  65.2925125  44.7491032  39.3870069  65.8473219  44.7993078
  30.0610680  63.4264096  50.5410148  29.1956199  63.4149787  50.4292919
  30.1609495  63.2394319  51.3881287  29.9484846  63.3970157  50.6499092
  46.0513610  64.8997777  55.3542908  46.4768681  64.3772199  54.8013333
  45.6870529  65.4978615  54.8331531  46.0600212  64.9108004  55.1951917
  35.6867689  73.1961995  54.1140253  36.0014248  74.0098383  54.1218035
  36.0961103  72.8112213  54.7822412  35.7935787  73.2590697  54.2144345
  42.6392209  68.6132041  51.6844065  43.1103387  69.3272304  51.8534050
  42.9752388  68.0130792  52.2203935  42.7587324  68.6303506  51.7876441
  44.7269194  70.2233355  63.8636137  44.8366159  69.4341915  64.2192884
  45.0560090  70.1339291  63.0610475  44.7921599  70.0939208  63.7978528
  39.5561704  53.3859512  58.6402160  39.6889610  52.5890505  58.9683136
  39.9406857  53.9125915  59.2200436  39.6318033  53.3459429  58.7745663
  43.2766155  68.4049976  58.4471758  42.7287101  67.7807859  58.1791823
  43.7379184  68.5944248  57.7315837  43.2633365  68.3409026  58.3022189
  46.0860020  56.4735330  55.8322950  45.5023009  56.9744537  55.4200518
  46.4064314  55.9664886  55.1987273  46.0473195  56.4727165  55.6781457
  38.6254819  55.3875925  46.1081625  39.4470513  55.5574238  45.8663320
  38.1624470  55.5423186  45.3847923  38.6785981  55.4357658  45.9653269
  37.2150151  53.3818687  56.8880054  37.7594564  53.0409814  57.4784395
  37.2687087  54.2404149  57.0301338  37.3039270  53.4573947  56.9961927
  33.0280710  67.1435103  53.7618862  33.6325567  67.1030937  53.1332682
  32.8208022  67.9906255  53.7922917  33.0869607  67.2623106  53.6734978
  42.8424482  69.4101048  54.9781099  43.6622855  69.2664014  55.2397394
  42.5618559  70.0347247  55.5197537  42.9221225  69.4811400  55.0969038
  28.2631992  66.1269721  53.6317785  28.1656270  65.3165992  53.9407841
  29.0460862  66.1061514  53.2464053  28.3648128  66.0036811  53.6204648
  59.3138132  77.0665900  47.9423975  59.2832136  77.9210537  48.1142245
  59.9119481  76.7661193  48.5010119  59.3975290  77.1482397  48.0498778
  52.5137817  76.1541551  52.6976906  51.6575712  76.3150049  52.7486023
  52.5605471  75.2833615  52.7181967  52.3936928  76.0492353  52.7082972
  55.3589638  78.2133595  55.3408557  55.9045598  78.8918682  55.4002527
  55.3006514  78.0721056  54.4810139  55.4305552  78.2925597  55.2220618
  57.1354707  79.6418202  46.2142285  57.0194232  80.3925888  46.6434423
  57.9310593  79.3842155  46.4638372  57.2359296  79.7153049  46.3146377
  43.9718845  73.8928678  53.2513551  43.3523876  73.3021326  53.0823566
  43.8702708  74.4840113  52.6177874  43.8656520  73.8932761  53.1318541
  49.0185032  83.6312225  47.5011628  49.3400873  84.1717432  46.8972936
  49.6657129  83.0608996  47.6333917  49.1611087  83.6271400  47.4318663
  51.0686740  75.6328220  47.5846014  51.7666905  75.8116348  48.0767478
  51.3839073  75.1098559  46.9616404  51.2182077  75.5821992  47.5648024
  43.6987978  77.4380960  55.4957120  43.5746674  78.0243405  56.1306939
  44.3506262  76.9441156  55.7969395  43.7761627  77.4519764  55.6343050
  51.2574676  82.0198665  47.5725806  51.6968311  81.4115766  48.0180579
  51.1079338  81.6406038  46.8011271  51.2996141  81.8737136  47.5244973
  48.7246319  80.6142677  54.7744631  49.3695321  80.1215120  54.4555580
  48.9648096  80.7567464  55.6010710  48.8556904  80.5620119  54.8494165
  51.2632410  83.4597583  54.4251524  51.5455653  82.6648989  54.2038280
  51.9918570  83.9378170  54.4456585  51.4121974  83.4132180  54.3954539
  49.2413604  71.0020617  51.6667289  48.9116934  71.4531760  50.9970988
  48.5658606  70.9236780  52.2140295  49.0924040  71.0571752  51.6490512
  54.8584012  80.3725846  44.5256575  54.7735307  81.2286813  44.6706144
  55.3468395  80.0970170  45.1938734  54.9172909  80.4583168  44.6458657
  56.4490012  66.9906140  49.9116900  56.1343453  67.6809618  50.3437322
  55.9316953  66.9350922  49.2102400  56.3254482  67.0841028  49.8713849
  55.7902445  76.9910641  46.0254310  55.2613917  77.2070274  46.6851616
  56.3127465  77.6846779  45.9455280  55.7890898  77.1253777  46.1109909
  47.6802053  80.8873857  44.8261778  47.0959268  81.3923889  45.2327642
  47.2772148  80.6616244  44.0858370  47.5341357  80.9282106  44.7766803
  52.1379268  77.1339509  43.3030699  52.3775271  77.3417493  42.4906042
  52.4595109  76.3297018  43.4119643  52.2216425  77.0453611  43.1991252
  47.4469558  69.0632905  47.1490237  48.2015526  69.4311222  46.9107287
  47.2697092  69.4372460  47.9169416  47.5324036  69.1731093  47.2275125
  60.7404457  75.2127346  55.1937776  59.9032878  75.2829533  55.4285370
  60.7092687  75.2151840  54.3212078  60.6122739  75.2237573  55.0997324
  47.1369186  77.3560381  60.9086145  47.3089689  77.2466276  61.7571426
  47.6738543  78.0014787  60.6717337  47.2414190  77.4352383  60.9991241
  45.8026622  71.4703224  43.8468350  45.6202196  71.6875105  43.0209342
  46.6652235  71.5842237  43.9026964  45.9031212  71.5193122  43.7322837
  51.4826342  68.4729635  46.8817373  52.2112502  68.2945590  46.4355530
  51.5721235  69.3147715  47.0924552  51.6033004  68.5713513  46.8470891
  55.4634642  79.4083022  50.7849667  56.2192157  79.8414537  50.8238576
  55.5696967  78.7587792  51.3584303  55.5904813  79.3760506  50.8747693
  41.4430903  79.9492312  55.7439065  41.1769318  79.1331429  55.9030055
  41.4569467  79.9945468  54.8734580  41.4055625  79.8349217  55.6392547
  58.4212296  70.2770127  53.7781498  59.0638205  70.3468232  54.3643414
  58.6735317  69.6099350  53.2761040  58.5534428  70.1896476  53.7908778
  45.3488649  74.7477397  42.3590823  44.6346827  74.4615576  42.7713255
  45.8332618  75.0874023  42.9997210  45.3148013  74.7559046  42.5146458
  46.1929509  73.4870691  58.3906072  45.5001306  73.0167670  58.6366804
  46.8089836  73.2608995  58.9647779  46.1814039  73.3837822  58.5115225
  52.5235967  83.2507351  42.7352631  52.9387116  82.9192375  42.0437127
  51.6927897  83.0176253  42.6072768  52.4623976  83.1678607  42.6143478
  41.8524316  80.7351092  53.0250809  41.6699889  80.7097978  52.1723101
  42.5873985  81.2050030  53.0639718  41.9338380  80.8012454  52.9048727
  57.9223990  80.9702602  50.1683696  58.1579580  81.1147801  49.3410547
  58.0713554  81.7345010  50.5615210  57.9789794  81.1041656  50.1047300
  44.9170068  77.4536095  59.5332918  45.6410040  77.4389125  60.0197812
  45.0186204  78.1631450  59.0354886  45.0388277  77.5560798  59.5311704
  59.7514447  79.8104268  48.0053300  60.0822664  80.3431908  47.3993395
  60.3247535  79.8643155  48.6615251  59.8848126  79.8973836  48.0131082
  54.9646336  77.6569170  48.6876880  55.0593191  78.3958464  49.1416506
  54.3405180  77.2286646  49.1211445  54.8855366  77.7030491  48.8185028
  41.8195227  77.6144592  53.1749875  42.3968729  77.4781043  53.8142121
  41.1209288  77.1580377  53.4295460  41.8016248  77.5266859  53.3072165
  55.2169358  79.5017910  41.9213832  55.1349520  79.5720097  42.7868819
  55.8549078  80.0647654  41.7297573  55.2989195  79.5956881  42.0203782
  48.5762529  79.2678648  51.3888359  48.3181773  78.4350383  51.3619658
  48.6311012  79.4936261  50.5480859  48.5462307  79.1776419  51.2608495
  53.6563579  71.3707099  51.4892451  52.9519906  70.8816284  51.6476371
  53.7048553  71.3829573  50.6180896  53.5593630  71.2996747  51.3831791
  47.5497241  76.8216411  51.8753253  46.9746832  76.9808579  52.5117214
  47.1732917  76.1851820  51.4121704  47.4100053  76.7514223  51.9007812
  51.2170529  75.2939760  56.7345632  50.8284962  74.8693978  56.0797823
  50.5525228  75.5421909  57.2422658  51.0617457  75.2678481  56.7133500
  60.8593799  75.0514765  49.5093462  60.6030363  74.2394706  49.3191345
  61.7023113  75.0592332  49.2823649  60.9459824  74.9326762  49.4478279
  37.2954060  76.4656485  49.8897694  37.3814312  76.0888354  50.6711224
  37.9229857  76.0916931  49.4117652  37.4010611  76.3541967  49.9343171
  55.0396891  68.9914389  54.2469616  55.4207403  68.3092560  54.6337490
  54.2360175  68.7023991  54.0645281  54.9773353  68.8481437  54.2773672
  52.3209468  79.5238364  44.9322439  53.1350107  79.8153257  44.8205210
  52.2568609  78.8698227  44.3580732  52.4312207  79.4703559  44.8311276
  48.1917376  82.9959882  50.0594751  48.8291323  82.7571629  50.6046544
  48.6172448  83.1997041  49.3247912  48.3493542  82.9910892  50.0311908
  48.8320191  78.2162172  44.3969640  49.2165344  77.9969878  45.1486185
  48.5831811  79.0425117  44.5270717  48.8522264  78.3060318  44.5270717
  48.9988731  71.4968587  64.1132225  48.6842172  72.2668150  63.8501787
  48.6778664  70.9338843  63.5284451  48.9047651  71.5278856  63.9873574
  50.5738848  83.4732305  51.7388537  50.6477856  83.3107476  52.5930387
  51.3908354  83.6622494  51.4949019  50.7055207  83.4769047  51.8286563
  46.5520628  69.8859108  49.7278421  45.6843054  69.9581708  49.7936030
  46.8395833  70.6881187  49.9166396  46.4660376  70.0153255  49.7653187
  55.6753517  70.0336968  58.0589743  56.4207109  69.8446778  57.6453168
  55.2590822  70.5595206  57.5003599  55.7238491  70.0839113  57.9154316
  63.0515788  77.4046196  53.0095248  63.6023710  76.7714265  53.2492340
  63.0359903  77.9361589  53.7010752  63.1300984  77.3895144  53.1474106
  49.7038179  81.2384793  57.5555141  49.2049873  81.9500561  57.6340030
  50.5138403  81.5585460  57.5173303  49.7494286  81.3911642  57.5611710
  45.9666296  80.5007746  51.8017862  45.6779545  79.8745218  52.3363589
  46.8349645  80.4428034  51.8682542  46.0526548  80.3995291  51.8908817
  56.7544194  75.6442530  52.1199844  56.4108960  74.9232865  52.4707094
  56.8537237  75.4356381  51.2778202  56.7186237  75.5066733  52.0471524
  46.1698570  82.1402998  47.7260227  46.9244538  82.5216037  47.9395690
  45.5769182  82.5914141  48.1806924  46.1935283  82.2631825  47.8243105
  48.6305237  74.0965838  62.8517439  47.8205013  74.4023618  62.7407282
  49.1079924  74.8171420  62.9670023  48.5808716  74.2480439  62.8524510
  47.4896796  83.3111559  53.1000342  46.9677550  83.4511851  53.7852207
  47.8770817  82.5522223  53.2902460  47.4700497  83.2197083  53.2301419
  44.4787980  73.3617368  47.1695297  44.1912776  72.9918638  46.4327244
  45.1658449  73.8312223  46.9079002  44.5376878  73.3764337  47.0210373
  48.9163122  80.3415578  48.4981833  48.7205905  80.9490312  47.9042136
  49.1397468  79.6483522  48.0173507  48.9197763  80.3293103  48.3397914
  47.3141652  77.2270316  48.6162702  48.0364304  77.3911474  48.1566508
  46.8349645  77.9479981  48.5102042  47.3505383  77.3568545  48.5328316
  55.2735160  73.5634115  53.9959387  54.4346260  73.5895394  53.7597650
  55.3439527  74.2104850  54.5764733  55.1603553  73.6630240  54.0468504
  44.9649269  79.6328388  57.7216842  45.4770366  79.9112642  57.0725601
  44.6785611  80.3717682  58.0879655  44.9984132  79.7830742  57.6806720
  53.7204438  70.4619492  48.7287003  54.4230791  70.2627240  48.2506961
  53.4548627  69.6895434  49.0355846  53.7851070  70.3182458  48.7032444
  59.1492683  78.7702101  51.2820629  59.0626658  78.9257527  52.1355407
  58.6943163  79.4140177  50.9080034  59.0695940  78.8877856  51.3527735
  42.0516175  74.1398580  48.0180578  42.1532312  74.9424742  48.3461554
  42.8472062  73.9385916  47.7203659  42.1844081  74.2284479  48.0215934
  48.4832994  71.7254777  57.7817883  48.2916191  71.7409911  58.6317307
  49.3331590  71.9218451  57.7584538  48.5808716  71.7569128  57.9041178
  42.8679907  74.2545758  55.7601700  42.7265399  73.4029699  55.8846208
  43.1520471  74.2974419  54.9363906  42.8887753  74.1345508  55.6569324
  53.0218500  76.0912848  49.9046188  52.7753214  76.0108599  50.7382977
  53.3503623  75.3066316  49.7108716  53.0339743  75.9639114  49.9993711
  48.9815527  78.8269567  59.3169171  49.1258903  79.4070775  58.6812281
  49.3291175  79.2045864  60.0219026  49.0542988  78.9690271  59.3268166
  51.1535444  78.0259735  57.0994303  50.4058758  78.2190750  56.6942581
  51.3076969  77.2004955  56.8618424  51.0657872  77.9324847  57.0039709
  51.3937221  71.9210286  57.9889706  51.8509835  72.6534261  58.1162499
  51.4693550  71.4976751  58.7476962  51.4728191  71.9667524  58.1190783
  43.6370212  72.1676106  59.0779150  43.1012402  71.5556464  59.3939917
  43.6987977  72.7424242  59.7312817  43.5665845  72.1623034  59.2214577
  55.8664547  65.1000161  51.8583549  55.9848115  65.5576625  51.1250852
  55.6926723  64.2945423  51.5719767  55.8583718  65.0493933  51.7084483
  49.2719599  73.9112390  54.8331530  48.4815674  73.7303850  55.1548866
  49.6680222  73.1339343  54.8161825  49.2136475  73.7699851  54.8784079
  53.7585490  82.7400164  40.2738244  54.5258475  82.8000289  39.8644096
  53.3116799  82.1680606  39.7894563  53.8058917  82.6636740  40.1415954
  54.6563285  81.5454820  52.5590976  53.9808287  81.3140053  53.0604363
  54.6655662  80.9376003  51.9333081  54.5581790  81.4213745  52.5407129
  51.7857429  76.3872649  59.3155029  51.7216571  77.2482606  59.1875166
  51.9254617  76.0704642  58.5150581  51.7972899  76.4672816  59.1783242
  50.4676523  79.0804789  53.4571232  50.0438772  79.2809288  52.7210251
  50.2921378  78.2333637  53.5695532  50.3787404  78.9853570  53.3644922
  45.7558968  79.5756840  48.8899205  45.9123587  79.5103643  49.7455197
  46.0959561  80.3505393  48.6777884  45.8292203  79.6806038  48.9853799
  52.2938113  78.9514724  47.7592568  52.8353658  78.4485105  48.2231189
  52.6084672  78.8979918  46.9482053  52.4202510  78.8694145  47.7076380
  50.4624563  84.3432075  45.0432596  50.5317383  83.4846614  45.1825596
  51.2413018  84.5603956  44.7151621  50.5877413  84.2484939  45.0149753
  53.4427382  73.8451028  57.8114868  53.6569352  73.2061942  57.2578222
  52.8261281  74.2896852  57.3822730  53.3832711  73.8161172  57.6665300
  42.3293230  76.7591790  49.2059972  42.7092195  77.1776335  48.5420239
  41.7548595  77.3405246  49.5128815  42.3004555  76.9069649  49.1536713
  55.6066470  75.4540093  58.7498176  54.7943152  75.1465984  58.8311348
  56.0656405  74.9739093  59.3140888  55.5546855  75.3376586  58.8452770
  55.0171725  83.3319765  49.1975120  54.6586380  83.5034408  49.9739152
  54.5310436  83.7932971  48.6403118  54.8930422  83.4258736  49.2300389
  52.8342111  66.9550964  52.8002211  51.9635669  66.9289685  52.7535521
  53.0882452  66.7828156  51.9828057  52.7435671  66.9261107  52.6722348
  49.8060090  79.0118931  41.7375354  50.0952615  79.7883813  42.0118929
  49.8931889  78.5007662  42.4389854  49.8614347  79.0510849  41.8817852
  49.8591251  68.9657192  54.2575682  49.3429740  68.2737384  54.3827261
  49.2985180  69.6327969  54.2038280  49.6997765  68.9620450  54.2681748
  51.9283485  69.5050152  56.0868534  51.5415238  69.5299184  56.8682064
  51.4416422  68.9391831  55.6343051  51.7995994  69.4245903  56.1356438
  57.9033464  76.0712807  54.7108236  57.4761072  75.9839156  53.9556336
  57.2659517  76.1790583  55.2963080  57.7463072  76.0745467  54.6853678
  51.5940627  66.3917138  58.3778794  52.2233745  66.9277438  58.0999864
  51.7626489  66.2994497  59.2292360  51.7118421  66.4578500  58.4627322
  51.3954541  71.1788332  60.6505206  52.2227971  70.9073481  60.7063820
  51.4162388  71.9749174  61.0069024  51.5207392  71.2568087  60.7120389
  45.9724031  78.3252195  53.8375466  45.1312038  78.2256069  54.0454360
  46.1814039  79.0947676  54.1889787  45.8788724  78.4244239  53.9202781
  43.4499598  75.9471732  51.6660217  43.0556296  76.0214744  50.8910327
  42.8939715  76.3329679  52.2168579  43.3102411  76.0153507  51.6327877
  55.0864545  68.9253026  51.3464096  55.2914138  68.8575334  52.1921093
  54.7590969  69.7311847  51.2785273  55.0679793  69.0338967  51.4623751
  49.7840696  76.2533594  53.0873064  49.4803834  75.6989583  53.6883472
  49.0820117  76.4325804  52.6001098  49.6356906  76.1978377  53.1042770
  48.8406793  73.5634114  47.6517766  49.1166528  72.8453027  47.2395333
  49.4405463  74.1619034  47.4438872  48.9700058  73.5454485  47.5598527
  58.3398233  69.4784790  50.8266861  57.7272546  69.9655193  51.2120593
  58.4362408  68.8028281  51.3704513  58.2636130  69.4503099  50.9645720
  52.3417314  71.2347632  45.9264361  52.7961060  71.4058192  46.6512205
  52.8157359  70.6215742  45.5262136  52.4785634  71.1698517  45.9738122
  45.8632839  80.7195958  55.2567099  45.2720772  81.3605456  55.2270114
  46.6253863  81.1433575  55.2298399  45.8881100  80.8771796  55.2482246
  46.2593462  71.8797955  55.9235117  46.7194944  71.9536885  56.6610241
  46.3049569  72.6779209  55.5734938  46.3344017  72.0092102  55.9807873
  47.9076812  72.5464650  60.4907144  47.5162377  71.8997997  60.9262922
  48.0762674  73.1376085  61.1101399  47.8747722  72.5378918  60.6469850
  49.6830334  77.9390166  47.0309368  50.4272379  78.3264442  47.2692318
  49.8291030  77.0947591  47.1949856  49.8140919  77.8720639  47.0903338
  51.6009909  69.7340425  52.0641229  50.7545954  69.9063233  51.9382579
  51.5981042  68.9289769  52.4007058  51.4757059  69.6401454  52.0952356
  52.6708210  73.5115639  52.9303287  52.1968164  72.9857401  53.4408598
  53.0426345  72.9645112  52.3618149  52.6558099  73.3531636  52.9218435
  43.0481240  75.5087146  58.2986833  43.9106853  75.4082855  58.2124163
  42.7173023  74.9281855  57.7372405  43.1266436  75.4078773  58.2032239
  58.9344940  78.5718015  54.3410068  58.6943163  77.7324430  54.3452494
  59.4136947  78.6518182  55.0650841  58.9697124  78.4599415  54.4484870
  54.5991709  74.4052194  45.9929041  54.0714728  74.4880938  45.3034750
  55.0587417  75.1470065  45.9893686  54.5893560  74.5272856  45.8903736
  60.9350127  75.3519472  52.2939327  60.6959897  75.3115306  51.4560112
  61.0984028  76.1990624  52.4205048  60.9240431  75.4711557  52.1892809
  46.4083026  74.3329595  54.9597251  45.7836096  74.3447987  54.3523204
  46.0728621  74.8089770  55.6088491  46.2668518  74.4048112  54.9653820
  46.5924774  72.6754713  41.0169936  46.2437579  73.3274439  41.4801486
  46.1121220  72.6611826  40.2893807  46.4695018  72.7697767  40.9781028
  54.1528792  82.9755757  45.1238698  54.8762991  83.4413870  44.9803271
  53.7129383  83.0429367  44.3736295  54.1944484  83.0539594  44.9923480
  53.3214947  79.8353300  56.3739387  52.7071940  79.2911350  56.6688022
  53.8382232  79.3217536  55.8945203  53.3070609  79.6789709  56.3463616
  52.5611244  80.9057570  54.1083686  52.1338852  80.2807288  53.6749121
  52.5536188  80.6232492  54.9342693  52.4970385  80.7710350  54.1663513
  45.6773771  75.9422743  57.1772120  45.8367258  75.1866067  57.5823842
  45.4966665  76.4913682  57.8312857  45.6739130  75.9116557  57.3334826
  53.6194074  68.1083978  57.7322909  53.1234635  68.3047653  57.0414476
  54.3763136  68.5076647  57.5611711  53.6580899  68.1961712  57.6043046
  50.8896954  71.7826324  54.3226220  50.9139441  71.2486437  53.6339000
  51.1408427  71.2743633  54.9851810  50.9306872  71.6287228  54.3190864
  38.4004544  79.0657819  53.7569364  38.2947993  79.0204664  52.8921448
  37.6504763  79.4111600  54.0383649  38.2740146  79.1098727  53.6706694
  47.1698276  70.5097142  53.7031964  47.2096648  71.0106349  54.4166672
  46.3447941  70.6007536  53.4337887  47.0537802  70.5978959  53.7682502
  48.5912639  77.0257652  56.0005863  47.7604569  77.1931470  55.7941111
  48.5364156  76.6493603  56.7854748  48.4602054  76.9947384  56.0854391
  46.3996423  70.5166545  61.6362274  47.0249126  69.9728678  61.9091706
  45.9446902  70.0361463  61.0670064  46.4244683  70.3656027  61.5923868
  46.9648683  75.3013244  46.5295981  47.1051644  75.7985708  47.2324622
  47.4631216  74.5999538  46.6710194  47.0589764  75.2715223  46.6547560
  46.9948906  76.1680355  43.8588558  47.6293985  76.7640780  43.7938019
  47.0774516  75.8683812  44.6734428  47.1005456  76.2121263  43.9691644
  48.5727888  72.0994330  43.8334000  48.8943729  71.6197413  43.1793262
  48.8354832  72.9093976  43.6424811  48.6593914  72.1484228  43.7089492
  53.9687043  71.4866524  56.1957479  54.3942115  71.0339051  55.5841005
  53.3544036  70.9326595  56.4722266  53.9415689  71.3380500  56.1462504
  43.5001893  78.3648196  47.1278104  44.0094123  78.9612703  47.5089409
  43.9736166  78.0974169  46.4454523  43.6445269  78.4134011  47.0832626
  52.4081266  67.9581624  49.6048056  51.7649584  67.8079270  50.1733194
  52.0680673  67.7123969  48.8397160  52.2626344  67.8993747  49.5751071
  56.9980613  75.9141051  49.0278064  56.3271803  76.4570753  48.8991130
  57.6920363  76.3835906  48.7859759  57.0009480  76.0639322  48.9733592
  57.1608740  72.3696934  51.9368438  57.5136350  71.9426657  52.6114236
  56.3023542  72.2847778  52.0669514  57.0858185  72.2941675  52.0563448
  45.8592425  75.0004454  49.9951284  45.1404414  75.4168587  50.2624148
  46.2304787  75.5658693  49.4442922  45.8084357  75.1453736  49.9534091
  55.1592006  75.6332303  55.8853280  55.1389933  75.4515598  56.7388059
  55.2071207  76.5044322  55.8612863  55.1626647  75.7348841  56.0076575
  51.6339000  74.0402454  45.3324664  51.0403839  74.3619451  44.7809231
  51.6714277  73.1943549  45.1245770  51.5513389  73.9626782  45.2207435
  58.5932800  67.4915346  52.8652750  58.0863665  66.7844486  52.7973928
  59.3900234  67.1608535  52.9953827  58.6360039  67.3388498  52.8751745
  54.5096816  73.9981959  48.7626414  54.2810509  74.0214660  47.9204772
  54.7694892  73.1739426  48.8821424  54.5143004  73.8798039  48.6551611
  48.7916045  75.8516432  58.3651514  48.2794948  75.2437615  58.7236545
  48.6195541  76.5673024  58.8325490  48.6905682  75.8679731  58.4867738
  43.6381759  74.2954007  61.0153876  43.4684349  74.9555382  60.4702082
  43.1947709  74.5060568  61.7366365  43.5481093  74.4239989  61.0415505
  47.5641579  72.5358505  50.0580609  48.0398945  72.8975585  49.4230791
  47.0630178  73.1914972  50.3380752  47.5606938  72.6852694  50.0057350
  52.6685115  73.7740676  60.8053770  53.2256545  73.5454486  60.1732235
  52.3446180  74.5346342  60.5288982  52.7031525  73.8524513  60.6710267
  40.5383824  77.2000872  56.2742366  39.9910543  76.5301518  56.3923234
  41.3276202  76.8330720  56.3385833  40.5736007  77.0465859  56.3011066
  49.6068232  74.6799705  43.4253993  49.9867197  74.6979334  42.6405108
  48.8660828  75.1253694  43.3044841  49.5537069  74.7481479  43.2917562
  57.2353522  72.9881896  49.0129572  57.2347749  72.8330552  49.8713848
  57.0309702  73.8344883  48.9570958  57.2053300  73.0902517  49.1317511
  39.2970793  76.4121680  53.4288389  39.1192554  75.9598289  54.1543304
  39.0089815  77.2147842  53.6126866  39.2283746  76.4644238  53.5631892
  54.9594374  77.6679398  52.6665779  55.4548040  76.9502393  52.6269799
  54.1494150  77.3650195  52.5520266  54.9138268  77.5177044  52.6439505
  50.4052986  81.5177211  44.8162783  49.5964309  81.1943884  44.7696093
  50.9127895  80.8110433  44.7491032  50.3602653  81.3658527  44.7993078
  41.0343263  78.9449404  50.5410148  40.1688783  78.9335095  50.4292919
  41.1342079  78.7579627  51.3881287  40.9217430  78.9155465  50.6499092
  57.0246193  80.4183085  55.3542908  57.4501265  79.8957507  54.8013333
  56.6603113  81.0163923  54.8331531  57.0332796  80.4293312  55.1951917
  53.6124793  84.1317349  51.6844065  54.0835971  84.8457612  51.8534050
  53.9484971  83.5316100  52.2203935  53.7319908  84.1488814  51.7876441
  50.5294288  68.9044820  58.6402160  50.6622193  68.1075813  58.9683136
  50.9139440  69.4311223  59.2200436  50.6050616  68.8644737  58.7745663
  53.6026643  65.8275146  55.2383253  52.7972606  65.7172876  55.5551092
  53.4733378  65.9287602  54.3813119  53.4646776  65.8258816  55.1591294
  57.0592603  71.9920638  55.8322950  56.4755592  72.4929845  55.4200518
  57.3796897  71.4850194  55.1987273  57.0205779  71.9912473  55.6781457
  49.5987402  70.9061233  46.1081625  50.4203097  71.0759546  45.8663320
  49.1357053  71.0608494  45.3847923  49.6518565  70.9542966  45.9653269
  48.1882734  68.9003995  56.8880054  48.7327147  68.5595122  57.4784395
  48.2419670  69.7589457  57.0301338  48.2771854  68.9759254  56.9961927
  26.0891205   7.4488107  34.8764022  26.0585210   8.3032744  35.0482292
  26.6872554   7.1483400  35.4350166  26.1728363   7.5304604  34.9838824
  19.2890890   6.5363758  39.6316953  18.4328786   6.6972257  39.6826069
  19.3358544   5.6655822  39.6522014  19.1690002   6.4314560  39.6423019
  13.6732030  16.0726476  35.3954184  12.9214929  15.6942015  35.1670229
  14.1218041  16.1044910  34.6472994  13.6281697  16.0212083  35.2511686
  22.5984607  12.8050284  49.2377409  23.3051374  12.3102315  49.3664343
  22.7872542  13.2459366  48.5080067  22.7312512  12.7968634  49.1486454
  19.1256990  16.4951846  30.8239731  18.7908358  17.1728767  30.3883953
  19.6383860  16.1057157  30.2356603  19.1522571  16.5376424  30.6726523
  18.6661281  18.4466115  36.7650843  19.0500660  19.0153013  36.2255618
  18.6020422  17.7215625  36.2856659  18.7134708  18.4241578  36.6144705
  22.1342711   8.5955802  42.2748604  22.6798671   9.2740889  42.3342574
  22.0759587   8.4543263  41.4150186  22.2058625   8.6747804  42.1560665
  15.2516786  16.0844868  37.6616957  15.3527149  15.2745222  37.9714084
  14.6558531  15.9901815  37.0316635  15.1789325  15.9509897  37.6143195
  23.9107780  10.0240409  33.1482332  23.7947306  10.7748096  33.5774470
  24.7063666   9.7664363  33.3978419  24.0112369  10.0975256  33.2486424
  15.0917526  21.0022458  39.0631813  15.7354981  21.4435622  39.4527971
  15.4173781  20.1975884  38.9762071  15.2349354  20.9487652  39.1077290
   8.4481830  12.1065155  37.2869290   8.2132015  11.2732807  37.1801559
   8.5867471  12.3869821  36.4730491   8.4337493  12.0248658  37.1511645
  17.8439813   6.0150427  34.5186061  18.5419978   6.1938555  35.0107524
  18.1592146   5.4920767  33.8956451  17.9935151   5.9644200  34.4988071
  10.4741051   7.8203167  42.4297167  10.3499748   8.4065613  43.0646986
  11.1259335   7.3263363  42.7309442  10.5514700   7.8341972  42.5683096
  18.0327749  12.4020872  34.5065853  18.4721384  11.7937973  34.9520625
  17.8832412  12.0228246  33.7351318  18.0749214  12.2559344  34.4585020
  15.4999392  10.9964884  41.7084678  16.1448394  10.5037327  41.3895627
  15.7401169  11.1389671  42.5350756  15.6309977  10.9442327  41.7834211
  18.0385483  13.8419790  41.3591571  18.3208726  13.0471196  41.1378327
  18.7671644  14.3200378  41.3796632  18.1875047  13.7954387  41.3294586
  21.6337085  10.7548054  31.4596622  21.5488380  11.6109020  31.6046191
  22.1221469  10.4792378  32.1278781  21.6925983  10.8405375  31.5798703
  23.2243085  -2.6271653  36.8456946  22.9096526  -1.9368174  37.2777369
  22.7070026  -2.6826871  36.1442447  23.1007555  -2.5336764  36.8053896
  22.5655519   7.3732848  32.9594357  22.0366990   7.5892481  33.6191663
  23.0880538   8.0668986  32.8795326  22.5643972   7.5075985  33.0449956
  14.4555126  11.2696065  31.7601825  13.8712342  11.7746096  32.1667689
  14.0525222  11.0438452  31.0198417  14.3094430  11.3104313  31.7106850
  10.0099155  16.9850826  38.5625497   9.5266733  17.7101315  38.5385080
  10.8222473  17.2826956  38.6735654  10.0589903  17.1353180  38.5752776
  16.0813309  15.7783007  41.1675311  15.5640251  15.4190422  40.5636619
  16.7787700  15.2545181  41.1781377  16.1078890  15.6480694  41.0805570
  19.7376901  16.2277821  47.1291484  19.8260247  16.0403961  47.9769694
  20.1666614  15.5815250  46.7296331  19.8139003  16.1040828  47.1963235
  17.3047361  15.5108981  46.1109146  16.7418196  15.0981590  46.6348807
  18.0668384  15.4361886  46.5302289  17.3341809  15.4386381  46.2502147
  18.9132341   7.5161717  30.2370746  19.1528344   7.7239701  29.4246089
  19.2348182   6.7119225  30.3459690  18.9969499   7.4275818  30.1331299
  12.8643352  17.5007002  38.7145776  13.5663932  16.9858991  38.7718533
  12.7840835  17.8281153  39.5192651  12.9567113  17.4721228  38.8418569
  27.5157530   5.5949553  42.1277823  26.6785951   5.6651740  42.3625417
  27.4845761   5.5974048  41.2552125  27.3875812   5.6059780  42.0337371
  13.9122259   7.7382589  47.8426191  14.0842762   7.6288483  48.6911473
  14.4491616   8.3836994  47.6057384  14.0167263   7.8174590  47.9331288
  12.1894128  13.6913354  38.2231384  13.0283027  13.9236287  38.2705146
  12.2205897  12.8217665  38.1538420  12.3175845  13.5970300  38.2196029
  12.8146831  14.1114229  42.5244690  13.3545056  13.9685360  43.1948062
  12.1316777  14.5110980  42.8928716  12.7938985  14.1493900  42.6779112
  22.2387716   9.7905230  37.7189714  22.9945231  10.2236744  37.7578623
  22.3450040   9.1409999  38.2924350  22.3657886   9.7582713  37.8087740
  19.8496960  15.6586840  49.7935268  20.6337377  15.7717687  50.1591010
  19.6493555  14.8327977  49.9893953  19.9362986  15.5533559  49.8769654
   8.2183976  10.3314520  42.6779111   7.9522391   9.5153636  42.8370102
   8.2322540  10.3767675  41.8074627   8.1808698  10.2171425  42.5732593
  25.1965370   0.6592335  40.7121545  25.8391278   0.7290439  41.2983460
  25.4488390  -0.0078442  40.2101087  25.3287502   0.5718683  40.7248824
  12.1241723   5.1299604  29.2930870  11.4099900   4.8437784  29.7053302
  12.6085691   5.4696230  29.9337257  12.0901086   5.1381254  29.4486504
  20.0067354  17.5696942  43.4401723  19.2082599  17.3296442  43.6975592
  20.4553365  17.6211335  44.1868771  19.9541965  17.5419333  43.5886647
  28.4112233  10.3359427  37.3611754  29.0728667   9.7750095  37.2607663
  27.7703645   9.8411457  37.6864446  28.4141100  10.1795836  37.3944095
  19.2989041  13.6329558  29.6692678  19.7140189  13.3014582  28.9777173
  18.4680970  13.3998460  29.5412814  19.2377049  13.5500814  29.5483525
   8.6277389  11.1173299  39.9590856   8.4452963  11.0920185  39.1063148
   9.3627058  11.5872237  39.9979764   8.7091453  11.1834661  39.8388774
  24.6977064  11.3524809  37.1023743  24.9332653  11.4970008  36.2750594
  24.8466627  12.1167217  37.4955257  24.7542867  11.4863863  37.0387347
  11.6923141   7.8358302  46.4672964  12.4163113   7.8211333  46.9537859
  11.7939278   8.5453657  45.9694933  11.8141350   7.9383005  46.4651751
  26.5267520  10.1926475  34.9393347  26.8575737  10.7254115  34.3333442
  27.1000608  10.2465363  35.5955298  26.6601199  10.2796044  34.9471129
  19.0668090  11.3157387  51.3321911  18.2741071  11.6300898  51.5174531
  19.1817018  11.5308855  50.4942696  18.9663501  11.3941223  51.2360246
  21.7399409   8.0391378  35.6216927  21.8346264   8.7780672  36.0756553
  21.1158253   7.6108853  36.0551492  21.6608440   8.0852698  35.7525075
  19.9951883  11.2177590  46.2707208  20.5690745  10.5804835  46.4255772
  19.9166687  11.2181673  45.4016866  20.0685118  11.1242702  46.1653619
   8.5948300   7.9966800  40.1089922   9.1721802   7.8603251  40.7482168
   7.8962361   7.5402584  40.3635507   8.5769321   7.9089066  40.2412212
  21.9922431   9.8840118  28.8553879  21.9102593   9.9542305  29.7208866
  22.6302151  10.4469861  28.6637620  22.0742268   9.9779089  28.9543829
  15.3515602   9.6500855  38.3228406  15.0934846   8.8172590  38.2959705
  15.4064085   9.8758468  37.4820906  15.3215380   9.5598627  38.1948542
  20.4316652   1.7529306  38.4232498  19.7272979   1.2638492  38.5816417
  20.4801626   1.7651781  37.5520943  20.3346704   1.6818954  38.3171838
  14.3250314   7.2038618  38.8093300  13.7499905   7.3630786  39.4457261
  13.9485990   6.5674027  38.3461751  14.1853126   7.1336431  38.8347859
  17.9923603   5.6761967  43.6685679  17.6038035   5.2516185  43.0137870
  17.3278301   5.9244117  44.1762705  17.8370530   5.6500688  43.6473547
  27.6346872   5.4336972  36.4433509  27.3783437   4.6216913  36.2531392
  28.4776186   5.4414539  36.2163696  27.7212897   5.3148969  36.3818326
  21.8149964  -0.6263404  41.1809663  22.1960476  -1.3085233  41.5677537
  21.0113249  -0.9153802  40.9985327  21.7526426  -0.7696356  41.2113719
  19.0962541   9.9060572  31.8662486  19.9103180  10.1975465  31.7545257
  19.0321682   9.2520434  31.2920779  19.2065280   9.8525767  31.7651323
  25.3172031  12.5886568  46.2792061  25.0810669  11.7574633  46.1604122
  25.9615260  12.5372175  46.8646906  25.3766702  12.4584256  46.3477955
  14.9670449  13.3782089  36.9934798  15.6044396  13.1393837  37.5386591
  15.3925521  13.5819248  36.2587958  15.1246615  13.3733099  36.9651955
   9.6583092  15.6170426  40.8769102   9.6987237  15.8885277  40.0488881
  10.2177616  16.1412334  41.2926889   9.7466438  15.7346181  40.8160990
  15.6073264   8.5984379  31.3309687  15.9918417   8.3792086  32.0826232
  15.3584885   9.4247324  31.4610763  15.6275337   8.6882525  31.4610764
  26.3408452  12.3731017  42.3420356  26.0354269  13.1059074  42.7033671
  25.6214667  11.9668946  42.0613142  26.1895794  12.4212750  42.3533493
  17.3491921  13.8554512  38.6728584  17.4230929  13.6929684  39.5270434
  18.1661427  14.0444701  38.4289066  17.4808280  13.8591254  38.7626610
  32.0410244   9.0124017  41.6688700  31.9734744   9.0319977  40.7991287
  32.0265906   9.8554345  41.8944371  32.0289000   9.1397752  41.5741177
  11.1097678  14.2012375  35.7023028  10.2835796  14.4474112  35.5757306
  11.1709669  14.1224456  36.5685086  10.9971845  14.2257324  35.8111972
  22.4506590   0.4159175  44.9929789  23.1960182   0.2268985  44.5793215
  22.0343895   0.9417413  44.4343646  22.4991565   0.4661320  44.8494363
  15.8896507  16.8189255  33.4042057  16.1794805  16.4278236  32.6801284
  16.6199988  17.0005960  33.8447333  16.0403391  16.7883069  33.3624864
  29.8268861   7.7868404  39.9435294  30.3776783   7.1536473  40.1832387
  29.8112977   8.3183796  40.6350799  29.9054058   7.7717352  40.0814153
  16.4791252  11.6207001  44.4895188  15.9802946  12.3322769  44.5680076
  17.2891476  11.9407667  44.4513350  16.5247359  11.7733849  44.4951756
  13.8302422  18.7956637  36.4702207  13.6102718  18.5053992  37.2628874
  13.6096944  18.1371592  35.9420119  13.7650017  18.6556346  36.5091116
  12.7419370  10.8829954  38.7357909  12.4532618  10.2567425  39.2703636
  13.6102718  10.8250241  38.8022589  12.8279622  10.7817498  38.8248863
  23.5297267   6.0264737  39.0539891  23.1862033   5.3055072  39.4047140
  23.6290310   5.8178588  38.2118249  23.4939310   5.8888941  38.9811571
  15.9970378  20.1686027  35.2532900  16.6494436  19.6362470  35.4823926
  15.2995987  19.8154680  35.6400774  15.9901096  20.0375550  35.3445067
  12.9451643  12.5225205  34.6600274  13.6997611  12.9038244  34.8735736
  12.3522256  12.9736349  35.1146970  12.9688357  12.6454032  34.7583152
  23.9910297  12.4890441  34.5963879  24.5568329  13.1483651  34.5122422
  23.3438200  12.8340139  35.0680281  23.9789053  12.6372383  34.6536635
  15.4058310   4.4788045  49.7857486  14.5958086   4.7845825  49.6747328
  15.8832997   5.1993628  49.9010070  15.3561789   4.6302646  49.7864557
  14.2649870  13.6933766  40.0340389  13.7430623  13.8334058  40.7192254
  14.6523890  12.9344431  40.2242507  14.2453571  13.6019290  40.1641466
  20.4616875  15.4329226  34.0200958  20.2203551  14.6997086  33.6128023
  20.6418208  15.9816083  33.3667291  20.4524499  15.4051617  33.8631181
  15.6916195  10.7237785  35.4321880  15.4958978  11.3312520  34.8382183
  15.9150541  10.0305729  34.9513554  15.6950836  10.7115311  35.2737961
  14.0894725   7.6092523  35.5502749  14.8117377   7.7733681  35.0906555
  13.6102718   8.3302188  35.4442088  14.1258456   7.7390753  35.4668363
  22.0488233   3.9456322  40.9299434  21.2099333   3.9717601  40.6937697
  22.1192600   4.5927057  41.5104780  21.9356626   4.0452448  40.9808550
  11.7402342  10.0150596  44.6556888  12.2523439  10.2934849  44.0065648
  11.4538685  10.7539890  45.0219702  11.7737205  10.1652949  44.6146767
  20.4957511   0.8441699  35.6627049  21.1983864   0.6449447  35.1847008
  20.2301700   0.0717641  35.9695893  20.5604143   0.7004665  35.6372491
  25.9245757   9.1524309  38.2160675  25.8379731   9.3079735  39.0695454
  25.4696237   9.7962384  37.8420080  25.8449013   9.2700064  38.2867782
  15.2586067   2.1076984  44.7157930  15.0669264   2.1232119  45.5657354
  16.1084663   2.3040659  44.6924585  15.3561789   2.1391335  44.8381225
  19.7971573   6.4735056  36.8386235  19.5506287   6.3930807  37.6723024
  20.1256696   5.6888524  36.6448762  19.8092816   6.3461321  36.9333758
  23.6919622  13.1818415  40.6273016  23.5533981  13.8799461  41.1321758
  22.9119619  13.0267072  40.2709198  23.5562848  13.2618582  40.6499290
  22.0297707   9.4814791  46.8795398  22.0245745   8.6094607  46.8837824
  22.7358701   9.6802960  46.4064853  22.1342711   9.3818665  46.8102433
  15.7568600   9.2091774  46.2509218  15.9011976   9.7892983  45.6152328
  16.1044249   9.5868071  46.9559073  15.8296061   9.3512479  46.2608213
  17.9288517   8.4081943  44.0334350  17.1811831   8.6012957  43.6282628
  18.0830043   7.5827162  43.7958471  17.8410945   8.3147054  43.9379755
  14.8296355  17.3994546  43.1170245  14.9785919  16.8397462  42.4643649
  15.6096357  17.4786548  43.5002764  14.9670449  17.3280112  43.0767194
  17.3549656  17.5709189  44.3954736  17.2793327  16.9018000  44.9505524
  17.2839515  18.2726977  44.9095402  17.3330263  17.5754097  44.5531584
  18.1690294   2.3032494  44.9229753  18.6262909   3.0356468  45.0502545
  18.2446623   1.8798959  45.6817009  18.2481264   2.3489732  45.0530830
  18.0119903  16.0910188  35.2278342  18.7769794  15.8219832  34.9061006
  17.9097993  15.6060198  35.9448404  18.1101398  15.9799753  35.2858169
  16.0472672   4.2934598  41.7671577  15.2568747   4.1126058  42.0888913
  16.4433295   3.5161550  41.7501872  15.9889549   4.1522058  41.8124126
  20.5338563  13.1222372  27.2078291  21.3011548  13.1822497  26.7984143
  20.0869872  12.5502813  26.7234609  20.5811990  13.0458948  27.0756001
  21.4316359  11.9277028  39.4931023  20.7561360  11.6962260  39.9944410
  21.4408735  11.3198211  38.8673128  21.3334863  11.8035953  39.4747175
  18.5610503   6.7694857  46.2495076  18.4969644   7.6304813  46.1215213
  18.7007690   6.4526850  45.4490627  18.5725973   6.8495023  46.1123289
  23.4333093  14.7842160  31.7241201  23.5152931  15.5909146  31.4002652
  23.9182835  14.8038119  32.4481975  23.5170251  14.9062822  31.7828100
  17.2429597   9.4626996  40.3911279  16.8191846   9.6631495  39.6550297
  17.0674452   8.6155844  40.5035579  17.1540477   9.3675777  40.2984969
  16.7441290  20.9777509  42.8532736  17.2337220  20.2788298  42.6708401
  16.1725522  20.6801379  43.4408794  16.7325820  20.8303733  42.9133777
  12.5312041   9.9579047  35.8239252  12.6876661   9.8925850  36.6795244
  12.8712635  10.7327600  35.6117931  12.6045276  10.0628246  35.9193846
  19.0691186   9.3336931  34.6932615  19.6106732   8.8307312  35.1571235
  19.3837745   9.2802126  33.8822100  19.1955583   9.2516352  34.6416427
  22.9408293  13.5439578  51.8059527  23.7543159  13.2724727  51.9664660
  22.7803260  13.2447118  51.0019723  23.0378242  13.4594504  51.7104933
  17.2377636  14.7254283  31.9772643  17.3070456  13.8668821  32.1165643
  18.0166091  14.9426163  31.6491667  17.3630486  14.6307146  31.9489800
  20.2180455   4.2273235  44.7454915  20.4322425   3.5884150  44.1918269
  19.6014355   4.6719059  44.3162777  20.1585785   4.1983379  44.6005346
  21.6285123  17.1491984  36.1909136  21.2364915  16.8458699  35.4732002
  21.7838196  17.9861074  36.0014090  21.5938713  17.2275821  36.0565633
   9.1046303   7.1413998  36.1400019   9.4845268   7.5598543  35.4760286
   8.5301668   7.7227454  36.4468862   9.0757628   7.2891857  36.0876760
  22.3819543   5.8362301  45.6838222  21.5696225   5.5288191  45.7651395
  22.8409478   5.3561301  46.2480935  22.3299928   5.7198793  45.7792817
  21.7924798  13.7141973  36.1315167  21.4339453  13.8856616  36.9079199
  21.3063509  14.1755178  35.5743165  21.6683495  13.8080944  36.1640436
  16.5813164   9.3941138  28.6715401  16.8705688  10.1706021  28.9458975
  16.6684962   8.8829869  29.3729900  16.6367420   9.4333056  28.8157899
  19.4773051   7.2422372  50.4666925  19.9472682   7.8664489  50.8534799
  19.5234931   6.5739348  51.0260139  19.5540927   7.2357052  50.6066996
  22.9529537  14.6045869  47.0782368  23.5909258  14.1106064  46.7444824
  22.3103629  14.5323269  46.4934594  22.9523764  14.5204877  46.9424723
  24.6786538   6.4535015  41.6448283  24.2514146   6.3661363  40.8896383
  24.0412591   6.5612790  42.2303127  24.5216145   6.4567674  41.6193725
  18.1707615   1.5610540  47.5845253  18.9981044   1.2895689  47.6403867
  18.1915461   2.3571382  47.9409071  18.2960465   1.6390294  47.6460435
  23.0083794  15.2965677  43.7187724  23.7976172  14.9454742  43.8389806
  23.1827392  16.1102065  43.4564358  23.1504076  15.3651534  43.6975592
  12.7477105   8.7074403  40.7715513  11.9065111   8.6078277  40.9794407
  12.9567112   9.4769883  41.1229834  12.6541797   8.8066446  40.8542828
  10.2252671   6.3293940  38.6000264   9.8309369   6.4036951  37.8250373
   9.6692788   6.7151886  39.1508626  10.0855484   6.3975714  38.5667924
  21.8617618  -0.6924766  38.2804143  22.0667212  -0.7602459  39.1261140
  21.5344042   0.1134055  38.2125320  21.8432866  -0.5838826  38.3963798
  16.5593769   6.6355802  40.0213111  16.2556907   6.0811790  40.6223518
  15.8573190   6.8148012  39.5341145  16.4109979   6.5800584  40.0382816
  15.6159866   3.9456322  34.5857813  15.8919601   3.2275234  34.1735380
  16.2158536   4.5441242  34.3778919  15.7453131   3.9276692  34.4938574
  14.6212120  13.8505523  44.7285208  14.5132475  13.8607585  45.5947267
  14.8307902  14.6760303  44.5390162  14.6362231  13.9746597  44.8289300
  25.1151306  -0.1393002  37.7606908  24.5025620   0.3477400  38.1460640
  25.2115481  -0.8149511  38.3044559  25.0389204  -0.1674693  37.8985766
  19.1170387   1.6169839  32.8604408  19.5714134   1.7880399  33.5852252
  19.5910433   1.0037950  32.4602183  19.2538707   1.5520724  32.9078169
  12.6385912  11.1018165  42.1907146  12.0473846  11.7427663  42.1610161
  13.4006936  11.5255782  42.1638446  12.6634173  11.2594003  42.1822293
  22.3975429  16.5527477  39.6239171  22.1995117  17.0418291  38.9295382
  21.7763140  16.7568718  40.2023304  22.2762993  16.6544015  39.6062394
  16.4583407   8.3212373  33.9649415  17.2025452   8.7086650  34.2032365
  16.6044103   7.4769799  34.1289903  16.5893992   8.2542846  34.0243385
  19.4461283   3.8937847  39.8643334  18.9721237   3.3679609  40.3748645
  19.8179419   3.3467319  39.2958196  19.4311172   3.7353843  39.8558481
  25.7098013   8.9540222  41.2750115  25.4696236   8.1146637  41.2792541
  26.1890021   9.0340389  41.9990888  25.7450197   8.8421622  41.3824917
  21.3744782   4.7874401  32.9269088  20.8467801   4.8703145  32.2374797
  21.8340491   5.5292273  32.9233733  21.3646633   4.9095064  32.8243783
  27.7103200   5.7341680  39.2279374  27.4712970   5.6937514  38.3900158
  27.8737102   6.5812832  39.3545095  27.6993504   5.8533765  39.1232856
  24.3149231  10.1191629  45.1584419  25.0383429   9.6664155  44.9795439
  24.0499193  10.3996294  44.3756747  24.3830504  10.0942597  45.0163134
  13.1836099   4.7151802  41.8937298  12.5589169   4.7270194  41.2863251
  12.8481694   5.1911977  42.5428538  13.0421591   4.7870319  41.8993867
   9.8961774  12.7752262  43.3341062   9.3661699  12.0844701  43.3836037
  10.1686868  12.7662448  42.5053771   9.8586497  12.6719394  43.2188478
  20.9281865  13.3577965  32.0578745  21.6516064  13.8236078  31.9143318
  20.4882456  13.4251574  31.3076342  20.9697557  13.4361802  31.9263526
  20.0968020  10.2175507  43.3079434  19.4825013   9.6733557  43.6028069
  20.6135305   9.7039744  42.8285250  20.0823682  10.0611916  43.2803662
  19.3364317  11.2879777  41.0423733  18.9091925  10.6629496  40.6089168
  19.3289262  11.0054699  41.8682740  19.2723458  11.1532558  41.1003560
  12.4526844   6.3244950  44.1112167  12.6120331   5.5688274  44.5163889
  12.2719738   6.8735890  44.7652904  12.4492203   6.2938764  44.2674873
  20.3947147  -1.5093814  44.6662956  19.8987709  -1.3130140  43.9754523
  21.1516209  -1.1101146  44.4951758  20.4333972  -1.4216080  44.5383093
  17.6650027   2.1648532  41.2566267  17.6892514   1.6308644  40.5679047
  17.9161501   1.6565840  41.9191857  17.7059946   2.0109436  41.2530911
   5.1757617   9.4480027  40.6909411   5.0701066   9.4026871  39.8261495
   4.4257837   9.7933807  40.9723696   5.0493220   9.4920935  40.6046740
  16.1280962  10.4580090  48.7392305  15.2776593  10.5951804  48.8749950
  16.2909090   9.7243868  49.1840007  16.0264826  10.3694191  48.8247905
  15.3665713   7.4079860  42.9345910  14.5357642   7.5753678  42.7281158
  15.3117230   7.0315810  43.7194795  15.2355127   7.3769591  43.0194438
  13.7401756   5.6835451  33.4636028  13.8804717   6.1807915  34.1664669
  14.2384289   4.9821746  33.6050241  13.8342837   5.6537430  33.5887607
  13.7701979   6.5502562  30.7928604  14.4047058   7.1462987  30.7278066
  13.8527590   6.2506020  31.6074475  13.8758530   6.5943470  30.9031691
  26.7484545   9.0818040  43.6614969  27.3402385   9.7215290  43.6933167
  27.1843539   8.3841076  43.9507035  26.9002976   9.0736390  43.7095801
  15.3480962   2.4816538  30.7674046  15.6696803   2.0019620  30.1133309
  15.6107905   3.2916184  30.5764858  15.4346987   2.5306436  30.6429539
  18.5777934  13.5035412  44.2872863  18.0703025  14.0571259  44.7313493
  18.2804581  13.5643702  43.4691637  18.4582819  13.5941723  44.2321319
  20.7440117   1.8688732  43.1297526  21.1695188   1.4161258  42.5181052
  20.1297110   1.3148802  43.4062313  20.7168762   1.7202708  43.0802551
  10.2754967   8.7470403  34.0618150  10.7847196   9.3434911  34.4429456
  10.7489239   8.4796377  33.3794570  10.4198342   8.7956218  34.0172673
  21.1885715  17.4198670  32.2176806  20.4715024  17.2459532  31.7524043
  21.8392452  17.1851242  31.6852292  21.1787565  17.3594462  32.0706024
  23.7733686   6.2963258  35.9618111  23.1024876   6.8392961  35.8331177
  24.4673436   6.7658114  35.7199806  23.7762553   6.4461529  35.9073639
  17.8220420  18.4359970  41.1929869  17.5986074  17.6778800  41.5613896
  17.3330263  18.4657991  40.4710309  17.7163869  18.3282195  41.1406610
  23.9361813   2.7519142  38.8708484  24.2889423   2.3248865  39.5454283
  23.0776615   2.6669985  39.0009561  23.8611258   2.6763883  38.9903495
  12.6345498   5.3826662  36.9291331  11.9157487   5.7990794  37.1964194
  13.0057861   5.9480900  36.3782969  12.5837430   5.5275943  36.8874138
  21.9345079   6.0154510  42.8193327  21.9143006   5.8337806  43.6728105
  21.9824280   6.8866529  42.7952910  21.9379720   6.1171049  42.9416621
  19.8791409  12.6041702  48.7441803  19.8387264  11.9591379  48.1586959
  20.6914727  12.5478320  49.0567215  19.9934563  12.5000669  48.7038752
  16.4698877  18.6560428  38.6466954  16.0559275  17.9934559  38.2570796
  17.1546251  18.8038287  38.1262648  16.5097248  18.5801087  38.5123451
  19.8364171  17.8150514  39.3990571  19.4380454  17.9252784  38.6311391
  19.2215390  18.0232580  39.9817130  19.6863060  17.8624082  39.3721870
  18.4092073   4.4224661  32.2664710  17.8156912   4.7441658  31.7149277
  18.4467350   3.5765757  32.0585816  18.3266462   4.3448990  32.1547482
  25.3685873  -2.1262446  39.7992797  24.8616738  -2.8333307  39.7313974
  26.1653307  -2.4569257  39.9293873  25.4113113  -2.2789295  39.8091792
  21.2849889   4.3804166  35.6966461  21.0563582   4.4036867  34.8544819
  21.5447965   3.5561633  35.8161471  21.2896077   4.2620246  35.5891658
  15.5669118   6.2338639  45.2991561  15.0548021   5.6259822  45.6576592
  15.3948614   6.9495232  45.7665537  15.4658755   6.2501938  45.4207784
  14.3394652   2.9180712  36.9920656  14.8152018   3.2797792  36.3570837
  13.8383251   3.5737180  37.2720799  14.3360011   3.0674901  36.9397397
  19.4438188   4.1562884  47.7393816  20.0009618   3.9276693  47.1072282
  19.1199253   4.9168549  47.4629029  19.4784598   4.2346720  47.6050313
  17.1621305   7.2430537  48.7045823  17.9132632   7.5582214  49.0185378
  17.3543882   7.0409708  47.8779745  17.3012719   7.2597919  48.6289219
  16.3821305   5.0621912  30.3594040  16.7620270   5.0801541  29.5745155
  15.6413901   5.5075901  30.2384888  16.3290143   5.1303687  30.2257608
  24.0106595   3.3704103  35.9469619  24.0100822   3.2152760  36.8053895
  23.8062776   4.2167090  35.8911004  23.9806373   3.4724724  36.0657558
  21.7347448   8.0501605  39.6005826  22.2301113   7.3324600  39.5609846
  20.9247223   7.7472403  39.4860313  21.6891341   7.8999251  39.5779552
  17.1806059  11.8999418  31.7502830  16.3717382  11.5766092  31.7036140
  17.6880968  11.1932640  31.6831079  17.1355726  11.7480735  31.7333125
   7.8096336   9.3271611  37.4750195   6.9441856   9.3157302  37.3632966
   7.9095152   9.1401834  38.3221334   7.6970503   9.2977673  37.5839139
  23.7999266  10.8005293  42.2882955  24.2254338  10.2779714  41.7353380
  23.4356186  11.3986130  41.7671577  23.8085869  10.8115520  42.1291964
  13.4353346  19.0969510  41.0480300  13.7499905  19.9105898  41.0558082
  13.8446760  18.7119729  41.7162459  13.5421444  19.1598212  41.1484392
  20.3877866  14.5139557  38.6184112  20.8589044  15.2279819  38.7874097
  20.7238044  13.9138307  39.1543981  20.5072981  14.5311021  38.7216488
  22.4754850  16.1240870  50.7976184  22.5851816  15.3349431  51.1532931
  22.8045747  16.0346806  49.9950522  22.5407256  15.9946723  50.7318575
  21.0251812  14.3057491  45.3811805  20.4772758  13.6815375  45.1131870
  21.4864841  14.4951763  44.6655884  21.0119022  14.2416541  45.2362236
  23.8345677   2.3742845  42.7662997  23.2508665   2.8752052  42.3540564
  24.1549971   1.8672402  42.1327320  23.7958852   2.3734680  42.6121504
  16.3740476   1.2883440  33.0421672  17.1956170   1.4581753  32.8003367
  15.9110127   1.4430701  32.3187969  16.4271638   1.3365173  32.8993316
  10.7766366  13.0442619  40.6958908  11.3811224  13.0038453  40.0672729
  10.5693679  13.8913771  40.7262964  10.8355264  13.1630621  40.6075025
  20.5910138  15.3108564  41.9121146  21.4108512  15.1671530  42.1737441
  20.3104216  15.9354763  42.4537584  20.6706882  15.3818916  42.0309085
   6.0117649  12.0277236  40.5657832   5.9141927  11.2173508  40.8747888
   6.7946518  12.0069029  40.1804100   6.1133785  11.9044326  40.5544695
  19.4214414  27.6250463  37.2869290  19.1864598  26.7918115  37.1801559
  19.5600055  27.9055129  36.4730491  19.4070076  27.5433966  37.1511645
  21.7204501  19.7936194  40.1853598  21.1009533  19.2028841  40.0163613
  21.6188365  20.3847629  39.5517921  21.6142177  19.7940276  40.0658588
  21.4473634  23.3388475  42.4297167  21.3232331  23.9250921  43.0646986
  22.0991919  22.8448671  42.7309442  21.5247284  23.3527280  42.5683096
  34.1975668  12.8913655  36.8456946  33.8829109  13.5817134  37.2777369
  33.6802610  12.8358437  36.1442447  34.0740139  12.9848543  36.8053896
  28.2779944  31.0294289  46.1109146  27.7150779  30.6166898  46.6348807
  29.0400968  30.9547194  46.5302289  28.3074393  30.9571689  46.2502147
  29.8864924  23.0347025  30.2370746  30.1260928  23.2425008  29.4246089
  30.2080765  22.2304533  30.3459690  29.9702082  22.9461126  30.1331299
  24.8854842  23.2567897  47.8426191  25.0575346  23.1473791  48.6911473
  25.4224200  23.9022302  47.6057384  24.9899846  23.3359898  47.9331288
  23.5512279  17.3710739  30.7808397  23.3687852  17.5882620  29.9549389
  24.4137892  17.4849752  30.8367011  23.6516869  17.4200637  30.6662884
  19.1916559  25.8499828  42.6779111  18.9254975  25.0338944  42.8370102
  19.2055123  25.8952983  41.8074627  19.1541282  25.7356732  42.5732593
  36.1697953  16.1777643  40.7121545  36.8123862  16.2475747  41.2983460
  36.4220974  15.5106865  40.2101087  36.3020085  16.0903991  40.7248824
  23.9415166  19.3878206  45.3246119  23.2486962  18.9175186  45.5706851
  24.5575493  19.1616510  45.8987826  23.9299696  19.2845338  45.4455272
  19.6009973  26.6358607  39.9590856  19.4185546  26.6105493  39.1063148
  20.3359642  27.1057545  39.9979764  19.6824037  26.7019969  39.8388774
  22.6655725  23.3543610  46.4672964  23.3895697  23.3396641  46.9537859
  22.7671861  24.0638965  45.9694933  22.7873934  23.4568313  46.4651751
  30.0400674  26.8342695  51.3321911  29.2473655  27.1486206  51.5174531
  30.1549601  27.0494163  50.4942696  29.9396085  26.9126531  51.2360246
  19.5680883  23.5152108  40.1089922  20.1454386  23.3788559  40.7482168
  18.8694945  23.0587892  40.3635507  19.5501905  23.4274374  40.2412212
  15.0439717  22.3664001  36.8237741  15.1299968  21.9895869  37.6051271
  15.6715514  21.9924446  36.3457699  15.1496267  22.2549483  36.8683218
  20.6315675  31.1355734  40.8769102  20.6719820  31.4070585  40.0488881
  21.1910199  31.6597642  41.2926889  20.7199021  31.2531489  40.8160990
  26.7474388  17.3976102  51.0472271  26.4327829  18.1675665  50.7841834
  26.4264321  16.8346358  50.4624498  26.6533307  17.4286371  50.9213621
  33.4239174  15.9344483  44.9929789  34.1692766  15.7454293  44.5793215
  33.0076479  16.4602721  44.4343646  33.4724148  15.9846628  44.8494363
  23.7151953  26.4015262  38.7357909  23.4265202  25.7752733  39.2703636
  24.5835301  26.3435549  38.8022589  23.8012205  26.3002806  38.8248863
  26.3790894  19.9973353  49.7857486  25.5690669  20.3031133  49.6747328
  26.8565580  20.7178936  49.9010070  26.3294372  20.1487954  49.7864557
  22.7134926  25.5335904  44.6556888  23.2256022  25.8120157  44.0065648
  22.4271268  26.2725198  45.0219702  22.7469789  25.6838257  44.6146767
  19.8001832  20.0406095  34.9520625  19.9017968  20.8432257  35.2801600
  20.5957719  19.8393431  34.6543706  19.9329737  20.1291994  34.9555980
  20.6165564  20.1553274  42.6941747  20.4751056  19.3037214  42.8186255
  20.9006127  20.1981934  41.8703953  20.6373410  20.0353024  42.5909371
  25.8028939  32.9179854  43.1170245  25.9518502  32.3582770  42.4643649
  26.5828941  32.9971856  43.5002764  25.9403032  32.8465420  43.0767194
  28.3282239  33.0894497  44.3954736  28.2525910  32.4203308  44.9505524
  28.2572098  33.7912285  44.9095402  28.3062846  33.0939404  44.5531584
  21.3855869  18.0683621  46.0119197  20.8498059  17.4563979  46.3279964
  21.4473634  18.6431757  46.6652864  21.3151502  18.0630549  46.1554624
  33.6150204  11.0007677  38.7923596  33.7333772  11.4584140  38.0590899
  33.4412380  10.1952938  38.5059814  33.6069375  10.9501449  38.6424530
  23.5044625  25.4764355  35.8239252  23.6609244  25.4111158  36.6795244
  23.8445218  26.2512908  35.6117931  23.5777860  25.5813553  35.9193846
  20.0778887  22.6599306  36.1400019  20.4577851  23.0783851  35.4760286
  19.5034251  23.2412761  36.4468862  20.0490211  22.8077165  36.0876760
  30.4505635  22.7607680  50.4666925  30.9205266  23.3849796  50.8534799
  30.4967515  22.0924656  51.0260139  30.5273510  22.7542360  50.6066996
  29.3426283  12.2924653  45.3118841  29.9719401  12.8284953  45.0339911
  29.5112146  12.2002012  46.1632407  29.4604078  12.3586015  45.3967369
  29.1440198  17.0795848  47.5845253  29.9713628  16.8080997  47.6403867
  29.1648044  17.8756689  47.9409071  29.2693048  17.1575602  47.6460435
  23.7209688  24.2259711  40.7715513  22.8797695  24.1263585  40.9794407
  23.9299696  24.9955191  41.1229834  23.6274381  24.3251754  40.8542828
  21.1985255  21.8479247  38.6000264  20.8041953  21.9222259  37.8250373
  20.6425372  22.2337194  39.1508626  21.0588067  21.9161022  38.5667924
  25.5944704  29.3690830  44.7285208  25.4865059  29.3792893  45.5947267
  25.8040485  30.1945611  44.5390162  25.6094815  29.4931905  44.8289300
  36.0883890  15.3792306  37.7606908  35.4758203  15.8662708  38.1460640
  36.1848064  14.7035797  38.3044559  36.0121787  15.3510614  37.8985766
  23.6118496  26.6203473  42.1907146  23.0206429  27.2612971  42.1610161
  24.3739520  27.0441090  42.1638446  23.6366757  26.7779311  42.1822293
  24.0079119  17.7805471  42.8575164  24.4680600  17.8544400  43.5950287
  24.0535225  18.5786725  42.5074985  24.0829674  17.9099618  42.9147920
  25.6562468  18.4472165  47.4247191  25.2648034  17.8005513  47.8602969
  25.8248331  19.0383601  48.0441446  25.6233379  18.4386433  47.5809897
  20.7966897  21.4094661  45.2326880  21.6592510  21.3090370  45.1464210
  20.4658680  20.8289371  44.6712452  20.8752093  21.3086288  45.1372286
  24.3410431  18.5762229  27.9509983  23.9923236  19.2281954  28.4141532
  23.8606877  18.5619342  27.2233854  24.2180675  18.6705282  27.9121074
  20.8694358  28.2937570  43.3341062  20.3394283  27.6030009  43.3836037
  21.1419451  28.2847756  42.5053771  20.8319080  28.1904702  43.2188478
  23.4259428  21.8430258  44.1112167  23.5852915  21.0873582  44.5163889
  23.2452321  22.3921198  44.7652904  23.4224787  21.8124072  44.2674873
  16.1490200  24.9665335  40.6909411  16.0433649  24.9212179  39.8261495
  15.3990420  25.3119115  40.9723696  16.0225803  25.0106243  40.6046740
  27.1013546  25.9765398  48.7392305  26.2509176  26.1137112  48.8749950
  27.2641673  25.2429176  49.1840007  26.9997409  25.8879499  48.8247905
  24.1482079  16.4174061  48.5702321  24.7734783  15.8736193  48.8431753
  23.6932559  15.9368978  48.0010111  24.1730340  16.2663542  48.5263914
  21.2487550  24.2655711  34.0618150  21.7579780  24.8620218  34.4429456
  21.7221822  23.9981685  33.3794570  21.3930926  24.3141526  34.0172673
  36.3418457  13.3922862  39.7992797  35.8349322  12.6852001  39.7313974
  37.1385891  13.0616050  39.9293873  36.3845696  13.2396013  39.8091792
  21.3867416  20.1961522  47.9493923  21.2170006  20.8562897  47.4042129
  20.9433366  20.4068083  48.6706412  21.2966750  20.3247504  47.9755552
  30.4170772  19.6748192  47.7393816  30.9742202  19.4462001  47.1072282
  30.0931837  20.4353857  47.4629029  30.4517182  19.7532028  47.6050313
  18.2869481  23.1008388  43.2082412  17.7396200  22.4309033  43.3263281
  19.0761859  22.7338236  43.2725880  18.3221664  22.9473374  43.2351113
  28.1353889  22.7615845  48.7045823  28.8865216  23.0767522  49.0185378
  28.3276465  22.5595016  47.8779745  28.2745303  22.7783227  48.6289219
  17.0456450  22.3129196  40.3628435  16.8678211  21.8605805  41.0883351
  16.7575472  23.1155357  40.5466913  16.9769403  22.3651753  40.4971938
  18.7828920  24.8456919  37.4750195  17.9174439  24.8342610  37.3632966
  18.8827736  24.6587142  38.3221334  18.6703087  24.8162981  37.5839139
  24.4085930  34.6154818  41.0480300  24.7232489  35.4291206  41.0558082
  24.8179343  34.2305037  41.7162459  24.5154028  34.6783520  41.1484392
  28.2779944  14.8052335  45.5742207  28.4107850  14.0083329  45.9023182
  28.6625097  15.3318738  46.1540482  28.3536273  14.7652252  45.7085710
  25.9368391  14.8011510  43.8220101  26.4812804  14.4602637  44.4124442
  25.9905327  15.6596972  43.9641385  26.0257511  14.8766770  43.9301974
  21.7498950  28.5627926  40.6958908  22.3543807  28.5223761  40.0672729
  21.5426262  29.4099078  40.7262964  21.8087847  28.6815929  40.6075025
  16.9850232  27.5462544  40.5657832  16.8874510  26.7358815  40.8747888
  17.7679102  27.5254337  40.1804100  17.0866369  27.4229634  40.5544695
  55.5182357  59.3606208  49.2377409  56.2249125  58.8658239  49.3664343
  55.7070293  59.8015289  48.5080067  55.6510263  59.3524558  49.1486454
  51.5859032  65.0022038  36.7650843  51.9698411  65.5708937  36.2255618
  51.5218173  64.2771549  36.2856659  51.6332459  64.9797502  36.6144705
  48.0115276  67.5578381  39.0631813  48.6552732  67.9991545  39.4527971
  48.3371532  66.7531808  38.9762071  48.1547105  67.5043576  39.1077290
  50.9583234  60.3975714  41.3591571  51.2406477  59.6027120  41.1378327
  51.6869394  60.8756301  41.3796632  51.1072798  60.3510311  41.3294586
  60.9401322  59.5035076  38.3327401  60.1099025  59.7145720  38.4960818
  60.8910574  58.6772131  38.0569685  60.8108058  59.4124682  38.3164767
  42.9296906  63.5406750  38.5625497  42.4464484  64.2657239  38.5385080
  43.7420224  63.8382880  38.6735654  42.9787653  63.6909103  38.5752776
  49.0011060  62.3338930  41.1675311  48.4838001  61.9746345  40.5636619
  49.6985451  61.8101105  41.1781377  49.0276641  62.2036618  41.0805570
  52.6574652  62.7833744  47.1291484  52.7457998  62.5959885  47.9769694
  53.0864364  62.1371174  46.7296331  52.7336754  62.6596752  47.1963235
  50.2245111  62.0664904  46.1109146  49.6615946  61.6537514  46.6348807
  50.9866135  61.9917810  46.5302289  50.2539560  61.9942305  46.2502147
  45.7841103  64.0562926  38.7145776  46.4861682  63.5414915  38.7718533
  45.7038586  64.3837077  39.5192651  45.8764863  64.0277152  38.8418569
  45.7344581  60.6670153  42.5244690  46.2742806  60.5241284  43.1948062
  45.0514528  61.0666904  42.8928716  45.7136735  60.7049824  42.6779112
  58.1965637  60.1734431  38.4692117  57.7600869  60.1771173  39.2251089
  57.8628553  60.8539930  38.0371695  58.0828257  60.2746886  38.5172950
  52.7694711  62.2142763  49.7935268  53.5535128  62.3273611  50.1591010
  52.5691306  61.3883901  49.9893953  52.8560736  62.1089483  49.8769654
  52.9265104  64.1252865  43.4401723  52.1280350  63.8852366  43.6975592
  53.3751116  64.1767258  44.1868771  52.8739716  64.0975257  43.5886647
  59.4465271  56.7482399  34.9393347  59.7773488  57.2810039  34.3333442
  60.0198359  56.8021287  35.5955298  59.5798950  56.8351968  34.9471129
  51.9865841  57.8713310  51.3321911  51.1938822  58.1856822  51.5174531
  52.1014768  58.0864779  50.4942696  51.8861252  57.9497147  51.2360246
  52.9149634  57.7733514  46.2707208  53.4888496  57.1360758  46.4255772
  52.8364438  57.7737597  45.4016866  52.9882869  57.6798626  46.1653619
  58.2369782  59.1442492  46.2792061  58.0008419  58.3130557  46.1604122
  58.8813011  59.0928099  46.8646906  58.2964453  59.0140180  46.3477955
  59.2606202  58.9286941  42.3420356  58.9552020  59.6614997  42.7033671
  58.5412418  58.5224870  42.0613142  59.1093545  58.9768673  42.3533493
  64.9607995  55.5679941  41.6688700  64.8932495  55.5875900  40.7991287
  64.9463657  56.4110268  41.8944371  64.9486751  55.6953676  41.5741177
  48.8094258  63.3745179  33.4042057  49.0992556  62.9834160  32.6801284
  49.5397738  63.5561884  33.8447333  48.9601142  63.3438993  33.3624864
  46.7500173  65.3512561  36.4702207  46.5300469  65.0609916  37.2628874
  46.5294695  64.6927516  35.9420119  46.6847767  65.2112270  36.5091116
  48.9168129  66.7241951  35.2532900  49.5692187  66.1918393  35.4823926
  48.2193738  66.3710603  35.6400774  48.9098847  66.5931474  35.3445067
  56.9108047  59.0446365  34.5963879  57.4766080  59.7039575  34.5122422
  56.2635951  59.3896063  35.0680281  56.8986804  59.1928306  34.6536635
  53.3814625  61.9885149  34.0200958  53.1401301  61.2553010  33.6128023
  53.5615958  62.5372006  33.3667291  53.3722249  61.9607540  33.8631181
  56.6117372  59.7374339  40.6273016  56.4731732  60.4355385  41.1321758
  55.8317370  59.5822995  40.2709198  56.4760599  59.8174506  40.6499290
  54.9495457  56.0370714  46.8795398  54.9443496  55.1650531  46.8837824
  55.6556451  56.2358884  46.4064853  55.0540461  55.9374589  46.8102433
  47.7494106  63.9550470  43.1170245  47.8983669  63.3953386  42.4643649
  48.5294108  64.0342472  43.5002764  47.8868199  63.8836036  43.0767194
  58.1070745  59.0952593  31.3889515  57.7277554  58.3089731  31.3818805
  57.4436991  59.6439450  31.2461160  57.9529220  59.0597417  31.3670312
  50.2747406  64.1265113  44.3954736  50.1991077  63.4573924  44.9505524
  50.2037266  64.8282901  44.9095402  50.2528013  64.1310020  44.5531584
  50.9317653  62.6466112  35.2278342  51.6967544  62.3775756  34.9061006
  50.8295743  62.1616122  35.9448404  51.0299149  62.5355676  35.2858169
  56.3530844  61.3398084  31.7241201  56.4350681  62.1465070  31.4002652
  56.8380586  61.3594043  32.4481975  56.4368002  61.4618746  31.7828100
  49.6639041  67.5333433  42.8532736  50.1534971  66.8344222  42.6708401
  49.0923273  67.2357303  43.4408794  49.6523571  67.3859656  42.9133777
  55.8606044  60.0995502  51.8059527  56.6740909  59.8280651  51.9664660
  55.7001011  59.8003042  51.0019723  55.9575993  60.0150428  51.7104933
  54.5482874  63.7047908  36.1909136  54.1562666  63.4014623  35.4732002
  54.7035946  64.5416998  36.0014090  54.5136464  63.7831744  36.0565633
  54.7122549  60.2697896  36.1315167  54.3537204  60.4412539  36.9079199
  54.2261260  60.7311102  35.5743165  54.5881246  60.3636867  36.1640436
  55.8727288  61.1601792  47.0782368  56.5107009  60.6661988  46.7444824
  55.2301380  61.0879193  46.4934594  55.8721515  61.0760801  46.9424723
  55.9281545  61.8521601  43.7187724  56.7173923  61.5010665  43.8389806
  56.1025143  62.6657989  43.4564358  56.0701826  61.9207458  43.6975592
  47.5409871  60.4061446  44.7285208  47.4330226  60.4163508  45.5947267
  47.7505653  61.2316227  44.5390162  47.5559982  60.5302521  44.8289300
  55.3173179  63.1083400  39.6239171  55.1192868  63.5974215  38.9295382
  54.6960890  63.3124642  40.2023304  55.1960744  63.2099939  39.6062394
  57.2346981  56.6747553  45.1584419  57.9581180  56.2220079  44.9795439
  56.9696944  56.9552218  44.3756747  57.3028255  56.6498521  45.0163134
  53.8479616  59.9133889  32.0578745  54.5713815  60.3792002  31.9143318
  53.4080207  59.9807498  31.3076342  53.8895308  59.9917725  31.9263526
  51.4975685  60.0591336  44.2872863  50.9900776  60.6127183  44.7313493
  51.2002331  60.1199626  43.4691637  51.3780570  60.1497647  44.2321319
  54.1083465  63.9754593  32.2176806  53.3912775  63.8015456  31.7524043
  54.7590203  63.7407166  31.6852292  54.0985316  63.9150386  32.0706024
  50.7418170  64.9915894  41.1929869  50.5183825  64.2334723  41.5613896
  50.2528014  65.0213915  40.4710309  50.6361619  64.8838119  41.1406610
  52.7989160  59.1597626  48.7441803  52.7585015  58.5147303  48.1586959
  53.6112478  59.1034244  49.0567215  52.9132313  59.0556593  48.7038752
  49.3896627  65.2116352  38.6466954  48.9757026  64.5490482  38.2570796
  50.0744002  65.3594211  38.1262648  49.4294999  65.1357010  38.5123451
  52.7561921  64.3706437  39.3990571  52.3578205  64.4808708  38.6311391
  52.1413141  64.5788504  39.9817130  52.6060811  64.4180005  39.3721870
  60.4903764  58.9458404  32.7833661  60.8737370  59.6949760  33.0131758
  59.6947877  59.1924224  32.5245650  60.4297546  59.0928098  32.7791235
  46.3551097  65.6525434  41.0480300  46.6697656  66.4661822  41.0558082
  46.7644510  65.2675653  41.7162459  46.4619195  65.7154136  41.1484392
  53.3075617  61.0695481  38.6184112  53.7786795  61.7835743  38.7874097
  53.6435795  60.4694231  39.1543981  53.4270732  61.0866945  38.7216488
  55.3952601  62.6796794  50.7976184  55.5049567  61.8905355  51.1532931
  55.7243498  62.5902730  49.9950522  55.4605007  62.5502647  50.7318575
  53.9449563  60.8613415  45.3811805  53.3970509  60.2371298  45.1131870
  54.4062592  61.0507687  44.6655884  53.9316772  60.7972465  45.2362236
  53.5107889  61.8664487  41.9121146  54.3306263  61.7227453  42.1737441
  53.2301967  62.4910686  42.4537584  53.5904633  61.9374839  42.0309085
  38.9315399  58.5833160  40.5657832  38.8339677  57.7729431  40.8747888
  39.7144269  58.5624953  40.1804100  39.0331536  58.4600250  40.5544695
  69.9821540  69.5229339  34.8764022  69.9515544  70.3773976  35.0482292
  70.5802888  69.2224632  35.4350166  70.0658697  69.6045836  34.9838824
  63.1821224  68.6104990  39.6316953  62.3259120  68.7713488  39.6826069
  63.2288878  67.7397054  39.6522014  63.0620336  68.5055792  39.6423019
  57.5662364  78.1467708  35.3954184  56.8145264  77.7683246  35.1670229
  58.0148376  78.1786142  34.6472994  57.5212031  78.0953315  35.2511686
  66.4914941  74.8791516  49.2377409  67.1981708  74.3843547  49.3664343
  66.6802876  75.3200597  48.5080067  66.6242847  74.8709866  49.1486454
  66.0273045  70.6697034  42.2748604  66.5729005  71.3482121  42.3342574
  65.9689922  70.5284495  41.4150186  66.0988960  70.7489036  42.1560665
  59.1447120  78.1586100  37.6616957  59.2457483  77.3486454  37.9714084
  58.5488866  78.0643047  37.0316635  59.0719659  78.0251128  37.6143195
  67.8038114  72.0981641  33.1482332  67.6877640  72.8489327  33.5774470
  68.5994001  71.8405594  33.3978419  67.9042704  72.1716488  33.2486424
  52.3412165  74.1806387  37.2869290  52.1062349  73.3474039  37.1801559
  52.4797805  74.4611052  36.4730491  52.3267827  74.0989890  37.1511645
  54.6402252  66.3492117  40.1853598  54.0207284  65.7584765  40.0163613
  54.5386116  66.9403553  39.5517921  54.5339928  66.3496200  40.0658588
  59.6868440  76.0875664  34.4351674  60.0084281  76.6280872  33.8312983
  60.3340536  75.5172436  34.5673964  59.8294495  76.0834839  34.3658710
  61.7370148  68.0891659  34.5186061  62.4350312  68.2679787  35.0107524
  62.0522480  67.5661999  33.8956451  61.8865485  68.0385431  34.4988071
  54.3671385  69.8944399  42.4297167  54.2430082  70.4806845  43.0646986
  55.0189670  69.4004595  42.7309442  54.4445034  69.9083204  42.5683096
  61.9258083  74.4762104  34.5065853  62.3651719  73.8679205  34.9520625
  61.7762746  74.0969478  33.7351318  61.9679549  74.3300575  34.4585020
  59.3929726  73.0706116  41.7084678  60.0378729  72.5778559  41.3895627
  59.6331503  73.2130903  42.5350756  59.5240311  73.0183558  41.7834211
  61.9315817  75.9161022  41.3591571  62.2139060  75.1212428  41.1378327
  62.6601978  76.3941609  41.3796632  62.0805381  75.8695619  41.3294586
  59.9097011  63.4584056  38.6007336  59.5800341  63.9095199  37.9311035
  59.2342013  63.3800219  39.1480342  59.7607448  63.5135191  38.5830559
  65.5267420  72.8289285  31.4596622  65.4418715  73.6850252  31.6046191
  66.0151803  72.5533610  32.1278781  65.5856317  72.9146607  31.5798703
  67.1173419  59.4469579  36.8456946  66.8026860  60.1373057  37.2777369
  66.6000361  59.3914361  36.1442447  66.9937889  59.5404467  36.8053896
  66.4585853  69.4474080  32.9594357  65.9297324  69.6633713  33.6191663
  66.9810873  70.1410218  32.8795326  66.4574306  69.5817217  33.0449956
  58.3485461  73.3437296  31.7601825  57.7642676  73.8487328  32.1667689
  57.9455556  73.1179683  31.0198417  58.2024764  73.3845545  31.7106850
  53.9029489  79.0592058  38.5625497  53.4197068  79.7842547  38.5385080
  54.7152808  79.3568188  38.6735654  53.9520237  79.2094411  38.5752776
  59.9743643  77.8524238  41.1675311  59.4570585  77.4931653  40.5636619
  60.6718035  77.3286413  41.1781377  60.0009224  77.7221926  41.0805570
  61.1977695  77.5850212  46.1109146  60.6348530  77.1722822  46.6348807
  61.9598719  77.5103118  46.5302289  61.2272144  77.5127613  46.2502147
  62.8062675  69.5902949  30.2370746  63.0458679  69.7980932  29.4246089
  63.1278516  68.7860457  30.3459690  62.8899833  69.5017050  30.1331299
  58.1152965  61.5196344  34.0830284  58.8698933  61.8874661  33.8447334
  57.9380500  61.8935899  34.8509463  58.2007444  61.6294532  34.1615172
  56.7573687  79.5748233  38.7145776  57.4594266  79.0600223  38.7718533
  56.6771170  79.9022385  39.5192651  56.8497447  79.5462460  38.8418569
  71.4087864  67.6690785  42.1277823  70.5716285  67.7392972  42.3625417
  71.3776095  67.6715280  41.2552125  71.2806146  67.6801012  42.0337371
  57.8052593  69.8123820  47.8426191  57.9773097  69.7029715  48.6911473
  58.3421951  70.4578226  47.6057384  57.9097597  69.8915822  47.9331288
  56.4710030  63.9266663  30.7808397  56.2885603  64.1438544  29.9549389
  57.3335643  64.0405676  30.8367011  56.5714619  63.9756561  30.6662884
  56.0824462  75.7654585  38.2231384  56.9213361  75.9977518  38.2705146
  56.1136231  74.8958897  38.1538420  56.2106180  75.6711532  38.2196029
  56.7077165  76.1855461  42.5244690  57.2475390  76.0426592  43.1948062
  56.0247111  76.5852211  42.8928716  56.6869319  76.2235132  42.6779112
  66.1318050  71.8646461  37.7189714  66.8875565  72.2977976  37.7578623
  66.2380374  71.2151231  38.2924350  66.2588220  71.8323945  37.8087740
  52.1114310  72.4055751  42.6779111  51.8452725  71.5894868  42.8370102
  52.1252874  72.4508907  41.8074627  52.0739032  72.2912656  42.5732593
  69.0895704  62.7333566  40.7121545  69.7321612  62.8031671  41.2983460
  69.3418725  62.0662789  40.2101087  69.2217836  62.6459915  40.7248824
  56.0172057  67.2040836  29.2930870  55.3030234  66.9179015  29.7053302
  56.5016026  67.5437462  29.9337257  55.9831420  67.2122486  29.4486504
  56.8612916  65.9434130  45.3246119  56.1684713  65.4731109  45.5706851
  57.4773244  65.7172434  45.8987826  56.8497446  65.8401262  45.4455272
  63.1919375  75.7070790  29.6692678  63.6070523  75.3755814  28.9777173
  62.3611305  75.4739692  29.5412814  63.1307384  75.6242046  29.5483525
  52.5207724  73.1914531  39.9590856  52.3383297  73.1661417  39.1063148
  53.2557393  73.6613469  39.9979764  52.6021788  73.2575893  39.8388774
  68.5907398  73.4266041  37.1023743  68.8262987  73.5711240  36.2750594
  68.7396962  74.1908449  37.4955257  68.6473201  73.5605095  37.0387347
  55.5853475  69.9099534  46.4672964  56.3093448  69.8952564  46.9537859
  55.6869612  70.6194889  45.9694933  55.7071684  70.0124237  46.4651751
  70.4197855  72.2667707  34.9393347  70.7506072  72.7995347  34.3333442
  70.9930943  72.3206595  35.5955298  70.5531534  72.3537276  34.9471129
  62.9598425  73.3898618  51.3321911  62.1671406  73.7042130  51.5174531
  63.0747352  73.6050087  50.4942696  62.8593835  73.4682455  51.2360246
  65.6329744  70.1132609  35.6216927  65.7276598  70.8521904  36.0756553
  65.0088587  69.6850085  36.0551492  65.5538774  70.1593930  35.7525075
  63.8882218  73.2918822  46.2707208  64.4621079  72.6546066  46.4255772
  63.8097021  73.2922904  45.4016866  63.9615452  73.1983933  46.1653619
  52.4878634  70.0708032  40.1089922  53.0652137  69.9344482  40.7482168
  51.7892696  69.6143816  40.3635507  52.4699655  69.9830298  40.2412212
  65.8852765  71.9581349  28.8553879  65.8032928  72.0283536  29.7208866
  66.5232486  72.5211093  28.6637620  65.9672602  72.0520320  28.9543829
  59.2445936  71.7242087  38.3228406  58.9865180  70.8913822  38.2959705
  59.2994419  71.9499700  37.4820906  59.2145714  71.6339858  38.1948542
  64.3246986  63.8270538  38.4232498  63.6203313  63.3379723  38.5816417
  64.3731961  63.8393012  37.5520943  64.2277038  63.7560186  38.3171838
  58.2180648  69.2779850  38.8093300  57.6430240  69.4372018  39.4457261
  57.8416325  68.6415259  38.3461751  58.0783461  69.2077663  38.8347859
  61.8853937  67.7503199  43.6685679  61.4968370  67.3257417  43.0137870
  61.2208635  67.9985349  44.1762705  61.7300865  67.7241920  43.6473547
  71.5277206  67.5078204  36.4433509  71.2713771  66.6958145  36.2531392
  72.3706520  67.5155771  36.2163696  71.6143232  67.3890201  36.3818326
  47.9637467  68.9219924  36.8237741  48.0497719  68.5451793  37.6051271
  48.5913265  68.5480370  36.3457699  48.0694018  68.8105407  36.8683218
  65.7080299  61.4477828  41.1809663  66.0890810  60.7655999  41.5677537
  64.9043583  61.1587430  40.9985327  65.6456760  61.3044876  41.2113719
  62.9892875  71.9801804  31.8662486  63.8033514  72.2716696  31.7545257
  62.9252017  71.3261666  31.2920779  63.0995614  71.9266998  31.7651323
  58.8600784  75.4523321  36.9934798  59.4974730  75.2135069  37.5386591
  59.2855855  75.6560480  36.2587958  59.0176950  75.4474331  36.9651955
  53.5513426  77.6911657  40.8769102  53.5917571  77.9626509  40.0488881
  54.1107950  78.2153566  41.2926889  53.6396772  77.8087413  40.8160990
  59.5003599  70.6725611  31.3309687  59.8848751  70.4533317  32.0826232
  59.2515219  71.4988556  31.4610763  59.5205671  70.7623757  31.4610764
  59.6672139  63.9532026  51.0472271  59.3525580  64.7231589  50.7841834
  59.3462072  63.3902282  50.4624498  59.5731058  63.9842295  50.9213621
  61.2422255  75.9295744  38.6728584  61.3161264  75.7670915  39.5270434
  62.0591762  76.1185933  38.4289066  61.3738614  75.9332486  38.7626610
  55.0028012  76.2753606  35.7023028  54.1766130  76.5215344  35.5757306
  55.0640003  76.1965687  36.5685086  54.8902179  76.2998555  35.8111972
  57.2204036  62.3422547  36.6618468  56.3526461  62.4145147  36.7276077
  57.5079240  63.1444626  36.8506443  57.1343784  62.4716695  36.6993234
  66.3436925  62.4900407  44.9929789  67.0890517  62.3010217  44.5793215
  65.9274229  63.0158645  44.4343646  66.3921899  62.5402552  44.8494363
  59.7826841  78.8930487  33.4042057  60.0725140  78.5019468  32.6801284
  60.5130322  79.0747192  33.8447333  59.9333725  78.8624300  33.3624864
  73.7199196  69.8609635  39.9435294  74.2707117  69.2277704  40.1832387
  73.7043311  70.3925028  40.6350799  73.7984392  69.8458583  40.0814153
  60.3721586  73.6948233  44.4895188  59.8733280  74.4064000  44.5680076
  61.1821811  74.0148899  44.4513350  60.4177693  73.8475081  44.4951756
  56.6349704  72.9571186  38.7357909  56.3462953  72.3308657  39.2703636
  57.5033052  72.8991473  38.8022589  56.7209956  72.8558730  38.8248863
  67.4227602  68.1005969  39.0539891  67.0792368  67.3796304  39.4047140
  67.5220644  67.8919820  38.2118249  67.3869645  67.9630172  38.9811571
  56.8381977  74.5966437  34.6600274  57.5927945  74.9779476  34.8735736
  56.2452590  75.0477580  35.1146970  56.8618691  74.7195264  34.7583152
  59.2988644  66.5529277  49.7857486  58.4888420  66.8587057  49.6747328
  59.7763331  67.2734859  49.9010070  59.2492123  66.7043878  49.7864557
  58.1580204  75.7674998  40.0340389  57.6360957  75.9075290  40.7192254
  58.5454224  75.0085662  40.2242507  58.1383905  75.6760522  40.1641466
  55.1471388  65.8180807  34.1035344  54.8596184  65.4482077  33.3667291
  55.8341856  66.2875662  33.8419049  55.2060285  65.8327776  33.9550420
  59.5846530  72.7979017  35.4321880  59.3889312  73.4053752  34.8382183
  59.8080875  72.1046961  34.9513554  59.5881171  72.7856543  35.2737961
  57.9825060  69.6833755  35.5502749  58.7047711  69.8474913  35.0906555
  57.5033052  70.4043420  35.4442088  58.0188790  69.8131985  35.4668363
  65.9418567  66.0197554  40.9299434  65.1029668  66.0458833  40.6937697
  66.0122934  66.6668289  41.5104780  65.8286961  66.1193680  40.9808550
  55.6332676  72.0891827  44.6556888  56.1453773  72.3676081  44.0065648
  55.3469019  72.8281121  45.0219702  55.6667539  72.2394181  44.6146767
  64.3887845  62.9182931  35.6627049  65.0914198  62.7190679  35.1847008
  64.1232034  62.1458873  35.9695893  64.4534478  62.7745897  35.6372491
  69.8176091  71.2265541  38.2160675  69.7310066  71.3820967  39.0695454
  69.3626571  71.8703616  37.8420080  69.7379348  71.3441296  38.2867782
  52.7199583  66.5962019  34.9520625  52.8215719  67.3988181  35.2801600
  53.5155469  66.3949355  34.6543706  52.8527488  66.6847918  34.9555980
  59.1516402  64.1818216  44.7157930  58.9599599  64.1973350  45.5657354
  60.0014998  64.3781890  44.6924585  59.2492124  64.2132567  44.8381225
  53.5363315  66.7109197  42.6941747  53.3948806  65.8593138  42.8186255
  53.8203878  66.7537858  41.8703953  53.5571161  66.5908947  42.5909371
  63.6901907  68.5476288  36.8386235  63.4436621  68.4672039  37.6723024
  64.0187030  67.7629755  36.6448762  63.7023151  68.4202553  36.9333758
  65.9228041  71.5556022  46.8795398  65.9176079  70.6835839  46.8837824
  66.6289035  71.7544191  46.4064853  66.0273045  71.4559896  46.8102433
  59.6498934  71.2833006  46.2509218  59.7942310  71.8634214  45.6152328
  59.9974583  71.6609303  46.9559073  59.7226396  71.4253710  46.2608213
  61.8218852  70.4823175  44.0334350  61.0742166  70.6754189  43.6282628
  61.9760377  69.6568394  43.7958471  61.7341279  70.3888286  43.9379755
  58.7226689  79.4735778  43.1170245  58.8716253  78.9138694  42.4643649
  59.5026691  79.5527780  43.5002764  58.8600783  79.4021343  43.0767194
  62.0620629  64.3773725  44.9229753  62.5193243  65.1097700  45.0502545
  62.1376957  63.9540191  45.6817009  62.1411599  64.4230963  45.0530830
  54.3053620  64.6239545  46.0119197  53.7695809  64.0119903  46.3279964
  54.3671385  65.1987681  46.6652864  54.2349253  64.6186473  46.1554624
  66.5347955  57.5563600  38.7923596  66.6531523  58.0140064  38.0590899
  66.3610130  56.7508862  38.5059814  66.5267126  57.5057373  38.6424530
  61.9050237  78.1651420  35.2278342  62.6700128  77.8961064  34.9061006
  61.8028327  77.6801430  35.9448404  62.0031732  78.0540984  35.2858169
  59.9403007  66.3675829  41.7671577  59.1499081  66.1867289  42.0888913
  60.3363629  65.5902782  41.7501872  59.8819883  66.2263290  41.8124126
  64.4268897  75.1963604  27.2078291  65.1941883  75.2563729  26.7984143
  63.9800206  74.6244045  26.7234609  64.4742325  75.1200179  27.0756001
  65.3246693  74.0018259  39.4931023  64.6491695  73.7703492  39.9944410
  65.3339069  73.3939442  38.8673128  65.2265197  73.8777185  39.4747175
  62.4540837  68.8436088  46.2495076  62.3899978  69.7046045  46.1215213
  62.5938025  68.5268082  45.4490627  62.4656307  68.9236255  46.1123289
  61.1359931  71.5368228  40.3911279  60.7122180  71.7372727  39.6550297
  60.9604786  70.6897076  40.5035579  61.0470811  71.4417009  40.2984969
  56.4242376  72.0320279  35.8239252  56.5806995  71.9667082  36.6795244
  56.7642969  72.8068832  35.6117931  56.4975611  72.1369477  35.9193846
  62.9621520  71.4078163  34.6932615  63.5037066  70.9048544  35.1571235
  63.2768079  71.3543357  33.8822100  63.0885917  71.3257584  34.6416427
  61.1307970  76.7995514  31.9772643  61.2000790  75.9410053  32.1165643
  61.9096425  77.0167395  31.6491667  61.2560820  76.7048378  31.9489800
  64.1110790  66.3014467  44.7454915  64.3252759  65.6625381  44.1918269
  63.4944689  66.7460291  44.3162777  64.0516119  66.2724611  44.6005346
  52.9976637  69.2155230  36.1400019  53.3775602  69.6339775  35.4760286
  52.4232002  69.7968685  36.4468862  52.9687962  69.3633088  36.0876760
  66.2749878  67.9103532  45.6838222  65.4626559  67.6029423  45.7651395
  66.7339812  67.4302533  46.2480935  66.2230263  67.7940025  45.7792817
  65.6855132  75.7883204  36.1315167  65.3269787  75.9597847  36.9079199
  65.1993843  76.2496410  35.5743165  65.5613829  75.8822175  36.1640436
  60.4743498  71.4682370  28.6715401  60.7636023  72.2447252  28.9458975
  60.5615297  70.9571101  29.3729900  60.5297754  71.5074288  28.8157899
  63.3703385  69.3163604  50.4666925  63.8403016  69.9405720  50.8534799
  63.4165265  68.6480579  51.0260139  63.4471261  69.3098284  50.6066996
  60.5274659  61.4220631  41.1915728  60.0113147  60.7300823  41.3167307
  59.9668588  62.0891408  41.1378327  60.3681172  61.4183889  41.2021794
  62.5966892  61.9613591  43.0208581  62.2098645  61.9862623  43.8022111
  62.1099830  61.3955270  42.5683098  62.4679401  61.8809342  43.0696485
  68.5716872  68.5276246  41.6448283  68.1444480  68.4402595  40.8896383
  67.9342925  68.6354022  42.2303127  68.4146479  68.5308906  41.6193725
  62.2624034  58.8480577  45.3118841  62.8917152  59.3840877  45.0339911
  62.4309897  58.7557936  46.1632407  62.3801829  58.9141939  45.3967369
  62.0637949  63.6351772  47.5845253  62.8911378  63.3636920  47.6403867
  62.0845795  64.4312613  47.9409071  62.1890799  63.7131526  47.6460435
  56.6407439  70.7815634  40.7715513  55.7995445  70.6819509  40.9794407
  56.8497447  71.5511115  41.1229834  56.5472131  70.8807678  40.8542828
  54.1183006  68.4035171  38.6000264  53.7239703  68.4778183  37.8250373
  53.5623123  68.7893118  39.1508626  53.9785818  68.4716946  38.5667924
  65.7547953  61.3816465  38.2804143  65.9597546  61.3138773  39.1261140
  65.4274377  62.1875287  38.2125320  65.7363200  61.4902406  38.3963798
  60.4524104  68.7097034  40.0213111  60.1487241  68.1553022  40.6223518
  59.7503524  68.8889243  39.5341145  60.3040313  68.6541816  40.0382816
  59.5090201  66.0197553  34.5857813  59.7849935  65.3016466  34.1735380
  60.1088870  66.6182473  34.3778919  59.6383465  66.0017924  34.4938574
  58.5142455  75.9246754  44.7285208  58.4062810  75.9348816  45.5947267
  58.7238236  76.7501535  44.5390162  58.5292566  76.0487829  44.8289300
  69.0081640  61.9348230  37.7606908  68.3955954  62.4218632  38.1460640
  69.1045815  61.2591720  38.3044559  68.9319538  61.9066538  37.8985766
  63.0100721  63.6911071  32.8604408  63.4644468  63.8621631  33.5852252
  63.4840767  63.0779181  32.4602183  63.1469041  63.6261956  32.9078169
  56.5316247  73.1759397  42.1907146  55.9404180  73.8168895  42.1610161
  57.2937270  73.5997014  42.1638446  56.5564507  73.3335235  42.1822293
  56.9276869  64.3361394  42.8575164  57.3878351  64.4100324  43.5950287
  56.9732976  65.1342648  42.5074985  57.0027425  64.4655541  42.9147920
  58.5760219  65.0028089  47.4247191  58.1845784  64.3561436  47.8602969
  58.7446082  65.5939525  48.0441446  58.5431130  64.9942357  47.5809897
  60.3513741  70.3953605  33.9649415  61.0955786  70.7827881  34.2032365
  60.4974437  69.5511030  34.1289903  60.4824326  70.3284078  34.0243385
  62.2693317  62.1903864  38.9981276  61.4229362  62.3626672  38.8722626
  62.2664449  61.3853208  39.3347105  62.1440467  62.0964893  39.0292403
  63.3391617  65.9679078  39.8643334  62.8651571  65.4420840  40.3748645
  63.7109753  65.4208551  39.2958196  63.3241506  65.8095075  39.8558481
  53.7164647  67.9650585  45.2326880  54.5790260  67.8646294  45.1464210
  53.3856430  67.3845294  44.6712452  53.7949844  67.8642212  45.1372286
  69.6028348  71.0281454  41.2750115  69.3626571  70.1887869  41.2792541
  70.0820355  71.1081621  41.9990888  69.6380531  70.9162854  41.3824917
  65.2675117  66.8615633  32.9269088  64.7398135  66.9444377  32.2374797
  65.7270825  67.6033504  32.9233733  65.2576967  66.9836295  32.8243783
  71.6033535  67.8082911  39.2279374  71.3643305  67.7678745  38.3900158
  71.7667436  68.6554063  39.3545095  71.5923838  67.9274996  39.1232856
  68.2079565  72.1932861  45.1584419  68.9313764  71.7405387  44.9795439
  67.9429527  72.4737526  44.3756747  68.2760838  72.1683829  45.0163134
  57.0766433  66.7893034  41.8937298  56.4519503  66.8011426  41.2863251
  56.7412028  67.2653209  42.5428538  56.9351925  66.8611551  41.8993867
  57.2608182  65.1318153  27.9509983  56.9120986  65.7837878  28.4141532
  56.7804628  65.1175266  27.2233854  57.1378426  65.2261206  27.9121074
  53.7892109  74.8493494  43.3341062  53.2592033  74.1585933  43.3836037
  54.0617202  74.8403679  42.5053771  53.7516831  74.7460626  43.2188478
  64.8212199  75.4319197  32.0578745  65.5446398  75.8977309  31.9143318
  64.3812790  75.4992806  31.3076342  64.8627891  75.5103033  31.9263526
  63.9898354  72.2916739  43.3079434  63.3755347  71.7474789  43.6028069
  64.5065639  71.7780975  42.8285250  63.9754017  72.1353148  43.2803662
  63.2294652  73.3621009  41.0423733  62.8022260  72.7370727  40.6089168
  63.2219596  73.0795931  41.8682740  63.1653793  73.2273789  41.1003560
  56.3457179  68.3986182  44.1112167  56.5050665  67.6429506  44.5163889
  56.1650072  68.9477121  44.7652904  56.3422538  68.3679996  44.2674873
  64.2877482  60.5647417  44.6662956  63.7918043  60.7611092  43.9754523
  65.0446544  60.9640086  44.4951758  64.3264306  60.6525151  44.5383093
  61.5580361  64.2389763  41.2566267  61.5822848  63.7049876  40.5679047
  61.8091835  63.7307072  41.9191857  61.5990280  64.0850667  41.2530911
  49.0687951  71.5221258  40.6909411  48.9631400  71.4768103  39.8261495
  48.3188171  71.8675039  40.9723696  48.9423554  71.5662166  40.6046740
  57.8381683  62.9660582  40.6372011  57.8780055  63.4669788  41.3506718
  57.0131348  63.0570975  40.3677934  57.7221209  63.0542398  40.7022549
  60.0211296  72.5321322  48.7392305  59.1706927  72.6693036  48.8749950
  60.1839424  71.7985100  49.1840007  59.9195160  72.4435423  48.8247905
  59.2596047  69.4821091  42.9345910  58.4287976  69.6494909  42.7281158
  59.2047564  69.1057042  43.7194795  59.1285462  69.4510823  43.0194438
  57.0679830  62.9729984  48.5702321  57.6932533  62.4292117  48.8431753
  56.6130310  62.4924902  48.0010111  57.0928091  62.8219466  48.5263914
  57.6332091  67.7576683  33.4636028  57.7735052  68.2549147  34.1664669
  58.1314623  67.0562977  33.6050241  57.7273172  67.7278662  33.5887607
  57.6632313  68.6243794  30.7928604  58.2977392  69.2204219  30.7278066
  57.7457924  68.3247252  31.6074475  57.7688864  68.6684702  30.9031691
  70.6414879  71.1559271  43.6614969  71.2332719  71.7956522  43.6933167
  71.0773873  70.4582308  43.9507035  70.7933310  71.1477622  43.7095801
  59.2411296  64.5557769  30.7674046  59.5627137  64.0760852  30.1133309
  59.5038240  65.3657415  30.5764858  59.3277321  64.6047667  30.6429539
  62.4708269  75.5776644  44.2872863  61.9633360  76.1312491  44.7313493
  62.1734915  75.6384934  43.4691637  62.3513154  75.6682955  44.2321319
  64.6370451  63.9429963  43.1297526  65.0625522  63.4902490  42.5181052
  64.0227444  63.3890034  43.4062313  64.6099096  63.7943940  43.0802551
  54.1685301  70.8211635  34.0618150  54.6777530  71.4176142  34.4429456
  54.6419573  70.5537608  33.3794570  54.3128677  70.8697450  34.0172673
  63.0764674  60.4145063  36.5388103  62.4332992  60.2642709  37.1073241
  62.7364081  60.1687408  35.7737207  62.9309751  60.3557186  36.5091118
  67.6664020  68.3704490  35.9618111  66.9955210  68.9134192  35.8331177
  68.3603770  68.8399345  35.7199806  67.6692888  68.5202761  35.9073639
  67.8292148  64.8260374  38.8708484  68.1819758  64.3990097  39.5454283
  66.9706949  64.7411217  39.0009561  67.7541592  64.7505114  38.9903495
  56.5275833  67.4567893  36.9291331  55.8087822  67.8732026  37.1964194
  56.8988195  68.0222132  36.3782969  56.4767764  67.6017175  36.8874138
  65.8275413  68.0895742  42.8193327  65.8073341  67.9079037  43.6728105
  65.8754614  68.9607761  42.7952910  65.8310054  68.1912280  42.9416621
  63.7721743  74.6782934  48.7441803  63.7317598  74.0332611  48.1586959
  64.5845062  74.6219552  49.0567215  63.8864897  74.5741901  48.7038752
  62.3022407  66.4965893  32.2664710  61.7087246  66.8182890  31.7149277
  62.3397685  65.6506989  32.0585816  62.2196796  66.4190221  32.1547482
  69.2616208  59.9478785  39.7992797  68.7547072  59.2407925  39.7313974
  70.0583641  59.6171974  39.9293873  69.3043447  59.7951937  39.8091792
  65.1780224  66.4545398  35.6966461  64.9493917  66.4778099  34.8544819
  65.4378300  65.6302865  35.8161471  65.1826412  66.3361478  35.5891658
  59.4599452  68.3079871  45.2991561  58.9478355  67.7001054  45.6576592
  59.2878948  69.0236463  45.7665537  59.3589089  68.3243170  45.4207784
  54.3065167  66.7517446  47.9493923  54.1367757  67.4118821  47.4042129
  53.8631117  66.9624007  48.6706412  54.2164500  66.8803428  47.9755552
  58.2324986  64.9921944  36.9920656  58.7082352  65.3539024  36.3570837
  57.7313586  65.6478412  37.2720799  58.2290345  65.1416133  36.9397397
  63.3368522  66.2304115  47.7393816  63.8939953  66.0017925  47.1072282
  63.0129587  66.9909781  47.4629029  63.3714933  66.3087952  47.6050313
  51.2067231  69.6564312  43.2082412  50.6593951  68.9864957  43.3263281
  51.9959609  69.2894159  43.2725880  51.2419415  69.5029298  43.2351113
  61.0551640  69.3171769  48.7045823  61.8062967  69.6323445  49.0185378
  61.2474216  69.1150940  47.8779745  61.1943054  69.3339150  48.6289219
  60.2751639  67.1363144  30.3594040  60.6550604  67.1542773  29.5745155
  59.5344235  67.5817133  30.2384888  60.2220477  67.2044918  30.2257608
  67.9036930  65.4445335  35.9469619  67.9031156  65.2893992  36.8053895
  67.6993110  66.2908322  35.8911004  67.8736708  65.5465956  36.0657558
  49.9654201  68.8685119  40.3628435  49.7875962  68.4161728  41.0883351
  49.6773223  69.6711281  40.5466913  49.8967154  68.9207677  40.4971938
  65.6277782  70.1242837  39.6005826  66.1231447  69.4065832  39.5609846
  64.8177558  69.8213634  39.4860313  65.5821675  69.9740483  39.5779552
  61.0736393  73.9740650  31.7502830  60.2647716  73.6507324  31.7036140
  61.5811302  73.2673872  31.6831079  61.0286060  73.8221966  31.7333125
  51.7026671  71.4012843  37.4750195  50.8372190  71.3898534  37.3632966
  51.8025486  71.2143066  38.3221334  51.5900838  71.3718904  37.5839139
  67.6929601  72.8746524  42.2882955  68.1184672  72.3520946  41.7353380
  67.3286521  73.4727362  41.7671577  67.7016203  72.8856751  42.1291964
  57.3283680  81.1710742  41.0480300  57.6430239  81.9847130  41.0558082
  57.7377094  80.7860960  41.7162459  57.4351778  81.2339444  41.1484392
  64.2808200  76.5880789  38.6184112  64.7519378  77.3021051  38.7874097
  64.6168379  75.9879539  39.1543981  64.4003315  76.6052253  38.7216488
  61.1977695  61.3608259  45.5742207  61.3305601  60.5639253  45.9023182
  61.5822848  61.8874662  46.1540482  61.2734024  61.3208176  45.7085710
  64.9182146  76.3798723  45.3811805  64.3703092  75.7556606  45.1131870
  65.3795175  76.5692995  44.6655884  64.9049356  76.3157773  45.2362236
  64.2710050  58.2838585  42.1723300  63.4656014  58.1736315  42.4891138
  64.1416786  58.3851041  41.3153166  64.1330183  58.2822255  42.0931340
  67.7276011  64.4484077  42.7662997  67.1439000  64.9493284  42.3540564
  68.0480305  63.9413633  42.1327320  67.6889186  64.4475912  42.6121504
  60.2670810  63.3624672  33.0421672  61.0886504  63.5322985  32.8003367
  59.8040461  63.5171933  32.3187969  60.3201972  63.4106405  32.8993316
  58.8566142  61.3567434  43.8220101  59.4010555  61.0158561  44.4124442
  58.9103078  62.2152896  43.9641385  58.9455261  61.4322694  43.9301974
  54.6696701  75.1183850  40.6958908  55.2741558  75.0779684  40.0672729
  54.4624013  75.9655002  40.7262964  54.7285598  75.2371853  40.6075025
  49.9047983  74.1018468  40.5657832  49.8072261  73.2914739  40.8747888
  50.6876853  74.0810261  40.1804100  50.0064119  73.9785558  40.5544695
  36.7574613  -0.0948453  21.8104069  36.7268617   0.7596183  21.9822338
  37.3555962  -0.3953161  22.3690213  36.8411771  -0.0131957  21.9178871
  29.9574298  -1.0072802  26.5656999  29.1012193  -0.8464304  26.6166116
  30.0041951  -1.8780738  26.5862060  29.8373409  -1.1122001  26.5763065
  24.3415437   8.5289915  22.3294231  23.5898337   8.1505454  22.1010276
  24.7901449   8.5608349  21.5813041  24.2965104   8.4775523  22.1851733
  33.2668014   5.2613723  36.1717456  33.9734781   4.7665754  36.3004390
  33.4555950   5.7022805  35.4420114  33.3995920   5.2532074  36.0826501
  29.7940397   8.9515285  17.7579778  29.4591766   9.6292207  17.3224000
  30.3067268   8.5620596  17.1696650  29.8205978   8.9939863  17.6066570
  29.3344689  10.9029554  23.6990890  29.7184068  11.4716452  23.1595665
  29.2703830  10.1779064  23.2196706  29.3818116  10.8805017  23.5484752
  32.8026119   1.0519242  29.2088651  33.3482079   1.7304328  29.2682621
  32.7442995   0.9106702  28.3490233  32.8742033   1.1311243  29.0900712
  25.9200193   8.5408308  24.5957003  26.0210556   7.7308662  24.9054131
  25.3241939   8.4465254  23.9656682  25.8472732   8.4073336  24.5483242
  34.5791187   2.4803849  20.0822379  34.4630713   3.2311535  20.5114517
  35.3747074   2.2227802  20.3318466  34.6795777   2.5538696  20.1826471
  25.7600933  13.4585897  25.9971860  26.4038389  13.8999061  26.3868018
  26.0857189  12.6539323  25.9102118  25.9032762  13.4051091  26.0417337
  19.1165238   4.5628594  24.2209337  18.8815422   3.7296247  24.1141606
  19.2550879   4.8433260  23.4070538  19.1020900   4.4812098  24.0851692
  26.4621513   6.4697872  21.3691721  26.7837354   7.0103079  20.7653029
  27.1093609   5.8994643  21.5014011  26.6047568   6.4657047  21.2998757
  28.5123221  -1.5286133  21.4526108  29.2103386  -1.3498006  21.9447571
  28.8275553  -2.0515794  20.8296497  28.6618558  -1.5792361  21.4328118
  21.1424458   0.2766606  29.3637214  21.0183155   0.8629052  29.9987033
  21.7942743  -0.2173198  29.6649489  21.2198108   0.2905411  29.5023143
  28.7011156   4.8584312  21.4405899  29.1404792   4.2501412  21.8860672
  28.5515819   4.4791685  20.6691364  28.7432622   4.7122783  21.3925067
  26.1682799   3.4528323  28.6424725  26.8131802   2.9600767  28.3235673
  26.4084576   3.5953110  29.4690803  26.2993384   3.4005766  28.7174258
  28.7068891   6.2983229  28.2931617  28.9892133   5.5034635  28.0718373
  29.4355051   6.7763817  28.3136679  28.8558454   6.2517826  28.2634633
  32.3020493   3.2111493  18.3936669  32.2171788   4.0672460  18.5386238
  32.7904876   2.9355817  19.0618828  32.3609390   3.2968814  18.5138750
  33.2338926  -0.1703713  19.8934404  32.7050398   0.0455921  20.5531710
  33.7563946   0.5232426  19.8135373  33.2327379  -0.0360576  19.9790003
  38.6886979   5.4042591  25.2667448  37.8584682   5.6153235  25.4300865
  38.6396231   4.5779646  24.9909732  38.5593714   5.3132198  25.2504814
  20.6782562   9.4414265  25.4965543  20.1950141  10.1664755  25.4725127
  21.4905881   9.7390395  25.6075701  20.7273310   9.5916619  25.5092823
  26.7496717   8.2346446  28.1015358  26.2323658   7.8753861  27.4976666
  27.4471108   7.7108620  28.1121424  26.7762298   8.1044134  28.0145616
  30.4060309   8.6841260  34.0631531  30.4943654   8.4967400  34.9109741
  30.8350021   8.0378689  33.6636378  30.4822411   8.5604267  34.1303282
  27.9730768   7.9672420  33.0449193  27.4101603   7.5545029  33.5688854
  28.7351792   7.8925325  33.4642336  28.0025217   7.8949820  33.1842193
  23.5326760   9.9570441  25.6485823  24.2347339   9.4422430  25.7058580
  23.4524243  10.2844592  26.4532698  23.6250520   9.9284667  25.7758615
  38.1840937  -1.9487008  29.0617870  37.3469358  -1.8784821  29.2965464
  38.1529168  -1.9462513  28.1892172  38.0559220  -1.9376781  28.9677418
  24.5805666   0.1946028  34.7766238  24.7526170   0.0851922  35.6251520
  25.1175024   0.8400433  34.5397431  24.6850670   0.2738029  34.8671335
  22.8577535   6.1476793  25.1571431  23.6966435   6.3799726  25.2045193
  22.8889304   5.2781104  25.0878467  22.9859253   6.0533739  25.1536076
  23.4830238   6.5677668  29.4584737  24.0228463   6.4248799  30.1288109
  22.8000184   6.9674419  29.8268763  23.4622392   6.6057339  29.6119158
  32.9071123   2.2468669  24.6529761  33.6628638   2.6800183  24.6918670
  33.0133448   1.5973438  25.2264397  33.0341294   2.2146153  24.7427787
  35.9451294   6.0741946  25.4032164  35.5086526   6.0778688  26.1591136
  35.6114210   6.7547445  24.9711742  35.8313914   6.1754402  25.4512997
  30.5180368   8.1150279  36.7275314  31.3020784   8.2281127  37.0931057
  30.3176962   7.2891416  36.9234000  30.6046393   8.0096998  36.8109700
  18.8867383   2.7877959  29.6119158  18.6205798   1.9717076  29.7710149
  18.9005947   2.8331114  28.7414674  18.8492106   2.6734864  29.5072640
  30.6750761  10.0260381  30.3741770  29.8766007   9.7859881  30.6315639
  31.1236773  10.0774774  31.1208818  30.6225372   9.9982772  30.5226694
  39.0795640   2.7922866  24.2951801  39.7412074   2.2313534  24.1947710
  38.4387052   2.2974897  24.6204492  39.0824508   2.6359275  24.3284142
  29.9672448   6.0892997  16.6032725  30.3823597   5.7578021  15.9117220
  29.1364378   5.8561899  16.4752861  29.9060457   6.0064253  16.4823572
  19.2960797   3.5736738  26.8930903  19.1136370   3.5483624  26.0403195
  20.0310466   4.0435676  26.9319811  19.3774861   3.6398100  26.7728821
  35.3660471   3.8088248  24.0363790  35.6016060   3.9533447  23.2090641
  35.5150035   4.5730656  24.4295304  35.4226274   3.9427303  23.9727394
  22.3606549   0.2921741  33.4013011  23.0846521   0.2774772  33.8877906
  22.4622685   1.0017096  32.9034979  22.4824758   0.3946444  33.3991798
  37.1950928   2.6489914  21.8733394  37.5259145   3.1817554  21.2673489
  37.7684016   2.7028802  22.5295345  37.3284607   2.7359483  21.8811176
  29.7351498   3.7720826  38.2661958  28.9424479   4.0864338  38.4514578
  29.8500425   3.9872294  37.4282743  29.6346909   3.8504662  38.1700293
  32.4082817   0.4954817  22.5556974  32.5029671   1.2344111  23.0096600
  31.7841660   0.0672292  22.9891539  32.3291847   0.5416137  22.6865122
  30.6635291   3.6741029  33.2047255  31.2374152   3.0368274  33.3595819
  30.5850095   3.6745112  32.3356913  30.7368526   3.5806141  33.0993666
  19.2631707   0.4530239  27.0429969  19.8405210   0.3166690  27.6822214
  18.5645769  -0.0033977  27.2975553  19.2452729   0.3652505  27.1752259
  26.0199009   2.1064295  25.2568452  25.7618254   1.2736029  25.2299752
  26.0747492   2.3321908  24.4160953  25.9898787   2.0162066  25.1288589
  24.9933722  -0.3397943  25.7433347  24.4183313  -0.1805775  26.3797308
  24.6169398  -0.9762534  25.2801798  24.8536534  -0.4100130  25.7687905
  28.6607010  -1.8674594  30.6025726  28.2721443  -2.2920376  29.9477917
  27.9961709  -1.6192444  31.1102752  28.5053938  -1.8935873  30.5813593
  29.7645948   2.3624011  18.8002532  30.5786587   2.6538904  18.6885304
  29.7005090   1.7083873  18.2260825  29.8748687   2.3089206  18.6991370
  35.9855439   5.0450007  33.2132108  35.7494076   4.2138072  33.0944169
  36.6298668   4.9935614  33.7986952  36.0450109   4.9147695  33.2818002
  25.6353857   5.8345528  23.9274845  26.2727804   5.5957276  24.4726638
  26.0608928   6.0382687  23.1928005  25.7930023   5.8296539  23.8992002
  20.3266499   8.0733865  27.8109148  20.3670644   8.3448716  26.9828928
  20.8861023   8.5975773  28.2266936  20.4149845   8.1909620  27.7501037
  37.0091859   4.8294456  29.2760403  36.7037676   5.5622513  29.6373718
  36.2898075   4.4232385  28.9953189  36.8579202   4.8776189  29.2873540
  28.0175329   6.3117951  25.6068631  28.0914337   6.1493123  26.4610481
  28.8344835   6.5008141  25.3629112  28.1491687   6.3154693  25.6966656
  42.7093651   1.4687457  28.6028747  42.6418152   1.4883416  27.7331333
  42.6949314   2.3117784  28.8284417  42.6972408   1.5961191  28.5081224
  21.7781085   6.6575814  22.6363074  20.9519203   6.9037551  22.5097353
  21.8393077   6.5787895  23.5025132  21.6655252   6.6820763  22.7452019
  26.5579914   9.2752694  20.3382104  26.8478213   8.8841675  19.6141331
  27.2883395   9.4569399  20.7787380  26.7086799   9.2446508  20.2964911
  40.4952269   0.2431843  26.8775341  41.0460190  -0.3900088  27.1172433
  40.4796384   0.7747235  27.5690846  40.5737465   0.2280791  27.0154199
  27.1474660   4.0770440  31.4235235  26.6486353   4.7886208  31.5020123
  27.9574884   4.3971107  31.3853397  27.1930766   4.2297289  31.4291803
  24.4985830  11.2520076  23.4042254  24.2786125  10.9617431  24.1968921
  24.2780352  10.5935032  22.8760166  24.4333424  11.1119785  23.4431163
  23.4102777   3.3393393  25.6697956  23.1216026   2.7130864  26.2043683
  24.2786125   3.2813680  25.7362636  23.4963029   3.2380937  25.7588910
  34.1980675  -1.5171824  25.9879937  33.8545441  -2.2381488  26.3387187
  34.2973718  -1.7257972  25.1458296  34.1622718  -1.6547620  25.9151617
  26.6653786  12.6249466  22.1872946  27.3177844  12.0925909  22.4163972
  25.9679394  12.2718119  22.5740820  26.6584504  12.4938989  22.2785114
  23.6135051   4.9788644  21.5940321  24.3681019   5.3601683  21.8075783
  23.0205663   5.4299788  22.0487017  23.6371764   5.1017471  21.6923199
  34.6593704   4.9453880  21.5303926  35.2251737   5.6047090  21.4462469
  34.0121607   5.2903579  22.0020328  34.6472460   5.0935822  21.5876682
  26.0741718  -3.0648516  36.7197533  25.2641493  -2.7590736  36.6087375
  26.5516404  -2.3442933  36.8350117  26.0245196  -2.9133914  36.7204604
  24.9333277   6.1497205  26.9680436  24.4114031   6.2897497  27.6532301
  25.3207297   5.3907870  27.1582553  24.9136978   6.0582729  27.0981513
  31.1300282   7.8892665  20.9541005  30.8886958   7.1560525  20.5468070
  31.3101615   8.4379522  20.3007338  31.1207906   7.8615056  20.7971228
  26.3599603   3.1801224  22.3661927  26.1642385   3.7875959  21.7722230
  26.5833948   2.4869168  21.8853601  26.3634244   3.1678750  22.2078008
  24.7578133   0.0655962  22.4842795  25.4800785   0.2297120  22.0246601
  24.2786126   0.7865627  22.3782135  24.7941863   0.1954192  22.4008409
  32.7171640  -3.5980239  27.8639480  31.8782741  -3.5718960  27.6277744
  32.7876008  -2.9509503  28.4444827  32.6040034  -3.4984113  27.9148597
  22.4085749   2.4714035  31.5896935  22.9206846   2.7498288  30.9405695
  22.1222092   3.2103329  31.9559748  22.4420613   2.6216388  31.5486813
  36.5929164   1.6087748  25.1500722  36.5063139   1.7643174  26.0035501
  36.1379644   2.2525823  24.7760127  36.5132421   1.7263503  25.2207829
  25.9269475  -5.4359577  31.6497977  25.7352672  -5.4204442  32.4997400
  26.7768071  -5.2395902  31.6264632  26.0245197  -5.4045225  31.7721272
  30.4654980  -1.0701505  23.7726282  30.2189695  -1.1505754  24.6063071
  30.7940103  -1.8548037  23.5788809  30.4776224  -1.1975240  23.8673805
  34.3603029   5.6381854  27.5613063  34.2217388   6.3362900  28.0661805
  33.5803027   5.4830511  27.2049245  34.2246256   5.7182021  27.5839337
  32.6981114   1.9378230  33.8135445  32.6929153   1.0658046  33.8177871
  33.4042108   2.1366399  33.3404900  32.8026118   1.8382104  33.7442480
  26.4252008   1.6655214  33.1849265  26.5695383   2.2456422  32.5492375
  26.7727656   2.0431510  33.8899119  26.4979469   1.8075918  33.1948260
  28.5971925   0.8645382  30.9674396  27.8495239   1.0576396  30.5622674
  28.7513450   0.0390602  30.7298518  28.5094352   0.7710493  30.8719802
  25.4979763   9.8557985  30.0510292  25.6469326   9.2960901  29.3983696
  26.2779765   9.9349987  30.4342810  25.6353856   9.7843551  30.0107241
  35.8556402   4.9960108  18.3229562  35.4763211   4.2097246  18.3158851
  35.1922647   5.5446965  18.1801206  35.7014877   4.9604932  18.3010359
  28.0233063  10.0272628  31.3294782  27.9476734   9.3581439  31.8845571
  27.9522922  10.7290416  31.8435449  28.0013670  10.0317536  31.4871630
  28.8373702  -5.2404067  31.8569800  29.2946316  -4.5080093  31.9842592
  28.9130031  -5.6637602  32.6157056  28.9164672  -5.1946829  31.9870877
  28.6803310   8.5473627  22.1618388  29.4453201   8.2783271  21.8401053
  28.5781400   8.0623638  22.8788451  28.7784806   8.4363192  22.2198216
  26.7156080  -3.2501963  28.7011624  25.9252155  -3.4310503  29.0228960
  27.1116703  -4.0275011  28.6841919  26.6572956  -3.3914502  28.7464172
  32.0999766   4.3840467  26.4271070  31.4244768   4.1525699  26.9284457
  32.1092142   3.7761650  25.8013175  32.0018271   4.2599392  26.4087222
  29.2293910  -0.7741704  33.1835123  29.1653051   0.0868252  33.0555260
  29.3691098  -1.0909711  32.3830674  29.2409380  -0.6941538  33.0463336
  34.1016501   7.2405599  18.6581248  34.1836338   8.0472585  18.3342699
  34.5866243   7.2601558  19.3822021  34.1853659   7.3626262  18.7168147
  27.9113004   1.9190435  27.3251326  27.4875253   2.1194934  26.5890344
  27.7357859   1.0719283  27.4375626  27.8223885   1.8239217  27.2325016
  23.1995449   2.4142487  22.7579298  23.3560068   2.3489289  23.6135290
  23.5396042   3.1891039  22.5457978  23.2728684   2.5191685  22.8533893
  29.7374594   1.7900370  21.6272662  30.2790139   1.2870751  22.0911282
  30.0521153   1.7365565  20.8162147  29.8638991   1.7079791  21.5756474
  33.6091701   6.0003017  38.7399574  34.4226566   5.7288166  38.9004706
  33.4486667   5.7010557  37.9359770  33.7061649   5.9157943  38.6444980
  27.9061043   7.1817722  18.9112690  27.9753864   6.3232260  19.0505690
  28.6849498   7.3989603  18.5831714  28.0313893   7.0870586  18.8829847
  30.8863863  -3.3163325  31.6794962  31.1005833  -3.9552411  31.1258316
  30.2697762  -2.8717502  31.2502824  30.8269192  -3.3453182  31.5345393
  32.2968531   9.6055423  23.1249183  31.9048323   9.3022138  22.4072049
  32.4521603  10.4424513  22.9354137  32.2622121   9.6839260  22.9905680
  33.0502951  -1.7074260  32.6178269  32.2379633  -2.0148370  32.6991442
  33.5092886  -2.1875260  33.1820981  32.9983336  -1.8237768  32.7132863
  32.4608206   6.1705412  23.0655214  32.1022860   6.3420055  23.8419246
  31.9746916   6.6318617  22.5083212  32.3366903   6.2644383  23.0980483
  30.1456458  -0.3014189  37.4006971  30.6156090   0.3227928  37.7874846
  30.1918339  -0.9697213  37.9600186  30.2224334  -0.3079508  37.5407043
  33.6212945   7.0609308  34.0122414  34.2592666   6.5669503  33.6784870
  32.9787037   6.9886708  33.4274641  33.6207172   6.9768316  33.8764769
  35.3469945  -1.0901546  28.5788330  34.9197553  -1.1775198  27.8236430
  34.7095998  -0.9823771  29.1643174  35.1899552  -1.0868886  28.5533772
  33.6767202   7.7529116  30.6527771  34.4659580   7.4018181  30.7729853
  33.8510799   8.5665504  30.3904405  33.8187483   7.8214973  30.6315639
  23.4160512   1.1637842  27.7055560  22.5748519   1.0641716  27.9134454
  23.6250520   1.9333322  28.0569881  23.3225205   1.2629885  27.7882875
  20.8936079  -1.2142621  25.5340311  20.4992777  -1.1399610  24.7590420
  20.3376196  -0.8284675  26.0848672  20.7538891  -1.1460847  25.5007970
  27.2277177  -0.9080759  26.9553158  26.9240314  -1.4624771  27.5563565
  26.5256598  -0.7288549  26.4681192  27.0793387  -0.9635977  26.9722863
  25.2895528   6.3068962  31.6625255  25.1815883   6.3171024  32.5287313
  25.4991309   7.1323742  31.4730209  25.3045639   6.4310036  31.7629347
  23.3069320   3.5581604  29.1247193  22.7157253   4.1991102  29.0950208
  24.0690343   3.9819221  29.0978492  23.3317581   3.7157442  29.1162340
  39.4259741   3.3887374  30.1224471  39.4842865   3.8374022  30.8684448
  38.7926209   3.7986187  29.6854551  39.3411037   3.5161108  30.1677019
  33.0658836   9.0090916  26.5579217  32.8678525   9.4981730  25.8635429
  32.4446547   9.2132157  27.1363351  32.9446401   9.1107454  26.5402441
  27.1266814   0.7775812  20.8989462  27.8708859   1.1650089  21.1372412
  27.2727511  -0.0666762  21.0629949  27.2577400   0.7106285  20.9583431
  30.1144690  -3.6498714  26.7983381  29.6404645  -4.1756952  27.3088692
  30.4862826  -4.1969241  26.2298242  30.0994579  -3.8082718  26.7898528
  36.3781421   1.4103661  28.2090161  36.1379644   0.5710077  28.2132588
  36.8573428   1.4903828  28.9330935  36.4133605   1.2985061  28.3164964
  38.3786608  -1.8094881  26.1619421  38.1396378  -1.8499047  25.3240205
  38.5420509  -0.9623729  26.2885142  38.3676911  -1.6902796  26.0572903
  34.9832638   2.5755068  32.0924466  35.7066837   2.1227594  31.9135486
  34.7182600   2.8559734  31.3096794  35.0513911   2.5506036  31.9503181
  23.8519506  -2.8284759  28.8277345  23.2272577  -2.8166367  28.2203298
  23.5165101  -2.3524583  29.4768585  23.7104998  -2.7566242  28.8333913
  20.5645182   5.2315702  30.2681109  20.0345107   4.5408140  30.3176084
  20.8370275   5.2225887  29.4393818  20.5269904   5.1282833  30.1528525
  31.5965272   5.8141404  18.9918792  32.3199471   6.2799517  18.8483365
  31.1565864   5.8815014  18.2416389  31.6380965   5.8925241  18.8603573
  30.7651428   2.6738946  30.2419481  30.1508421   2.1296996  30.5368116
  31.2818713   2.1603183  29.7625297  30.7507090   2.5175355  30.2143709
  30.0047725   3.7443216  27.9763779  29.5775333   3.1192935  27.5429215
  29.9972669   3.4618138  28.8022787  29.9406866   3.6095997  28.0343607
  23.1210252  -1.2191611  31.0452213  23.2803739  -1.9748287  31.4503935
  22.9403145  -0.6700671  31.6992951  23.1175611  -1.2497797  31.2014919
  28.3333434  -5.3788029  28.1906313  28.3575922  -5.9127917  27.5019093
  28.5844908  -5.8870720  28.8531904  28.3743353  -5.5327125  28.1870958
  15.8441024   1.9043466  27.6249457  15.7384473   1.8590310  26.7601542
  15.0941244   2.2497246  27.9063742  15.7176627   1.9484374  27.5386787
  26.7964370   2.9143529  35.6732352  25.9460000   3.0515243  35.8089997
  26.9592497   2.1807307  36.1180054  26.6948233   2.8257630  35.7587951
  26.0349120  -0.1356701  29.8685957  25.2041050   0.0317117  29.6621205
  25.9800637  -0.5120750  30.6534842  25.9038535  -0.1666970  29.9534485
  37.4167952   1.5381479  30.5955015  38.0085792   2.1778729  30.6273214
  37.8526947   0.8404515  30.8847082  37.5686383   1.5299829  30.6435848
  29.2461342   5.9598851  31.2212909  28.7386433   6.5134698  31.6653540
  28.9487988   6.0207141  30.4031684  29.1266227   6.0505162  31.1661366
  31.8569122   9.8762109  19.1516853  31.1398432   9.7022971  18.6864090
  32.5075860   9.6414681  18.6192339  31.8470973   9.8157901  19.0046071
  34.4417093  -1.2473303  22.8958158  33.7708283  -0.7043600  22.7671223
  35.1356844  -0.7778447  22.6539853  34.4445961  -1.0975031  22.8413686
  28.4903827  10.8923409  28.1269916  28.2669482  10.1342239  28.4953943
  28.0013670  10.9221431  27.4050356  28.3847276  10.7845634  28.0746657
  23.3028906  -2.1609899  23.8631378  22.5840895  -1.7445767  24.1304241
  23.6741268  -1.5955661  23.3123016  23.2520838  -2.0160618  23.8214185
  32.6028487  -1.5282050  29.7533373  32.5826414  -1.7098755  30.6068152
  32.6507687  -0.6570032  29.7292957  32.6063128  -1.4265512  29.8756668
  30.5474817   5.0605142  35.6781850  30.5070671   4.4154819  35.0927006
  31.3598135   5.0041759  35.9907262  30.6617970   4.9564108  35.6378799
  27.1382284  11.1123867  25.5807001  26.7242683  10.4497998  25.1910843
  27.8229658  11.2601726  25.0602695  27.1780656  11.0364526  25.4463498
  30.5047578  10.2713953  26.3330617  30.1063861  10.3816223  25.5651438
  29.8898798  10.4796019  26.9157177  30.3546468  10.3187521  26.3061917
  31.9533297  -3.1632395  22.6306507  31.7246990  -3.1399693  21.7884866
  32.2131373  -3.9874928  22.7501518  31.9579485  -3.2816315  22.5231705
  26.2352525  -1.3097922  32.2331608  25.7231428  -1.9176739  32.5916639
  26.0632021  -0.5941329  32.7005583  26.1342162  -1.2934623  32.3547831
  25.0078059  -4.6255849  23.9260703  25.4835426  -4.2638769  23.2910884
  24.5066659  -3.9699381  24.2060846  25.0043418  -4.4761660  23.8737444
  38.2389421   4.8465919  19.7173708  38.6223027   5.5957276  19.9471805
  37.4433534   5.0931739  19.4585697  38.1783203   4.9935613  19.7131282
  30.1121596  -3.3873677  34.6733863  30.6693026  -3.6159868  34.0412329
  29.7882661  -2.6268012  34.3969076  30.1468006  -3.3089841  34.5390360
  27.8304713  -0.3006024  35.6385870  28.5816040   0.0145653  35.9525424
  28.0227289  -0.5026853  34.8119792  27.9696127  -0.2838642  35.5629266
  32.4030855   0.5065044  26.5345873  32.8984520  -0.2111961  26.4949893
  31.5930631   0.2035842  26.4200360  32.3574748   0.3562690  26.5119598
  27.8489467   4.3562857  18.6842877  27.0400789   4.0329531  18.6376187
  28.3564375   3.6496080  18.6171126  27.8039133   4.2044174  18.6673171
  18.4779744   1.7835051  24.4090241  17.6125263   1.7720741  24.2973013
  18.5778560   1.5965273  25.2561381  18.3653911   1.7541112  24.5179186
  34.4682674   3.2568732  29.2223001  34.8937745   2.7343154  28.6693426
  34.1039594   3.8549569  28.7011624  34.4769276   3.2678959  29.0632011
  24.1036754  11.5532949  27.9820347  24.4183313  12.3669338  27.9898129
  24.5130167  11.1683168  28.6502506  24.2104852  11.6161652  28.0824439
  31.0561273   6.9702996  25.5524159  31.5272452   7.6843259  25.7214144
  31.3921452   6.3701746  26.0884028  31.1756388   6.9874460  25.6556535
  33.1438258   8.5804309  37.7316231  33.2535223   7.7912870  38.0872978
  33.4729155   8.4910246  36.9290569  33.2090664   8.4510162  37.6658622
  31.6935220   6.7620930  32.3151851  31.1456166   6.1378814  32.0471917
  32.1548248   6.9515202  31.5995931  31.6802429   6.6979980  32.1702283
  21.4449774   5.5006058  27.6298955  22.0494631   5.4601892  27.0012776
  21.2377086   6.3477210  27.6603011  21.5038671   5.6194060  27.5415072
  31.2593546   7.7672003  28.8461193  32.0791920   7.6234969  29.1077488
  30.9787624   8.3918202  29.3877631  31.3390289   7.8382355  28.9649132
  16.6801056   4.4840675  27.4997878  16.5825334   3.6736947  27.8087935
  17.4629926   4.4632469  27.1144147  16.7817193   4.3607765  27.4884741
  47.7307196  15.4236854  21.8104069  47.7001201  16.2781491  21.9822338
  48.3288545  15.1232147  22.3690213  47.8144354  15.5053351  21.9178871
  40.9306881  14.5112505  26.5656999  40.0744777  14.6721004  26.6166116
  40.9774535  13.6404569  26.5862060  40.8105993  14.4063307  26.5763065
  40.7672981  24.4700593  17.7579778  40.4324349  25.1477514  17.3224000
  41.2799851  24.0805904  17.1696650  40.7938562  24.5125171  17.6066570
  43.7758702  16.5704549  29.2088651  44.3214662  17.2489636  29.2682621
  43.7175579  16.4292010  28.3490233  43.8474617  16.6496551  29.0900712
  45.5523771  17.9989156  20.0822379  45.4363297  18.7496843  20.5114517
  46.3479658  17.7413110  20.3318466  45.6528360  18.0724003  20.1826471
  30.0897821  20.0813902  24.2209337  29.8548006  19.2481554  24.1141606
  30.2283462  20.3618568  23.4070538  30.0753484  19.9997405  24.0851692
  32.3887909  12.2499633  27.1193645  31.7692940  11.6592280  26.9503660
  32.2871772  12.8411068  26.4857968  32.2825584  12.2503715  26.9998634
  37.4354096  21.9883180  21.3691721  37.7569937  22.5288387  20.7653029
  38.0826193  21.4179951  21.5014011  37.5780152  21.9842355  21.2998757
  39.4855804  13.9899174  21.4526108  40.1835969  14.1687302  21.9447571
  39.8008137  13.4669514  20.8296497  39.6351142  13.9392947  21.4328118
  32.1157042  15.7951914  29.3637214  31.9915739  16.3814360  29.9987033
  32.7675326  15.3012110  29.6649489  32.1930691  15.8090719  29.5023143
  39.6743740  20.3769620  21.4405899  40.1137375  19.7686720  21.8860672
  39.5248403  19.9976993  20.6691364  39.7165206  20.2308091  21.3925067
  37.1415383  18.9713631  28.6424725  37.7864385  18.4786074  28.3235673
  37.3817160  19.1138418  29.4690803  37.2725968  18.9191074  28.7174258
  39.6801474  21.8168537  28.2931617  39.9624717  21.0219943  28.0718373
  40.4087635  22.2949125  28.3136679  39.8291038  21.7703134  28.2634633
  37.6582668   9.3591571  25.5347383  37.3285998   9.8102715  24.8651081
  36.9827670   9.2807734  26.0820389  37.5093104   9.4142706  25.5170606
  43.2753076  18.7296801  18.3936669  43.1904372  19.5857767  18.5386238
  43.7637460  18.4541125  19.0618828  43.3341974  18.8154122  18.5138750
  44.8659076   5.3477094  23.7796993  44.5512517   6.0380573  24.2117416
  44.3486017   5.2921876  23.0782494  44.7423546   5.4411983  23.7393942
  44.2071510  15.3481595  19.8934404  43.6782981  15.5641228  20.5531710
  44.7296530  16.0417733  19.8135373  44.2059963  15.4824732  19.9790003
  49.6619563  20.9227899  25.2667448  48.8317266  21.1338543  25.4300865
  49.6128815  20.0964954  24.9909732  49.5326298  20.8317506  25.2504814
  36.0971117  19.2444812  18.6941872  35.5128333  19.7494843  19.1007736
  35.6941213  19.0187199  17.9538464  35.9510421  19.2853060  18.6446897
  31.6515146  24.9599573  25.4965543  31.1682724  25.6850063  25.4725127
  32.4638464  25.2575703  25.6075701  31.7005894  25.1101927  25.5092823
  40.5548332  15.4910464  17.1710792  40.7944336  15.6988448  16.3586135
  40.8764173  14.6867973  17.2799737  40.6385490  15.4024565  17.0671345
  35.8638622   7.4203860  21.0170330  36.6184590   7.7882177  20.7787381
  35.6866157   7.7943414  21.7849510  35.9493101   7.5302047  21.0955219
  49.1573521  13.5698300  29.0617870  48.3201942  13.6400487  29.2965464
  49.1261752  13.5722795  28.1892172  49.0291803  13.5808527  28.9677418
  35.5538250  15.7131336  34.7766238  35.7258754  15.6037230  35.6251520
  36.0907607  16.3585741  34.5397431  35.6583254  15.7923337  34.8671335
  34.2195687   9.8274179  17.7148443  34.0371260  10.0446059  16.8889436
  35.0821300   9.9413191  17.7707058  34.3200276   9.8764076  17.6002930
  33.8310119  21.6662101  25.1571431  34.6699018  21.8985034  25.2045193
  33.8621888  20.7966412  25.0878467  33.9591836  21.5719047  25.1536076
  39.8995406   6.8300589  20.7497467  40.6281566   6.6516544  20.3035623
  39.9890299   7.6718669  20.9604645  40.0202068   6.9284468  20.7150985
  43.8803707  17.7653977  24.6529761  44.6361222  18.1985491  24.6918670
  43.9866031  17.1158746  25.2264397  44.0073877  17.7331460  24.7427787
  46.9183878  21.5927254  25.4032164  46.4819110  21.5963996  26.1591136
  46.5846793  22.2732753  24.9711742  46.8046498  21.6939710  25.4512997
  29.8599967  18.3063267  29.6119158  29.5938382  17.4902383  29.7710149
  29.8738531  18.3516422  28.7414674  29.8224689  18.1920172  29.5072640
  46.8381361   8.6341082  27.6461592  47.4807269   8.7039186  28.2323507
  47.0904381   7.9670305  27.1441134  46.9703493   8.5467430  27.6588871
  33.7657714  13.1048351  16.2270916  33.0515891  12.8186531  16.6393349
  34.2501682  13.4444977  16.8677304  33.7317077  13.1130001  16.3826551
  34.6098573  11.8441645  32.2586166  33.9170370  11.3738625  32.5046898
  35.2258901  11.6179950  32.8327873  34.5983103  11.7408777  32.3795319
  50.0528224  18.3108174  24.2951801  50.7144658  17.7498842  24.1947710
  49.4119636  17.8160204  24.6204492  50.0557091  18.1544583  24.3284142
  40.9405032  21.6078305  16.6032725  41.3556180  21.2763329  15.9117220
  40.1096961  21.3747207  16.4752861  40.8793040  21.5249561  16.4823572
  30.2693380  19.0922046  26.8930903  30.0868954  19.0668932  26.0403195
  31.0043049  19.5620984  26.9319811  30.3507444  19.1583408  26.7728821
  46.3393055  19.3273556  24.0363790  46.5748644  19.4718755  23.2090641
  46.4882618  20.0915964  24.4295304  46.3958858  19.4612611  23.9727394
  48.1683511  18.1675222  21.8733394  48.4991729  18.7002862  21.2673489
  48.7416600  18.2214110  22.5295345  48.3017191  18.2544791  21.8811176
  43.3815401  16.0140125  22.5556974  43.4762255  16.7529419  23.0096600
  42.7574244  15.5857600  22.9891539  43.3024431  16.0601445  22.6865122
  41.6367874  19.1926337  33.2047255  42.2106736  18.5553582  33.3595819
  41.5582678  19.1930420  32.3356913  41.7101109  19.0991449  33.0993666
  30.2364291  15.9715547  27.0429969  30.8137793  15.8351998  27.6822214
  29.5378353  15.5151331  27.2975553  30.2185312  15.8837813  27.1752259
  43.6338422  17.8588865  15.7893926  43.5518584  17.9291052  16.6548913
  44.2718142  18.4218608  15.5977667  43.7158259  17.9527836  15.8883876
  36.9931593  17.6249603  25.2568452  36.7350837  16.7921337  25.2299752
  37.0480076  17.8507215  24.4160953  36.9631371  17.5347374  25.1288589
  42.0732643   9.7278053  25.3572545  41.3688970   9.2387239  25.5156464
  42.1217617   9.7400528  24.4860989  41.9762695   9.6567701  25.2511885
  35.9666305  15.1787365  25.7433347  35.3915896  15.3379533  26.3797308
  35.5901981  14.5422774  25.2801798  35.8269117  15.1085178  25.7687905
  39.6339594  13.6510714  30.6025726  39.2454027  13.2264932  29.9477917
  38.9694292  13.8992864  31.1102752  39.4786522  13.6249435  30.5813593
  49.2762863  13.4085719  23.3773556  49.0199428  12.5965660  23.1871438
  50.1192177  13.4163286  23.1503743  49.3628888  13.2897716  23.3158373
  25.7123124  14.8227440  23.7577788  25.7983376  14.4459308  24.5391318
  26.3398921  14.4487885  23.2797746  25.8179675  14.7112922  23.8023265
  43.4565955   7.3485343  28.1149710  43.8376467   6.6663514  28.5017584
  42.6529240   7.0594945  27.9325374  43.3942417   7.2052392  28.1453766
  40.7378532  17.8809319  18.8002532  41.5519171  18.1724212  18.6885304
  40.6737673  17.2269181  18.2260825  40.8481271  17.8274514  18.6991370
  46.9588022  20.5635315  33.2132108  46.7226660  19.7323380  33.0944169
  47.6031251  20.5120922  33.7986952  47.0182693  20.4333003  33.2818002
  36.6086440  21.3530836  23.9274845  37.2460387  21.1142584  24.4726638
  37.0341512  21.5567995  23.1928005  36.7662607  21.3481847  23.8992002
  31.2999083  23.5919173  27.8109148  31.3403228  23.8634024  26.9828928
  31.8593607  24.1161081  28.2266936  31.3882429  23.7094928  27.7501037
  37.2489255  16.5733126  18.2649734  37.6334408  16.3540833  19.0166279
  37.0000876  17.3996071  18.3950810  37.2691328  16.6631272  18.3950810
  37.4157796   9.8539541  37.9812318  37.1011237  10.6239104  37.7181881
  37.0947728   9.2909797  37.3964545  37.3216715   9.8849810  37.8553668
  47.9824443  20.3479764  29.2760403  47.6770260  21.0807821  29.6373718
  47.2630659  19.9417693  28.9953189  47.8311785  20.3961497  29.2873540
  38.9907912  21.8303259  25.6068631  39.0646921  21.6678431  26.4610481
  39.8077419  22.0193448  25.3629112  39.1224271  21.8340001  25.6966656
  53.6826235  16.9872764  28.6028747  53.6150735  17.0068724  27.7331333
  53.6681897  17.8303092  28.8284417  53.6704991  17.1146499  28.5081224
  34.9689693   8.2430063  23.5958514  34.1012118   8.3152662  23.6616124
  35.2564897   9.0452142  23.7846490  34.8829441   8.3724210  23.6333281
  44.0922581   8.3907922  31.9269836  44.8376173   8.2017733  31.5133262
  43.6759886   8.9166160  31.3683693  44.1407556   8.4410068  31.7834410
  37.5312498  24.7938002  20.3382104  37.8210796  24.4026983  19.6141331
  38.2615979  24.9754707  20.7787380  37.6819382  24.7631816  20.2964911
  51.4684852  15.7617151  26.8775341  52.0192774  15.1285220  27.1172433
  51.4528968  16.2932543  27.5690846  51.5470049  15.7466099  27.0154199
  38.1207243  19.5955748  31.4235235  37.6218937  20.3071516  31.5020123
  38.9307467  19.9156414  31.3853397  38.1663350  19.7482597  31.4291803
  34.3835361  18.8578701  25.6697956  34.0948609  18.2316172  26.2043683
  35.2518709  18.7998988  25.7362636  34.4695613  18.7566245  25.7588910
  45.1713259  14.0013484  25.9879937  44.8278024  13.2803820  26.3387187
  45.2706301  13.7927335  25.1458296  45.1355301  13.8637688  25.9151617
  34.5867634  20.4973952  21.5940321  35.3413602  20.8786991  21.8075783
  33.9938247  20.9485096  22.0487017  34.6104348  20.6202779  21.6923199
  45.6326288  20.4639188  21.5303926  46.1984320  21.1232398  21.4462469
  44.9854191  20.8088886  22.0020328  45.6205044  20.6121130  21.5876682
  37.0474301  12.4536792  36.7197533  36.2374077  12.7594572  36.6087375
  37.5248988  13.1742375  36.8350117  36.9977780  12.6051393  36.7204604
  35.9065861  21.6682513  26.9680436  35.3846614  21.8082805  27.6532301
  36.2939881  20.9093178  27.1582553  35.8869562  21.5768037  27.0981513
  32.8957045  11.7188322  21.0375391  32.6081841  11.3489592  20.3007338
  33.5827513  12.1883177  20.7759096  32.9545942  11.7335291  20.8890466
  42.1032866  23.4077973  20.9541005  41.8619542  22.6745833  20.5468070
  42.2834199  23.9564830  20.3007338  42.0940490  23.3800364  20.7971228
  37.3332186  18.6986532  22.3661927  37.1374969  19.3061267  21.7722230
  37.5566532  18.0054476  21.8853601  37.3366827  18.6864058  22.2078008
  35.7310716  15.5841270  22.4842795  36.4533368  15.7482428  22.0246601
  35.2518709  16.3050935  22.3782135  35.7674447  15.7139500  22.4008409
  43.6904224  11.9205069  27.8639480  42.8515325  11.9466348  27.6277744
  43.7608591  12.5675804  28.4444827  43.5772617  12.0201195  27.9148597
  42.1373502   8.8190446  22.5967096  42.8399855   8.6198194  22.1187055
  41.8717691   8.0466388  22.9035940  42.2020135   8.6753412  22.5712538
  47.5661748  17.1273056  25.1500722  47.4795722  17.2828482  26.0035501
  47.1112228  17.7711131  24.7760127  47.4865004  17.2448811  25.2207829
  30.4685239  12.4969535  21.8860672  30.5701376  13.2995696  22.2141647
  31.2641126  12.2956870  21.5883752  30.6013145  12.5855433  21.8896027
  36.9002058  10.0825731  31.6497977  36.7085255  10.0980866  32.4997400
  37.7500654  10.2789406  31.6264632  36.9977780  10.1140082  31.7721272
  31.2848971  12.6116713  29.6281793  31.1434463  11.7600653  29.7526301
  31.5689535  12.6545373  28.8043999  31.3056818  12.4916463  29.5249417
  41.4387564  14.4483803  23.7726282  41.1922278  14.3679554  24.6063071
  41.7672687  13.6637271  23.5788809  41.4508807  14.3210068  23.8673805
  45.3335613  21.1567162  27.5613063  45.1949972  21.8548208  28.0661805
  44.5535611  21.0015819  27.2049245  45.1978840  21.2367329  27.5839337
  43.6713698  17.4563538  33.8135445  43.6661736  16.5843354  33.8177871
  44.3774692  17.6551707  33.3404900  43.7758702  17.3567412  33.7442480
  37.3984591  17.1840521  33.1849265  37.5427967  17.7641730  32.5492375
  37.7460240  17.5616818  33.8899119  37.4712052  17.3261226  33.1948260
  39.5704508  16.3830690  30.9674396  38.8227823  16.5761704  30.5622674
  39.7246034  15.5575909  30.7298518  39.4826936  16.2895801  30.8719802
  46.8288985  20.5145416  18.3229562  46.4495794  19.7282554  18.3158851
  46.1655231  21.0632273  18.1801206  46.6747460  20.4790240  18.3010359
  39.8106285  10.2781241  31.8569800  40.2678900  11.0105215  31.9842592
  39.8862614   9.8547706  32.6157056  39.8897255  10.3238479  31.9870877
  32.0539277  10.5247060  32.9459244  31.5181466   9.9127418  33.2620011
  32.1157041  11.0995196  33.5992910  31.9834909  10.5193988  33.0894670
  44.2833611   3.4571116  25.7263643  44.4017180   3.9147579  24.9930946
  44.1095787   2.6516377  25.4399861  44.2752782   3.4064888  25.5764577
  39.6535894  24.0658935  22.1618388  40.4185785  23.7968579  21.8401053
  39.5513984  23.5808945  22.8788451  39.7517389  23.9548500  22.2198216
  37.6888663  12.2683345  28.7011624  36.8984738  12.0874805  29.0228960
  38.0849286  11.4910297  28.6841919  37.6305540  12.1270805  28.7464172
  42.1754554  21.0971119  14.1418338  42.9427539  21.1571244  13.7324189
  41.7285863  20.5251560  13.6574656  42.2227981  21.0207695  14.0096048
  43.0732350  19.9025775  26.4271070  42.3977352  19.6711007  26.9284457
  43.0824726  19.2946958  25.8013175  42.9750854  19.7784700  26.4087222
  40.2026494  14.7443604  33.1835123  40.1385635  15.6053560  33.0555260
  40.3423681  14.4275597  32.3830674  40.2141964  14.8243770  33.0463336
  45.0749084  22.7590907  18.6581248  45.1568922  23.5657893  18.3342699
  45.5598826  22.7786866  19.3822021  45.1586242  22.8811569  18.7168147
  38.8845588  17.4375743  27.3251326  38.4607837  17.6380242  26.5890344
  38.7090443  16.5904591  27.4375626  38.7956468  17.3424524  27.2325016
  34.1728033  17.9327794  22.7579298  34.3292652  17.8674597  23.6135290
  34.5128626  18.7076347  22.5457978  34.2461267  18.0376993  22.8533893
  40.7107177  17.3085678  21.6272662  41.2522723  16.8056059  22.0911282
  41.0253736  17.2550873  20.8162147  40.8371574  17.2265099  21.5756474
  38.8793627  22.7003030  18.9112690  38.9486447  21.8417568  19.0505690
  39.6582082  22.9174910  18.5831714  39.0046477  22.6055894  18.8829847
  41.8596447  12.2021983  31.6794962  42.0738416  11.5632897  31.1258316
  41.2430346  12.6467806  31.2502824  41.8001776  12.1732126  31.5345393
  43.2701114  25.1240731  23.1249183  42.8780906  24.8207446  22.4072049
  43.4254187  25.9609821  22.9354137  43.2354704  25.2024568  22.9905680
  30.7462294  15.1162745  23.0740066  31.1261259  15.5347290  22.4100333
  30.1717659  15.6976201  23.3808909  30.7173619  15.2640604  23.0216807
  44.0235535  13.8111048  32.6178269  43.2112216  13.5036938  32.6991442
  44.4825469  13.3310048  33.1820981  43.9715919  13.6947540  32.7132863
  43.4340789  21.6890720  23.0655214  43.0755444  21.8605363  23.8419246
  42.9479500  22.1503925  22.5083212  43.3099486  21.7829691  23.0980483
  41.2511175   5.3121918  26.6682305  40.3804733   5.2860639  26.6215614
  41.5051516   5.1399110  25.8508151  41.1604735   5.2832062  26.5402442
  38.2229155  17.3689885  15.6055448  38.5121679  18.1454768  15.8799022
  38.3100953  16.8578617  16.3069947  38.2783411  17.4081803  15.7497946
  41.1189042  15.2171119  37.4006971  41.5888673  15.8413236  37.7874846
  41.1650922  14.5488095  37.9600186  41.1956918  15.2105799  37.5407043
  38.2760316   7.3228147  28.1255775  37.7598804   6.6308338  28.2507354
  37.7154245   7.9898924  28.0718374  38.1166829   7.3191404  28.1361841
  40.3452549   7.8621107  29.9548628  39.9584302   7.8870138  30.7362158
  39.8585486   7.2962785  29.5023144  40.2165058   7.7816858  30.0036532
  46.3202529  14.4283762  28.5788330  45.8930137  14.3410110  27.8236430
  45.6828582  14.5361537  29.1643174  46.1632136  14.4316421  28.5533772
  40.0109691   4.7488092  32.2458888  40.6402809   5.2848392  31.9679958
  40.1795554   4.6565451  33.0972453  40.1287485   4.8149454  32.3307416
  39.8123606   9.5359287  34.5185299  40.6397035   9.2644436  34.5743914
  39.8331452  10.3320129  34.8749117  39.9376456   9.6139041  34.5800482
  44.6499785  23.2714424  30.6527771  45.4392163  22.9203489  30.7729853
  44.8243383  24.0850812  30.3904405  44.7920067  23.3400281  30.6315639
  34.3893096  16.6823150  27.7055560  33.5481102  16.5827024  27.9134454
  34.5983104  17.4518630  28.0569881  34.2957788  16.7815193  27.7882875
  31.8668663  14.3042687  25.5340311  31.4725360  14.3785698  24.7590420
  31.3108779  14.6900633  26.0848672  31.7271475  14.3724461  25.5007970
  43.5033609   7.2823981  25.2144190  43.7083203   7.2146288  26.0601187
  43.1760033   8.0882802  25.1465367  43.4848857   7.3909921  25.3303845
  38.2009760  14.6104549  26.9553158  37.8972898  14.0560537  27.5563565
  37.4989181  14.7896759  26.4681192  38.0525970  14.5549331  26.9722863
  37.2575858  11.9205069  21.5197859  37.5335592  11.2023981  21.1075427
  37.8574527  12.5189989  21.3118965  37.3869122  11.9025439  21.4278621
  46.7567297   7.8355745  24.6946955  46.1441611   8.3226147  25.0800687
  46.8531472   7.1599236  25.2384606  46.6805195   7.8074054  24.8325813
  40.7586378   9.5918586  19.7944454  41.2130125   9.7629146  20.5192299
  41.2326424   8.9786697  19.3942230  40.8954698   9.5269471  19.8418216
  34.2801903  19.0766912  29.1247193  33.6889837  19.7176410  29.0950208
  35.0422927  19.5004529  29.0978492  34.3050164  19.2342750  29.1162340
  34.6762526  10.2368910  29.7915210  35.1364008  10.3107839  30.5290334
  34.7218633  11.0350164  29.4415032  34.7513082  10.3663057  29.8487967
  36.3245876  10.9035605  34.3587238  35.9331441  10.2568952  34.7943015
  36.4931739  11.4947040  34.9781493  36.2916786  10.8949872  34.5149944
  50.3992325  18.9072682  30.1224471  50.4575449  19.3559330  30.8684448
  49.7658793  19.3171494  29.6854551  50.3143620  19.0346416  30.1677019
  44.0391420  24.5276224  26.5579217  43.8411108  25.0167038  25.8635429
  43.4179131  24.7317465  27.1363351  43.9178984  24.6292762  26.5402441
  38.0999398  16.2961120  20.8989462  38.8441443  16.6835397  21.1372412
  38.2460094  15.4518546  21.0629949  38.2309983  16.2291593  20.9583431
  40.0178974   8.0911379  25.9321323  39.1715019   8.2634187  25.8062673
  40.0150106   7.2860723  26.2687151  39.8926123   7.9972408  25.9632450
  41.0877274  11.8686594  26.7983381  40.6137228  11.3428356  27.3088692
  41.4595410  11.3216067  26.2298242  41.0727163  11.7102590  26.7898528
  47.3514004  16.9288969  28.2090161  47.1112227  16.0895384  28.2132588
  47.8306012  17.0089136  28.9330935  47.3866188  16.8170369  28.3164964
  43.0160774  12.7623148  19.8609135  42.4883792  12.8451892  19.1714844
  43.4756482  13.5041020  19.8573779  43.0062624  12.8843811  19.7583830
  49.3519192  13.7090427  26.1619421  49.1128961  13.6686261  25.3240205
  49.5153093  14.5561579  26.2885142  49.3409495  13.8282512  26.0572903
  45.9565222  18.0940376  32.0924466  46.6799421  17.6412902  31.9135486
  45.6915184  18.3745042  31.3096794  46.0246495  18.0691344  31.9503181
  34.8252090  12.6900549  28.8277345  34.2005160  12.7018941  28.2203298
  34.4897685  13.1660725  29.4768585  34.6837582  12.7619066  28.8333913
  35.0093839  11.0325668  14.8850030  34.6606643  11.6845393  15.3481579
  34.5290285  11.0182781  14.1573901  34.8864083  11.1268721  14.8461121
  42.5697856  21.3326712  18.9918792  43.2932055  21.7984825  18.8483365
  42.1298447  21.4000321  18.2416389  42.6113548  21.4110549  18.8603573
  41.7384011  18.1924254  30.2419481  41.1241004  17.6482304  30.5368116
  42.2551296  17.6788491  29.7625297  41.7239674  18.0360663  30.2143709
  40.9780308  19.2628524  27.9763779  40.5507916  18.6378243  27.5429215
  40.9705253  18.9803446  28.8022787  40.9139449  19.1281305  28.0343607
  34.0942835  14.2993697  31.0452213  34.2536322  13.5437021  31.4503935
  33.9135729  14.8484637  31.6992951  34.0908194  14.2687511  31.2014919
  42.0363138   6.4654933  31.6003003  41.5403700   6.6618607  30.9094570
  42.7932200   6.8647601  31.4291805  42.0749963   6.5532667  31.4723140
  39.3066018  10.1397279  28.1906313  39.3308505   9.6057391  27.5019093
  39.5577492   9.6314587  28.8531904  39.3475937   9.9858183  28.1870958
  26.8173608  17.4228774  27.6249457  26.7117057  17.3775618  26.7601542
  26.0673828  17.7682554  27.9063742  26.6909211  17.4669682  27.5386787
  35.5867340   8.8668097  27.5712058  35.6265712   9.3677303  28.2846765
  34.7617005   8.9578491  27.3017981  35.4706866   8.9549913  27.6362596
  37.7696953  18.4328837  35.6732352  36.9192584  18.5700551  35.8089997
  37.9325081  17.6992615  36.1180054  37.6680817  18.3442938  35.7587951
  37.0081704  15.3828607  29.8685957  36.1773633  15.5502425  29.6621205
  36.9533221  15.0064558  30.6534842  36.8771118  15.3518338  29.9534485
  34.8165487   8.8737500  35.5042367  35.4418190   8.3299632  35.7771800
  34.3615967   8.3932417  34.9350158  34.8413747   8.7226981  35.4603961
  35.3817747  13.6584198  20.3976074  35.5220709  14.1556663  21.1004716
  35.8800280  12.9570493  20.5390288  35.4758828  13.6286177  20.5227653
  35.4117970  14.5251309  17.7268651  36.0463049  15.1211734  17.6618113
  35.4943581  14.2254767  18.5414521  35.5174521  14.5692217  17.8371738
  48.3900536  17.0566787  30.5955015  48.9818376  17.6964037  30.6273214
  48.8259530  16.3589823  30.8847082  48.5418967  17.0485137  30.6435848
  36.9896953  10.4565285  17.7014093  37.3112794   9.9768367  17.0473356
  37.2523896  11.2664931  17.5104905  37.0762978  10.5055183  17.5769585
  42.3856108   9.8437479  30.0637572  42.8111179   9.3910005  29.4521099
  41.7713101   9.2897549  30.3402360  42.3584753   9.6951455  30.0142598
  31.9170958  16.7219150  20.9958197  32.4263187  17.3183658  21.3769503
  32.3905230  16.4545124  20.3134617  32.0614333  16.7704965  20.9512720
  42.8301706  25.3947417  19.1516853  42.1131015  25.2208279  18.6864090
  43.4808443  25.1599989  18.6192339  42.8203556  25.3343209  19.0046071
  40.8250331   6.3152578  23.4728149  40.1818648   6.1650225  24.0413288
  40.4849738   6.0694924  22.7077254  40.6795408   6.2564701  23.4431165
  45.4149677  14.2712005  22.8958158  44.7440867  14.8141708  22.7671223
  46.1089427  14.7406861  22.6539853  45.4178544  14.4210277  22.8413686
  45.5777804  10.7267889  25.8048531  45.9305415  10.2997612  26.4794330
  44.7192606  10.6418732  25.9349608  45.5027249  10.6512630  25.9243542
  34.2761489  13.3575409  23.8631378  33.5573479  13.7739541  24.1304241
  34.6473852  13.9229647  23.3123016  34.2253421  13.5024690  23.8214185
  43.5761070  13.9903258  29.7533373  43.5558998  13.8086553  30.6068152
  43.6240271  14.8615276  29.7292957  43.5795711  14.0919796  29.8756668
  41.4780162  25.7899261  26.3330617  41.0796445  25.9001531  25.5651438
  40.8631381  25.9981327  26.9157177  41.3279051  25.8372829  26.3061917
  40.0508064  12.3973409  19.2004757  39.4572903  12.7190405  18.6489324
  40.0883342  11.5514504  18.9925863  39.9682453  12.3197737  19.0887528
  47.0101865   5.8486301  26.7332844  46.5032729   5.1415440  26.6654021
  47.8069298   5.5179490  26.8633920  47.0529104   5.6959452  26.7431839
  42.9265880  12.3552913  22.6306507  42.6979573  12.3785614  21.7884866
  43.1863957  11.5310380  22.7501518  42.9312068  12.2368993  22.5231705
  37.2085109  14.2087386  32.2331608  36.6964012  13.6008569  32.5916639
  37.0364605  14.9243979  32.7005583  37.1074746  14.2250685  32.3547831
  32.0550824  12.6524961  34.8833969  31.8853414  13.3126336  34.3382176
  31.6116773  12.8631523  35.6046459  31.9650157  12.7810943  34.9095599
  35.9810643  10.8929459  23.9260703  36.4568009  11.2546539  23.2910884
  35.4799243  11.5485927  24.2060846  35.9776002  11.0423648  23.8737444
  49.2122004  20.3651227  19.7173708  49.5955610  21.1142584  19.9471805
  48.4166118  20.6117047  19.4585697  49.1515787  20.5120921  19.7131282
  38.8037296  15.2179284  35.6385870  39.5548623  15.5330961  35.9525424
  38.9959873  15.0158455  34.8119792  38.9428711  15.2346666  35.5629266
  38.0237296  13.0370659  17.2934087  38.4036261  13.0550288  16.5085202
  37.2829892  13.4824648  17.1724934  37.9706134  13.1052434  17.1597655
  45.6522587  11.3452850  22.8809666  45.6516813  11.1901507  23.7393942
  45.4478767  12.1915837  22.8251051  45.6222364  11.4473471  22.9997605
  27.7139858  14.7692635  27.2968482  27.5361619  14.3169244  28.0223398
  27.4258880  15.5718796  27.4806960  27.6452811  14.8215193  27.4311985
  43.3763439  16.0250352  26.5345873  43.8717104  15.3073347  26.4949893
  42.5663214  15.7221150  26.4200360  43.3307332  15.8747998  26.5119598
  38.8222050  19.8748165  18.6842877  38.0133373  19.5514839  18.6376187
  39.3296959  19.1681387  18.6171126  38.7771717  19.7229482  18.6673171
  29.4512327  17.3020358  24.4090241  28.5857847  17.2906049  24.2973013
  29.5511143  17.1150581  25.2561381  29.3386494  17.2726420  24.5179186
  45.4415257  18.7754040  29.2223001  45.8670329  18.2528461  28.6693426
  45.0772177  19.3734877  28.7011624  45.4501860  18.7864267  29.0632011
  42.0293857  22.4888304  25.5524159  42.5005035  23.2028566  25.7214144
  42.3654035  21.8887054  26.0884028  42.1488972  22.5059768  25.6556535
  38.9463352   7.2615774  32.5082254  39.0791257   6.4646768  32.8363229
  39.3308505   7.7882177  33.0880529  39.0219681   7.2215691  32.6425757
  42.0195707   4.1846101  29.1063347  41.2141671   4.0743830  29.4231185
  41.8902443   4.2858556  28.2493213  41.8815840   4.1829771  29.0271387
  45.4761668  10.3491592  29.7003044  44.8924656  10.8500799  29.2880611
  45.7965962   9.8421149  29.0667367  45.4374843  10.3483428  29.5461551
  38.0156467   9.2632187  19.9761719  38.8372161   9.4330500  19.7343413
  37.5526118   9.4179448  19.2528016  38.0687629   9.3113920  19.8333363
  36.6051799   7.2574950  30.7560147  37.1496212   6.9166076  31.3464489
  36.6588734   8.1160411  30.8981432  36.6940918   7.3330209  30.8642021
  32.4182357  21.0191366  27.6298955  33.0227215  20.9787200  27.0012776
  32.2109670  21.8662518  27.6603011  32.4771255  21.1379368  27.5415072
  42.2326130  23.2857311  28.8461193  43.0524503  23.1420277  29.1077488
  41.9520207  23.9103510  29.3877631  42.3122873  23.3567663  28.9649132
  27.6533640  20.0025983  27.4997878  27.5557918  19.1922255  27.8087935
  28.4362509  19.9817776  27.1144147  27.7549776  19.8793073  27.4884741
  58.7039780  30.9422162  21.8104069  58.6733784  31.7966799  21.9822338
  59.3021129  30.6417455  22.3690213  58.7876938  31.0238659  21.9178871
  51.9039465  30.0297813  26.5656999  51.0477360  30.1906312  26.6166116
  51.9507119  29.1589877  26.5862060  51.7838576  29.9248615  26.5763065
  51.7405564  39.9885901  17.7579778  51.4056933  40.6662822  17.3224000
  52.2532435  39.5991212  17.1696650  51.7671146  40.0310479  17.6066570
  54.7491286  32.0889857  29.2088651  55.2947246  32.7674944  29.2682621
  54.6908162  31.9477318  28.3490233  54.8207200  32.1681859  29.0900712
  56.5256354  33.5174464  20.0822379  56.4095880  34.2682151  20.5114517
  57.3212241  33.2598418  20.3318466  56.6260944  33.5909311  20.1826471
  41.0630405  35.5999210  24.2209337  40.8280589  34.7666862  24.1141606
  41.2016046  35.8803876  23.4070538  41.0486067  35.5182713  24.0851692
  43.3620492  27.7684941  27.1193645  42.7425524  27.1777588  26.9503660
  43.2604356  28.3596376  26.4857968  43.2558168  27.7689023  26.9998634
  48.4086680  37.5068487  21.3691721  48.7302521  38.0473695  20.7653029
  49.0558776  36.9365259  21.5014011  48.5512735  37.5027663  21.2998757
  50.4588388  29.5084482  21.4526108  51.1568553  29.6872610  21.9447571
  50.7740721  28.9854822  20.8296497  50.6083725  29.4578255  21.4328118
  50.6476323  35.8954927  21.4405899  51.0869959  35.2872028  21.8860672
  50.4980986  35.5162301  20.6691364  50.6897789  35.7493399  21.3925067
  48.6315252  24.8776879  25.5347383  48.3018582  25.3288023  24.8651081
  47.9560253  24.7993042  26.0820389  48.4825688  24.9328014  25.5170606
  54.2485660  34.2482109  18.3936669  54.1636955  35.1043075  18.5386238
  54.7370043  33.9726433  19.0618828  54.3074557  34.3339430  18.5138750
  55.8391659  20.8662402  23.7796993  55.5245100  21.5565881  24.2117416
  55.3218601  20.8107184  23.0782494  55.7156130  20.9597291  23.7393942
  55.1804093  30.8666903  19.8934404  54.6515565  31.0826536  20.5531710
  55.7029113  31.5603041  19.8135373  55.1792546  31.0010040  19.9790003
  60.6352146  36.4413207  25.2667448  59.8049849  36.6523851  25.4300865
  60.5861398  35.6150262  24.9909732  60.5058882  36.3502814  25.2504814
  47.0703701  34.7630120  18.6941872  46.4860916  35.2680151  19.1007736
  46.6673796  34.5372507  17.9538464  46.9243005  34.8038368  18.6446897
  51.5280915  31.0095772  17.1710792  51.7676919  31.2173755  16.3586135
  51.8496756  30.2053280  17.2799737  51.6118073  30.9209873  17.0671345
  46.8371206  22.9389167  21.0170330  47.5917174  23.3067485  20.7787381
  46.6598740  23.3128722  21.7849510  46.9225684  23.0487355  21.0955219
  60.1306104  29.0883608  29.0617870  59.2934525  29.1585795  29.2965464
  60.0994335  29.0908103  28.1892172  60.0024387  29.0993835  28.9677418
  45.1928270  25.3459486  17.7148443  45.0103844  25.5631367  16.8889436
  46.0553883  25.4598499  17.7707058  45.2932860  25.3949384  17.6002930
  50.8727990  22.3485897  20.7497467  51.6014150  22.1701852  20.3035623
  50.9622882  23.1903977  20.9604645  50.9934652  22.4469776  20.7150985
  54.8536290  33.2839285  24.6529761  55.6093805  33.7170799  24.6918670
  54.9598615  32.6344054  25.2264397  54.9806461  33.2516768  24.7427787
  57.8916461  37.1112562  25.4032164  57.4551693  37.1149304  26.1591136
  57.5579377  37.7918061  24.9711742  57.7779081  37.2125018  25.4512997
  57.8113944  24.1526390  27.6461592  58.4539853  24.2224494  28.2323507
  58.0636965  23.4855612  27.1441134  57.9436076  24.0652738  27.6588871
  44.7390297  28.6233659  16.2270916  44.0248474  28.3371839  16.6393349
  45.2234266  28.9630285  16.8677304  44.7049661  28.6315309  16.3826551
  61.0260808  33.8293482  24.2951801  61.6877242  33.2684150  24.1947710
  60.3852220  33.3345512  24.6204492  61.0289675  33.6729891  24.3284142
  51.9137615  37.1263613  16.6032725  52.3288764  36.7948637  15.9117220
  51.0829545  36.8932515  16.4752861  51.8525624  37.0434869  16.4823572
  57.3125638  34.8458864  24.0363790  57.5481227  34.9904063  23.2090641
  57.4615202  35.6101272  24.4295304  57.3691442  34.9797918  23.9727394
  59.1416095  33.6860530  21.8733394  59.4724312  34.2188170  21.2673489
  59.7149183  33.7399418  22.5295345  59.2749774  33.7730099  21.8811176
  54.3547984  31.5325433  22.5556974  54.4494838  32.2714727  23.0096600
  53.7306828  31.1042908  22.9891539  54.2757014  31.5786753  22.6865122
  54.6071005  33.3774173  15.7893926  54.5251168  33.4476360  16.6548913
  55.2450726  33.9403916  15.5977667  54.6890843  33.4713144  15.8883876
  53.0465227  25.2463361  25.3572545  52.3421553  24.7572547  25.5156464
  53.0950201  25.2585836  24.4860989  52.9495278  25.1753009  25.2511885
  46.9398889  30.6972673  25.7433347  46.3648480  30.8564841  26.3797308
  46.5634565  30.0608082  25.2801798  46.8001701  30.6270486  25.7687905
  60.2495447  28.9271027  23.3773556  59.9932011  28.1150968  23.1871438
  61.0924760  28.9348594  23.1503743  60.3361472  28.8083024  23.3158373
  54.4298539  22.8670651  28.1149710  54.8109051  22.1848822  28.5017584
  53.6261823  22.5780253  27.9325374  54.3675001  22.7237699  28.1453766
  51.7111116  33.3994627  18.8002532  52.5251754  33.6909520  18.6885304
  51.6470257  32.7454489  18.2260825  51.8213855  33.3459822  18.6991370
  47.5819024  36.8716144  23.9274845  48.2192971  36.6327892  24.4726638
  48.0074095  37.0753303  23.1928005  47.7395190  36.8667154  23.8992002
  48.2221839  32.0918434  18.2649734  48.6066992  31.8726141  19.0166279
  47.9733459  32.9181379  18.3950810  48.2423911  32.1816580  18.3950810
  58.9557026  35.8665072  29.2760403  58.6502843  36.5993129  29.6373718
  58.2363242  35.4603001  28.9953189  58.8044369  35.9146805  29.2873540
  64.6558819  32.5058072  28.6028747  64.5883319  32.5254031  27.7331333
  64.6414481  33.3488400  28.8284417  64.6437575  32.6331807  28.5081224
  45.9422276  23.7615371  23.5958514  45.0744702  23.8337970  23.6616124
  46.2297481  24.5637450  23.7846490  45.8562024  23.8909518  23.6333281
  55.0655165  23.9093230  31.9269836  55.8108757  23.7203040  31.5133262
  54.6492470  24.4351468  31.3683693  55.1140139  23.9595375  31.7834410
  48.5045082  40.3123310  20.3382104  48.7943380  39.9212291  19.6141331
  49.2348562  40.4940015  20.7787380  48.6551966  40.2817124  20.2964911
  62.4417436  31.2802459  26.8775341  62.9925357  30.6470528  27.1172433
  62.4261551  31.8117851  27.5690846  62.5202632  31.2651407  27.0154199
  56.1445842  29.5198792  25.9879937  55.8010608  28.7989127  26.3387187
  56.2438885  29.3112643  25.1458296  56.1087885  29.3822995  25.9151617
  45.5600218  36.0159260  21.5940321  46.3146186  36.3972299  21.8075783
  44.9670830  36.4670404  22.0487017  45.5836931  36.1388087  21.6923199
  56.6058871  35.9824496  21.5303926  57.1716904  36.6417706  21.4462469
  55.9586775  36.3274194  22.0020328  56.5937628  36.1306438  21.5876682
  43.8689628  27.2373630  21.0375391  43.5814424  26.8674900  20.3007338
  44.5560097  27.7068485  20.7759096  43.9278526  27.2520599  20.8890466
  53.0765449  38.9263280  20.9541005  52.8352125  38.1931141  20.5468070
  53.2566782  39.4750137  20.3007338  53.0673073  38.8985672  20.7971228
  48.3064770  34.2171840  22.3661927  48.1107553  34.8246575  21.7722230
  48.5299116  33.5239784  21.8853601  48.3099411  34.2049366  22.2078008
  46.7043300  31.1026578  22.4842795  47.4265952  31.2667736  22.0246601
  46.2251293  31.8236243  22.3782135  46.7407031  31.2324808  22.4008409
  54.6636808  27.4390377  27.8639480  53.8247908  27.4651656  27.6277744
  54.7341175  28.0861112  28.4444827  54.5505201  27.5386503  27.9148597
  53.1106086  24.3375754  22.5967096  53.8132439  24.1383502  22.1187055
  52.8450275  23.5651696  22.9035940  53.1752718  24.1938720  22.5712538
  58.5394331  32.6458364  25.1500722  58.4528306  32.8013790  26.0035501
  58.0844811  33.2896439  24.7760127  58.4597588  32.7634119  25.2207829
  41.4417823  28.0154842  21.8860672  41.5433959  28.8181004  22.2141647
  42.2373710  27.8142178  21.5883752  41.5745729  28.1040741  21.8896027
  52.4120147  29.9669111  23.7726282  52.1654862  29.8864862  24.6063071
  52.7405270  29.1822579  23.5788809  52.4241391  29.8395376  23.8673805
  56.3068196  36.6752470  27.5613063  56.1682556  37.3733516  28.0661805
  55.5268194  36.5201127  27.2049245  56.1711423  36.7552637  27.5839337
  50.5437092  31.9015998  30.9674396  49.7960406  32.0947012  30.5622674
  50.6978617  31.0761217  30.7298518  50.4559520  31.8081109  30.8719802
  57.8021569  36.0330724  18.3229562  57.4228378  35.2467862  18.3158851
  57.1387814  36.5817581  18.1801206  57.6480044  35.9975548  18.3010359
  55.2566195  18.9756424  25.7263643  55.3749763  19.4332887  24.9930946
  55.0828371  18.1701685  25.4399861  55.2485366  18.9250196  25.5764577
  50.6268477  39.5844243  22.1618388  51.3918368  39.3153887  21.8401053
  50.5246567  39.0994253  22.8788451  50.7249973  39.4733808  22.2198216
  48.6621247  27.7868652  28.7011624  47.8717322  27.6060113  29.0228960
  49.0581870  27.0095605  28.6841919  48.6038123  27.6456113  28.7464172
  53.1487138  36.6156427  14.1418338  53.9160123  36.6756552  13.7324189
  52.7018447  36.0436868  13.6574656  53.1960565  36.5393002  14.0096048
  54.0464933  35.4211083  26.4271070  53.3709935  35.1896315  26.9284457
  54.0557309  34.8132266  25.8013175  53.9483438  35.2970008  26.4087222
  56.0481668  38.2776215  18.6581248  56.1301505  39.0843201  18.3342699
  56.5331410  38.2972174  19.3822021  56.1318826  38.3996877  18.7168147
  45.1460616  33.4513102  22.7579298  45.3025235  33.3859905  23.6135290
  45.4861209  34.2261655  22.5457978  45.2193851  33.5562300  22.8533893
  51.6839761  32.8270986  21.6272662  52.2255306  32.3241367  22.0911282
  51.9986320  32.7736181  20.8162147  51.8104158  32.7450407  21.5756474
  49.8526210  38.2188337  18.9112690  49.9219031  37.3602876  19.0505690
  50.6314666  38.4360218  18.5831714  49.9779061  38.1241201  18.8829847
  54.2433698  40.6426039  23.1249183  53.8513490  40.3392754  22.4072049
  54.3986770  41.4795129  22.9354137  54.2087288  40.7209875  22.9905680
  54.9968118  29.3296356  32.6178269  54.1844800  29.0222246  32.6991442
  55.4558053  28.8495356  33.1820981  54.9448503  29.2132848  32.7132863
  54.4073373  37.2076028  23.0655214  54.0488028  37.3790670  23.8419246
  53.9212084  37.6689233  22.5083212  54.2832070  37.3014999  23.0980483
  52.2243759  20.8307226  26.6682305  51.3537317  20.8045947  26.6215614
  52.4784100  20.6584418  25.8508151  52.1337319  20.8017370  26.5402442
  49.1961738  32.8875193  15.6055448  49.4854263  33.6640076  15.8799022
  49.2833537  32.3763924  16.3069947  49.2515994  32.9267111  15.7497946
  49.2492899  22.8413455  28.1255775  48.7331388  22.1493646  28.2507354
  48.6886828  23.5084232  28.0718374  49.0899413  22.8376712  28.1361841
  51.3185133  23.3806415  29.9548628  50.9316886  23.4055446  30.7362158
  50.8318070  22.8148093  29.5023144  51.1897642  23.3002165  30.0036532
  57.2935112  29.9469070  28.5788330  56.8662720  29.8595418  27.8236430
  56.6561165  30.0546845  29.1643174  57.1364719  29.9501729  28.5533772
  50.9842274  20.2673400  32.2458888  51.6135392  20.8033700  31.9679958
  51.1528137  20.1750759  33.0972453  51.1020069  20.3334762  32.3307416
  42.8401246  29.8227995  25.5340311  42.4457944  29.8971006  24.7590420
  42.2841363  30.2085941  26.0848672  42.7004058  29.8909769  25.5007970
  54.4766193  22.8009289  25.2144190  54.6815786  22.7331596  26.0601187
  54.1492617  23.6068110  25.1465367  54.4581441  22.9095229  25.3303845
  49.1742344  30.1289857  26.9553158  48.8705482  29.5745845  27.5563565
  48.4721765  30.3082067  26.4681192  49.0258554  30.0734639  26.9722863
  48.2308441  27.4390377  21.5197859  48.5068175  26.7209289  21.1075427
  48.8307110  28.0375296  21.3118965  48.3601706  27.4210747  21.4278621
  57.7299881  23.3541053  24.6946955  57.1174194  23.8411455  25.0800687
  57.8264056  22.6784544  25.2384606  57.6537778  23.3259362  24.8325813
  51.7318962  25.1103894  19.7944454  52.1862708  25.2814454  20.5192299
  52.2059007  24.4972005  19.3942230  51.8687282  25.0454779  19.8418216
  45.6495110  25.7554218  29.7915210  46.1096591  25.8293147  30.5290334
  45.6951217  26.5535472  29.4415032  45.7245665  25.8848365  29.8487967
  61.3724909  34.4257990  30.1224471  61.4308032  34.8744638  30.8684448
  60.7391376  34.8356802  29.6854551  61.2876204  34.5531724  30.1677019
  55.0124003  40.0461531  26.5579217  54.8143692  40.5352346  25.8635429
  54.3911714  40.2502773  27.1363351  54.8911568  40.1478070  26.5402441
  49.0731982  31.8146428  20.8989462  49.8174027  32.2020705  21.1372412
  49.2192678  30.9703854  21.0629949  49.2042567  31.7476901  20.9583431
  50.9911557  23.6096687  25.9321323  50.1447602  23.7819495  25.8062673
  50.9882690  22.8046031  26.2687151  50.8658707  23.5157716  25.9632450
  52.0609857  27.3871902  26.7983381  51.5869812  26.8613664  27.3088692
  52.4327993  26.8401374  26.2298242  52.0459746  27.2287898  26.7898528
  58.3246588  32.4474277  28.2090161  58.0844811  31.6080692  28.2132588
  58.8038595  32.5274444  28.9330935  58.3598772  32.3355677  28.3164964
  53.9893357  28.2808456  19.8609135  53.4616376  28.3637200  19.1714844
  54.4489065  29.0226328  19.8573779  53.9795208  28.4029119  19.7583830
  60.3251775  29.2275734  26.1619421  60.0861545  29.1871569  25.3240205
  60.4885676  30.0746887  26.2885142  60.3142079  29.3467819  26.0572903
  56.9297805  33.6125684  32.0924466  57.6532004  33.1598210  31.9135486
  56.6647768  33.8930349  31.3096794  56.9979079  33.5876652  31.9503181
  45.7984674  28.2085857  28.8277345  45.1737744  28.2204249  28.2203298
  45.4630268  28.6846032  29.4768585  45.6570165  28.2804374  28.8333913
  45.9826422  26.5510976  14.8850030  45.6339227  27.2030701  15.3481579
  45.5022868  26.5368089  14.1573901  45.8596666  26.6454029  14.8461121
  53.5430440  36.8512020  18.9918792  54.2664639  37.3170133  18.8483365
  53.1031031  36.9185629  18.2416389  53.5846132  36.9295856  18.8603573
  53.0095722  21.9840241  31.6003003  52.5136283  22.1803915  30.9094570
  53.7664784  22.3832909  31.4291805  53.0482547  22.0717974  31.4723140
  50.2798602  25.6582587  28.1906313  50.3041089  25.1242699  27.5019093
  50.5310075  25.1499895  28.8531904  50.3208520  25.5043491  28.1870958
  46.5599924  24.3853405  27.5712058  46.5998295  24.8862611  28.2846765
  45.7349588  24.4763799  27.3017981  46.4439450  24.4735221  27.6362596
  46.3550331  29.1769506  20.3976074  46.4953292  29.6741970  21.1004716
  46.8532864  28.4755801  20.5390288  46.4491412  29.1471485  20.5227653
  46.3850553  30.0436617  17.7268651  47.0195633  30.6397042  17.6618113
  46.4676164  29.7440075  18.5414521  46.4907104  30.0877525  17.8371738
  59.3633119  32.5752095  30.5955015  59.9550959  33.2149345  30.6273214
  59.7992114  31.8775131  30.8847082  59.5151550  32.5670445  30.6435848
  47.9629536  25.9750593  17.7014093  48.2845377  25.4953675  17.0473356
  48.2256480  26.7850239  17.5104905  48.0495562  26.0240491  17.5769585
  53.3588691  25.3622787  30.0637572  53.7843763  24.9095313  29.4521099
  52.7445684  24.8082857  30.3402360  53.3317337  25.2136763  30.0142598
  42.8903541  32.2404458  20.9958197  43.3995771  32.8368966  21.3769503
  43.3637814  31.9730432  20.3134617  43.0346917  32.2890273  20.9512720
  53.8034289  40.9132725  19.1516853  53.0863599  40.7393587  18.6864090
  54.4541027  40.6785297  18.6192339  53.7936140  40.8528517  19.0046071
  51.7982914  21.8337886  23.4728149  51.1551232  21.6835533  24.0413288
  51.4582321  21.5880232  22.7077254  51.6527991  21.7750009  23.4431165
  56.3882261  29.7897313  22.8958158  55.7173450  30.3327015  22.7671223
  57.0822011  30.2592169  22.6539853  56.3911128  29.9395584  22.8413686
  56.5510388  26.2453197  25.8048531  56.9037998  25.8182920  26.4794330
  55.6925190  26.1604040  25.9349608  56.4759833  26.1697938  25.9243542
  45.2494073  28.8760717  23.8631378  44.5306062  29.2924849  24.1304241
  45.6206435  29.4414955  23.3123016  45.1986005  29.0209998  23.8214185
  54.5493654  29.5088565  29.7533373  54.5291581  29.3271861  30.6068152
  54.5972855  30.3800584  29.7292957  54.5528295  29.6105104  29.8756668
  51.0240647  27.9158716  19.2004757  50.4305487  28.2375713  18.6489324
  51.0615925  27.0699812  18.9925863  50.9415037  27.8383045  19.0887528
  57.9834448  21.3671609  26.7332844  57.4765313  20.6600748  26.6654021
  58.7801882  21.0364798  26.8633920  58.0261687  21.2144760  26.7431839
  53.8998464  27.8738221  22.6306507  53.6712157  27.8970922  21.7884866
  54.1596540  27.0495688  22.7501518  53.9044652  27.7554301  22.5231705
  46.9543226  26.4114767  23.9260703  47.4300593  26.7731847  23.2910884
  46.4531826  27.0671235  24.2060846  46.9508585  26.5608956  23.8737444
  60.1854588  35.8836535  19.7173708  60.5688194  36.6327891  19.9471805
  59.3898701  36.1302355  19.4585697  60.1248370  36.0306229  19.7131282
  48.9969880  28.5555967  17.2934087  49.3768844  28.5735596  16.5085202
  48.2562476  29.0009956  17.1724934  48.9438717  28.6237742  17.1597655
  56.6255170  26.8638158  22.8809666  56.6249397  26.7086815  23.7393942
  56.4211350  27.7101145  22.8251051  56.5954948  26.9658779  22.9997605
  54.3496022  31.5435660  26.5345873  54.8449688  30.8258655  26.4949893
  53.5395798  31.2406458  26.4200360  54.3039915  31.3933306  26.5119598
  49.7954634  35.3933473  18.6842877  48.9865956  35.0700147  18.6376187
  50.3029543  34.6866695  18.6171126  49.7504300  35.2414790  18.6673171
  56.4147841  34.2939348  29.2223001  56.8402913  33.7713769  28.6693426
  56.0504761  34.8920185  28.7011624  56.4234444  34.3049575  29.0632011
  53.0026441  38.0073612  25.5524159  53.4737619  38.7213874  25.7214144
  53.3386619  37.4072362  26.0884028  53.1221556  38.0245076  25.6556535
  49.9195935  22.7801082  32.5082254  50.0523841  21.9832076  32.8363229
  50.3041088  23.3067485  33.0880529  49.9952264  22.7400999  32.6425757
  52.9928291  19.7031409  29.1063347  52.1874254  19.5929138  29.4231185
  52.8635026  19.8043864  28.2493213  52.8548423  19.7015079  29.0271387
  56.4494251  25.8676900  29.7003044  55.8657240  26.3686107  29.2880611
  56.7698545  25.3606457  29.0667367  56.4107427  25.8668735  29.5461551
  48.9889050  24.7817495  19.9761719  49.8104745  24.9515808  19.7343413
  48.5258701  24.9364756  19.2528016  49.0420213  24.8299228  19.8333363
  47.5784382  22.7760257  30.7560147  48.1228795  22.4351384  31.3464489
  47.6321318  23.6345719  30.8981432  47.6673502  22.8515517  30.8642021
  57.2613188  55.0845839  22.3294231  56.5096088  54.7061378  22.1010276
  57.7099200  55.1164273  21.5813041  57.2162855  55.0331446  22.1851733
  66.1865765  51.8169647  36.1717456  66.8932532  51.3221678  36.3004390
  66.3753700  52.2578728  35.4420114  66.3193671  51.8087997  36.0826501
  62.7138148  55.5071209  17.7579778  62.3789516  56.1848130  17.3224000
  63.2265018  55.1176520  17.1696650  62.7403729  55.5495787  17.6066570
  62.2542439  57.4585477  23.6990890  62.6381819  58.0272376  23.1595665
  62.1901580  56.7334988  23.2196706  62.3015866  57.4360941  23.5484752
  65.7223869  47.6075165  29.2088651  66.2679829  48.2860252  29.2682621
  65.6640746  47.4662626  28.3490233  65.7939784  47.6867167  29.0900712
  58.8397944  55.0964231  24.5957003  58.9408307  54.2864585  24.9054131
  58.2439690  55.0021178  23.9656682  58.7670483  54.9629259  24.5483242
  67.4988938  49.0359772  20.0822379  67.3828464  49.7867458  20.5114517
  68.2944825  48.7783726  20.3318466  67.5993527  49.1094619  20.1826471
  58.6798684  60.0141821  25.9971860  59.3236139  60.4554985  26.3868018
  59.0054939  59.2095247  25.9102118  58.8230513  59.9607015  26.0417337
  52.0362989  51.1184518  24.2209337  51.8013173  50.2852170  24.1141606
  52.1748629  51.3989184  23.4070538  52.0218651  51.0368021  24.0851692
  54.3353076  43.2870249  27.1193645  53.7158108  42.6962896  26.9503660
  54.2336940  43.8781684  26.4857968  54.2290752  43.2874331  26.9998634
  59.3819264  53.0253795  21.3691721  59.7035105  53.5659003  20.7653029
  60.0291360  52.4550567  21.5014011  59.5245319  53.0212971  21.2998757
  61.4320972  45.0269790  21.4526108  62.1301136  45.2057918  21.9447571
  61.7473304  44.5040130  20.8296497  61.5816309  44.9763562  21.4328118
  61.6208907  51.4140235  21.4405899  62.0602543  50.8057336  21.8860672
  61.4713570  51.0347609  20.6691364  61.6630373  51.2678706  21.3925067
  61.6266641  52.8539153  28.2931617  61.9089884  52.0590559  28.0718373
  62.3552802  53.3319741  28.3136679  61.7756205  52.8073750  28.2634633
  59.6047835  40.3962187  25.5347383  59.2751165  40.8473331  24.8651081
  58.9292837  40.3178350  26.0820389  59.4558272  40.4513322  25.5170606
  65.2218244  49.7667417  18.3936669  65.1369539  50.6228383  18.5386238
  65.7102627  49.4911741  19.0618828  65.2807141  49.8524738  18.5138750
  66.8124243  36.3847710  23.7796993  66.4977684  37.0751188  24.2117416
  66.2951185  36.3292492  23.0782494  66.6888713  36.4782598  23.7393942
  66.1536677  46.3852211  19.8934404  65.6248148  46.6011844  20.5531710
  66.6761697  47.0788349  19.8135373  66.1525130  46.5195348  19.9790003
  71.6084730  51.9598515  25.2667448  70.7782433  52.1709159  25.4300865
  71.5593982  51.1335570  24.9909732  71.4791465  51.8688122  25.2504814
  58.0436285  50.2815428  18.6941872  57.4593500  50.7865459  19.1007736
  57.6406380  50.0557815  17.9538464  57.8975588  50.3223676  18.6446897
  59.6694467  54.7902369  28.1015358  59.1521409  54.4309784  27.4976666
  60.3668859  54.2664544  28.1121424  59.6960048  54.6600057  28.0145616
  63.3258059  55.2397184  34.0631531  63.4141405  55.0523324  34.9109741
  63.7547772  54.5934613  33.6636378  63.4020162  55.1160191  34.1303282
  60.8928519  54.5228343  33.0449193  60.3299354  54.1100953  33.5688854
  61.6549543  54.4481249  33.4642336  60.9222968  54.4505744  33.1842193
  62.5013499  46.5281080  17.1710792  62.7409503  46.7359063  16.3586135
  62.8229340  45.7238588  17.2799737  62.5850657  46.4395181  17.0671345
  57.8103789  38.4574475  21.0170330  58.5649757  38.8252792  20.7787381
  57.6331324  38.8314030  21.7849510  57.8958268  38.5672663  21.0955219
  56.4524510  56.5126365  25.6485823  57.1545090  55.9978354  25.7058580
  56.3721994  56.8400516  26.4532698  56.5448271  56.4840591  25.7758615
  71.1038688  44.6068916  29.0617870  70.2667109  44.6771103  29.2965464
  71.0726919  44.6093411  28.1892172  70.9756970  44.6179143  28.9677418
  56.1660854  40.8644794  17.7148443  55.9836427  41.0816675  16.8889436
  57.0286467  40.9783807  17.7707058  56.2665443  40.9134692  17.6002930
  55.7775286  52.7032717  25.1571431  56.6164185  52.9355649  25.2045193
  55.8087055  51.8337028  25.0878467  55.9057003  52.6089663  25.1536076
  61.8460573  37.8671205  20.7497467  62.5746734  37.6887160  20.3035623
  61.9355466  38.7089285  20.9604645  61.9667235  37.9655083  20.7150985
  65.8268874  48.8024592  24.6529761  66.5826389  49.2356107  24.6918670
  65.9331198  48.1529362  25.2264397  65.9539044  48.7702076  24.7427787
  68.8649045  52.6297870  25.4032164  68.4284277  52.6334612  26.1591136
  68.5311960  53.3103369  24.9711742  68.7511665  52.7310325  25.4512997
  68.7846528  39.6711698  27.6461592  69.4272436  39.7409802  28.2323507
  69.0369549  39.0040920  27.1441134  68.9168660  39.5838046  27.6588871
  55.7122881  44.1418967  16.2270916  54.9981058  43.8557147  16.6393349
  56.1966850  44.4815593  16.8677304  55.6782244  44.1500617  16.3826551
  63.5948512  56.5816305  30.3741770  62.7963758  56.3415805  30.6315639
  64.0434523  56.6330697  31.1208818  63.5423123  56.5538696  30.5226694
  71.9993391  49.3478790  24.2951801  72.6609825  48.7869458  24.1947710
  71.3584803  48.8530820  24.6204492  72.0022259  49.1915199  24.3284142
  62.8870199  52.6448921  16.6032725  63.3021347  52.3133945  15.9117220
  62.0562128  52.4117823  16.4752861  62.8258208  52.5620177  16.4823572
  68.2858222  50.3644172  24.0363790  68.5213811  50.5089371  23.2090641
  68.4347785  51.1286580  24.4295304  68.3424025  50.4983226  23.9727394
  70.1148679  49.2045838  21.8733394  70.4456896  49.7373478  21.2673489
  70.6881767  49.2584726  22.5295345  70.2482358  49.2915407  21.8811176
  65.3280568  47.0510741  22.5556974  65.4227422  47.7900035  23.0096600
  64.7039411  46.6228216  22.9891539  65.2489598  47.0972061  22.6865122
  65.5803589  48.8959480  15.7893926  65.4983752  48.9661668  16.6548913
  66.2183309  49.4589224  15.5977667  65.6623426  48.9898452  15.8883876
  58.9396760  48.6620218  25.2568452  58.6816004  47.8291953  25.2299752
  58.9945243  48.8877831  24.4160953  58.9096538  48.5717990  25.1288589
  64.0197810  40.7648669  25.3572545  63.3154137  40.2757855  25.5156464
  64.0682785  40.7771143  24.4860989  63.9227862  40.6938317  25.2511885
  57.9131472  46.2157981  25.7433347  57.3381064  46.3750149  26.3797308
  57.5367149  45.5793390  25.2801798  57.7734285  46.1455794  25.7687905
  71.2228030  44.4456335  23.3773556  70.9664595  43.6336276  23.1871438
  72.0657344  44.4533902  23.1503743  71.3094055  44.3268332  23.3158373
  65.4031122  38.3855959  28.1149710  65.7841634  37.7034130  28.5017584
  64.5994407  38.0965561  27.9325374  65.3407584  38.2423007  28.1453766
  62.6843699  48.9179935  18.8002532  63.4984338  49.2094827  18.6885304
  62.6202840  48.2639797  18.2260825  62.7946438  48.8645129  18.6991370
  68.9053189  51.6005931  33.2132108  68.6691827  50.7693996  33.0944169
  69.5496418  51.5491538  33.7986952  68.9647860  51.4703619  33.2818002
  58.5551607  52.3901452  23.9274845  59.1925554  52.1513200  24.4726638
  58.9806679  52.5938611  23.1928005  58.7127774  52.3852462  23.8992002
  59.1954422  47.6103742  18.2649734  59.5799575  47.3911449  19.0166279
  58.9466043  48.4366687  18.3950810  59.2156495  47.7001888  18.3950810
  69.9289610  51.3850380  29.2760403  69.6235427  52.1178436  29.6373718
  69.2095826  50.9788309  28.9953189  69.7776952  51.4332113  29.2873540
  60.9373079  52.8673875  25.6068631  61.0112088  52.7049047  26.4610481
  61.7542586  53.0564064  25.3629112  61.0689438  52.8710617  25.6966656
  75.6291402  48.0243380  28.6028747  75.5615902  48.0439339  27.7331333
  75.6147065  48.8673708  28.8284417  75.6170159  48.1517115  28.5081224
  54.6978836  53.2131738  22.6363074  53.8716954  53.4593475  22.5097353
  54.7590827  53.1343818  23.5025132  54.5853003  53.2376687  22.7452019
  56.9154860  39.2800679  23.5958514  56.0477285  39.3523278  23.6616124
  57.2030064  40.0822758  23.7846490  56.8294608  39.4094826  23.6333281
  66.0387749  39.4278538  31.9269836  66.7841341  39.2388348  31.5133262
  65.6225053  39.9536776  31.3683693  66.0872723  39.4780683  31.7834410
  59.4777665  55.8308618  20.3382104  59.7675964  55.4397599  19.6141331
  60.2081146  56.0125323  20.7787380  59.6284549  55.8002432  20.2964911
  73.4150019  46.7987766  26.8775341  73.9657941  46.1655836  27.1172433
  73.3994135  47.3303159  27.5690846  73.4935216  46.7836715  27.0154199
  57.4183581  57.8076000  23.4042254  57.1983876  57.5173355  24.1968921
  57.1978103  57.1490955  22.8760166  57.3531175  57.6675709  23.4431163
  56.3300528  49.8949317  25.6697956  56.0413777  49.2686788  26.2043683
  57.1983876  49.8369604  25.7362636  56.4160780  49.7936861  25.7588910
  67.1178426  45.0384100  25.9879937  66.7743192  44.3174435  26.3387187
  67.2171468  44.8297951  25.1458296  67.0820469  44.9008303  25.9151617
  59.5851536  59.1805390  22.1872946  60.2375594  58.6481833  22.4163972
  58.8877145  58.8274043  22.5740820  59.5782254  59.0494913  22.2785114
  56.5332801  51.5344568  21.5940321  57.2878769  51.9157607  21.8075783
  55.9403414  51.9855711  22.0487017  56.5569515  51.6573395  21.6923199
  67.5791455  51.5009804  21.5303926  68.1449487  52.1603014  21.4462469
  66.9319358  51.8459502  22.0020328  67.5670211  51.6491746  21.5876682
  54.8422212  42.7558938  21.0375391  54.5547008  42.3860208  20.3007338
  55.5292680  43.2253793  20.7759096  54.9011109  42.7705907  20.8890466
  64.0498033  54.4448588  20.9541005  63.8084709  53.7116449  20.5468070
  64.2299366  54.9935445  20.3007338  64.0405657  54.4170980  20.7971228
  59.2797353  49.7357148  22.3661927  59.0840136  50.3431883  21.7722230
  59.5031699  49.0425092  21.8853601  59.2831995  49.7234674  22.2078008
  57.6775884  46.6211886  22.4842795  58.3998535  46.7853044  22.0246601
  57.1983876  47.3421551  22.3782135  57.7139614  46.7510116  22.4008409
  65.6369391  42.9575685  27.8639480  64.7980492  42.9836964  27.6277744
  65.7073758  43.6046420  28.4444827  65.5237785  43.0571811  27.9148597
  64.0838669  39.8561062  22.5967096  64.7865022  39.6568810  22.1187055
  63.8182858  39.0837004  22.9035940  64.1485302  39.7124028  22.5712538
  69.5126915  48.1643672  25.1500722  69.4260889  48.3199098  26.0035501
  69.0577395  48.8081747  24.7760127  69.4330172  48.2819427  25.2207829
  52.4150407  43.5340150  21.8860672  52.5166543  44.3366312  22.2141647
  53.2106293  43.3327486  21.5883752  52.5478312  43.6226049  21.8896027
  63.3852731  45.4854419  23.7726282  63.1387445  45.4050170  24.6063071
  63.7137854  44.7007887  23.5788809  63.3973975  45.3580684  23.8673805
  67.2800780  52.1937778  27.5613063  67.1415139  52.8918824  28.0661805
  66.5000778  52.0386435  27.2049245  67.1444007  52.2737945  27.5839337
  65.6178865  48.4934153  33.8135445  65.6126903  47.6213970  33.8177871
  66.3239859  48.6922323  33.3404900  65.7223869  48.3938028  33.7442480
  58.4177513  56.4113909  30.0510292  58.5667077  55.8516825  29.3983696
  59.1977515  56.4905911  30.4342810  58.5551607  56.3399475  30.0107241
  68.7754153  51.5516032  18.3229562  68.3960961  50.7653170  18.3158851
  68.1120398  52.1002889  18.1801206  68.6212627  51.5160856  18.3010359
  60.9430814  56.5828552  31.3294782  60.8674485  55.9137363  31.8845571
  60.8720673  57.2846340  31.8435449  60.9211421  56.5873459  31.4871630
  66.2298779  34.4941732  25.7263643  66.3482347  34.9518195  24.9930946
  66.0560954  33.6886993  25.4399861  66.2217950  34.4435504  25.5764577
  61.6001061  55.1029551  22.1618388  62.3650952  54.8339195  21.8401053
  61.4979151  54.6179561  22.8788451  61.6982556  54.9919116  22.2198216
  64.1219721  52.1341735  14.1418338  64.8892706  52.1941860  13.7324189
  63.6751030  51.5622176  13.6574656  64.1693149  52.0578310  14.0096048
  65.0197517  50.9396391  26.4271070  64.3442519  50.7081623  26.9284457
  65.0289893  50.3317573  25.8013175  64.9216021  50.8155316  26.4087222
  67.0214251  53.7961523  18.6581248  67.1034089  54.6028509  18.3342699
  67.5063994  53.8157482  19.3822021  67.1051409  53.9182185  18.7168147
  60.3322448  59.9896872  29.7872783  60.8218378  59.2907661  29.6048448
  59.7606680  59.6920742  30.3748841  60.3206978  59.8423095  29.8473824
  56.1193200  48.9698410  22.7579298  56.2757819  48.9045213  23.6135290
  56.4593793  49.7446963  22.5457978  56.1926435  49.0747608  22.8533893
  62.6572344  48.3456294  21.6272662  63.1987890  47.8426675  22.0911282
  62.9718903  48.2921489  20.8162147  62.7836741  48.2635715  21.5756474
  66.5289452  52.5558941  38.7399574  67.3424317  52.2844090  38.9004706
  66.3684418  52.2566481  37.9359770  66.6259400  52.4713867  38.6444980
  60.8258794  53.7373645  18.9112690  60.8951614  52.8788184  19.0505690
  61.6047249  53.9545526  18.5831714  60.9511644  53.6426509  18.8829847
  65.2166282  56.1611347  23.1249183  64.8246073  55.8578062  22.4072049
  65.3719354  56.9980437  22.9354137  65.1819871  56.2395183  22.9905680
  52.6927461  46.1533361  23.0740066  53.0726426  46.5717906  22.4100333
  52.1182826  46.7346816  23.3808909  52.6638786  46.3011220  23.0216807
  65.3805956  52.7261336  23.0655214  65.0220611  52.8975978  23.8419246
  64.8944667  53.1874541  22.5083212  65.2564653  52.8200307  23.0980483
  63.1976342  36.3492534  26.6682305  62.3269900  36.3231255  26.6215614
  63.4516684  36.1769726  25.8508151  63.1069902  36.3202678  26.5402442
  60.1694322  48.4060501  15.6055448  60.4586847  49.1825383  15.8799022
  60.2566121  47.8949232  16.3069947  60.2248578  48.4452419  15.7497946
  60.2225483  38.3598762  28.1255775  59.7063971  37.6678954  28.2507354
  59.6619412  39.0269540  28.0718374  60.0631996  38.3562020  28.1361841
  62.2917716  38.8991722  29.9548628  61.9049469  38.9240754  30.7362158
  61.8050654  38.3333401  29.5023144  62.1630225  38.8187473  30.0036532
  66.5410696  53.6165231  34.0122414  67.1790416  53.1225427  33.6784870
  65.8984787  53.5442632  33.4274641  66.5404922  53.5324240  33.8764769
  68.2667696  45.4654377  28.5788330  67.8395304  45.3780726  27.8236430
  67.6293749  45.5732153  29.1643174  68.1097303  45.4687037  28.5533772
  61.9574858  35.7858708  32.2458888  62.5867976  36.3219008  31.9679958
  62.1260721  35.6936067  33.0972453  62.0752653  35.8520070  32.3307416
  66.5964952  54.3085040  30.6527771  67.3857330  53.9574104  30.7729853
  66.7708550  55.1221428  30.3904405  66.7385234  54.3770897  30.6315639
  53.8133830  45.3413302  25.5340311  53.4190527  45.4156314  24.7590420
  53.2573947  45.7271249  26.0848672  53.6736642  45.4095077  25.5007970
  65.4498776  38.3194596  25.2144190  65.6548370  38.2516904  26.0601187
  65.1225200  39.1253418  25.1465367  65.4314024  38.4280537  25.3303845
  59.2041025  42.9575684  21.5197859  59.4800759  42.2394597  21.1075427
  59.8039694  43.5560604  21.3118965  59.3334289  42.9396055  21.4278621
  68.7032464  38.8726361  24.6946955  68.0906778  39.3596763  25.0800687
  68.7996639  38.1969852  25.2384606  68.6270362  38.8444669  24.8325813
  62.7051545  40.6289202  19.7944454  63.1595292  40.7999762  20.5192299
  63.1791591  40.0157313  19.3942230  62.8419865  40.5640087  19.8418216
  72.3457492  49.9443297  30.1224471  72.4040616  50.3929946  30.8684448
  71.7123960  50.3542110  29.6854551  72.2608787  50.0717032  30.1677019
  65.9856587  55.5646839  26.5579217  65.7876276  56.0537654  25.8635429
  65.3644298  55.7688081  27.1363351  65.8644151  55.6663378  26.5402441
  60.0464565  47.3331736  20.8989462  60.7906610  47.7206013  21.1372412
  60.1925261  46.4889162  21.0629949  60.1775150  47.2662209  20.9583431
  61.9644141  39.1281995  25.9321323  61.1180186  39.3004803  25.8062673
  61.9615273  38.3231339  26.2687151  61.8391291  39.0343024  25.9632450
  63.0342441  42.9057210  26.7983381  62.5602395  42.3798972  27.3088692
  63.4060577  42.3586682  26.2298242  63.0192330  42.7473206  26.7898528
  69.2979172  47.9659585  28.2090161  69.0577395  47.1266000  28.2132588
  69.7771179  48.0459752  28.9330935  69.3331355  47.8540985  28.3164964
  64.9625941  43.7993764  19.8609135  64.4348959  43.8822508  19.1714844
  65.4221649  44.5411636  19.8573779  64.9527791  43.9214427  19.7583830
  71.2984359  44.7461042  26.1619421  71.0594129  44.7056877  25.3240205
  71.4618260  45.5932194  26.2885142  71.2874662  44.8653127  26.0572903
  67.9030389  49.1310992  32.0924466  68.6264588  48.6783518  31.9135486
  67.6380351  49.4115657  31.3096794  67.9711662  49.1061960  31.9503181
  56.9559006  42.0696284  14.8850030  56.6071810  42.7216009  15.3481579
  56.4755452  42.0553397  14.1573901  56.8329250  42.1639337  14.8461121
  64.5163023  52.3697328  18.9918792  65.2397222  52.8355441  18.8483365
  64.0763614  52.4370937  18.2416389  64.5578715  52.4481164  18.8603573
  63.6849178  49.2294870  30.2419481  63.0706171  48.6852920  30.5368116
  64.2016463  48.7159106  29.7625297  63.6704841  49.0731279  30.2143709
  62.9245475  50.2999140  27.9763779  62.4973084  49.6748859  27.5429215
  62.9170420  50.0174062  28.8022787  62.8604617  50.1651921  28.0343607
  63.9828306  37.5025549  31.6003003  63.4868867  37.6989223  30.9094570
  64.7397368  37.9018217  31.4291805  64.0215130  37.5903282  31.4723140
  61.2531185  41.1767895  28.1906313  61.2773672  40.6428007  27.5019093
  61.5042659  40.6685203  28.8531904  61.2941104  41.0228798  28.1870958
  57.5332507  39.9038713  27.5712058  57.5730879  40.4047919  28.2846765
  56.7082172  39.9949106  27.3017981  57.4172033  39.9920529  27.6362596
  57.3282915  44.6954814  20.3976074  57.4685876  45.1927278  21.1004716
  57.8265447  43.9941109  20.5390288  57.4223996  44.6656793  20.5227653
  57.3583137  45.5621925  17.7268651  57.9928216  46.1582350  17.6618113
  57.4408748  45.2625383  18.5414521  57.4639688  45.6062833  17.8371738
  70.3365703  48.0937403  30.5955015  70.9283543  48.7334653  30.6273214
  70.7724697  47.3960439  30.8847082  70.4884134  48.0855753  30.6435848
  58.9362120  41.4935901  17.7014093  59.2577961  41.0138983  17.0473356
  59.1989064  42.3035547  17.5104905  59.0228145  41.5425798  17.5769585
  62.1659093  52.5154775  31.2212909  61.6584184  53.0690622  31.6653540
  61.8685739  52.5763065  30.4031684  62.0463978  52.6061086  31.1661366
  53.8636125  47.7589766  20.9958197  54.3728354  48.3554273  21.3769503
  54.3370397  47.4915740  20.3134617  54.0079501  47.8075581  20.9512720
  64.7766873  56.4318033  19.1516853  64.0596183  56.2578895  18.6864090
  65.4273611  56.1970605  18.6192339  64.7668723  56.3713825  19.0046071
  62.7715498  37.3523194  23.4728149  62.1283816  37.2020841  24.0413288
  62.4314905  37.1065540  22.7077254  62.6260575  37.2935317  23.4431165
  67.3614844  45.3082621  22.8958158  66.6906034  45.8512323  22.7671223
  68.0554594  45.7777476  22.6539853  67.3643712  45.4580892  22.8413686
  61.4101578  57.4479333  28.1269916  61.1867232  56.6898162  28.4953943
  60.9211421  57.4777354  27.4050356  61.3045027  57.3401558  28.0746657
  67.5242972  41.7638505  25.8048531  67.8770582  41.3368228  26.4794330
  66.6657773  41.6789348  25.9349608  67.4492416  41.6883245  25.9243542
  56.2226657  44.3946024  23.8631378  55.5038646  44.8110157  24.1304241
  56.5939019  44.9600263  23.3123016  56.1718588  44.5395306  23.8214185
  60.0580035  57.6679791  25.5807001  59.6440433  57.0053921  25.1910843
  60.7427409  57.8157650  25.0602695  60.0978407  57.5920449  25.4463498
  63.4245329  56.8269877  26.3330617  63.0261612  56.9372147  25.5651438
  62.8096549  57.0351943  26.9157177  63.2744218  56.8743445  26.3061917
  61.9973231  43.4344024  19.2004757  61.4038070  43.7561021  18.6489324
  62.0348509  42.5885120  18.9925863  61.9147620  43.3568353  19.0887528
  68.9567032  36.8856917  26.7332844  68.4497896  36.1786056  26.6654021
  69.7534465  36.5550105  26.8633920  68.9994271  36.7330068  26.7431839
  64.8731048  43.3923529  22.6306507  64.6444741  43.4156230  21.7884866
  65.1329124  42.5680996  22.7501518  64.8777236  43.2739609  22.5231705
  57.9275810  41.9300075  23.9260703  58.4033176  42.2917155  23.2910884
  57.4264410  42.5856543  24.2060846  57.9241169  42.0794264  23.8737444
  71.1587172  51.4021843  19.7173708  71.5420777  52.1513199  19.9471805
  70.3631285  51.6487663  19.4585697  71.0980954  51.5491537  19.7131282
  59.9702463  44.0741275  17.2934087  60.3501428  44.0920904  16.5085202
  59.2295059  44.5195264  17.1724934  59.9171301  44.1423050  17.1597655
  67.5987754  42.3823466  22.8809666  67.5981980  42.2272123  23.7393942
  67.3943934  43.2286453  22.8251051  67.5687532  42.4844087  22.9997605
  65.3228606  47.0620968  26.5345873  65.8182271  46.3443963  26.4949893
  64.5128382  46.7591766  26.4200360  65.2772499  46.9118614  26.5119598
  60.7687217  50.9118781  18.6842877  59.9598540  50.5885455  18.6376187
  61.2762126  50.2052003  18.6171126  60.7236884  50.7600098  18.6673171
  67.3880425  49.8124655  29.2223001  67.8135496  49.2899077  28.6693426
  67.0237344  50.4105493  28.7011624  67.3967027  49.8234882  29.0632011
  57.0234504  58.1088873  27.9820347  57.3381063  58.9225261  27.9898129
  57.4327918  57.7239092  28.6502506  57.1302602  58.1717575  28.0824439
  63.9759024  53.5258920  25.5524159  64.4470202  54.2399182  25.7214144
  64.3119203  52.9257670  26.0884028  64.0954139  53.5430384  25.6556535
  66.0636009  55.1360233  37.7316231  66.1732974  54.3468794  38.0872978
  66.3926905  55.0466169  36.9290569  66.1288414  55.0066086  37.6658622
  64.6132970  53.3176854  32.3151851  64.0653916  52.6934737  32.0471917
  65.0745999  53.5071126  31.5995931  64.6000180  53.2535904  32.1702283
  63.9660874  35.2216716  29.1063347  63.1606838  35.1114446  29.4231185
  63.8367610  35.3229172  28.2493213  63.8281007  35.2200386  29.0271387
  67.4226835  41.3862208  29.7003044  66.8389824  41.8871415  29.2880611
  67.7431129  40.8791765  29.0667367  67.3840010  41.3854043  29.5461551
  59.9621634  40.3002803  19.9761719  60.7837328  40.4701116  19.7343413
  59.4991285  40.4550064  19.2528016  60.0152796  40.3484536  19.8333363
  64.1791297  54.3227927  28.8461193  64.9989671  54.1790893  29.1077488
  63.8985374  54.9474125  29.3877631  64.2588040  54.3938279  28.9649132
  73.8504632  61.0668429  26.5656999  72.9942527  61.2276928  26.6166116
  73.8972286  60.1960493  26.5862060  73.7303743  60.9619231  26.5763065
  68.2345772  70.6031147  22.3294231  67.4828671  70.2246685  22.1010276
  68.6831783  70.6349581  21.5813041  68.1895438  70.5516754  22.1851733
  77.1598348  67.3354955  36.1717456  77.8665116  66.8406986  36.3004390
  77.3486284  67.7764036  35.4420114  77.2926254  67.3273305  36.0826501
  76.6956453  63.1260473  29.2088651  77.2412413  63.8045560  29.2682621
  76.6373329  62.9847934  28.3490233  76.7672367  63.2052475  29.0900712
  69.8130528  70.6149539  24.5957003  69.9140891  69.8049893  24.9054131
  69.2172273  70.5206486  23.9656682  69.7403066  70.4814567  24.5483242
  63.0095572  66.6369826  24.2209337  62.7745757  65.8037478  24.1141606
  63.1481213  66.9174492  23.4070538  62.9951235  66.5553329  24.0851692
  65.3085660  58.8055556  27.1193645  64.6890691  58.2148204  26.9503660
  65.2069523  59.3966992  26.4857968  65.2023335  58.8059639  26.9998634
  72.4053555  60.5455098  21.4526108  73.1033720  60.7243226  21.9447571
  72.7205888  60.0225438  20.8296497  72.5548892  60.4948870  21.4328118
  65.0354793  62.3507838  29.3637214  64.9113489  62.9370284  29.9987033
  65.6873077  61.8568034  29.6649489  65.1128442  62.3646643  29.5023143
  72.5941491  66.9325543  21.4405899  73.0335126  66.3242644  21.8860672
  72.4446153  66.5532917  20.6691364  72.6362956  66.7864014  21.3925067
  70.0613134  65.5269555  28.6424725  70.7062136  65.0341998  28.3235673
  70.3014911  65.6694342  29.4690803  70.1923719  65.4746997  28.7174258
  72.5999225  68.3724461  28.2931617  72.8822468  67.5775867  28.0718373
  73.3285385  68.8505048  28.3136679  72.7488789  68.3259058  28.2634633
  70.5780419  55.9147495  25.5347383  70.2483749  56.3658639  24.8651081
  69.9025421  55.8363658  26.0820389  70.4290855  55.9698630  25.5170606
  77.7856827  51.9033018  23.7796993  77.4710268  52.5936496  24.2117416
  77.2683768  51.8477800  23.0782494  77.6621297  51.9967906  23.7393942
  64.5712897  71.5155497  25.4965543  64.0880475  72.2405986  25.4725127
  65.3836215  71.8131627  25.6075701  64.6203645  71.6657850  25.5092823
  70.6427051  70.3087677  28.1015358  70.1253992  69.9495092  27.4976666
  71.3401442  69.7849852  28.1121424  70.6692632  70.1785365  28.0145616
  71.8661103  70.0413651  33.0449193  71.3031937  69.6286261  33.5688854
  72.6282126  69.9666557  33.4642336  71.8955551  69.9691052  33.1842193
  68.7836373  53.9759783  21.0170330  69.5382341  54.3438100  20.7787381
  68.6063907  54.3499338  21.7849510  68.8690851  54.0857971  21.0955219
  67.4257094  72.0311673  25.6485823  68.1277673  71.5163662  25.7058580
  67.3454577  72.3585824  26.4532698  67.5180854  72.0025899  25.7758615
  68.4736001  62.2687259  34.7766238  68.6456504  62.1593154  35.6251520
  69.0105358  62.9141665  34.5397431  68.5781005  62.3479261  34.8671335
  67.1393437  56.3830102  17.7148443  66.9569011  56.6001983  16.8889436
  68.0019051  56.4969115  17.7707058  67.2398027  56.4320000  17.6002930
  66.7507869  68.2218025  25.1571431  67.5896769  68.4540957  25.2045193
  66.7819639  67.3522336  25.0878467  66.8789587  68.1274971  25.1536076
  67.3760572  68.6418900  29.4584737  67.9158797  68.4990031  30.1288109
  66.6930519  69.0415651  29.8268763  67.3552726  68.6798571  29.6119158
  72.8193157  53.3856513  20.7497467  73.5479317  53.2072468  20.3035623
  72.9088050  54.2274593  20.9604645  72.9399819  53.4840391  20.7150985
  76.8001457  64.3209900  24.6529761  77.5558972  64.7541415  24.6918670
  76.9063782  63.6714670  25.2264397  76.9271628  64.2887384  24.7427787
  62.7797718  64.8619191  29.6119158  62.5136133  64.0458307  29.7710149
  62.7936282  64.9072346  28.7414674  62.7422440  64.7476095  29.5072640
  66.6855465  59.6604275  16.2270916  65.9713642  59.3742454  16.6393349
  67.1699433  60.0000901  16.8677304  66.6514828  59.6685925  16.3826551
  67.5296324  58.3997569  32.2586166  66.8368121  57.9294549  32.5046898
  68.1456651  58.1735873  32.8327873  67.5180854  58.2964701  32.3795319
  63.1891131  65.6477970  26.8930903  63.0066704  65.6224856  26.0403195
  63.9240800  66.1176908  26.9319811  63.2705195  65.7139332  26.7728821
  66.2536883  62.3662973  33.4013011  66.9776855  62.3516003  33.8877906
  66.3553019  63.0758328  32.9034979  66.3755092  62.4687676  33.3991798
  73.6281832  65.8462057  38.2661958  72.8354813  66.1605569  38.4514578
  73.7430759  66.0613526  37.4282743  73.5277243  65.9245894  38.1700293
  76.3013151  62.5696049  22.5556974  76.3960006  63.3085343  23.0096600
  75.6771995  62.1413524  22.9891539  76.2222181  62.6157369  22.6865122
  74.5565625  65.7482261  33.2047255  75.1304487  65.1109505  33.3595819
  74.4780429  65.7486344  32.3356913  74.6298860  65.6547373  33.0993666
  63.1562042  62.5271471  27.0429969  63.7335544  62.3907921  27.6822214
  62.4576103  62.0707255  27.2975553  63.1383063  62.4393737  27.1752259
  69.9129344  64.1805526  25.2568452  69.6548588  63.3477261  25.2299752
  69.9677827  64.4063139  24.4160953  69.8829122  64.0903298  25.1288589
  74.9930394  56.2833977  25.3572545  74.2886721  55.7943162  25.5156464
  75.0415368  56.2956451  24.4860989  74.8960445  56.2123625  25.2511885
  68.8864056  61.7343289  25.7433347  68.3113647  61.8935457  26.3797308
  68.5099732  61.0978698  25.2801798  68.7466868  61.6641102  25.7687905
  72.5537345  60.2066638  30.6025726  72.1651777  59.7820856  29.9477917
  71.8892043  60.4548788  31.1102752  72.3984272  60.1805359  30.5813593
  58.6320875  61.3783364  23.7577788  58.7181127  61.0015232  24.5391318
  59.2596672  61.0043809  23.2797746  58.7377426  61.2668846  23.8023265
  76.3763706  53.9041267  28.1149710  76.7574218  53.2219438  28.5017584
  75.5726990  53.6150869  27.9325374  76.3140168  53.7608315  28.1453766
  69.5284191  67.9086760  23.9274845  70.1658138  67.6698508  24.4726638
  69.9539263  68.1123919  23.1928005  69.6860357  67.9037770  23.8992002
  64.2196833  70.1475097  27.8109148  64.2600979  70.4189948  26.9828928
  64.7791357  70.6717005  28.2266936  64.3080179  70.2650852  27.7501037
  70.1687006  63.1289050  18.2649734  70.5532159  62.9096757  19.0166279
  69.9198626  63.9551995  18.3950810  70.1889079  63.2187196  18.3950810
  70.3355546  56.4095465  37.9812318  70.0208988  57.1795028  37.7181881
  70.0145479  55.8465721  37.3964545  70.2414466  56.4405734  37.8553668
  71.9105663  68.3859183  25.6068631  71.9844671  68.2234355  26.4610481
  72.7275169  68.5749372  25.3629112  72.0422022  68.3895925  25.6966656
  65.6711420  68.7317046  22.6363074  64.8449537  68.9778783  22.5097353
  65.7323411  68.6529126  23.5025132  65.5585587  68.7561995  22.7452019
  67.8887443  54.7985987  23.5958514  67.0209869  54.8708586  23.6616124
  68.1762648  55.6008065  23.7846490  67.8027192  54.9280134  23.6333281
  77.0120332  54.9463846  31.9269836  77.7573924  54.7573656  31.5133262
  76.5957637  55.4722084  31.3683693  77.0605306  54.9965991  31.7834410
  71.0404994  66.1511672  31.4235235  70.5416688  66.8627439  31.5020123
  71.8505218  66.4712338  31.3853397  71.0861101  66.3038520  31.4291803
  68.3916164  73.3261308  23.4042254  68.1716460  73.0358663  24.1968921
  68.1710686  72.6676263  22.8760166  68.3263758  73.1861017  23.4431163
  67.3033112  65.4134625  25.6697956  67.0146360  64.7872096  26.2043683
  68.1716460  65.3554912  25.7362636  67.3893363  65.3122169  25.7588910
  78.0911009  60.5569408  25.9879937  77.7475775  59.8359743  26.3387187
  78.1904052  60.3483259  25.1458296  78.0553052  60.4193611  25.9151617
  67.5065385  67.0529876  21.5940321  68.2611353  67.4342915  21.8075783
  66.9135998  67.5041019  22.0487017  67.5302098  67.1758703  21.6923199
  69.9672052  59.0092716  36.7197533  69.1571828  59.3150496  36.6087375
  70.4446739  59.7298298  36.8350117  69.9175531  59.1607317  36.7204604
  68.8263611  68.2238437  26.9680436  68.3044365  68.3638729  27.6532301
  69.2137632  67.4649101  27.1582553  68.8067312  68.1323961  27.0981513
  65.8154796  58.2744246  21.0375391  65.5279591  57.9045516  20.3007338
  66.5025264  58.7439101  20.7759096  65.8743693  58.2891215  20.8890466
  70.2529937  65.2542456  22.3661927  70.0572720  65.8617191  21.7722230
  70.4764283  64.5610400  21.8853601  70.2564578  65.2419982  22.2078008
  68.6508467  62.1397194  22.4842795  69.3731119  62.3038352  22.0246601
  68.1716460  62.8606859  22.3782135  68.6872198  62.2695424  22.4008409
  76.6101975  58.4760993  27.8639480  75.7713075  58.5022272  27.6277744
  76.6806342  59.1231728  28.4444827  76.4970368  58.5757119  27.9148597
  66.3016084  64.5455266  31.5896935  66.8137181  64.8239520  30.9405695
  66.0152426  65.2844561  31.9559748  66.3350947  64.6957620  31.5486813
  75.0571253  55.3746370  22.5967096  75.7597606  55.1754118  22.1187055
  74.7915442  54.6022312  22.9035940  75.1217885  55.2309336  22.5712538
  63.3882990  59.0525458  21.8860672  63.4899127  59.8551620  22.2141647
  64.1838877  58.8512794  21.5883752  63.5210896  59.1411357  21.8896027
  69.8199809  56.6381655  31.6497977  69.6283006  56.6536789  32.4997400
  70.6698405  56.8345329  31.6264632  69.9175531  56.6696006  31.7721272
  64.2046722  59.1672637  29.6281793  64.0632214  58.3156577  29.7526301
  64.4887286  59.2101297  28.8043999  64.2254568  59.0472387  29.5249417
  74.3585315  61.0039727  23.7726282  74.1120029  60.9235478  24.6063071
  74.6870438  60.2193195  23.5788809  74.3706558  60.8765992  23.8673805
  76.5911449  64.0119461  33.8135445  76.5859487  63.1399278  33.8177871
  77.2972442  64.2107631  33.3404900  76.6956453  63.9123336  33.7442480
  70.3182342  63.7396445  33.1849265  70.4625718  64.3197653  32.5492375
  70.6657990  64.1172742  33.8899119  70.3909803  63.8817149  33.1948260
  72.4902259  62.9386614  30.9674396  71.7425573  63.1317628  30.5622674
  72.6443784  62.1131833  30.7298518  72.4024687  62.8451725  30.8719802
  69.3910097  71.9299217  30.0510292  69.5399661  71.3702133  29.3983696
  70.1710099  72.0091219  30.4342810  69.5284190  71.8584783  30.0107241
  72.7304036  56.8337164  31.8569800  73.1876650  57.5661139  31.9842592
  72.8060365  56.4103630  32.6157056  72.8095006  56.8794402  31.9870877
  64.9737027  57.0802984  32.9459244  64.4379217  56.4683342  33.2620011
  65.0354792  57.6551120  33.5992910  64.9032660  57.0749912  33.0894670
  77.2031362  50.0127040  25.7263643  77.3214930  50.4703503  24.9930946
  77.0293538  49.2072301  25.4399861  77.1950533  49.9620812  25.5764577
  70.6086414  58.8239268  28.7011624  69.8182489  58.6430728  29.0228960
  71.0047037  58.0466221  28.6841919  70.5503290  58.6826729  28.7464172
  75.9930100  66.4581698  26.4271070  75.3175102  66.2266931  26.9284457
  76.0022477  65.8502881  25.8013175  75.8948605  66.3340624  26.4087222
  73.1224244  61.2999527  33.1835123  73.0583386  62.1609484  33.0555260
  73.2621432  60.9831521  32.3830674  73.1339714  61.3799694  33.0463336
  71.8043338  63.9931667  27.3251326  71.3805587  64.1936166  26.5890344
  71.6288194  63.1460515  27.4375626  71.7154219  63.8980448  27.2325016
  67.0925783  64.4883718  22.7579298  67.2490402  64.4230521  23.6135290
  67.4326376  65.2632271  22.5457978  67.1659018  64.5932916  22.8533893
  73.6304928  63.8641602  21.6272662  74.1720473  63.3611983  22.0911282
  73.9451487  63.8106796  20.8162147  73.7569325  63.7821023  21.5756474
  74.7794197  58.7577906  31.6794962  74.9936167  58.1188821  31.1258316
  74.1628096  59.2023730  31.2502824  74.7199527  58.7288050  31.5345393
  63.6660045  61.6718669  23.0740066  64.0459010  62.0903214  22.4100333
  63.0915410  62.2532124  23.3808909  63.6371370  61.8196528  23.0216807
  76.9433285  60.3666971  32.6178269  76.1309967  60.0592862  32.6991442
  77.4023220  59.8865972  33.1820981  76.8913670  60.2503464  32.7132863
  74.1708926  51.8677842  26.6682305  73.3002484  51.8416563  26.6215614
  74.4249267  51.6955034  25.8508151  74.0802486  51.8387986  26.5402442
  74.0386793  61.7727043  37.4006971  74.5086424  62.3969159  37.7874846
  74.0848673  61.1044018  37.9600186  74.1154669  61.7661723  37.5407043
  71.1958066  53.8784070  28.1255775  70.6796555  53.1864262  28.2507354
  70.6351995  54.5454847  28.0718374  71.0364580  53.8747328  28.1361841
  73.2650300  54.4177030  29.9548628  72.8782053  54.4426062  30.7362158
  72.7783237  53.8518709  29.5023144  73.1362809  54.3372781  30.0036532
  72.9307442  51.3044016  32.2458888  73.5600560  51.8404316  31.9679958
  73.0993304  51.2121375  33.0972453  73.0485236  51.3705378  32.3307416
  72.7321356  56.0915211  34.5185299  73.5594786  55.8200360  34.5743914
  72.7529203  56.8876052  34.8749117  72.8574207  56.1694965  34.5800482
  67.3090846  63.2379073  27.7055560  66.4678853  63.1382948  27.9134454
  67.5180854  64.0074554  28.0569881  67.2155539  63.3371117  27.7882875
  64.7866413  60.8598610  25.5340311  64.3923111  60.9341622  24.7590420
  64.2306530  61.2456557  26.0848672  64.6469226  60.9280385  25.5007970
  76.4231360  53.8379904  25.2144190  76.6280953  53.7702212  26.0601187
  76.0957784  54.6438726  25.1465367  76.4046608  53.9465845  25.3303845
  71.1207511  61.1660473  26.9553158  70.8170649  60.6116461  27.5563565
  70.4186932  61.3452683  26.4681192  70.9723721  61.1105255  26.9722863
  70.1773608  58.4760992  21.5197859  70.4533343  57.7579905  21.1075427
  70.7772278  59.0745912  21.3118965  70.3066873  58.4581363  21.4278621
  69.1825862  68.3810193  31.6625255  69.0746217  68.3912255  32.5287313
  69.3921644  69.2064974  31.4730209  69.1975973  68.5051268  31.7629347
  73.6784129  56.1474510  19.7944454  74.1327875  56.3185070  20.5192299
  74.1524175  55.5342620  19.3942230  73.8152449  56.0825395  19.8418216
  67.1999654  65.6322836  29.1247193  66.6087587  66.2732334  29.0950208
  67.9620678  66.0560453  29.0978492  67.2247915  65.7898674  29.1162340
  67.5960277  56.7924833  29.7915210  68.0561759  56.8663763  30.5290334
  67.6416384  57.5906088  29.4415032  67.6710832  56.9218981  29.8487967
  69.2443627  57.4591528  34.3587238  68.8529192  56.8124875  34.7943015
  69.4129489  58.0502964  34.9781493  69.2114537  57.4505796  34.5149944
  71.0197149  62.8517044  20.8989462  71.7639194  63.2391320  21.1372412
  71.1657845  62.0074470  21.0629949  71.1507734  62.7847517  20.9583431
  72.9376724  54.6467303  25.9321323  72.0912769  54.8190111  25.8062673
  72.9347857  53.8416647  26.2687151  72.8123874  54.5528332  25.9632450
  74.0075025  58.4242517  26.7983381  73.5334979  57.8984279  27.3088692
  74.3793160  57.8771990  26.2298242  73.9924914  58.2658514  26.7898528
  64.3848055  60.4214024  32.1666927  65.2473668  60.3209733  32.0804257
  64.0539838  59.8408733  31.6052499  64.4633251  60.3205651  32.0712333
  75.9358524  59.3179072  19.8609135  75.4081543  59.4007816  19.1714844
  76.3954232  60.0596943  19.8573779  75.9260375  59.4399734  19.7583830
  67.7449841  59.2456473  28.8277345  67.1202911  59.2574865  28.2203298
  67.4095436  59.7216648  29.4768585  67.6035333  59.3174990  28.8333913
  67.9291589  57.5881592  14.8850030  67.5804394  58.2401317  15.3481579
  67.4488035  57.5738705  14.1573901  67.8061833  57.6824645  14.8461121
  64.4575516  67.3056933  30.2681109  63.9275441  66.6149372  30.3176084
  64.7300610  67.2967119  29.4393818  64.4200239  67.2024065  30.1528525
  74.6581762  64.7480178  30.2419481  74.0438755  64.2038228  30.5368116
  75.1749047  64.2344414  29.7625297  74.6437424  64.5916587  30.2143709
  73.8978059  65.8184448  27.9763779  73.4705667  65.1934167  27.5429215
  73.8903003  65.5359370  28.8022787  73.8337200  65.6837229  28.0343607
  67.0140586  60.8549621  31.0452213  67.1734073  60.0992945  31.4503935
  66.8333480  61.4040560  31.6992951  67.0105945  60.8243435  31.2014919
  74.9560889  53.0210857  31.6003003  74.4601450  53.2174531  30.9094570
  75.7129951  53.4203525  31.4291805  74.9947714  53.1088590  31.4723140
  72.2263769  56.6953202  28.1906313  72.2506256  56.1613315  27.5019093
  72.4775242  56.1870511  28.8531904  72.2673687  56.5414106  28.1870958
  59.7371359  63.9784697  27.6249457  59.6314808  63.9331542  26.7601542
  58.9871579  64.3238478  27.9063742  59.6106961  64.0225606  27.5386787
  68.5065091  55.4224021  27.5712058  68.5463463  55.9233227  28.2846765
  67.6814756  55.5134414  27.3017981  68.3904617  55.5105837  27.6362596
  70.6894704  64.9884761  35.6732352  69.8390334  65.1256475  35.8089997
  70.8522832  64.2548539  36.1180054  70.5878567  64.8998862  35.7587951
  69.9279454  61.9384530  29.8685957  69.0971384  62.1058348  29.6621205
  69.8730972  61.5620481  30.6534842  69.7968869  61.9074262  29.9534485
  67.7363238  55.4293423  35.5042367  68.3615941  54.8855556  35.7771800
  67.2813718  54.9488341  34.9350158  67.7611498  55.2782905  35.4603961
  68.3015498  60.2140122  20.3976074  68.4418459  60.7112586  21.1004716
  68.7998031  59.5126416  20.5390288  68.3956579  60.1842101  20.5227653
  68.3315721  61.0807233  17.7268651  68.9660800  61.6767658  17.6618113
  68.4141331  60.7810691  18.5414521  68.4372272  61.1248141  17.8371738
  69.9094703  57.0121208  17.7014093  70.2310544  56.5324291  17.0473356
  70.1721647  57.8220855  17.5104905  69.9960729  57.0611106  17.5769585
  73.1391676  68.0340083  31.2212909  72.6316767  68.5875930  31.6653540
  72.8418322  68.0948373  30.4031684  73.0196561  68.1246394  31.1661366
  75.3053858  56.3993402  30.0637572  75.7308930  55.9465929  29.4521099
  74.6910852  55.8453473  30.3402360  75.2782504  56.2507379  30.0142598
  64.8368708  63.2775074  20.9958197  65.3460938  63.8739581  21.3769503
  65.3102981  63.0101047  20.3134617  64.9812084  63.3260889  20.9512720
  73.7448081  52.8708502  23.4728149  73.1016399  52.7206149  24.0413288
  73.4047488  52.6250848  22.7077254  73.5993159  52.8120625  23.4431165
  78.4975555  57.2823813  25.8048531  78.8503165  56.8553536  26.4794330
  77.6390357  57.1974656  25.9349608  78.4225000  57.2068553  25.9243542
  67.1959240  59.9131332  23.8631378  66.4771229  60.3295465  24.1304241
  67.5671602  60.4785571  23.3123016  67.1451172  60.0580614  23.8214185
  76.4958821  60.5459181  29.7533373  76.4756748  60.3642476  30.6068152
  76.5438022  61.4171200  29.7292957  76.4993462  60.6475720  29.8756668
  74.4405151  67.1346373  35.6781850  74.4001006  66.4896050  35.0927006
  75.2528469  67.0782991  35.9907262  74.5548304  67.0305340  35.6378799
  72.9705815  58.9529332  19.2004757  72.3770654  59.2746329  18.6489324
  73.0081092  58.1070428  18.9925863  72.8880204  58.8753661  19.0887528
  75.8463631  58.9108837  22.6306507  75.6177324  58.9341538  21.7884866
  76.1061707  58.0866304  22.7501518  75.8509819  58.7924917  22.5231705
  70.1282860  60.7643310  32.2331608  69.6161763  60.1564493  32.5916639
  69.9562356  61.4799902  32.7005583  70.0272497  60.7806609  32.3547831
  64.9748574  59.2080885  34.8833969  64.8051165  59.8682260  34.3382176
  64.5314524  59.4187446  35.6046459  64.8847908  59.3366867  34.9095599
  68.9008394  57.4485383  23.9260703  69.3765760  57.8102463  23.2910884
  68.3996993  58.1041851  24.2060846  68.8973753  57.5979572  23.8737444
  74.0051930  58.6867554  34.6733863  74.5623360  58.4581364  34.0412329
  73.6812995  59.4473220  34.3969076  74.0398340  58.7651391  34.5390360
  61.8750639  62.1127751  30.1422459  61.3277358  61.4428396  30.2603328
  62.6643017  61.7457599  30.2065927  61.9102822  61.9592737  30.1691160
  71.7235047  61.7735208  35.6385870  72.4746374  62.0886885  35.9525424
  71.9157624  61.5714379  34.8119792  71.8626461  61.7902590  35.5629266
  70.9435047  59.5926583  17.2934087  71.3234012  59.6106212  16.5085202
  70.2027643  60.0380572  17.1724934  70.8903885  59.6608358  17.1597655
  78.5720337  57.9008774  22.8809666  78.5714564  57.7457431  23.7393942
  78.3676517  58.7471761  22.8251051  78.5420115  58.0029395  22.9997605
  60.6337608  61.3248559  27.2968482  60.4559369  60.8725167  28.0223398
  60.3456630  62.1274720  27.4806960  60.5650561  61.3771116  27.4311985
  76.2961189  62.5806276  26.5345873  76.7914855  61.8629271  26.4949893
  75.4860965  62.2777074  26.4200360  76.2505083  62.4303922  26.5119598
  62.3710078  63.8576282  24.4090241  61.5055598  63.8461973  24.2973013
  62.4708894  63.6706505  25.2561381  62.2584245  63.8282343  24.5179186
  78.3613008  65.3309963  29.2223001  78.7868080  64.8084385  28.6693426
  77.9969928  65.9290801  28.7011624  78.3699611  65.3420190  29.0632011
  67.9967088  73.6274181  27.9820347  68.3113647  74.4410569  27.9898129
  68.4060501  73.2424400  28.6502506  68.1035186  73.6902883  28.0824439
  74.9491608  69.0444228  25.5524159  75.4202786  69.7584490  25.7214144
  75.2851786  68.4442978  26.0884028  75.0686723  69.0615692  25.6556535
  71.8661103  53.8171698  32.5082254  71.9989008  53.0202692  32.8363229
  72.2506255  54.3438101  33.0880529  71.9417431  53.7771615  32.6425757
  75.5865554  68.8362162  32.3151851  75.0386500  68.2120045  32.0471917
  76.0478583  69.0256434  31.5995931  75.5732763  68.7721212  32.1702283
  74.9393458  50.7402024  29.1063347  74.1339421  50.6299754  29.4231185
  74.8100193  50.8414480  28.2493213  74.8013591  50.7385694  29.0271387
  78.3959418  56.9047516  29.7003044  77.8122407  57.4056723  29.2880611
  78.7163712  56.3977072  29.0667367  78.3572594  56.9039351  29.5461551
  70.9354217  55.8188111  19.9761719  71.7569912  55.9886424  19.7343413
  70.4723868  55.9735372  19.2528016  70.9885380  55.8669844  19.8333363
  69.5249549  53.8130873  30.7560147  70.0693962  53.4722000  31.3464489
  69.5786485  54.6716335  30.8981432  69.6138669  53.8886133  30.8642021
  65.3380108  67.5747289  27.6298955  65.9424966  67.5343123  27.0012776
  65.1307421  68.4218441  27.6603011  65.3969005  67.6935292  27.5415072
  60.5731390  66.5581907  27.4997878  60.4755668  65.7478178  27.8087935
  61.3560260  66.5373700  27.1144147  60.6747527  66.4348997  27.4884741
  36.4284341   5.9149336  12.9311906  37.0721796   6.3562500  13.3208065
  36.7540596   5.1102762  12.8442165  36.5716169   5.8614531  12.9757384
  41.0743716   1.1404699  20.9971578  41.1627062   0.9530839  21.8449788
  41.5033429   0.4942128  20.5976424  41.1505818   1.0167707  21.0643329
  38.6414176   0.4235859  19.9789240  38.0785011   0.0108469  20.5028901
  39.4035199   0.3488764  20.3982383  38.6708624   0.3513259  20.1182240
  41.1863775   0.5713718  23.6615361  41.9704192   0.6844566  24.0271103
  40.9860370  -0.2545145  23.8574047  41.2729801   0.4660437  23.7449747
  41.3434169   2.4823820  17.3081817  40.5449414   2.2423320  17.5655685
  41.7920180   2.5338213  18.0548864  41.2908780   2.4546211  17.4566741
  36.1663170   2.3121424  16.9850338  36.3152734   1.7524340  16.3323743
  36.9463172   2.3913426  17.3682857  36.3037264   2.2406990  16.9447288
  38.6916471   2.4836067  18.2634829  38.6160142   1.8144878  18.8185617
  38.6206330   3.1853856  18.7775495  38.6697078   2.4880975  18.4211677
  38.0808105   5.8904387  16.7212830  38.5704035   5.1915176  16.5388495
  37.5092337   5.5928257  17.3088887  38.0692635   5.7430611  16.7813871
  35.9578935  -1.2367599  18.5965302  35.8499290  -1.2265537  19.4627360
  36.1674717  -0.4112819  18.4070256  35.9729046  -1.1126524  18.6969394
  43.7342244   1.4654355  13.4919264  43.5361932   1.9545169  12.7975475
  43.1129955   1.6695596  14.0703398  43.6129808   1.5670893  13.4742487
  39.9144749  -1.5837710  18.1552956  39.4069840  -1.0301863  18.5993587
  39.6171396  -1.5229420  17.3371731  39.7949634  -1.4931399  18.1001413
  39.1587235   3.3486848  15.0609963  38.9352889   2.5905678  15.4293989
  38.6697078   3.3784870  14.3390403  39.0530684   3.2409073  15.0086704
  34.7720161   4.0096388  14.9160394  35.0866720   4.8232777  14.9238175
  35.1813575   3.6246607  15.5842553  34.8788259   4.0725091  15.0164485
  43.8121665   1.0367748  24.6656278  43.9218631   0.2476309  25.0213025
  44.1412562   0.9473685  23.8630616  43.8774071   0.9073601  24.5998668
  41.9276954   0.2235442  15.7801239  42.7475327   0.0798408  16.0417535
  41.6471031   0.8481641  16.3217677  42.0073697   0.2945794  15.8989179
  51.5990289   6.9675945  13.4997046  50.7428184   7.1284443  13.5506163
  51.6457942   6.0968009  13.5202107  51.4789400   6.8626746  13.5103112
  45.9831428  16.5038662   9.2634278  45.2314328  16.1254201   9.0350323
  46.4317440  16.5357096   8.5153088  45.9381095  16.4524270   9.1191780
  54.9084005  13.2362470  23.1057502  55.6150773  12.7414501  23.2344437
  55.0971941  13.6771552  22.3760160  55.0411911  13.2280821  23.0166548
  51.4356388  16.9264032   4.6919825  51.1007757  17.6040954   4.2564047
  51.9483259  16.5369343   4.1036697  51.4621969  16.9688610   4.5406616
  50.9760680  18.8778301  10.6330936  51.3600059  19.4465199  10.0935712
  50.9119821  18.1527811  10.1536753  51.0234107  18.8553764  10.4824799
  54.4442110   9.0267989  16.1428698  54.9898070   9.7053075  16.2022668
  54.3858986   8.8855449  15.2830279  54.5158024   9.1059990  16.0240758
  47.5616185  16.5157055  11.5297050  47.6626548  15.7057409  11.8394178
  46.9657930  16.4214001  10.8996729  47.4888723  16.3822083  11.4823289
  56.2207178  10.4552596   7.0162426  56.1046704  11.2060282   7.4454564
  57.0163065  10.1976549   7.2658513  56.3211768  10.5287443   7.1166517
  47.4016924  21.4334644  12.9311906  48.0454380  21.8747808  13.3208065
  47.7273180  20.6288070  12.8442165  47.5448753  21.3799839  12.9757384
  40.7581229  12.5377341  11.1549384  40.5231413  11.7044994  11.0481653
  40.8966870  12.8182007  10.3410585  40.7436891  12.4560845  11.0191739
  43.0571316   4.7063072  14.0533692  42.4376348   4.1155719  13.8843706
  42.9555180   5.2974507  13.4198015  42.9508992   4.7067154  13.9338681
  48.1037504  14.4446619   8.3031768  48.4253345  14.9851826   7.6993076
  48.7509600  13.8743390   8.4354058  48.2463559  14.4405794   8.2338803
  50.1539212   6.4462614   8.3866155  50.8519377   6.6250741   8.8787618
  50.4691545   5.9232953   7.7636544  50.3034549   6.3956386   8.3668165
  42.7840449   8.2515354  16.2977261  42.6599146   8.8377799  16.9327080
  43.4358734   7.7575549  16.5989536  42.8614099   8.2654158  16.4363190
  50.3427147  12.8333059   8.3745946  50.7820783  12.2250159   8.8200719
  50.1931810  12.4540432   7.6031411  50.3848613  12.6871530   8.3265114
  47.8098790  11.4277070  15.5764772  48.4547793  10.9349514  15.2575720
  48.0500567  11.5701857  16.4030850  47.9409375  11.3754513  15.6514305
  50.3484882  14.2731976  15.2271664  50.6308125  13.4783382  15.0058420
  51.0771042  14.7512564  15.2476725  50.4974445  14.2266573  15.1974679
  48.3266076   1.8155010  12.4687429  47.9969406   2.2666154  11.7991128
  47.6511077   1.7371174  13.0160436  48.1776512   1.8706145  12.4510653
  53.9436484  11.1860240   5.3276715  53.8587779  12.0421207   5.4726284
  54.4320867  10.9104564   5.9958875  54.0025381  11.2717561   5.4478797
  54.8754917   7.8045034   6.8274451  54.3466389   8.0204668   7.4871757
  55.3979937   8.4981173   6.7475420  54.8743370   7.9388171   6.9130050
  60.3302970  13.3791339  12.2007495  59.5000673  13.5901982  12.3640912
  60.2812222  12.5528393  11.9249779  60.2009705  13.2880945  12.1844861
  42.3198554  17.4163012  12.4305590  41.8366132  18.1413502  12.4065174
  43.1321872  17.7139142  12.5415748  42.3689301  17.5665366  12.4432869
  48.3912708  16.2095193  15.0355405  47.8739649  15.8502608  14.4316713
  49.0887099  15.6857367  15.0461471  48.4178289  16.0792881  14.9485663
  52.0476300  16.6590007  20.9971578  52.1359645  16.4716147  21.8449788
  52.4766012  16.0127436  20.5976424  52.1238402  16.5353014  21.0643329
  49.6146759  15.9421167  19.9789240  49.0517594  15.5293777  20.5028901
  50.3767783  15.8674072  20.3982383  49.6441208  15.8698567  20.1182240
  45.1742751  17.9319188  12.5825870  45.8763330  17.4171177  12.6398627
  45.0940234  18.2593339  13.3872745  45.2666511  17.9033414  12.7098662
  59.8256928   6.0261739  15.9957916  58.9885349   6.0963926  16.2305511
  59.7945159   6.0286234  15.1232219  59.6975211   6.0371966  15.9017464
  46.2221657   8.1694775  21.7106285  46.3942161   8.0600669  22.5591566
  46.7591015   8.8149180  21.4737477  46.3266661   8.2486776  21.8011382
  44.4993526  14.1225540  12.0911478  45.3382426  14.3548473  12.1385240
  44.5305295  13.2529851  12.0218513  44.6275244  14.0282486  12.0876123
  45.1246229  14.5426415  16.3924784  45.6644454  14.3997546  17.0628156
  44.4416176  14.9423166  16.7608810  45.1038383  14.5806086  16.5459205
  54.5487114  10.2217416  11.5869808  55.3044629  10.6548930  11.6258717
  54.6549439   9.5722185  12.1604444  54.6757285  10.1894900  11.6767834
  57.5867285  14.0490693  12.3372211  57.1502517  14.0527435  13.0931182
  57.2530201  14.7296192  11.9051788  57.4729905  14.1503149  12.3853043
  52.1596359  16.0899026  23.6615361  52.9436776  16.2029874  24.0271103
  51.9592953  15.2640163  23.8574047  52.2462384  15.9845745  23.7449747
  40.5283374  10.7626706  16.5459205  40.2621790   9.9465823  16.7050195
  40.5421938  10.8079861  15.6754721  40.4908097  10.6483611  16.4412687
  45.2781981   4.3005084  19.1926213  44.5853777   3.8302064  19.4386944
  45.8942308   4.0743389  19.7667920  45.2666511   4.1972216  19.3135365
  52.3166752  18.0009128  17.3081817  51.5181998  17.7608628  17.5655685
  52.7652764  18.0523521  18.0548864  52.2641363  17.9731519  17.4566741
  60.7211631  10.7671613  11.2291848  61.3828066  10.2062281  11.1287757
  60.0803043  10.2723644  11.5544539  60.7240499  10.6108022  11.2624188
  51.6088439  14.0641744   3.5372771  52.0239588  13.7326768   2.8457267
  50.7780369  13.8310647   3.4092908  51.5476448  13.9813000   3.4163619
  40.9376788  11.5485485  13.8270949  40.7552361  11.5232371  12.9743242
  41.6726457  12.0184423  13.8659858  41.0190852  11.6146848  13.7068868
  57.0076462  11.7836995  10.9703837  57.2432051  11.9282194  10.1430688
  57.1566026  12.5479403  11.3635351  57.0642265  11.9176050  10.9067441
  44.0022540   8.2670488  20.3353058  44.7262512   8.2523519  20.8217953
  44.1038676   8.9765843  19.8375026  44.1240749   8.3695191  20.3331845
  58.8366919  10.6238661   8.8073441  59.1675136  11.1566301   8.2013536
  59.4100007  10.6777549   9.4635392  58.9700598  10.7108230   8.8151222
  51.3767489  11.7469573  25.2002005  50.5840470  12.0613085  25.3854625
  51.4916416  11.9621041  24.3622790  51.2762900  11.8253409  25.1040340
  54.0498808   8.4703564   9.4897021  54.1445662   9.2092858   9.9436646
  53.4257652   8.0421039   9.9231585  53.9707838   8.5164884   9.6205168
  52.3051282  11.6489776  20.1387302  52.8790144  11.0117021  20.2935866
  52.2266086  11.6493859  19.2696959  52.3784517  11.5554888  20.0333713
  40.9047698   8.4278986  13.9770016  41.4821201   8.2915437  14.6162261
  40.2061760   7.9714770  14.2315600  40.8868720   8.3401252  14.1092306
  47.6615000  10.0813042  12.1908499  47.4034245   9.2484776  12.1639799
  47.7163483  10.3070655  11.3501000  47.6314778   9.9910813  12.0628636
  46.6349713   7.6350804  12.6773394  46.0599304   7.7942972  13.3137355
  46.2585389   6.9986213  12.2141844  46.4952525   7.5648617  12.7027952
  50.3023001   6.1074153  17.5365772  49.9137434   5.6828371  16.8817964
  49.6377700   6.3556303  18.0442799  50.1469929   6.0812874  17.5153640
  51.4061940  10.3372758   5.7342579  52.2202578  10.6287651   5.6225351
  51.3421081   9.6832620   5.1600872  51.5164679  10.2837953   5.6331417
  57.6271430  13.0198754  20.1472155  57.3910067  12.1886819  20.0284216
  58.2714659  12.9684361  20.7326999  57.6866100  12.8896442  20.2158049
  47.2769848  13.8094275  10.8614891  47.9143795  13.5706023  11.4066685
  47.7024919  14.0131434  10.1268052  47.4346014  13.8045286  10.8332049
  41.9682490  16.0482612  14.7449195  42.0086635  16.3197463  13.9168975
  42.5277014  16.5724520  15.1606983  42.0565836  16.1658367  14.6841083
  48.0841203   2.3102980  24.9152365  47.7694644   3.0802543  24.6521928
  47.7631136   1.7473236  24.3304592  47.9900122   2.3413249  24.7893715
  58.6507850  12.8043203  16.2100449  58.3453667  13.5371260  16.5713765
  57.9314066  12.3981132  15.9293235  58.4995193  12.8524936  16.2213587
  49.6591320  14.2866698  12.5408678  49.7330328  14.1241870  13.3950528
  50.4760826  14.4756888  12.2969159  49.7907678  14.2903440  12.6306703
  64.3509642   9.4436204  15.5368794  64.2834143   9.4632163  14.6671380
  64.3365305  10.2866531  15.7624464  64.3388399   9.5709938  15.4421271
  43.4197076  14.6324561   9.5703121  42.5935194  14.8786298   9.4437400
  43.4809068  14.5536642  10.4365179  43.3071243  14.6569510   9.6792066
  48.1995905  17.2501441   7.2722151  48.4894204  16.8590422   6.5481378
  48.9299386  17.4318146   7.7127426  48.3502790  17.2195255   7.2304958
  62.1368260   8.2180590  13.8115388  62.6876181   7.5848659  14.0512480
  62.1212375   8.7495983  14.5030892  62.2153456   8.2029538  13.9494246
  48.7890651  12.0519187  18.3575282  48.2902344  12.7634955  18.4360170
  49.5990875  12.3719854  18.3193444  48.8346757  12.2046036  18.3631850
  46.1401821  19.2268824  10.3382301  45.9202116  18.9366178  11.1308968
  45.9196343  18.5683779   9.8100213  46.0749415  19.0868532  10.3771209
  45.0518768  11.3142140  12.6038002  44.7632017  10.6879611  13.1383730
  45.9202116  11.2562427  12.6702683  45.1379020  11.2129684  12.6928957
  55.8396666   6.4576923  12.9219984  55.4961432   5.7367259  13.2727234
  55.9389709   6.2490775  12.0798343  55.8038709   6.3201127  12.8491664
  48.3069777  20.5998213   9.1212993  48.9593835  20.0674656   9.3504019
  47.6095386  20.2466866   9.5080867  48.3000495  20.4687736   9.2125161
  45.2551042  12.9537391   8.5280367  46.0097010  13.3350430   8.7415830
  44.6621654  13.4048535   8.9827064  45.2787755  13.0766218   8.6263246
  56.3009695  12.9202627   8.4643972  56.8667728  13.5795837   8.3802515
  55.6537599  13.2652326   8.9360375  56.2888452  13.0684569   8.5216729
  47.7157709   4.9100231  23.6537580  46.9057484   5.2158011  23.5427422
  48.1932395   5.6305814  23.7690164  47.6661187   5.0614833  23.6544651
  46.5749268  14.1245952  13.9020483  46.0530022  14.2646244  14.5872348
  46.9623289  13.3656617  14.0922600  46.5552969  14.0331476  14.0321559
  52.7716273  15.8641412   7.8881052  52.5302949  15.1309272   7.4808117
  52.9517606  16.4128269   7.2347385  52.7623897  15.8363803   7.7311275
  48.0015594  11.1549971   9.3001974  47.8058376  11.7624706   8.7062277
  48.2249939  10.4617915   8.8193648  48.0050235  11.1427497   9.1418055
  46.3994124   8.0404709   9.4182842  47.1216776   8.2045867   8.9586648
  45.9202117   8.7614374   9.3122182  46.4357855   8.1702939   9.3348456
  54.3587631   4.3768508  14.7979527  53.5198732   4.4029787  14.5617790
  54.4291999   5.0239244  15.3784874  54.2456025   4.4764634  14.8488644
  44.0501741  10.4462782  18.5236982  44.5622838  10.7247035  17.8745742
  43.7638083  11.1852076  18.8899795  44.0836604  10.5965135  18.4826860
  58.2345155   9.5836495  12.0840769  58.1479130   9.7391921  12.9375548
  57.7795635  10.2274570  11.7100174  58.1548412   9.7012250  12.1547876
  47.5685466   2.5389170  18.5838024  47.3768663   2.5544305  19.4337447
  48.4184062   2.7352845  18.5604679  47.6661188   2.5703522  18.7061318
  41.9532379   5.0680152  16.5621840  41.8117871   4.2164093  16.6866348
  42.2372942   5.1108812  15.7384046  41.9740225   4.9479902  16.4589464
  52.1070971   6.9047242  10.7066328  51.8605686   6.8242993  11.5403117
  52.4356094   6.1200710  10.5128856  52.1192215   6.7773507  10.8013852
  56.0019020  13.6130601  14.4953110  55.8633379  14.3111647  15.0001852
  55.2219018  13.4579258  14.1389291  55.8662247  13.6930768  14.5179384
  54.3397105   9.9126977  20.7475491  54.3345144   9.0406793  20.7517918
  55.0458099  10.1115146  20.2744947  54.4442109   9.8130851  20.6782527
  48.0667999   9.6403961  20.1189312  48.2111374  10.2205169  19.4832422
  48.4143647  10.0180257  20.8239166  48.1395460   9.7824665  20.1288306
  50.2387916   8.8394129  17.9014443  49.4911230   9.0325143  17.4962721
  50.3929441   8.0139349  17.6638564  50.1510344   8.7459240  17.8059849
  47.1395754  17.8306732  16.9850338  47.2885317  17.2709648  16.3323743
  47.9195756  17.9098734  17.3682857  47.2769847  17.7592298  16.9447288
  49.6649054  18.0021375  18.2634829  49.5892725  17.3330186  18.8185617
  49.5938913  18.7039163  18.7775495  49.6429661  18.0066283  18.4211677
  50.4789693   2.7344680  18.7909847  50.9362307   3.4668654  18.9182639
  50.5546022   2.3111145  19.5497103  50.5580663   2.7801918  18.9210923
  42.7222684   2.9810499  19.8799291  42.1864874   2.3690858  20.1960058
  42.7840449   3.5558635  20.5332957  42.6518317   2.9757427  20.0234717
  50.3219301  16.5222374   9.0958435  51.0869192  16.2532018   8.7741099
  50.2197391  16.0372385   9.8128498  50.4200797  16.4111939   9.1538263
  48.3572071   4.7246784  15.6351671  47.5668146   4.5438244  15.9569007
  48.7532694   3.9473736  15.6181965  48.2988947   4.5834245  15.6804219
  53.7415757  12.3589214  13.3611117  53.0660759  12.1274446  13.8624504
  53.7508133  11.7510397  12.7353222  53.6434262  12.2348139  13.3427269
  50.8709901   7.2007043  20.1175170  50.8069042   8.0616999  19.9895306
  51.0107089   6.8839036  19.3170721  50.8825371   7.2807209  19.9803383
  55.7432492  15.2154346   5.5921295  55.8252329  16.0221332   5.2682746
  56.2282234  15.2350305   6.3162068  55.8269650  15.3375009   5.6508193
  49.5528995   9.8939182  14.2591373  49.1291244  10.0943681  13.5230391
  49.3773850   9.0468030  14.3715673  49.4639876   9.7987964  14.1665063
  49.0540689  21.4089695  16.7212830  49.5436619  20.7100484  16.5388495
  48.4824921  21.1113565  17.3088887  49.0425218  21.2615919  16.7813871
  44.8411440  10.3891234   9.6919345  44.9976059  10.3238036  10.5475337
  45.1812033  11.1639786   9.4798025  44.9144675  10.4940432   9.7873939
  51.3790585   9.7649117   8.5612708  51.9206130   9.2619498   9.0251329
  51.6937144   9.7114312   7.7502194  51.5054982   9.6828538   8.5096521
  55.2507692  13.9751764  25.6739621  56.0642557  13.7036913  25.8344753
  55.0902658  13.6759304  24.8699817  55.3477641  13.8906690  25.5785027
  49.5477034  15.1566469   5.8452736  49.6169855  14.2981007   5.9845737
  50.3265490  15.3738350   5.5171761  49.6729884  15.0619333   5.8169894
  52.5279854   4.6585422  18.6135009  52.7421824   4.0196336  18.0598363
  51.9113753   5.1031245  18.1842871  52.4685183   4.6295565  18.4685440
  53.9384522  17.5804170  10.0589230  53.5464314  17.2770885   9.3412096
  54.0937594  18.4173260   9.8694184  53.9038112  17.6588007   9.9245727
  41.4145702   7.5726184  10.0080112  41.7944666   7.9910729   9.3440380
  40.8401066   8.1539640  10.3148956  41.3857026   7.7204043   9.9556853
  54.6918942   6.2674487  19.5518316  53.8795624   5.9600377  19.6331489
  55.1508877   5.7873487  20.1161028  54.6399327   6.1510979  19.6472910
  54.1024197  14.1454159   9.9995260  53.7438851  14.3168802  10.7759293
  53.6162908  14.6067364   9.4423259  53.9782894  14.2393130  10.0320529
  51.7872450   7.6734558  24.3347018  52.2572081   8.2976675  24.7214892
  51.8334330   7.0051534  24.8940233  51.8640325   7.6669239  24.4747090
  55.2628936  15.0358055  20.9462461  55.9008657  14.5418250  20.6124917
  54.6203028  14.9635455  20.3614688  55.2623163  14.9517063  20.8104816
  56.9885936   6.8847201  15.5128377  56.5613544   6.7973549  14.7576476
  56.3511989   6.9924976  16.0983221  56.8315543   6.8879861  15.4873818
  55.3183193  15.7277863  17.5867818  56.1075571  15.3766928  17.7069900
  55.4926791  16.5414251  17.3244452  55.4603474  15.7963720  17.5655686
  42.5352070   6.7606126  12.4680357  42.1408768   6.8349138  11.6930467
  41.9792187   7.1464072  13.0188719  42.3954882   6.8287900  12.4348017
  48.8693168   7.0667988  13.8893204  48.5656305   6.5123976  14.4903612
  48.1672589   7.2460198  13.4021239  48.7209378   7.0112770  13.9062910
  46.9311519  14.2817709  18.5965302  46.8231874  14.2919771  19.4627360
  47.1407300  15.1072489  18.4070256  46.9461630  14.4058783  18.6969394
  44.9485311  11.5330351  16.0587240  44.3573244  12.1739849  16.0290255
  45.7106335  11.9567968  16.0318539  44.9733572  11.6906189  16.0502387
  45.3445934   2.6932349  16.7255257  45.8047415   2.7671278  17.4630381
  45.3902041   3.4913603  16.3755079  45.4196489   2.8226496  16.7828014
  46.9929284   3.3599044  21.2927284  46.6014849   2.7132391  21.7283062
  47.1615146   3.9510479  21.9121540  46.9600194   3.3513312  21.4489990
  61.0675733  11.3636121  17.0564518  61.1258856  11.8122770  17.8024494
  60.4342200  11.7734934  16.6194598  60.9827028  11.4909855  17.1017066
  54.7074827  16.9839663  13.4919264  54.5094516  17.4730477  12.7975475
  54.0862538  17.1880904  14.0703398  54.5862392  17.0856201  13.4742487
  48.7682806   8.7524559   7.8329508  49.5124851   9.1398836   8.0712458
  48.9143502   7.9081985   7.9969996  48.8993391   8.6855032   7.8923478
  51.7560681   4.3250033  13.7323428  51.2820636   3.7991795  14.2428739
  52.1278817   3.7779506  13.1638289  51.7410570   4.1666029  13.7238575
  42.1333712   6.3221539  19.1006974  42.9959325   6.2217249  19.0144303
  41.8025495   5.7416249  18.5392546  42.2118908   6.2213166  19.0052379
  58.0197412   9.3852408  15.1430208  57.7795635   8.5458824  15.1472635
  58.4989419   9.4652575  15.8670982  58.0549596   9.2733808  15.2505011
  60.0202599   6.1653866  13.0959467  59.7812369   6.1249700  12.2580252
  60.1836500   7.0125018  13.2225188  60.0092902   6.2845951  12.9912949
  45.4935498   5.1463988  15.7617392  44.8688568   5.1582380  15.1543344
  45.1581092   5.6224164  16.4108632  45.3520989   5.2182505  15.7673960
  42.2061173  13.2064449  17.2021156  41.6761098  12.5156888  17.2516131
  42.4786266  13.1974634  16.3733865  42.1685895  13.1031580  17.0868572
  53.2381264  13.7890151   5.9258839  53.9615462  14.2548264   5.7823412
  52.7981855  13.8563761   5.1756436  53.2796956  13.8673988   5.7943620
  52.4067419  10.6487693  17.1759528  51.7924412  10.1045743  17.4708163
  52.9234704  10.1351930  16.6965344  52.3923081  10.4924102  17.1483756
  51.6463716  11.7191963  14.9103826  51.2191324  11.0941682  14.4769262
  51.6388660  11.4366885  15.7362833  51.5822857  11.5844744  14.9683654
  44.7626243   6.7557136  17.9792260  44.9219730   6.0000460  18.3843982
  44.5819137   7.3048076  18.6332998  44.7591602   6.7250950  18.1354966
  49.9749426   2.5960718  15.1246360  49.9991913   2.0620830  14.4359140
  50.2260899   2.0878027  15.7871951  50.0159344   2.4421622  15.1211005
  37.4857015   9.8792213  14.5589504  37.3800464   9.8339057  13.6941588
  36.7357235  10.2245993  14.8403789  37.3592618   9.9233121  14.4726834
  46.2550748   1.3231536  14.5052105  46.2949119   1.8240743  15.2186812
  45.4300412   1.4141930  14.2358028  46.1390274   1.4113352  14.5702643
  48.4380361  10.8892276  22.6072399  47.5875991  11.0263990  22.7430044
  48.6008488  10.1556054  23.0520101  48.3364224  10.8006377  22.6927998
  47.6765111   7.8392046  16.8026004  46.8457041   8.0065864  16.5961252
  47.6216628   7.4627997  17.5874889  47.5454526   7.8081777  16.8874532
  45.4848894   1.3300939  22.4382414  46.1101598   0.7863072  22.7111847
  45.0299374   0.8495856  21.8690205  45.5097155   1.1790420  22.3944008
  59.0583943   9.5130226  17.5295062  59.6501783  10.1527476  17.5613260
  59.4942938   8.8153263  17.8187129  59.2102374   9.5048576  17.5775895
  50.8877333  13.9347598  18.1552956  50.3802424  14.4883445  18.5993587
  50.5903979  13.9955888  17.3371731  50.7682218  14.0253909  18.1001413
  53.4985113  17.8510856   6.0856900  52.7814423  17.6771718   5.6204137
  54.1491851  17.6163428   5.5532386  53.4886964  17.7906648   5.9386118
  56.0833084   6.7275444   9.8298205  55.4124274   7.2705147   9.7011270
  56.7772835   7.1970300   9.5879900  56.0861952   6.8773716   9.7753733
  50.1319818  18.8672156  15.0609963  49.9085473  18.1090986  15.4293989
  49.6429662  18.8970178  14.3390403  50.0263267  18.7594381  15.0086704
  44.9444897   5.8138848  10.7971425  44.2256886   6.2302980  11.0644288
  45.3157259   6.3793087  10.2463063  44.8936829   5.9588129  10.7554232
  54.2444478   6.4466697  16.6873420  54.2242405   6.2649992  17.5408199
  54.2923678   7.3178715  16.6633004  54.2479119   6.5483235  16.8096715
  52.1890808  13.0353889  22.6121897  52.1486662  12.3903566  22.0267053
  53.0014126  12.9790506  22.9247309  52.3033961  12.9312855  22.5718846
  48.7798275  19.0872615  12.5147048  48.3658674  18.4246745  12.1250889
  49.4645649  19.2350473  11.9942742  48.8196647  19.0113273  12.3803545
  52.1463569  18.2462700  13.2670664  51.7479853  18.3564970  12.4991485
  51.5314789  18.4544766  13.8497224  51.9962459  18.2936268  13.2401964
  53.5949288   4.8116352   9.5646554  53.3662981   4.8349054   8.7224912
  53.8547364   3.9873819   9.6841565  53.5995476   4.6932432   9.4571752
  47.8768516   6.6650825  19.1671654  47.3647419   6.0572008  19.5256686
  47.7048012   7.3807418  19.6345630  47.7758153   6.6814124  19.2887878
  42.7234231   5.1088400  21.8174016  42.5536821   5.7689775  21.2722223
  42.2800181   5.3194962  22.5386505  42.6333565   5.2374383  21.8435646
  46.6494050   3.3492898  10.8600750  47.1251417   3.7109978  10.2250931
  46.1482650   4.0049366  11.1400893  46.6459409   3.4987087  10.8077491
  51.7537587   4.5875070  21.6073910  52.3109017   4.3588879  20.9752375
  51.4298652   5.3480735  21.3309122  51.7883997   4.6658907  21.4730407
  39.6236296   8.0135266  17.0762506  39.0763015   7.3435912  17.1943374
  40.4128674   7.6465114  17.1405973  39.6588479   7.8600252  17.1031207
  49.4720704   7.6742723  22.5725917  50.2232031   7.9894400  22.8865471
  49.6643280   7.4721894  21.7459839  49.6112118   7.6910105  22.4969313
  38.3823265   7.2256074  14.2308529  38.2045026   6.7732683  14.9563445
  38.0942287   8.0282235  14.4147007  38.3136218   7.2778632  14.3652032
  54.0446846   8.4813791  13.4685919  54.5400511   7.7636786  13.4289940
  53.2346622   8.1784589  13.3540406  53.9990739   8.3311437  13.4459645
  49.4905458  12.3311604   5.6182924  48.6816780  12.0078278   5.5716233
  49.9980367  11.6244827   5.5511173  49.4455124  12.1792921   5.6013218
  40.1195735   9.7583798  11.3430288  39.2541254   9.7469488  11.2313059
  40.2194551   9.5714020  12.1901427  40.0069902   9.7289859  11.4519233
  56.1098665  11.2317479  16.1563048  56.5353737  10.7091901  15.6033473
  55.7455585  11.8298316  15.6351671  56.1185268  11.2427706  15.9972058
  45.7452745  19.5281696  14.9160394  46.0599304  20.3418085  14.9238175
  46.1546158  19.1431915  15.5842553  45.8520843  19.5910399  15.0164485
  52.6977264  14.9451743  12.4864206  53.1688443  15.6592006  12.6554191
  53.0337443  14.3450493  13.0224075  52.8172379  14.9623207  12.5896582
  54.7854249  16.5553056  24.6656278  54.8951215  15.7661617  25.0213025
  55.1145146  16.4658993  23.8630616  54.8506655  16.4258909  24.5998668
  53.3351211  14.7369677  19.2491898  52.7872157  14.1127561  18.9811964
  53.7964239  14.9263949  18.5335978  53.3218420  14.6728727  19.1042329
  43.0865765  13.4754805  14.5639002  43.6910622  13.4350639  13.9352823
  42.8793077  14.3225957  14.5943058  43.1454662  13.5942807  14.4755119
  52.9009537  15.7420750  15.7801239  53.7207911  15.5983716  16.0417535
  52.6203615  16.3666949  16.3217677  52.9806280  15.8131102  15.8989179
  38.3217047  12.4589422  14.4337925  38.2241325  11.6485694  14.7427982
  39.1045917  12.4381216  14.0484193  38.4233184  12.3356512  14.4224788
  62.5722872  22.4861253  13.4997046  61.7160768  22.6469751  13.5506163
  62.6190526  21.6153316  13.5202107  62.4521984  22.3812054  13.5103112
  56.9564012  32.0223970   9.2634278  56.2046912  31.6439509   9.0350323
  57.4050024  32.0542404   8.5153088  56.9113679  31.9709578   9.1191780
  65.8816589  28.7547778  23.1057502  66.5883356  28.2599809  23.2344437
  66.0704524  29.1956860  22.3760160  66.0144494  28.7466128  23.0166548
  62.4088972  32.4449340   4.6919825  62.0740340  33.1226261   4.2564047
  62.9215842  32.0554651   4.1036697  62.4354553  32.4873918   4.5406616
  61.9493263  34.3963609  10.6330936  62.3332643  34.9650507  10.0935712
  61.8852404  33.6713119  10.1536753  61.9966690  34.3739072  10.4824799
  65.4174693  24.5453296  16.1428698  65.9630653  25.2238383  16.2022668
  65.3591570  24.4040757  15.2830279  65.4890608  24.6245298  16.0240758
  58.5348768  32.0342363  11.5297050  58.6359131  31.2242716  11.8394178
  57.9390513  31.9399309  10.8996729  58.4621307  31.9007391  11.4823289
  67.1939762  25.9737904   7.0162426  67.0779288  26.7245590   7.4454564
  67.9895649  25.7161857   7.2658513  67.2944351  26.0472750   7.1166517
  58.3749508  36.9519952  12.9311906  59.0186963  37.3933116  13.3208065
  58.7005763  36.1473378  12.8442165  58.5181336  36.8985146  12.9757384
  51.7313812  28.0562649  11.1549384  51.4963997  27.2230301  11.0481653
  51.8699453  28.3367315  10.3410585  51.7169475  27.9746153  11.0191739
  54.0303900  20.2248380  14.0533692  53.4108932  19.6341027  13.8843706
  53.9287764  20.8159815  13.4198015  53.9241575  20.2252462  13.9338681
  59.0770088  29.9631927   8.3031768  59.3985929  30.5037134   7.6993076
  59.7242184  29.3928698   8.4354058  59.2196143  29.9591102   8.2338803
  61.1271796  21.9647922   8.3866155  61.8251960  22.1436049   8.8787618
  61.4424128  21.4418261   7.7636544  61.2767133  21.9141694   8.3668165
  53.7573033  23.7700661  16.2977261  53.6331730  24.3563107  16.9327080
  54.4091317  23.2760857  16.5989536  53.8346682  23.7839466  16.4363190
  61.3159731  28.3518367   8.3745946  61.7553366  27.7435467   8.8200719
  61.1664394  27.9725740   7.6031411  61.3581197  28.2056838   8.3265114
  58.7831374  26.9462378  15.5764772  59.4280376  26.4534821  15.2575720
  59.0233151  27.0887165  16.4030850  58.9141959  26.8939821  15.6514305
  61.3217465  29.7917284  15.2271664  61.6040708  28.9968690  15.0058420
  62.0503626  30.2697872  15.2476725  61.4707029  29.7451881  15.1974679
  59.2998659  17.3340318  12.4687429  58.9701989  17.7851462  11.7991128
  58.6243661  17.2556482  13.0160436  59.1509095  17.3891453  12.4510653
  64.9169068  26.7045548   5.3276715  64.8320363  27.5606514   5.4726284
  65.4053451  26.4289872   5.9958875  64.9757965  26.7902869   5.4478797
  65.8487501  23.3230342   6.8274451  65.3198972  23.5389976   7.4871757
  66.3712521  24.0166480   6.7475420  65.8475954  23.4573479   6.9130050
  71.3035554  28.8976646  12.2007495  70.4733257  29.1087290  12.3640912
  71.2544806  28.0713701  11.9249779  71.1742289  28.8066253  12.1844861
  57.7387109  27.2193559   5.6281919  57.1544324  27.7243590   6.0347783
  57.3357204  26.9935946   4.8878511  57.5926412  27.2601807   5.5786944
  53.2931137  32.9348320  12.4305590  52.8098715  33.6598810  12.4065174
  54.1054455  33.2324450  12.5415748  53.3421885  33.0850674  12.4432869
  59.3645291  31.7280501  15.0355405  58.8472233  31.3687916  14.4316713
  60.0619682  31.2042675  15.0461471  59.3910872  31.5978189  14.9485663
  63.0208883  32.1775315  20.9971578  63.1092229  31.9901455  21.8449788
  63.4498596  31.5312744  20.5976424  63.0970986  32.0538322  21.0643329
  60.5879343  31.4606475  19.9789240  60.0250178  31.0479084  20.5028901
  61.3500366  31.3859380  20.3982383  60.6173792  31.3883875  20.1182240
  57.5054613  15.3952607   7.9510377  58.2600581  15.7630924   7.7127427
  57.3282148  15.7692161   8.7189557  57.5909092  15.5050794   8.0295266
  56.1475334  33.4504496  12.5825870  56.8495914  32.9356485  12.6398627
  56.0672817  33.7778647  13.3872745  56.2399095  33.4218722  12.7098662
  70.7989512  21.5447047  15.9957916  69.9617933  21.6149234  16.2305511
  70.7677743  21.5471542  15.1232219  70.6707794  21.5557274  15.9017464
  57.1954241  23.6880083  21.7106285  57.3674745  23.5785977  22.5591566
  57.7323598  24.3334488  21.4737477  57.2999245  23.7672084  21.8011382
  55.8611678  17.8022926   4.6488490  55.6787251  18.0194806   3.8229483
  56.7237291  17.9161938   4.7047105  55.9616267  17.8512823   4.5342977
  55.4726110  29.6410848  12.0911478  56.3115009  29.8733781  12.1385240
  55.5037879  28.7715159  12.0218513  55.6007827  29.5467794  12.0876123
  56.0978813  30.0611723  16.3924784  56.6377038  29.9182854  17.0628156
  55.4148759  30.4608474  16.7608810  56.0770967  30.0991394  16.5459205
  65.5219698  25.7402724  11.5869808  66.2777213  26.1734238  11.6258717
  65.6282022  25.0907493  12.1604444  65.6489868  25.7080207  11.6767834
  68.5599869  29.5676001  12.3372211  68.1235101  29.5712743  13.0931182
  68.2262784  30.2481500  11.9051788  68.4462489  29.6688457  12.3853043
  63.1328942  31.6084334  23.6615361  63.9169359  31.7215181  24.0271103
  62.9325537  30.7825471  23.8574047  63.2194968  31.5031053  23.7449747
  51.5015958  26.2812014  16.5459205  51.2354373  25.4651130  16.7050195
  51.5154522  26.3265169  15.6754721  51.4640680  26.1668919  16.4412687
  68.4797352  16.6089829  14.5801639  69.1223260  16.6787933  15.1663554
  68.7320372  15.9419052  14.0781181  68.6119484  16.5216177  14.5928918
  55.4073705  21.0797098   3.1610963  54.6931882  20.7935278   3.5733396
  55.8917674  21.4193724   3.8017351  55.3733068  21.0878748   3.3166598
  56.2514564  19.8190392  19.1926213  55.5586361  19.3487372  19.4386944
  56.8674892  19.5928697  19.7667920  56.2399094  19.7157524  19.3135365
  63.2899336  33.5194436  17.3081817  62.4914582  33.2793936  17.5655685
  63.7385347  33.5708829  18.0548864  63.2373947  33.4916827  17.4566741
  71.6944215  26.2856921  11.2291848  72.3560649  25.7247589  11.1287757
  71.0535627  25.7908951  11.5544539  71.6973083  26.1293330  11.2624188
  62.5821023  29.5827052   3.5372771  62.9972171  29.2512076   2.8457267
  61.7512952  29.3495954   3.4092908  62.5209032  29.4998308   3.4163619
  51.9109372  27.0670793  13.8270949  51.7284945  27.0417679  12.9743242
  52.6459040  27.5369731  13.8659858  51.9923435  27.1332155  13.7068868
  67.9809046  27.3022303  10.9703837  68.2164635  27.4467502  10.1430688
  68.1298609  28.0664711  11.3635351  68.0374849  27.4361358  10.9067441
  54.9755123  23.7855796  20.3353058  55.6995096  23.7708827  20.8217953
  55.0771260  24.4951151  19.8375026  55.0973332  23.8880499  20.3331845
  69.8099502  26.1423969   8.8073441  70.1407720  26.6751609   8.2013536
  70.3832591  26.1962857   9.4635392  69.9433182  26.2293538   8.8151222
  62.3500073  27.2654881  25.2002005  61.5573053  27.5798393  25.3854625
  62.4649000  27.4806349  24.3622790  62.2495483  27.3438717  25.1040340
  65.0231392  23.9888872   9.4897021  65.1178246  24.7278166   9.9436646
  64.3990235  23.5606347   9.9231585  64.9440422  24.0350192   9.6205168
  63.2783865  27.1675084  20.1387302  63.8522727  26.5302329  20.2935866
  63.1998669  27.1679167  19.2696959  63.3517100  27.0740196  20.0333713
  51.8780282  23.9464294  13.9770016  52.4553785  23.8100745  14.6162261
  51.1794344  23.4900078  14.2315600  51.8601303  23.8586560  14.1092306
  58.6347584  25.5998350  12.1908499  58.3766828  24.7670084  12.1639799
  58.6896067  25.8255963  11.3501000  58.6047362  25.5096121  12.0628636
  63.7148634  17.7026800  12.2912592  63.0104961  17.2135986  12.4496511
  63.7633609  17.7149275  11.4201036  63.6178686  17.6316448  12.1851932
  57.6082296  23.1536112  12.6773394  57.0331887  23.3128280  13.3137355
  57.2317973  22.5171521  12.2141844  57.4685109  23.0833925  12.7027952
  61.2755585  21.6259461  17.5365772  60.8870018  21.2013679  16.8817964
  60.6110283  21.8741611  18.0442799  61.1202513  21.5998182  17.5153640
  47.3539115  22.7976187  10.6917835  47.4399367  22.4208055  11.4731364
  47.9814913  22.4236632  10.2137793  47.4595666  22.6861669  10.7363312
  65.0981946  15.3234090  15.0489757  65.4792458  14.6412261  15.4357631
  64.2945231  15.0343692  14.8665421  65.0358408  15.1801139  15.0793812
  62.3794523  25.8558066   5.7342579  63.1935162  26.1472959   5.6225351
  62.3153664  25.2017928   5.1600872  62.4897262  25.8023261   5.6331417
  68.6004013  28.5384062  20.1472155  68.3642651  27.7072127  20.0284216
  69.2447242  28.4869669  20.7326999  68.6598684  28.4081750  20.2158049
  58.2502431  29.3279583  10.8614891  58.8876378  29.0891331  11.4066685
  58.6757503  29.5316742  10.1268052  58.4078598  29.3230594  10.8332049
  52.9415074  31.5667920  14.7449195  52.9819219  31.8382771  13.9168975
  53.5009598  32.0909828  15.1606983  53.0298420  31.6843675  14.6841083
  58.8905246  24.5481873   5.1989781  59.2750399  24.3289580   5.9506326
  58.6416867  25.3744819   5.3290857  58.9107319  24.6380019   5.3290857
  59.0573787  17.8288288  24.9152365  58.7427228  18.5987851  24.6521928
  58.7363719  17.2658544  24.3304592  58.9632706  17.8598557  24.7893715
  69.6240434  28.3228511  16.2100449  69.3186251  29.0556568  16.5713765
  68.9046650  27.9166440  15.9293235  69.4727776  28.3710244  16.2213587
  60.6323903  29.8052006  12.5408678  60.7062912  29.6427178  13.3950528
  61.4493410  29.9942196  12.2969159  60.7640262  29.8088748  12.6306703
  75.3242226  24.9621511  15.5368794  75.2566726  24.9817471  14.6671380
  75.3097888  25.8051839  15.7624464  75.3120983  25.0895246  15.4421271
  54.3929660  30.1509869   9.5703121  53.5667778  30.3971606   9.4437400
  54.4541651  30.0721950  10.4365179  54.2803827  30.1754818   9.6792066
  56.6105684  16.2178810  10.5298561  55.7428109  16.2901409  10.5956171
  56.8980888  17.0200889  10.7186536  56.5245432  16.3472957  10.5673328
  65.7338573  16.3656669  18.8609883  66.4792165  16.1766480  18.4473309
  65.3175877  16.8914907  18.3023739  65.7823547  16.4158815  18.7174456
  59.1728489  32.7686749   7.2722151  59.4626787  32.3775730   6.5481378
  59.9031970  32.9503454   7.7127426  59.3235373  32.7380563   7.2304958
  73.1100843  23.7365898  13.8115388  73.6608765  23.1033967  14.0512480
  73.0944959  24.2681290  14.5030892  73.1886040  23.7214846  13.9494246
  59.7623234  27.5704495  18.3575282  59.2634928  28.2820263  18.4360170
  60.5723459  27.8905162  18.3193444  59.8079341  27.7231344  18.3631850
  57.1134405  34.7454131  10.3382301  56.8934700  34.4551486  11.1308968
  56.8928927  34.0869086   9.8100213  57.0481999  34.6053840  10.3771209
  56.0251352  26.8327448  12.6038002  55.7364600  26.2064919  13.1383730
  56.8934700  26.7747735  12.6702683  56.1111604  26.7314992  12.6928957
  66.8129250  21.9762231  12.9219984  66.4694015  21.2552567  13.2727234
  66.9122292  21.7676083  12.0798343  66.7771292  21.8386435  12.8491664
  59.2802360  36.1183521   9.1212993  59.9326418  35.5859964   9.3504019
  58.5827969  35.7652174   9.5080867  59.2733078  35.9873044   9.2125161
  56.2283625  28.4722699   8.5280367  56.9829593  28.8535738   8.7415830
  55.6354238  28.9233843   8.9827064  56.2520339  28.5951526   8.6263246
  67.2742279  28.4387935   8.4643972  67.8400311  29.0981145   8.3802515
  66.6270182  28.7837633   8.9360375  67.2621035  28.5869877   8.5216729
  58.6890292  20.4285539  23.6537580  57.8790068  20.7343319  23.5427422
  59.1664979  21.1491122  23.7690164  58.6393771  20.5800141  23.6544651
  57.5481852  29.6431260  13.9020483  57.0262605  29.7831552  14.5872348
  57.9355872  28.8841925  14.0922600  57.5285553  29.5516784  14.0321559
  54.5373036  19.6937069   7.9715438  54.2497832  19.3238340   7.2347385
  55.2243504  20.1631924   7.7099142  54.5961933  19.7084038   7.8230513
  63.7448857  31.3826720   7.8881052  63.5035533  30.6494580   7.4808117
  63.9250190  31.9313577   7.2347385  63.7356481  31.3549111   7.7311275
  58.9748177  26.6735279   9.3001974  58.7790960  27.2810014   8.7062277
  59.1982523  25.9803223   8.8193648  58.9782818  26.6612805   9.1418055
  57.3726707  23.5590017   9.4182842  58.0949359  23.7231175   8.9586648
  56.8934700  24.2799682   9.3122182  57.4090438  23.6888247   9.3348456
  65.3320215  19.8953816  14.7979527  64.4931316  19.9215095  14.5617790
  65.4024582  20.5424552  15.3784874  65.2188609  19.9949942  14.8488644
  55.0234324  25.9648090  18.5236982  55.5355421  26.2432343  17.8745742
  54.7370667  26.7037384  18.8899795  55.0569187  26.1150443  18.4826860
  69.2077739  25.1021803  12.0840769  69.1211713  25.2577229  12.9375548
  68.7528219  25.7459878  11.7100174  69.1280996  25.2197558  12.1547876
  52.1101230  20.4718282   8.8200719  52.2117367  21.2744443   9.1481694
  52.9057117  20.2705617   8.5223799  52.2429136  20.5604180   8.8236074
  58.5418050  18.0574478  18.5838024  58.3501247  18.0729613  19.4337447
  59.3916645  18.2538153  18.5604679  58.6393771  18.0888829  18.7061318
  52.9264963  20.5865460  16.5621840  52.7850454  19.7349400  16.6866348
  53.2105526  20.6294120  15.7384046  52.9472809  20.4665210  16.4589464
  63.0803555  22.4232550  10.7066328  62.8338269  22.3428301  11.5403117
  63.4088678  21.6386018  10.5128856  63.0924798  22.2958815  10.8013852
  66.9751604  29.1315909  14.4953110  66.8365963  29.8296955  15.0001852
  66.1951602  28.9764566  14.1389291  66.8394831  29.2116076  14.5179384
  65.3129689  25.4312285  20.7475491  65.3077727  24.5592101  20.7517918
  66.0190683  25.6300454  20.2744947  65.4174693  25.3316159  20.6782527
  59.0400582  25.1589269  20.1189312  59.1843958  25.7390477  19.4832422
  59.3876231  25.5365565  20.8239166  59.1128044  25.3009973  20.1288306
  61.2120500  24.3579437  17.9014443  60.4643814  24.5510451  17.4962721
  61.3662025  23.5324656  17.6638564  61.1242927  24.2644548  17.8059849
  58.1128337  33.3492040  16.9850338  58.2617901  32.7894956  16.3323743
  58.8928339  33.4284042  17.3682857  58.2502431  33.2777606  16.9447288
  60.6381638  33.5206683  18.2634829  60.5625309  32.8515494  18.8185617
  60.5671497  34.2224471  18.7775495  60.6162245  33.5251591  18.4211677
  61.4522277  18.2529988  18.7909847  61.9094891  18.9853962  18.9182639
  61.5278605  17.8296453  19.5497103  61.5313246  18.2987226  18.9210923
  53.6955268  18.4995807  19.8799291  53.1597457  17.8876166  20.1960058
  53.7573033  19.0743943  20.5332957  53.6250900  18.4942735  20.0234717
  61.2951885  32.0407682   9.0958435  62.0601776  31.7717326   8.7741099
  61.1929975  31.5557692   9.8128498  61.3933380  31.9297247   9.1538263
  59.3304654  20.2432092  15.6351671  58.5400729  20.0623552  15.9569007
  59.7265277  19.4659044  15.6181965  59.2721531  20.1019552  15.6804219
  64.7148341  27.8774522  13.3611117  64.0393343  27.6459754  13.8624504
  64.7240717  27.2695705  12.7353222  64.6166845  27.7533447  13.3427269
  61.8442485  22.7192351  20.1175170  61.7801626  23.5802307  19.9895306
  61.9839673  22.4024344  19.3170721  61.8557955  22.7992517  19.9803383
  66.7165075  30.7339654   5.5921295  66.7984913  31.5406640   5.2682746
  67.2014818  30.7535613   6.3162068  66.8002233  30.8560316   5.6508193
  60.5261579  25.4124490  14.2591373  60.1023828  25.6128989  13.5230391
  60.3506434  24.5653338  14.3715673  60.4372459  25.3173272  14.1665063
  60.0273272  36.9275003  16.7212830  60.5169202  36.2285792  16.5388495
  59.4557504  36.6298873  17.3088887  60.0157802  36.7801227  16.7813871
  55.8144024  25.9076541   9.6919345  55.9708643  25.8423344  10.5475337
  56.1544617  26.6825094   9.4798025  55.8877258  26.0125740   9.7873939
  62.3523168  25.2834425   8.5612708  62.8938714  24.7804806   9.0251329
  62.6669727  25.2299620   7.7502194  62.4787565  25.2013846   8.5096521
  66.2240276  29.4937072  25.6739621  67.0375141  29.2222221  25.8344753
  66.0635242  29.1944612  24.8699817  66.3210224  29.4091998  25.5785027
  60.5209618  30.6751777   5.8452736  60.5902438  29.8166315   5.9845737
  61.2998073  30.8923657   5.5171761  60.6462468  30.5804641   5.8169894
  63.5012438  20.1770730  18.6135009  63.7154407  19.5381644  18.0598363
  62.8846337  20.6216553  18.1842871  63.4417767  20.1480873  18.4685440
  64.9117106  33.0989478  10.0589230  64.5196897  32.7956193   9.3412096
  65.0670178  33.9358568   9.8694184  64.8770695  33.1773315   9.9245727
  52.3878285  23.0911492  10.0080112  52.7677250  23.5096037   9.3440380
  51.8133650  23.6724948  10.3148956  52.3589610  23.2389351   9.9556853
  65.6651526  21.7859795  19.5518316  64.8528207  21.4785685  19.6331489
  66.1241460  21.3058795  20.1161028  65.6131910  21.6696287  19.6472910
  65.0756780  29.6639467   9.9995260  64.7171435  29.8354110  10.7759293
  64.5895491  30.1252672   9.4423259  64.9515477  29.7578438  10.0320529
  62.8927166  13.2870665  13.6022352  62.0220724  13.2609386  13.5555661
  63.1467508  13.1147857  12.7848197  62.8020726  13.2580809  13.4742488
  59.8645146  25.3438632   2.5395495  60.1537671  26.1203515   2.8139069
  59.9516945  24.8327364   3.2409994  59.9199402  25.3830550   2.6837993
  62.7605033  23.1919866  24.3347018  63.2304664  23.8161983  24.7214892
  62.8066913  22.5236842  24.8940233  62.8372909  23.1854546  24.4747090
  59.9176307  15.2976894  15.0595822  59.4014795  14.6057085  15.1847401
  59.3570236  15.9647671  15.0058421  59.7582820  15.2940151  15.0701888
  61.9868540  15.8369854  16.8888675  61.6000293  15.8618885  17.6702205
  61.5001478  15.2711532  16.4363191  61.8581049  15.7565605  16.9376578
  66.2361520  30.5543363  20.9462461  66.8741240  30.0603558  20.6124917
  65.5935611  30.4820763  20.3614688  66.2355746  30.4702371  20.8104816
  67.9618520  22.4032509  15.5128377  67.5346128  22.3158857  14.7576476
  67.3244573  22.5110284  16.0983221  67.8048127  22.4065168  15.4873818
  61.6525682  12.7236839  19.1798935  62.2818800  13.2597139  18.9020005
  61.8211545  12.6314198  20.0312500  61.7703477  12.7898201  19.2647463
  61.4539597  17.5108034  21.4525346  62.2813026  17.2393183  21.5083961
  61.4747443  18.3068876  21.8089164  61.5792447  17.5887788  21.5140529
  66.2915776  31.2463171  17.5867818  67.0808154  30.8952236  17.7069900
  66.4659374  32.0599559  17.3244452  66.4336058  31.3149028  17.5655686
  56.0309087  24.6571897  14.6395607  55.1897093  24.5575771  14.8474501
  56.2399095  25.4267377  14.9909927  55.9373779  24.7563940  14.7222922
  53.5084654  22.2791434  12.4680357  53.1141351  22.3534445  11.6930467
  52.9524770  22.6649380  13.0188719  53.3687466  22.3473208  12.4348017
  65.1449600  15.2572728  12.1484236  65.3499194  15.1895036  12.9941234
  64.8176024  16.0631549  12.0805414  65.1264848  15.3658668  12.2643892
  59.8425752  22.5853296  13.8893204  59.5388889  22.0309284  14.4903612
  59.1405172  22.7645506  13.4021239  59.6941961  22.5298078  13.9062910
  58.8991849  19.8953816   8.4537906  59.1751583  19.1772728   8.0415474
  59.4990518  20.4938736   8.2459012  59.0285113  19.8774186   8.3618667
  57.9044103  29.8003017  18.5965302  57.7964457  29.8105079  19.4627360
  58.1139884  30.6257797  18.4070256  57.9194214  29.9244091  18.6969394
  55.9217895  27.0515659  16.0587240  55.3305828  27.6925157  16.0290255
  56.6838918  27.4753276  16.0318539  55.9466155  27.2091497  16.0502387
  56.3178517  18.2117657  16.7255257  56.7779999  18.2856586  17.4630381
  56.3634624  19.0098911  16.3755079  56.3929073  18.3411804  16.7828014
  57.9661867  18.8784352  21.2927284  57.5747432  18.2317699  21.7283062
  58.1347730  19.4695787  21.9121540  57.9332777  18.8698619  21.4489990
  72.0408316  26.8821429  17.0564518  72.0991440  27.3308077  17.8024494
  71.4074784  27.2920241  16.6194598  71.9559611  27.0095163  17.1017066
  65.6807411  32.5024971  13.4919264  65.4827099  32.9915785  12.7975475
  65.0595122  32.7066212  14.0703398  65.5594975  32.6041509  13.4742487
  59.7415389  24.2709867   7.8329508  60.4857434  24.6584144   8.0712458
  59.8876085  23.4267293   7.9969996  59.8725974  24.2040340   7.8923478
  61.6594965  16.0660126  12.8661370  60.8131010  16.2382934  12.7402720
  61.6566097  15.2609470  13.2027198  61.5342115  15.9721155  12.8972497
  62.7293265  19.8435341  13.7323428  62.2553219  19.3177103  14.2428739
  63.1011401  19.2964814  13.1638289  62.7143154  19.6851337  13.7238575
  53.1066295  21.8406847  19.1006974  53.9691908  21.7402557  19.0144303
  52.7758078  21.2601557  18.5392546  53.1851492  21.7398474  19.0052379
  68.9929996  24.9037716  15.1430208  68.7528218  24.0644132  15.1472635
  69.4722003  24.9837883  15.8670982  69.0282179  24.7919116  15.2505011
  70.9935183  21.6839174  13.0959467  70.7544953  21.6435008  12.2580252
  71.1569084  22.5310326  13.2225188  70.9825486  21.8031259  12.9912949
  67.5981213  26.0689123  19.0264513  68.3215412  25.6161649  18.8475532
  67.3331175  26.3493789  18.2436840  67.6662486  26.0440091  18.8843228
  56.4668081  20.6649296  15.7617392  55.8421151  20.6767688  15.1543344
  56.1313676  21.1409472  16.4108632  56.3253573  20.7367813  15.7673960
  56.6509830  19.0074415   1.8190077  56.3022634  19.6594140   2.2821626
  56.1706276  18.9931528   1.0913948  56.5280074  19.1017468   1.7801168
  53.1793757  28.7249757  17.2021156  52.6493681  28.0342195  17.2516131
  53.4518850  28.7159942  16.3733865  53.1418479  28.6216888  17.0868572
  64.2113847  29.3075459   5.9258839  64.9348046  29.7733572   5.7823412
  63.7714438  29.3749068   5.1756436  64.2529539  29.3859296   5.7943620
  63.3800002  26.1673001  17.1759528  62.7656995  25.6231051  17.4708163
  63.8967287  25.6537238  16.6965344  63.3655665  26.0109410  17.1483756
  62.6196299  27.2377271  14.9103826  62.1923907  26.6126990  14.4769262
  62.6121244  26.9552193  15.7362833  62.5555441  27.1030052  14.9683654
  55.7358827  22.2742444  17.9792260  55.8952313  21.5185768  18.3843982
  55.5551720  22.8233384  18.6332998  55.7324185  22.2436258  18.1354966
  63.6779129  14.4403680  18.5343050  63.1819691  14.6367354  17.8434616
  64.4348192  14.8396348  18.3631851  63.7165954  14.5281414  18.4063186
  60.9482009  18.1146026  15.1246360  60.9724496  17.5806138  14.4359140
  61.1993483  17.6063335  15.7871951  60.9891928  17.9606930  15.1211005
  48.4589599  25.3977521  14.5589504  48.3533048  25.3524365  13.6941588
  47.7089819  25.7431301  14.8403789  48.3325202  25.4418429  14.4726834
  57.2283331  16.8416844  14.5052105  57.2681703  17.3426051  15.2186812
  56.4032996  16.9327238  14.2358028  57.1122857  16.9298660  14.5702643
  59.4112944  26.4077584  22.6072399  58.5608575  26.5449298  22.7430044
  59.5741072  25.6741362  23.0520101  59.3096808  26.3191685  22.6927998
  58.6497695  23.3577354  16.8026004  57.8189624  23.5251172  16.5961252
  58.5949212  22.9813305  17.5874889  58.5187110  23.3267085  16.8874532
  56.4581478  16.8486247  22.4382414  57.0834181  16.3048379  22.7111847
  56.0031958  16.3681164  21.8690205  56.4829739  16.6975728  22.3944008
  57.0233739  21.6332945   7.3316121  57.1636700  22.1305410   8.0344763
  57.5216271  20.9319240   7.4730335  57.1174819  21.6034924   7.4567700
  57.0533961  22.5000056   4.6608698  57.6879040  23.0960481   4.5958160
  57.1359572  22.2003514   5.4754568  57.1590512  22.5440965   4.7711785
  70.0316527  25.0315534  17.5295062  70.6234367  25.6712784  17.5613260
  70.4675521  24.3338570  17.8187129  70.1834958  25.0233884  17.5775895
  58.6312944  18.4314032   4.6354140  58.9528785  17.9517114   3.9813402
  58.8939888  19.2413678   4.4444952  58.7178969  18.4803930   4.5109632
  61.8609917  29.4532906  18.1552956  61.3535008  30.0068753  18.5993587
  61.5636563  29.5141196  17.3371731  61.7414801  29.5439217  18.1001413
  64.0272099  17.8186226  16.9977619  64.4527170  17.3658752  16.3861146
  63.4129092  17.2646296  17.2742407  64.0000744  17.6700202  16.9482644
  53.5586949  24.6967897   7.9298244  54.0679178  25.2932405   8.3109550
  54.0321221  24.4293871   7.2474664  53.7030324  24.7453713   7.8852767
  64.4717697  33.3696164   6.0856900  63.7547007  33.1957026   5.6204137
  65.1224434  33.1348736   5.5532386  64.4619547  33.3091956   5.9386118
  62.4666322  14.2901326  10.4068196  61.8234640  14.1398972  10.9753335
  62.1265729  14.0443671   9.6417301  62.3211399  14.2313448  10.3771211
  67.0565668  22.2460752   9.8298205  66.3856858  22.7890455   9.7011270
  67.7505418  22.7155608   9.5879900  67.0594536  22.3959024   9.7753733
  61.1052402  34.3857464  15.0609963  60.8818056  33.6276294  15.4293989
  60.6162245  34.4155486  14.3390403  60.9995851  34.2779689  15.0086704
  67.2193796  18.7016636  12.7388578  67.5721406  18.2746359  13.4134377
  66.3608597  18.6167480  12.8689654  67.1443240  18.6261377  12.8583588
  55.9177481  21.3324156  10.7971425  55.1989470  21.7488288  11.0644288
  56.2889843  21.8978394  10.2463063  55.8669412  21.4773437  10.7554232
  65.2177061  21.9652005  16.6873420  65.1974989  21.7835300  17.5408199
  65.2656262  22.8364023  16.6633004  65.2211702  22.0668543  16.8096715
  63.1623391  28.5539197  22.6121897  63.1219246  27.9088874  22.0267053
  63.9746709  28.4975814  22.9247309  63.2766545  28.4498163  22.5718846
  59.7530859  34.6057922  12.5147048  59.3391257  33.9432053  12.1250889
  60.4378233  34.7535781  11.9942742  59.7929230  34.5298581  12.3803545
  63.1196153  33.7648008  13.2670664  62.7212436  33.8750278  12.4991485
  62.5047372  33.9730074  13.8497224  62.9695042  33.8121576  13.2401964
  61.6924055  20.3722156   6.1344804  61.0988894  20.6939152   5.5829371
  61.7299333  19.5263251   5.9265910  61.6098444  20.2946484   6.0227575
  64.5681871  20.3301660   9.5646554  64.3395564  20.3534361   8.7224912
  64.8279948  19.5059127   9.6841565  64.5728060  20.2117740   9.4571752
  58.8501100  22.1836133  19.1671654  58.3380003  21.5757316  19.5256686
  58.6780596  22.8992726  19.6345630  58.7490737  22.1999432  19.2887878
  53.6966815  20.6273708  21.8174016  53.5269405  21.2875083  21.2722223
  53.2532765  20.8380270  22.5386505  53.6066148  20.7559691  21.8435646
  57.6226634  18.8678206  10.8600750  58.0984000  19.2295286  10.2250931
  57.1215234  19.5234674  11.1400893  57.6191993  19.0172395  10.8077491
  62.7270170  20.1060378  21.6073910  63.2841600  19.8774187  20.9752375
  62.4031235  20.8666043  21.3309122  62.7616580  20.1844214  21.4730407
  50.5968879  23.5320574  17.0762506  50.0495599  22.8621220  17.1943374
  51.3861257  23.1650422  17.1405973  50.6321063  23.3785560  17.1031207
  60.4453288  23.1928031  22.5725917  61.1964615  23.5079708  22.8865471
  60.6375864  22.9907202  21.7459839  60.5844702  23.2095413  22.4969313
  59.6653287  21.0119406   4.2274134  60.0452252  21.0299035   3.4425249
  58.9245883  21.4573395   4.1064981  59.6122125  21.0801181   4.0937702
  49.3555849  22.7441382  14.2308529  49.1777610  22.2917991  14.9563445
  49.0674871  23.5467543  14.4147007  49.2868802  22.7963940  14.3652032
  65.0179430  23.9999099  13.4685919  65.5133095  23.2822094  13.4289940
  64.2079205  23.6969897  13.3540406  64.9723323  23.8496745  13.4459645
  60.4638041  27.8496912   5.6182924  59.6549364  27.5263586   5.5716233
  60.9712950  27.1430134   5.5511173  60.4187708  27.6978229   5.6013218
  51.0928318  25.2769106  11.3430288  50.2273838  25.2654796  11.2313059
  51.1927134  25.0899328  12.1901427  50.9802485  25.2475167  11.4519233
  67.0831249  26.7502787  16.1563048  67.5086320  26.2277208  15.6033473
  66.7188168  27.3483624  15.6351671  67.0917851  26.7613014  15.9972058
  56.7185328  35.0467004  14.9160394  57.0331887  35.8603393  14.9238175
  57.1278742  34.6617223  15.5842553  56.8253426  35.1095707  15.0164485
  63.6709848  30.4637051  12.4864206  64.1421026  31.1777313  12.6554191
  64.0070027  29.8635801  13.0224075  63.7904963  30.4808515  12.5896582
  65.7586833  32.0738364  24.6656278  65.8683798  31.2846925  25.0213025
  66.0877729  31.9844300  23.8630616  65.8239238  31.9444217  24.5998668
  60.5879343  15.2364521  19.4422300  60.7207249  14.4395515  19.7703276
  60.9724496  15.7630924  20.0220576  60.6635672  15.1964438  19.5765803
  64.3083794  30.2554985  19.2491898  63.7604740  29.6312869  18.9811964
  64.7696823  30.4449257  18.5335978  64.2951004  30.1914035  19.1042329
  63.6611698  12.1594848  16.0403394  62.8557662  12.0492577  16.3571232
  63.5318434  12.2607303  15.1833259  63.5231831  12.1578518  15.9611434
  67.1177659  18.3240340  16.6343091  66.5340648  18.8249546  16.2220658
  67.4381953  17.8169896  16.0007414  67.0790834  18.3232175  16.4801598
  59.6572458  17.2380934   6.9101765  60.4788152  17.4079247   6.6683460
  59.1942109  17.3928195   6.1868063  59.7103620  17.2862667   6.7673410
  58.2467790  15.2323697  17.6900194  58.7912203  14.8914823  18.2804536
  58.3004725  16.0909158  17.8321479  58.3356909  15.3078956  17.7982068
  54.0598349  28.9940113  14.5639002  54.6643206  28.9535947  13.9352823
  53.8525661  29.8411265  14.5943058  54.1187246  29.1128115  14.4755119
  63.8742121  31.2606058  15.7801239  64.6940494  31.1169024  16.0417535
  63.5936198  31.8852257  16.3217677  63.9538864  31.3316410  15.8989179
  49.2949631  27.9774730  14.4337925  49.1973909  27.1671002  14.7427982
  50.0778500  27.9566523  14.0484193  49.3965767  27.8541820  14.4224788
  73.5455456  38.0046560  13.4997046  72.6893351  38.1655059  13.5506163
  73.5923110  37.1338624  13.5202107  73.4254567  37.8997362  13.5103112
  67.9296596  47.5409278   9.2634278  67.1779495  47.1624817   9.0350323
  68.3782607  47.5727712   8.5153088  67.8846262  47.4894885   9.1191780
  76.8549172  44.2733086  23.1057502  77.5615940  43.7785117  23.2344437
  77.0437108  44.7142168  22.3760160  76.9877078  44.2651436  23.0166548
  76.3907277  40.0638604  16.1428698  76.9363237  40.7423691  16.2022668
  76.3324153  39.9226065  15.2830279  76.4623191  40.1430606  16.0240758
  69.5081352  47.5527670  11.5297050  69.6091715  46.7428024  11.8394178
  68.9123097  47.4584617  10.8996729  69.4353890  47.4192699  11.4823289
  69.3482091  52.4705260  12.9311906  69.9919547  52.9118424  13.3208065
  69.6738347  51.6658686  12.8442165  69.4913920  52.4170454  12.9757384
  62.7046396  43.5747957  11.1549384  62.4696580  42.7415609  11.0481653
  62.8432037  43.8552623  10.3410585  62.6902059  43.4931460  11.0191739
  65.0036484  35.7433688  14.0533692  64.3841515  35.1526335  13.8843706
  64.9020347  36.3345123  13.4198015  64.8974159  35.7437770  13.9338681
  72.1004379  37.4833229   8.3866155  72.7984544  37.6621357   8.8787618
  72.4156712  36.9603569   7.7636544  72.2499716  37.4327002   8.3668165
  64.7305617  39.2885969  16.2977261  64.6064313  39.8748415  16.9327080
  65.3823901  38.7946165  16.5989536  64.8079266  39.3024774  16.4363190
  72.2892315  43.8703674   8.3745946  72.7285950  43.2620775   8.8200719
  72.1396977  43.4911048   7.6031411  72.3313780  43.7242146   8.3265114
  69.7563958  42.4647686  15.5764772  70.4012960  41.9720129  15.2575720
  69.9965735  42.6072473  16.4030850  69.8874543  42.4125129  15.6514305
  72.2950049  45.3102592  15.2271664  72.5773292  44.5153998  15.0058420
  73.0236209  45.7883180  15.2476725  72.4439613  45.2637189  15.1974679
  70.2731243  32.8525626  12.4687429  69.9434573  33.3036770  11.7991128
  69.5976245  32.7741789  13.0160436  70.1241679  32.9076761  12.4510653
  64.2663721  48.4533628  12.4305590  63.7831299  49.1784117  12.4065174
  65.0787039  48.7509758  12.5415748  64.3154468  48.6035982  12.4432869
  70.3377875  47.2465809  15.0355405  69.8204816  46.8873224  14.4316713
  71.0352266  46.7227983  15.0461471  70.3643456  47.1163496  14.9485663
  73.9941467  47.6960623  20.9971578  74.0824813  47.5086763  21.8449788
  74.4231179  47.0498052  20.5976424  74.0703569  47.5723630  21.0643329
  71.5611927  46.9791783  19.9789240  70.9982761  46.5664392  20.5028901
  72.3232950  46.9044688  20.3982383  71.5906375  46.9069183  20.1182240
  68.4787197  30.9137914   7.9510377  69.2333165  31.2816232   7.7127427
  68.3014731  31.2877469   8.7189557  68.5641675  31.0236102   8.0295266
  67.1207918  48.9689804  12.5825870  67.8228497  48.4541793  12.6398627
  67.0405401  49.2963955  13.3872745  67.2131678  48.9404030  12.7098662
  68.1686825  39.2065391  21.7106285  68.3407328  39.0971285  22.5591566
  68.7056182  39.8519796  21.4737477  68.2731829  39.2857392  21.8011382
  66.8344261  33.3208233   4.6488490  66.6519835  33.5380114   3.8229483
  67.6969874  33.4347246   4.7047105  66.9348851  33.3698131   4.5342977
  66.4458693  45.1596156  12.0911478  67.2847593  45.3919089  12.1385240
  66.4770463  44.2900467  12.0218513  66.5740411  45.0653102  12.0876123
  67.0711396  45.5797031  16.3924784  67.6109621  45.4368162  17.0628156
  66.3881343  45.9793782  16.7608810  67.0503550  45.6176702  16.5459205
  76.4952281  41.2588032  11.5869808  77.2509796  41.6919546  11.6258717
  76.6014606  40.6092801  12.1604444  76.6222452  41.2265515  11.6767834
  74.1061526  47.1269642  23.6615361  74.8901943  47.2400489  24.0271103
  73.9058121  46.3010779  23.8574047  74.1927551  47.0216361  23.7449747
  62.4748541  41.7997322  16.5459205  62.2086957  40.9836438  16.7050195
  62.4887106  41.8450477  15.6754721  62.4373264  41.6854227  16.4412687
  66.3806288  36.5982406   3.1610963  65.6664466  36.3120586   3.5733396
  66.8650257  36.9379032   3.8017351  66.3465652  36.6064056   3.3166598
  67.2247148  35.3375700  19.1926213  66.5318945  34.8672680  19.4386944
  67.8407475  35.1114005  19.7667920  67.2131678  35.2342832  19.3135365
  74.2631919  49.0379744  17.3081817  73.4647165  48.7979244  17.5655685
  74.7117931  49.0894137  18.0548864  74.2106531  49.0102135  17.4566741
  62.8841955  42.5856101  13.8270949  62.7017528  42.5602987  12.9743242
  63.6191624  43.0555039  13.8659858  62.9656019  42.6517463  13.7068868
  65.9487707  39.3041104  20.3353058  66.6727679  39.2894135  20.8217953
  66.0503843  40.0136459  19.8375026  66.0705916  39.4065807  20.3331845
  73.3232656  42.7840189  25.2002005  72.5305637  43.0983700  25.3854625
  73.4381583  42.9991657  24.3622790  73.2228067  42.8624025  25.1040340
  75.9963975  39.5074180   9.4897021  76.0910830  40.2463474   9.9436646
  75.3722819  39.0791655   9.9231585  75.9173005  39.5535500   9.6205168
  74.2516449  42.6860392  20.1387302  74.8255311  42.0487637  20.2935866
  74.1731253  42.6864475  19.2696959  74.3249684  42.5925504  20.0333713
  62.8512865  39.4649602  13.9770016  63.4286368  39.3286053  14.6162261
  62.1526927  39.0085386  14.2315600  62.8333887  39.3771868  14.1092306
  69.6080168  41.1183657  12.1908499  69.3499412  40.2855392  12.1639799
  69.6628650  41.3441270  11.3501000  69.5779946  41.0281429  12.0628636
  74.6881218  33.2212108  12.2912592  73.9837545  32.7321294  12.4496511
  74.7366192  33.2334583  11.4201036  74.5911269  33.1501756  12.1851932
  68.5814880  38.6721420  12.6773394  68.0064471  38.8313588  13.3137355
  68.2050556  38.0356829  12.2141844  68.4417692  38.6019233  12.7027952
  72.2488168  37.1444769  17.5365772  71.8602601  36.7198987  16.8817964
  71.5842867  37.3926919  18.0442799  72.0935096  37.1183490  17.5153640
  58.3271699  38.3161495  10.6917835  58.4131951  37.9393363  11.4731364
  58.9547496  37.9421940  10.2137793  58.4328250  38.2046977  10.7363312
  76.0714530  30.8419398  15.0489757  76.4525042  30.1597569  15.4357631
  75.2677814  30.5529000  14.8665421  76.0090992  30.6986446  15.0793812
  69.2235015  44.8464891  10.8614891  69.8608962  44.6076639  11.4066685
  69.6490087  45.0502050  10.1268052  69.3811181  44.8415901  10.8332049
  63.9147657  47.0853228  14.7449195  63.9551803  47.3568079  13.9168975
  64.4742181  47.6095136  15.1606983  64.0031003  47.2028983  14.6841083
  69.8637830  40.0667181   5.1989781  70.2482983  39.8474888   5.9506326
  69.6149450  40.8930126   5.3290857  69.8839903  40.1565327   5.3290857
  70.0306370  33.3473596  24.9152365  69.7159811  34.1173159  24.6521928
  69.7096303  32.7843852  24.3304592  69.9365289  33.3783865  24.7893715
  71.6056487  45.3237314  12.5408678  71.6795495  45.1612486  13.3950528
  72.4225993  45.5127503  12.2969159  71.7372846  45.3274056  12.6306703
  65.3662244  45.6695177   9.5703121  64.5400361  45.9156914   9.4437400
  65.4274235  45.5907258  10.4365179  65.2536411  45.6940126   9.6792066
  67.5838267  31.7364118  10.5298561  66.7160693  31.8086717  10.5956171
  67.8713472  32.5386197  10.7186536  67.4978015  31.8658265  10.5673328
  76.7071156  31.8841977  18.8609883  77.4524748  31.6951787  18.4473309
  76.2908461  32.4100215  18.3023739  76.7556130  31.9344122  18.7174456
  70.7355818  43.0889803  18.3575282  70.2367511  43.8005571  18.4360170
  71.5456042  43.4090469  18.3193444  70.7811925  43.2416651  18.3631850
  68.0866988  50.2639439  10.3382301  67.8667284  49.9736794  11.1308968
  67.8661510  49.6054394   9.8100213  68.0214582  50.1239148  10.3771209
  66.9983935  42.3512756  12.6038002  66.7097184  41.7250227  13.1383730
  67.8667283  42.2933043  12.6702683  67.0844187  42.2500300  12.6928957
  77.7861833  37.4947539  12.9219984  77.4426599  36.7737874  13.2727234
  77.8854876  37.2861390  12.0798343  77.7503876  37.3571743  12.8491664
  67.2016209  43.9908007   8.5280367  67.9562177  44.3721046   8.7415830
  66.6086821  44.4419151   8.9827064  67.2252922  44.1136834   8.6263246
  69.6622876  35.9470847  23.6537580  68.8522652  36.2528627  23.5427422
  70.1397563  36.6676430  23.7690164  69.6126355  36.0985448  23.6544651
  68.5214435  45.1616568  13.9020483  67.9995189  45.3016860  14.5872348
  68.9088456  44.4027233  14.0922600  68.5018136  45.0702092  14.0321559
  65.5105619  35.2122377   7.9715438  65.2230415  34.8423647   7.2347385
  66.1976088  35.6817232   7.7099142  65.5694517  35.2269346   7.8230513
  69.9480761  42.1920587   9.3001974  69.7523544  42.7995322   8.7062277
  70.1715107  41.4988531   8.8193648  69.9515402  42.1798113   9.1418055
  68.3459291  39.0775325   9.4182842  69.0681943  39.2416483   8.9586648
  67.8667284  39.7984990   9.3122182  68.3823022  39.2073555   9.3348456
  76.3052799  35.4139124  14.7979527  75.4663899  35.4400403  14.5617790
  76.3757166  36.0609859  15.3784874  76.1921192  35.5135250  14.8488644
  65.9966908  41.4833398  18.5236982  66.5088005  41.7617651  17.8745742
  65.7103250  42.2222692  18.8899795  66.0301771  41.6335751  18.4826860
  63.0833814  35.9903589   8.8200719  63.1849950  36.7929751   9.1481694
  63.8789701  35.7890925   8.5223799  63.2161720  36.0789488   8.8236074
  69.5150633  33.5759786  18.5838024  69.3233830  33.5914921  19.4337447
  70.3649229  33.7723461  18.5604679  69.6126355  33.6074137  18.7061318
  63.8997546  36.1050768  16.5621840  63.7583038  35.2534708  16.6866348
  64.1838110  36.1479428  15.7384046  63.9205392  35.9850518  16.4589464
  74.0536139  37.9417858  10.7066328  73.8070853  37.8613609  11.5403117
  74.3821262  37.1571326  10.5128856  74.0657382  37.8144123  10.8013852
  77.9484187  44.6501217  14.4953110  77.8098547  45.3482263  15.0001852
  77.1684185  44.4949874  14.1389291  77.8127414  44.7301384  14.5179384
  76.2862272  40.9497593  20.7475491  76.2810311  40.0777409  20.7517918
  76.9923266  41.1485762  20.2744947  76.3907276  40.8501467  20.6782527
  70.0133166  40.6774576  20.1189312  70.1576542  41.2575785  19.4832422
  70.3608814  41.0550873  20.8239166  70.0860627  40.8195281  20.1288306
  72.1853083  39.8764745  17.9014443  71.4376397  40.0695759  17.4962721
  72.3394608  39.0509964  17.6638564  72.0975511  39.7829856  17.8059849
  69.0860921  48.8677348  16.9850338  69.2350485  48.3080264  16.3323743
  69.8660923  48.9469350  17.3682857  69.2235014  48.7962914  16.9447288
  71.6114221  49.0391991  18.2634829  71.5357893  48.3700802  18.8185617
  71.5404081  49.7409779  18.7775495  71.5894828  49.0436899  18.4211677
  72.4254860  33.7715296  18.7909847  72.8827474  34.5039270  18.9182639
  72.5011189  33.3481761  19.5497103  72.5045830  33.8172534  18.9210923
  64.6687851  34.0181115  19.8799291  64.1330041  33.4061473  20.1960058
  64.7305616  34.5929251  20.5332957  64.5983484  34.0128043  20.0234717
  70.3037238  35.7617400  15.6351671  69.5133313  35.5808860  15.9569007
  70.6997861  34.9844352  15.6181965  70.2454114  35.6204860  15.6804219
  75.6880924  43.3959830  13.3611117  75.0125926  43.1645062  13.8624504
  75.6973300  42.7881013  12.7353222  75.5899429  43.2718755  13.3427269
  72.8175068  38.2377659  20.1175170  72.7534210  39.0987615  19.9895306
  72.9572256  37.9209652  19.3170721  72.8290538  38.3177825  19.9803383
  71.4994162  40.9309798  14.2591373  71.0756411  41.1314297  13.5230391
  71.3239017  40.0838646  14.3715673  71.4105043  40.8358579  14.1665063
  71.0005856  52.4460311  16.7212830  71.4901786  51.7471100  16.5388495
  70.4290088  52.1484181  17.3088887  70.9890386  52.2986535  16.7813871
  66.7876607  41.4261849   9.6919345  66.9441226  41.3608652  10.5475337
  67.1277200  42.2010402   9.4798025  66.8609842  41.5311048   9.7873939
  73.3255752  40.8019733   8.5612708  73.8671297  40.2990114   9.0251329
  73.6402311  40.7484928   7.7502194  73.4520149  40.7199154   8.5096521
  77.1972859  45.0122380  25.6739621  78.0107725  44.7407529  25.8344753
  77.0367826  44.7129920  24.8699817  77.2942808  44.9277306  25.5785027
  74.4745021  35.6956037  18.6135009  74.6886991  35.0566952  18.0598363
  73.8578920  36.1401861  18.1842871  74.4150350  35.6666181  18.4685440
  63.3610869  38.6096800  10.0080112  63.7409834  39.0281345   9.3440380
  62.7866234  39.1910256  10.3148956  63.3322194  38.7574659   9.9556853
  76.6384109  37.3045103  19.5518316  75.8260791  36.9970993  19.6331489
  77.0974044  36.8244103  20.1161028  76.5864494  37.1881595  19.6472910
  73.8659750  28.8055973  13.6022352  72.9953308  28.7794694  13.5555661
  74.1200091  28.6333165  12.7848197  73.7753310  28.7766117  13.4742488
  73.7337617  38.7105174  24.3347018  74.2037248  39.3347290  24.7214892
  73.7799497  38.0422150  24.8940233  73.8105493  38.7039854  24.4747090
  70.8908890  30.8162202  15.0595822  70.3747379  30.1242393  15.1847401
  70.3302819  31.4832979  15.0058421  70.7315404  30.8125459  15.0701888
  72.9601124  31.3555162  16.8888675  72.5732877  31.3804193  17.6702205
  72.4734061  30.7896840  16.4363191  72.8313633  31.2750912  16.9376578
  77.2094103  46.0728671  20.9462461  77.8473824  45.5788866  20.6124917
  76.5668195  46.0006071  20.3614688  77.2088330  45.9887679  20.8104816
  78.9351103  37.9217817  15.5128377  78.5078711  37.8344165  14.7576476
  78.2977156  38.0295592  16.0983221  78.7780711  37.9250476  15.4873818
  72.6258266  28.2422147  19.1798935  73.2551384  28.7782447  18.9020005
  72.7944128  28.1499506  20.0312500  72.7436060  28.3083509  19.2647463
  72.4272180  33.0293342  21.4525346  73.2545610  32.7578491  21.5083961
  72.4480026  33.8254184  21.8089164  72.5525030  33.1073096  21.5140529
  77.2648360  46.7648479  17.5867818  78.0540738  46.4137544  17.7069900
  77.4391958  47.5784867  17.3244452  77.4068642  46.8334336  17.5655686
  67.0041670  40.1757205  14.6395607  66.1629677  40.0761079  14.8474501
  67.2131678  40.9452685  14.9909927  66.9106363  40.2749248  14.7222922
  64.4817237  37.7976742  12.4680357  64.0873935  37.8719753  11.6930467
  63.9257354  38.1834688  13.0188719  64.3420050  37.8658516  12.4348017
  76.1182184  30.7758036  12.1484236  76.3231777  30.7080343  12.9941234
  75.7908608  31.5816857  12.0805414  76.0997432  30.8843976  12.2643892
  70.8158335  38.1038604  13.8893204  70.5121473  37.5494592  14.4903612
  70.1137756  38.2830814  13.4021239  70.6674545  38.0483386  13.9062910
  69.8724432  35.4139124   8.4537906  70.1484167  34.6958036   8.0415474
  70.4723102  36.0124044   8.2459012  70.0017697  35.3959494   8.3618667
  68.8776686  45.3188325  18.5965302  68.7697041  45.3290387  19.4627360
  69.0872468  46.1443105  18.4070256  68.8926797  45.4429399  18.6969394
  66.8950478  42.5700967  16.0587240  66.3038411  43.2110465  16.0290255
  67.6571502  42.9938584  16.0318539  66.9198739  42.7276805  16.0502387
  67.2911101  33.7302965  16.7255257  67.7512582  33.8041894  17.4630381
  67.3367208  34.5284219  16.3755079  67.3661656  33.8597112  16.7828014
  68.9394451  34.3969660  21.2927284  68.5480016  33.7503007  21.7283062
  69.1080313  34.9881095  21.9121540  68.9065361  34.3883927  21.4489990
  76.6539994  48.0210279  13.4919264  76.4559683  48.5101093  12.7975475
  76.0327705  48.2251520  14.0703398  76.5327559  48.1226817  13.4742487
  70.7147973  39.7895175   7.8329508  71.4590018  40.1769452   8.0712458
  70.8608669  38.9452601   7.9969996  70.8458558  39.7225648   7.8923478
  72.6327548  31.5845434  12.8661370  71.7863593  31.7568242  12.7402720
  72.6298681  30.7794778  13.2027198  72.5074698  31.4906463  12.8972497
  73.7025849  35.3620649  13.7323428  73.2285803  34.8362411  14.2428739
  74.0743984  34.8150121  13.1638289  73.6875738  35.2036645  13.7238575
  64.0798879  37.3592155  19.1006974  64.9424492  37.2587865  19.0144303
  63.7490662  36.7786865  18.5392546  64.1584075  37.2583782  19.0052379
  67.4400665  36.1834604  15.7617392  66.8153735  36.1952996  15.1543344
  67.1046260  36.6594779  16.4108632  67.2986157  36.2553121  15.7673960
  67.6242413  34.5259723   1.8190077  67.2755218  35.1779448   2.2821626
  67.1438859  34.5116836   1.0913948  67.5012657  34.6202776   1.7801168
  64.1526340  44.2435064  17.2021156  63.6226265  43.5527503  17.2516131
  64.4251434  44.2345250  16.3733865  64.1151063  44.1402196  17.0868572
  74.3532586  41.6858309  17.1759528  73.7389579  41.1416359  17.4708163
  74.8699871  41.1722546  16.6965344  74.3388248  41.5294718  17.1483756
  73.5928883  42.7562579  14.9103826  73.1656491  42.1312298  14.4769262
  73.5853827  42.4737501  15.7362833  73.5288024  42.6215360  14.9683654
  66.7091410  37.7927752  17.9792260  66.8684897  37.0371076  18.3843982
  66.5284304  38.3418692  18.6332998  66.7056769  37.7621566  18.1354966
  74.6511713  29.9588988  18.5343050  74.1552274  30.1552662  17.8434616
  75.4080775  30.3581656  18.3631851  74.6898538  30.0466722  18.4063186
  71.9214593  33.6331334  15.1246360  71.9457080  33.0991446  14.4359140
  72.1726066  33.1248642  15.7871951  71.9624511  33.4792238  15.1211005
  59.4322182  40.9162829  14.5589504  59.3265632  40.8709673  13.6941588
  58.6822402  41.2616609  14.8403789  59.3057785  40.9603737  14.4726834
  68.2015915  32.3602152  14.5052105  68.2414286  32.8611358  15.2186812
  67.3765580  32.4512546  14.2358028  68.0855441  32.4483968  14.5702643
  70.3845528  41.9262892  22.6072399  69.5341158  42.0634606  22.7430044
  70.5473655  41.1926670  23.0520101  70.2829391  41.8376993  22.6927998
  69.6230278  38.8762662  16.8026004  68.7922208  39.0436480  16.5961252
  69.5681795  38.4998612  17.5874889  69.4919693  38.8452393  16.8874532
  67.4314062  32.3671555  22.4382414  68.0566765  31.8233687  22.7111847
  66.9764541  31.8866472  21.8690205  67.4562322  32.2161036  22.3944008
  67.9966322  37.1518253   7.3316121  68.1369283  37.6490717   8.0344763
  68.4948855  36.4504548   7.4730335  68.0907403  37.1220232   7.4567700
  68.0266544  38.0185364   4.6608698  68.6611624  38.6145789   4.5958160
  68.1092155  37.7188822   5.4754568  68.1323095  38.0626272   4.7711785
  69.6045527  33.9499340   4.6354140  69.9261368  33.4702422   3.9813402
  69.8672471  34.7598986   4.4444952  69.6911553  33.9989238   4.5109632
  72.8342500  44.9718214  18.1552956  72.3267591  45.5254061  18.5993587
  72.5369146  45.0326504  17.3371731  72.7147385  45.0624525  18.1001413
  75.0004682  33.3371534  16.9977619  75.4259754  32.8844060  16.3861146
  74.3861675  32.7831604  17.2742407  74.9733328  33.1885510  16.9482644
  64.5319532  40.2153205   7.9298244  65.0411762  40.8117713   8.3109550
  65.0053805  39.9479179   7.2474664  64.6762908  40.2639020   7.8852767
  73.4398905  29.8086633  10.4068196  72.7967223  29.6584280  10.9753335
  73.0998312  29.5628979   9.6417301  73.2943983  29.7498756  10.3771211
  78.0298252  37.7646060   9.8298205  77.3589442  38.3075763   9.7011270
  78.7238002  38.2340916   9.5879900  78.0327119  37.9144331   9.7753733
  72.0784985  49.9042772  15.0609963  71.8550640  49.1461602  15.4293989
  71.5894829  49.9340793  14.3390403  71.9728434  49.7964997  15.0086704
  78.1926379  34.2201944  12.7388578  78.5453989  33.7931667  13.4134377
  77.3341181  34.1352787  12.8689654  78.1175824  34.1446685  12.8583588
  66.8910064  36.8509464  10.7971425  66.1722053  37.2673596  11.0644288
  67.2622426  37.4163702  10.2463063  66.8401996  36.9958745  10.7554232
  76.1909645  37.4837312  16.6873420  76.1707572  37.3020608  17.5408199
  76.2388846  38.3549331  16.6633004  76.1944286  37.5853851  16.8096715
  74.1355975  44.0724504  22.6121897  74.0951830  43.4274181  22.0267053
  74.9479293  44.0161122  22.9247309  74.2499128  43.9683471  22.5718846
  70.7263442  50.1243230  12.5147048  70.3123841  49.4617361  12.1250889
  71.4110817  50.2721089  11.9942742  70.7661814  50.0483889  12.3803545
  74.0928736  49.2833316  13.2670664  73.6945020  49.3935586  12.4991485
  73.4779956  49.4915382  13.8497224  73.9427626  49.3306884  13.2401964
  72.6656638  35.8907463   6.1344804  72.0721478  36.2124460   5.5829371
  72.7031916  35.0448559   5.9265910  72.5831028  35.8131792   6.0227575
  75.5414455  35.8486968   9.5646554  75.3128148  35.8719669   8.7224912
  75.8012531  35.0244435   9.6841565  75.5460643  35.7303048   9.4571752
  69.8233683  37.7021441  19.1671654  69.3112587  37.0942624  19.5256686
  69.6513180  38.4178034  19.6345630  69.7223321  37.7184740  19.2887878
  64.6699398  36.1459016  21.8174016  64.5001988  36.8060391  21.2722223
  64.2265348  36.3565578  22.5386505  64.5798732  36.2744998  21.8435646
  68.5959218  34.3863514  10.8600750  69.0716584  34.7480594  10.2250931
  68.0947817  35.0419982  11.1400893  68.5924577  34.5357703  10.8077491
  73.7002754  35.6245686  21.6073910  74.2574184  35.3959495  20.9752375
  73.3763819  36.3851351  21.3309122  73.7349164  35.7029522  21.4730407
  61.5701463  39.0505882  17.0762506  61.0228182  38.3806527  17.1943374
  62.3593841  38.6835730  17.1405973  61.6053646  38.8970868  17.1031207
  71.4185871  38.7113339  22.5725917  72.1697198  39.0265016  22.8865471
  71.6108448  38.5092510  21.7459839  71.5577285  38.7280721  22.4969313
  70.6385871  36.5304714   4.2274134  71.0184836  36.5484343   3.4425249
  69.8978467  36.9758703   4.1064981  70.5854708  36.5986489   4.0937702
  60.3288432  38.2626690  14.2308529  60.1510193  37.8103299  14.9563445
  60.0407454  39.0652851  14.4147007  60.2601385  38.3149248  14.3652032
  75.9912013  39.5184407  13.4685919  76.4865679  38.8007402  13.4289940
  75.1811789  39.2155205  13.3540406  75.9455907  39.3682053  13.4459645
  62.0660902  40.7954413  11.3430288  61.2006422  40.7840104  11.2313059
  62.1659718  40.6084636  12.1901427  61.9535069  40.7660475  11.4519233
  78.0563832  42.2688095  16.1563048  78.4818904  41.7462516  15.6033473
  77.6920752  42.8668932  15.6351671  78.0650435  42.2798322  15.9972058
  67.6917912  50.5652312  14.9160394  68.0064471  51.3788700  14.9238175
  68.1011325  50.1802531  15.5842553  67.7986010  50.6281014  15.0164485
  74.6442432  45.9822359  12.4864206  75.1153610  46.6962621  12.6554191
  74.9802610  45.3821109  13.0224075  74.7637547  45.9993823  12.5896582
  76.7319416  47.5923672  24.6656278  76.8416382  46.8032233  25.0213025
  77.0610313  47.5029608  23.8630616  76.7971822  47.4629525  24.5998668
  71.5611927  30.7549829  19.4422300  71.6939832  29.9580823  19.7703276
  71.9457079  31.2816232  20.0220576  71.6368255  30.7149746  19.5765803
  75.2816378  45.7740293  19.2491898  74.7337324  45.1498177  18.9811964
  75.7429407  45.9634565  18.5335978  75.2683587  45.7099343  19.1042329
  74.6344282  27.6780156  16.0403394  73.8290245  27.5677885  16.3571232
  74.5051017  27.7792611  15.1833259  74.4964415  27.6763826  15.9611434
  78.0910242  33.8425647  16.6343091  77.5073231  34.3434854  16.2220658
  78.4114536  33.3355204  16.0007414  78.0523418  33.8417482  16.4801598
  70.6305041  32.7566242   6.9101765  71.4520736  32.9264555   6.6683460
  70.1674692  32.9113503   6.1868063  70.6836204  32.8047975   6.7673410
  69.2200373  30.7509004  17.6900194  69.7644786  30.4100131  18.2804536
  69.2737309  31.6094466  17.8321479  69.3089493  30.8264264  17.7982068
  65.0330932  44.5125420  14.5639002  65.6375789  44.4721255  13.9352823
  64.8258245  45.3596573  14.5943058  65.0919829  44.6313423  14.4755119
  74.8474704  46.7791366  15.7801239  75.6673078  46.6354332  16.0417535
  74.5668782  47.4037565  16.3217677  74.9271448  46.8501718  15.8989179
  60.2682214  43.4960038  14.4337925  60.1706492  42.6856310  14.7427982
  61.0511084  43.4751831  14.0484193  60.3698351  43.3727128  14.4224788
  75.7038200  54.8071277  16.2977261  75.5796897  55.3933723  16.9327080
  76.3556485  54.3131473  16.5989536  75.7811849  54.8210082  16.4363190
  73.4481125  57.3182630  16.5459205  73.1819540  56.5021746  16.7050195
  73.4619689  57.3635785  15.6754721  73.4105847  57.2039534  16.4412687
  78.1979731  50.8561008  19.1926213  77.5051528  50.3857988  19.4386944
  78.8140059  50.6299312  19.7667920  78.1864261  50.7528140  19.3135365
  76.9220290  54.8226412  20.3353058  77.6460263  54.8079443  20.8217953
  77.0236427  55.5321767  19.8375026  77.0438499  54.9251115  20.3331845
  76.9699491  57.0018706  18.5236982  77.4820588  57.2802959  17.8745742
  76.6835834  57.7408000  18.8899795  77.0034354  57.1521059  18.4826860
  74.8730130  51.6236076  16.5621840  74.7315622  50.7720016  16.6866348
  75.1570693  51.6664736  15.7384046  74.8937976  51.5035826  16.4589464
  75.6420435  49.5366423  19.8799291  75.1062624  48.9246781  20.1960058
  75.7038200  50.1114559  20.5332957  75.5716068  49.5313351  20.0234717
  78.2643684  49.2488273  16.7255257  78.7245166  49.3227202  17.4630381
  78.3099791  50.0469527  16.3755079  78.3394240  49.3782420  16.7828014
  75.0531462  52.8777463  19.1006974  75.9157075  52.7773172  19.0144303
  74.7223245  52.2972173  18.5392546  75.1316659  52.7769090  19.0052379
  78.4133248  51.7019912  15.7617392  77.7886318  51.7138304  15.1543344
  78.0778843  52.1780087  16.4108632  78.2718740  51.7738429  15.7673960
  77.6823994  53.3113060  17.9792260  77.8417480  52.5556384  18.3843982
  77.5016887  53.8604000  18.6332998  77.6789353  53.2806874  18.1354966
  75.6431982  51.6644324  21.8174016  75.4734572  52.3245699  21.2722223
  75.1997932  51.8750885  22.5386505  75.5531315  51.7930306  21.8435646
  72.5434046  54.5691190  17.0762506  71.9960766  53.8991835  17.1943374
  73.3326424  54.2021038  17.1405973  72.5786230  54.4156176  17.1031207
  71.3021016  53.7811998  14.2308529  71.1242777  53.3288607  14.9563445
  71.0140038  54.5838159  14.4147007  71.2333969  53.8334555  14.3652032
   4.8340747  45.7561939  47.6689336   4.8034752  46.6106576  47.8407605
   5.4322096  45.4557232  48.2275479   4.9177905  45.8378436  47.7764138
   1.3434149  51.1124116  62.0302722   2.0500916  50.6176147  62.1589657
   1.5322084  51.5533198  61.3005380   1.4762054  51.1042466  61.9411768
   0.8792253  46.9029634  55.0673918   1.4248213  47.5814721  55.1267888
   0.8209130  46.7617095  54.2075499   0.9508168  46.9821636  54.9485978
   2.6557322  48.3314241  45.9407646   2.5396848  49.0821928  46.3699784
   3.4513209  48.0738195  46.1903733   2.7561911  48.4049088  46.0411737
   1.9692627  35.6802179  49.6382260   1.6546068  36.3705658  50.0702682
   1.4519569  35.6246961  48.9367761   1.8457097  35.7737068  49.5979209
   1.3105061  45.6806680  45.7519671   0.7816532  45.8966313  46.4116977
   1.8330081  46.3742818  45.6720640   1.3093514  45.8149817  45.8375270
   6.7653114  51.2552984  51.1252715   5.9350817  51.4663628  51.2886132
   6.7162366  50.4290039  50.8494999   6.6359849  51.1642591  51.1090081
   6.2607072  43.9023385  54.9203136   5.4235493  43.9725572  55.1550731
   6.2295303  43.9047880  54.0477439   6.1325354  43.9133612  54.8262684
   0.9837258  48.0979062  50.5115028   1.7394773  48.5310576  50.5503937
   1.0899582  47.4483831  51.0849664   1.1107428  48.0656545  50.6013054
   4.0217429  51.9252339  51.2617431   3.5852661  51.9289081  52.0176402
   3.6880344  52.6057838  50.8297008   3.9080049  52.0264795  51.3098263
   3.9414912  38.9666167  53.5046859   4.5840820  39.0364271  54.0908774
   4.1937932  38.2995389  53.0026401   4.0737044  38.8792515  53.5174138
   7.1561775  48.6433259  50.1537068   7.8178209  48.0823927  50.0532977
   6.5153187  48.1485289  50.4789759   7.1590643  48.4869668  50.1869408
   3.4426606  49.6598641  49.8949057   3.6782195  49.8043840  49.0675908
   3.5916169  50.4241049  50.2880571   3.4992409  49.7937695  49.8312661
   5.2717063  48.5000307  47.7318661   5.6025280  49.0327947  47.1258756
   5.8450151  48.5539195  48.3880612   5.4050742  48.5869876  47.7396442
   6.3796414  43.7410804  49.2358822   6.1232979  42.9290745  49.0456705
   7.2225728  43.7488371  49.0089010   6.4662439  43.6222801  49.1743639
   4.0621573  50.8960400  59.0717375   3.8260211  50.0648465  58.9529436
   4.7064802  50.8446007  59.6572219   4.1216244  50.7658088  59.1403269
   5.0857994  50.6804849  55.1345669   4.7803811  51.4132906  55.4958985
   4.3664210  50.2742778  54.8538456   4.9345336  50.7286582  55.1458807
  10.7859786  47.3197849  54.4614014  10.7184286  47.3393808  53.5916600
  10.7715448  48.1628177  54.6869684  10.7738543  47.4471584  54.3666491
   1.1956133  38.7233007  57.7855103   1.9409725  38.5342817  57.3718529
   0.7793437  39.2491245  57.2268959   1.2441107  38.7735152  57.6419676
   8.5718403  46.0942236  52.7360608   9.1226325  45.4610305  52.9757700
   8.5562519  46.6257628  53.4276112   8.6503600  46.0791184  52.8739466
   2.2746810  44.3338569  51.8465204   1.9311576  43.6128904  52.1972454
   2.3739852  44.1252420  51.0043563   2.2388852  44.1962772  51.7736884
   2.7359839  50.7964273  47.3889192   3.3017871  51.4557483  47.3047735
   2.0887742  51.1413971  47.8605595   2.7238595  50.9446215  47.4461949
   4.6695299  47.4598141  51.0085989   4.5829273  47.6153567  51.8620768
   4.2145779  48.1036216  50.6345394   4.5898556  47.5773896  51.0793096
   2.4369164  51.4892247  53.4198330   2.2983523  52.1873293  53.9247072
   1.6569162  51.3340904  53.0634511   2.3012391  51.5692414  53.4424604
   0.7747249  47.7888623  59.6720711   0.7695287  46.9168439  59.6763138
   1.4808243  47.9876792  59.1990167   0.8792253  47.6892497  59.6027747
   3.9322537  50.8470501  44.1814829   3.5529345  50.0607639  44.1744118
   3.2688782  51.3957358  44.0386473   3.7781011  50.8115325  44.1595626
   1.3867163  33.7896201  51.5848910   1.5050731  34.2472664  50.8516212
   1.2129338  32.9841462  51.2985127   1.3786333  33.7389973  51.4349843
   2.1782635  53.0915992  44.5166515   2.2602473  53.8982978  44.1927966
   2.6632378  53.1111951  45.2407288   2.2619793  53.2136654  44.5753413
   1.6857836  51.8513410  64.5984841   2.4992701  51.5798559  64.7589973
   1.5252802  51.5520950  63.7945037   1.7827784  51.7668336  64.5030247
   1.6979080  52.9119701  59.8707681   2.3358800  52.4179896  59.5370137
   1.0553171  52.8397101  59.2859908   1.6973306  52.8278709  59.7350036
   3.4236080  44.7608847  54.4373597   2.9963688  44.6735195  53.6821696
   2.7862133  44.8686622  55.0228441   3.2665687  44.7641506  54.4119038
   1.7533336  53.6039509  56.5113038   2.5425714  53.2528574  56.6315120
   1.9276934  54.4175897  56.2489672   1.8953618  53.6725366  56.4900906
   3.8600848  38.1680830  50.5532222   3.2475162  38.6551232  50.9385954
   3.9565023  37.4924321  51.0969873   3.7838746  38.1399139  50.6911080
   7.5025876  49.2397767  55.9809738   7.5609000  49.6884415  56.7269714
   6.8692344  49.6496579  55.5439818   7.4177171  49.3671501  56.0262286
   4.4547556  47.2614054  54.0675428   4.2145778  46.4220469  54.0717855
   4.9339563  47.3414221  54.7916202   4.4899739  47.1495454  54.1750231
   6.4552743  44.0415511  52.0204687   6.2162513  44.0011346  51.1825472
   6.6186644  44.8886664  52.1470409   6.4443046  44.1607596  51.9158169
   3.0598773  48.4265461  57.9509733   3.7832972  47.9737987  57.7720752
   2.7948735  48.7070126  57.1682060   3.1280046  48.4016429  57.8088448
   5.4934087  47.3891872  56.4540282   6.0851927  48.0289122  56.4858480
   5.9293081  46.6914908  56.7432349   5.6452518  47.3810222  56.5021115
   2.5183228  44.6037090  48.7543425   1.8474418  45.1466792  48.6256490
   3.2122978  45.0731946  48.5125120   2.5212096  44.7535361  48.6998953
   2.6811356  41.0592974  51.6633798   3.0338966  40.6322697  52.3379597
   1.8226157  40.9743817  51.7934874   2.6060800  40.9837714  51.7828808
   4.1135416  36.1811386  52.5918110   3.6066280  35.4740525  52.5239288
   4.9102849  35.8504575  52.7219187   4.1562655  36.0284537  52.6017105
   6.3155556  50.6976312  45.5758975   6.6989161  51.4467668  45.8057072
   5.5199669  50.9442132  45.3170964   6.2549338  50.8446006  45.5716548
   2.7556138  41.6777935  48.7394933   2.7550364  41.5226592  49.5979209
   2.5512318  42.5240922  48.6836318   2.7255916  41.7798556  48.8582872
   2.5448809  49.1079125  55.0808268   2.9703880  48.5853546  54.5278693
   2.1805728  49.7059962  54.5596891   2.5535411  49.1189352  54.9217278
   2.5795219  40.6816677  55.5588311   1.9958208  41.1825884  55.1465878
   2.8999513  40.1746234  54.9252634   2.5408394  40.6808512  55.4046818
  15.8073331  61.2747247  47.6689336  15.7767335  62.1291884  47.8407605
  16.4054680  60.9742540  48.2275479  15.8910489  61.3563744  47.7764138
   9.0073016  60.3622898  52.4242266   8.1510911  60.5231397  52.4751383
   9.0540670  59.4914962  52.4447327   8.8872127  60.2573700  52.4348332
  12.3166732  66.6309424  62.0302722  13.0233500  66.1361455  62.1589657
  12.5054668  67.0718505  61.3005380  12.4494638  66.6227774  61.9411768
  11.8524837  62.4214942  55.0673918  12.3980797  63.1000029  55.1267888
  11.7941713  62.2802403  54.2075499  11.9240751  62.5006944  54.9485978
  13.6289906  63.8499549  45.9407646  13.5129431  64.6007235  46.3699784
  14.4245792  63.5923503  46.1903733  13.7294495  63.9234396  46.0411737
   5.5120231  67.8393572  47.2276988   5.8336072  68.3798780  46.6238296
   6.1592328  67.2690344  47.3599278   5.6546286  67.8352748  47.1584023
   7.5621939  59.8409567  47.3111375   8.2602104  60.0197695  47.8032838
   7.8774272  59.3179907  46.6881764   7.7117276  59.7903339  47.2913385
   7.7509875  66.2280012  47.2991166   8.1903510  65.6197113  47.7445939
   7.6014537  65.8487386  46.5276631   7.7931340  66.0818483  47.2510334
   5.2181518  64.8224024  54.5009992   5.8630520  64.3296467  54.1820940
   5.4583295  64.9648811  55.3276070   5.3492103  64.7701466  54.5759525
   7.7567609  67.6678930  54.1516884   8.0390852  66.8730336  53.9303640
   8.4853769  68.1459518  54.1721945   7.9057173  67.6213527  54.1219899
   5.7348803  55.2101964  51.3932649   5.4052133  55.6613108  50.7236348
   5.0593805  55.1318127  51.9405656   5.5859239  55.2653099  51.3755873
  11.3519211  64.5807194  44.2521936  11.2670506  65.4368160  44.3971504
  11.8403594  64.3051518  44.9204095  11.4108108  64.6664515  44.3724017
  12.9425210  51.1987487  49.6382260  12.6278651  51.8890965  50.0702682
  12.4252152  51.1432269  48.9367761  12.8189681  51.2922375  49.5979209
  12.2837644  61.1991988  45.7519671  11.7549116  61.4151621  46.4116977
  12.8062664  61.8928126  45.6720640  12.2826097  61.3335125  45.8375270
  17.7385697  66.7738292  51.1252715  16.9083400  66.9848936  51.2886132
  17.6894950  65.9475347  50.8494999  17.6092433  66.6827899  51.1090081
   4.1737252  65.0955205  44.5527139   3.5894467  65.6005236  44.9593003
   3.7707347  64.8697592  43.8123731   4.0276556  65.1363453  44.5032164
   9.4559027  70.0536961  59.9216798   9.5442373  69.8663101  60.7695008
   9.8848739  69.4074390  59.5221644   9.5321129  69.9299968  59.9888549
   8.6314467  61.3420857  43.0296059   8.8710470  61.5498840  42.2171402
   8.9530308  60.5378365  43.1385004   8.7151624  61.2534958  42.9256612
   3.9404757  53.2714252  46.8755597   4.6950725  53.6392569  46.6372647
   3.7632291  53.6453807  47.6434777   4.0259235  53.3812440  46.9540486
  17.2339656  59.4208693  54.9203136  16.3968077  59.4910880  55.1550731
  17.2027886  59.4233188  54.0477439  17.1057938  59.4318920  54.8262684
   3.6304385  61.5641729  60.6351505   3.8024888  61.4547623  61.4836787
   4.1673742  62.2096134  60.3982697   3.7349389  61.6433730  60.7256602
   2.2961821  55.6784571  43.5733710   2.1137395  55.8956452  42.7474703
   3.1587434  55.7923584  43.6292325   2.3966411  55.7274469  43.4588197
   1.9076253  67.5172494  51.0156698   2.7465153  67.7495426  51.0630460
   1.9388023  66.6476805  50.9463733   2.0357971  67.4229440  51.0121343
   7.9761541  52.6810982  46.6082734   8.7047701  52.5026937  46.1620890
   8.0656434  53.5229062  46.8189912   8.0968203  52.7794860  46.5736252
  11.9569841  63.6164369  50.5115028  12.7127356  64.0495884  50.5503937
  12.0632166  62.9669139  51.0849664  12.0840012  63.5841853  50.6013054
  14.9950012  67.4437647  51.2617431  14.5585244  67.4474389  52.0176402
  14.6612928  68.1243146  50.8297008  14.8812632  67.5450102  51.3098263
  14.9147495  54.4851475  53.5046859  15.5573404  54.5549579  54.0908774
  15.1670516  53.8180697  53.0026401  15.0469627  54.3977823  53.5174138
   1.8423848  58.9558744  42.0856183   1.1282026  58.6696924  42.4978616
   2.3267817  59.2955370  42.7262571   1.8083212  58.9640394  42.2411818
   2.6864708  57.6952038  58.1171433   1.9936505  57.2249018  58.3632164
   3.3025035  57.4690342  58.6913140   2.6749238  57.5919170  58.2380585
  18.1294359  64.1618567  50.1537068  18.7910793  63.6009235  50.0532977
  17.4885771  63.6670597  50.4789759  18.1323226  64.0054976  50.1869408
   9.0171166  67.4588698  42.4617991   9.4322315  67.1273722  41.7702487
   8.1863096  67.2257600  42.3338128   8.9559175  67.3759954  42.3408839
  14.4159189  65.1783949  49.8949057  14.6514779  65.3229148  49.0675908
  14.5648753  65.9426357  50.2880571  14.4724993  65.3123003  49.8312661
   1.4105267  61.6617442  59.2598278   2.1345239  61.6470473  59.7463173
   1.5121403  62.3712797  58.7620246   1.5323476  61.7642145  59.2577065
  16.2449646  64.0185615  47.7318661  16.5757863  64.5513255  47.1258756
  16.8182734  64.0724503  48.3880612  16.3783325  64.1055184  47.7396442
  11.4581535  61.8650518  48.4142241  11.5528390  62.6039812  48.8681866
  10.8340379  61.4367993  48.8476805  11.3790565  61.9111838  48.5450388
   9.7134009  65.0436730  59.0632522  10.2872871  64.4063974  59.2181086
   9.6348813  65.0440813  58.1942179   9.7867244  64.9501842  58.9578933
  11.7104557  63.7099257  41.6479193  11.6284719  63.7801445  42.5134180
  12.3484277  64.2729001  41.4562933  11.7924394  63.8038228  41.7469142
   5.0697728  63.4759995  51.1153719   4.8116972  62.6431730  51.0885019
   5.1246210  63.7017608  50.2746220   5.0397506  63.3857767  50.9873856
  10.1498778  55.5788446  51.2157812   9.4455105  55.0897632  51.3741731
  10.1983752  55.5910920  50.3446256  10.0528829  55.5078094  51.1097152
   4.0432440  61.0297758  51.6018614   3.4682031  61.1889926  52.2382575
   3.6668116  60.3933167  51.1387064   3.9035252  60.9595571  51.6273172
   7.7105728  59.5021107  56.4610992   7.3220161  59.0775325  55.8063184
   7.0460427  59.7503257  56.9688019   7.5552656  59.4759828  56.4398860
  17.3528998  59.2596112  49.2358822  17.0965562  58.4476053  49.0456705
  18.1958312  59.2673679  49.0089010  17.4395023  59.1408109  49.1743639
  11.5332090  53.1995736  53.9734977  11.9142602  52.5173907  54.3602851
  10.7295374  52.9105338  53.7910641  11.4708552  53.0562784  54.0039032
   8.8144667  63.7319712  44.6587799   9.6285306  64.0234604  44.5470571
   8.7503808  63.0779574  44.0846092   8.9247406  63.6784906  44.5576637
  15.0354157  66.4145708  59.0717375  14.7992794  65.5833773  58.9529436
  15.6797386  66.3631315  59.6572219  15.0948828  66.2843396  59.1403269
   4.6852575  67.2041229  49.7860111   5.3226522  66.9652977  50.3311905
   5.1107647  67.4078388  49.0513272   4.8428741  67.1992239  49.7577269
   5.3255390  62.4243519  44.1235001   5.7100543  62.2051226  44.8751546
   5.0767010  63.2506464  44.2536077   5.3457463  62.5141665  44.2536077
   5.4923930  55.7049934  63.8397585   5.1777371  56.4749497  63.5767148
   5.1713863  55.1420190  63.2549812   5.3982849  55.7360203  63.7138935
  16.0590578  66.1990157  55.1345669  15.7536395  66.9318213  55.4958985
  15.3396793  65.7928086  54.8538456  15.9077920  66.2471890  55.1458807
   7.0674047  67.6813652  51.4653898   7.1413055  67.5188824  52.3195748
   7.8843553  67.8703841  51.2214379   7.1990406  67.6850394  51.5551923
  21.7592370  62.8383157  54.4614014  21.6916870  62.8579116  53.5916600
  21.7448032  63.6813484  54.6869684  21.7471126  62.9656892  54.3666491
   3.0455827  54.0940456  49.4543781   2.1778253  54.1663055  49.5201391
   3.3331032  54.8962535  49.6431756   2.9595575  54.2234603  49.4918548
  12.1688716  54.2418315  57.7855103  12.9142308  54.0528125  57.3718529
  11.7526021  54.7676553  57.2268959  12.2173690  54.2920460  57.6419676
  19.5450987  61.6127543  52.7360608  20.0958909  60.9795613  52.9757700
  19.5295102  62.1442936  53.4276112  19.6236183  61.5976492  52.8739466
   6.1973378  65.4466141  57.2820502   5.6985071  66.1581908  57.3605390
   7.0073602  65.7666807  57.2438664   6.2429485  65.5992989  57.2877070
   2.4601495  64.7089094  51.5283222   2.1714744  64.0826565  52.0628950
   3.3284843  64.6509381  51.5947903   2.5461747  64.6076638  51.6174177
  13.2479393  59.8523877  51.8465204  12.9044159  59.1314212  52.1972454
  13.3472436  59.6437728  51.0043563  13.2121436  59.7148080  51.7736884
   2.6633769  66.3484345  47.4525587   3.4179737  66.7297384  47.6661050
   2.0704381  66.7995488  47.9072284   2.6870482  66.4713172  47.5508466
  13.7092422  66.3149581  47.3889192  14.2750455  66.9742791  47.3047735
  13.0620326  66.6599279  47.8605595  13.6971179  66.4631523  47.4461949
   5.1240436  58.3047185  62.5782800   4.3140212  58.6104965  62.4672642
   5.6015123  59.0252768  62.6935384   5.0743915  58.4561786  62.5789871
   3.9831995  67.5192906  52.8265703   3.4612749  67.6593198  53.5117568
   4.3706016  66.7603570  53.0167820   3.9635696  67.4278430  52.9566779
   0.9723179  57.5698715  46.8960658   0.6847975  57.1999985  46.1592605
   1.6593648  58.0393570  46.6344362   1.0312077  57.5845684  46.7475733
  10.1799000  69.2588365  46.8126272   9.9385676  68.5256226  46.4053337
  10.3600333  69.8075222  46.1592605  10.1706624  69.2310757  46.6556495
   5.4098321  64.5496925  48.2247194   5.2141104  65.1571660  47.6307497
   5.6332667  63.8564869  47.7438868   5.4132962  64.5374451  48.0663275
   3.8076851  61.4351663  48.3428062   4.5299503  61.5992821  47.8831868
   3.3284844  62.1561328  48.2367402   3.8440582  61.5649893  48.2593676
  11.7670359  57.7715462  53.7224747  10.9281459  57.7976741  53.4863010
  11.8374726  58.4186197  54.3030094  11.6538752  57.8711588  53.7733864
  10.2139637  54.6700839  48.4552363  10.9165990  54.4708587  47.9772321
   9.9483826  53.8976781  48.7621207  10.2786269  54.5263805  48.4297805
  15.6427882  62.9783449  51.0085989  15.5561857  63.1338875  51.8620768
  15.1878362  63.6221524  50.6345394  15.5631139  63.0959204  51.0793096
   4.9768193  55.9336124  57.5083244   4.7851390  55.9491259  58.3582667
   5.8266789  56.1299798  57.4849899   5.0743915  55.9650475  57.6306538
   9.5153699  60.2994196  49.6311548   9.2688413  60.2189947  50.4648337
   9.8438822  59.5147664  49.4374076   9.5274942  60.1720461  49.7259072
  13.4101747  67.0077555  53.4198330  13.2716107  67.7058601  53.9247072
  12.6301745  66.8526212  53.0634511  13.2744974  67.0877722  53.4424604
  11.7479832  63.3073930  59.6720711  11.7427871  62.4353747  59.6763138
  12.4540826  63.5062100  59.1990167  11.8524836  63.2077805  59.6027747
   5.4750726  63.0350914  59.0434532   5.6194102  63.6152123  58.4077642
   5.8226374  63.4127211  59.7484386   5.5478187  63.1771618  59.0533526
   7.6470643  62.2341083  56.8259663   6.8993957  62.4272097  56.4207941
   7.8012168  61.4086302  56.5883784   7.5593071  62.1406194  56.7305069
  14.9055120  66.3655809  44.1814829  14.5261929  65.5792947  44.1744118
  14.2421366  66.9142666  44.0386473  14.7513595  66.3300633  44.1595626
   7.8872420  56.1291633  57.7155067   8.3445034  56.8615608  57.8427859
   7.9628749  55.7058099  58.4742323   7.9663390  56.1748872  57.8456143
  12.3599746  49.3081509  51.5848910  12.4783314  49.7657972  50.8516212
  12.1861922  48.5026770  51.2985127  12.3518917  49.2575281  51.4349843
   5.7654798  58.1193737  54.5596891   4.9750873  57.9385197  54.8814227
   6.1615421  57.3420690  54.5427185   5.7071674  57.9781198  54.6049439
  10.2520689  66.9481512  40.0003604  11.0193674  67.0081637  39.5909456
   9.8051998  66.3761953  39.5159923  10.2994116  66.8718087  39.8681315
  11.1498484  65.7536168  52.2856337  10.4743486  65.5221400  52.7869724
  11.1590860  65.1457350  51.6598442  11.0516989  65.6295093  52.2672489
   8.2792628  60.5953997  59.0420390   8.2151770  61.4563953  58.9140527
   8.4189816  60.2785990  58.2415941   8.2908098  60.6754163  58.9048603
  13.1515219  68.6101300  44.5166515  13.2335056  69.4168286  44.1927966
  13.6364961  68.6297259  45.2407288  13.2352377  68.7321962  44.5753413
   6.9611722  63.2886136  53.1836593   6.5373971  63.4890635  52.4475611
   6.7856577  62.4414984  53.2960893   6.8722603  63.1934917  53.0910283
   2.2494167  63.7838187  48.6164565   2.4058786  63.7184990  49.4720557
   2.5894760  64.5586740  48.4043245   2.3227402  63.8887385  48.7119159
   8.7873312  63.1596071  47.4857928   9.3288857  62.6566452  47.9496549
   9.1019871  63.1061266  46.6747414   8.9137709  63.0775492  47.4341741
  12.6590419  67.3698718  64.5984841  13.4725285  67.0983867  64.7589973
  12.4985386  67.0706258  63.7945037  12.7560368  67.2853644  64.5030247
   6.9559762  68.5513422  44.7697956   7.0252582  67.6927961  44.9090957
   7.7348217  68.7685303  44.4416981   7.0812612  68.4566286  44.7415114
   9.9362581  58.0532375  57.5380229  10.1504551  57.4143290  56.9843583
   9.3196480  58.4978199  57.1088091   9.8767910  58.0242519  57.3930660
  12.1001669  59.6621441  58.4763536  11.2878351  59.3547331  58.5576709
  12.5591604  59.1820441  59.0406248  12.0482054  59.5457933  58.5718130
  11.5106924  67.5401113  48.9240480  11.1521579  67.7115755  49.7004513
  11.0245635  68.0014318  48.3668479  11.3865621  67.6340084  48.9565749
   9.3277310  51.1632311  52.5267572   8.4570868  51.1371032  52.4800881
   9.5817651  50.9909503  51.7093417   9.2370870  51.1342455  52.3987708
   6.2995289  63.2200278  41.4640715   6.5887814  63.9965160  41.7384289
   6.3867088  62.7089009  42.1655214   6.3549546  63.2592196  41.6083213
   9.1955177  61.0681512  63.2592238   9.6654808  61.6923628  63.6460112
   9.2417057  60.3998488  63.8185453   9.2723053  61.0616192  63.3992310
   6.3526450  53.1738539  53.9841042   5.8364939  52.4818731  54.1092621
   5.7920379  53.8409317  53.9303641   6.1932964  53.1701797  53.9947108
   8.4218684  53.7131499  55.8133895   8.0350437  53.7380531  56.5947425
   7.9351621  53.1473178  55.3608411   8.2931193  53.6327250  55.8621798
  12.6711663  68.4305008  59.8707681  13.3091384  67.9365204  59.5370137
  12.0285755  68.3582409  59.2859908  12.6705890  68.3464017  59.7350036
  14.3968663  60.2794154  54.4373597  13.9696271  60.1920503  53.6821696
  13.7594716  60.3871930  55.0228441  14.2398271  60.2826814  54.4119038
   8.0875826  50.5998485  58.1044155   8.7168944  51.1358785  57.8265225
   8.2561688  50.5075844  58.9557720   8.2053620  50.6659847  58.1892683
   7.8889740  55.3869680  60.3770566   8.7163170  55.1154829  60.4329181
   7.9097586  56.1830521  60.7334384   8.0142590  55.4649434  60.4385749
  12.7265920  69.1224817  56.5113038  13.5158298  68.7713881  56.6315120
  12.9009518  69.9361205  56.2489672  12.8686202  69.1910674  56.4900906
   2.4659230  62.5333542  53.5640827   1.6247237  62.4337417  53.7719721
   2.6749238  63.3029023  53.9155147   2.3723923  62.6325586  53.6468142
  11.5799744  53.1334373  51.0729456  11.7849337  53.0656681  51.9186454
  11.2526168  53.9393195  51.0050634  11.5614992  53.2420314  51.1889112
   6.2775895  60.4614942  52.8138424   5.9739033  59.9070930  53.4148832
   5.5755316  60.6407152  52.3266459   6.1292105  60.4059724  52.8308130
   5.3341992  57.7715461  47.3783126   5.6101727  57.0534374  46.9660694
   5.9340662  58.3700381  47.1704232   5.4635257  57.7535832  47.2863887
  14.8333432  53.6866138  50.5532222  14.2207745  54.1736540  50.9385954
  14.9297607  53.0109629  51.0969873  14.7571329  53.6584446  50.6911080
   8.8352513  55.4428979  45.6529721   9.2896259  55.6139539  46.3777566
   9.3092558  54.8297090  45.2527497   8.9720833  55.3779864  45.7003483
   2.3568038  64.9277305  54.9832460   1.7655971  65.5686803  54.9535475
   3.1189062  65.3514922  54.9563759   2.3816299  65.0853143  54.9747607
   2.7528661  56.0879303  55.6500477   3.2130142  56.1618232  56.3875601
   2.7984768  56.8860557  55.3000299   2.8279216  56.2173450  55.7073234
   4.4012011  56.7545997  60.2172504   4.0097576  56.1079345  60.6528282
   4.5697873  57.3457433  60.8366760   4.3682921  56.7460265  60.3735210
  18.4758460  64.7583074  55.9809738  18.5341583  65.2069723  56.7269714
  17.8424927  65.1681887  55.5439818  18.3909755  64.8856809  56.0262286
  12.1157554  70.3786616  52.4164484  11.9177243  70.8677431  51.7220696
  11.4945265  70.5827858  52.9948618  11.9945119  70.4803155  52.3987707
   6.1765533  62.1471513  46.7574728   6.9207578  62.5345790  46.9957678
   6.3226229  61.3028939  46.9215216   6.3076118  62.0801986  46.8168698
   8.0945108  53.9421772  51.7906590   7.2481153  54.1144580  51.6647940
   8.0916241  53.1371116  52.1272418   7.9692258  53.8482801  51.8217717
   9.1643409  57.7196987  52.6568648   8.6903363  57.1938749  53.1673959
   9.5361544  57.1726459  52.0883509   9.1493298  57.5612983  52.6483795
  15.4280139  62.7799362  54.0675428  15.1878362  61.9405777  54.0717855
  15.9072146  62.8599529  54.7916202  15.4632323  62.6680762  54.1750231
  11.0926908  58.6133541  45.7194402  10.5649927  58.6962285  45.0300110
  11.5522616  59.3551413  45.7159046  11.0828759  58.7354203  45.6169097
  17.4285326  59.5600819  52.0204687  17.1895096  59.5196654  51.1825472
  17.5919227  60.4071971  52.1470409  17.4175630  59.6792904  51.9158169
  14.0331356  63.9450769  57.9509733  14.7565555  63.4923295  57.7720752
  13.7681319  64.2255434  57.1682060  14.1012630  63.9201737  57.8088448
   2.9018225  58.5410942  54.6862612   2.2771295  58.5529334  54.0788564
   2.5663820  59.0171117  55.3353852   2.7603717  58.6129459  54.6919180
   3.0859973  56.8836061  40.7435297   2.7372778  57.5355786  41.2066846
   2.6056419  56.8693174  40.0159168   2.9630217  56.9779114  40.7046388
  10.6463991  67.1837105  44.8504059  11.3698190  67.6495218  44.7068632
  10.2064582  67.2510714  44.1001656  10.6879683  67.2620941  44.7188840
   9.8150146  64.0434647  56.1004748   9.2007139  63.4992697  56.3953383
  10.3317431  63.5298883  55.6210564   9.8005808  63.8871056  56.0728976
   9.0546443  65.1138917  53.8349046   8.6274051  64.4888636  53.4014482
   9.0471387  64.8313839  54.6608053   8.9905584  64.9791698  53.8928874
   2.1708970  60.1504090  56.9037480   2.3302457  59.3947414  57.3089202
   1.9901864  60.6995030  57.5578218   2.1674329  60.1197904  57.0600186
  10.1129273  52.3165326  57.4588270   9.6169834  52.5129000  56.7679836
  10.8698335  52.7157994  57.2877071  10.1516098  52.4043059  57.3308406
   7.3832153  55.9907671  54.0491580   7.4074640  55.4567784  53.3604360
   7.6343626  55.4824980  54.7117171   7.4242071  55.8368575  54.0456225
   3.6633475  54.7178490  53.4297325   3.7031846  55.2187696  54.1432032
   2.8383140  54.8088883  53.1603248   3.5473001  54.8060306  53.4947863
   5.0847838  61.2339000  55.7271224   4.2539768  61.4012818  55.5206472
   5.0299355  60.8574950  56.5120109   4.9537253  61.2028731  55.8119752
   2.8931622  54.7247892  61.3627634   3.5184325  54.1810025  61.6357067
   2.4382101  54.2442810  60.7935425   2.9179882  54.5737374  61.3189228
   3.4583882  59.5094591  46.2561341   3.5986843  60.0067055  46.9589983
   3.9566415  58.8080886  46.3975555   3.5524963  59.4796570  46.3812920
   3.4884104  60.3761702  43.5853918   4.1229184  60.9722127  43.5203380
   3.5709715  60.0765160  44.3999788   3.5940655  60.4202610  43.6957005
  16.4666670  62.9077180  56.4540282  17.0584511  63.5474430  56.4858480
  16.9025665  62.2100216  56.7432349  16.6185101  62.8995530  56.5021115
   5.0663087  56.3075678  43.5599360   5.3878928  55.8278760  42.9058622
   5.3290031  57.1175324  43.3690172   5.1529113  56.3565575  43.4354852
   8.2960060  67.3294552  57.0798176   7.7885151  67.8830399  57.5238807
   7.9986706  67.3902842  56.2616951   8.1764945  67.4200863  57.0246633
  10.4622242  55.6947872  55.9222839  10.8877314  55.2420398  55.3106366
   9.8479235  55.1407942  56.1987627  10.4350888  55.5461848  55.8727864
   8.9016465  52.1662971  49.3313416   8.2584783  52.0160618  49.8998555
   8.5615872  51.9205317  48.5662521   8.7561543  52.1075094  49.3016431
  13.4915812  60.1222398  48.7543425  12.8207002  60.6652100  48.6256490
  14.1855562  60.5917253  48.5125120  13.4944679  60.2720669  48.6998953
  13.6543939  56.5778282  51.6633798  14.0071549  56.1508005  52.3379597
  12.7958741  56.4929125  51.7934874  13.5793384  56.5023022  51.7828808
   2.3527624  59.2085801  49.7216645   1.6339613  59.6249934  49.9889508
   2.7239986  59.7740040  49.1708283   2.3019556  59.3535083  49.6799452
  11.6527205  59.8413650  55.6118640  11.6325132  59.6596946  56.4653419
  11.7006406  60.7125669  55.5878224  11.6561846  59.9430189  55.7341935
   9.5973535  66.4300842  61.5367117   9.5569390  65.7850519  60.9512273
  10.4096853  66.3737460  61.8492529   9.7116688  66.3259809  61.4964066
   8.1274198  58.2483801  45.0590024   7.5339038  58.5700798  44.5074591
   8.1649476  57.4024897  44.8511130   8.0448588  58.1708130  44.9472795
  15.0867999  51.6996694  52.5918110  14.5798864  50.9925833  52.5239288
  15.8835433  51.3689882  52.7219187  15.1295238  51.5469845  52.6017105
  11.0032015  58.2063306  48.4891774  10.7745708  58.2296007  47.6470132
  11.2630091  57.3820773  48.6086785  11.0078203  58.0879386  48.3816972
   5.2851243  60.0597779  58.0916874   4.7730147  59.4518962  58.4501906
   5.1130740  60.7754371  58.5590850   5.1840881  60.0761078  58.2133098
   4.0576778  56.7439852  49.7845970   4.5334144  57.1056932  49.1496151
   3.5565377  57.3996320  50.0646113   4.0542137  56.8934041  49.7322711
  17.2888139  66.2161620  45.5758975  17.6721745  66.9652976  45.8057072
  16.4932252  66.4627440  45.3170964  17.2281921  66.3631314  45.5716548
   9.1620314  57.9822024  60.5319130   9.7191744  57.7535833  59.8997595
   8.8381379  58.7427689  60.2554342   9.1966724  58.0605860  60.3975627
   6.8803431  61.0689677  61.4971137   7.6314758  61.3841354  61.8110691
   7.0726008  60.8668848  60.6705059   7.0194845  61.0857059  61.4214533
   6.1003431  58.8881052  43.1519354   6.4802396  58.9060681  42.3670469
   5.3596027  59.3335041  43.0310201   6.0472268  58.9562827  43.0182922
  13.7288721  57.1963243  48.7394933  13.7282948  57.0411900  49.5979209
  13.5244901  58.0426230  48.6836318  13.6988499  57.2983864  48.8582872
  11.4529573  61.8760745  52.3931139  11.9483239  61.1583740  52.3535160
  10.6429349  61.5731543  52.2785626  11.4073467  61.7258391  52.3704865
   6.8988185  65.7258558  44.5428144   6.0899508  65.4025232  44.4961453
   7.4063094  65.0191780  44.4756393   6.8537852  65.5739875  44.5258438
  13.5181392  64.6264432  55.0808268  13.9436464  64.1038854  54.5278693
  13.1538312  65.2245270  54.5596891  13.5267995  64.6374659  54.9217278
  10.1059992  68.3398697  51.4109426  10.5771170  69.0538959  51.5799411
  10.4420170  67.7397447  51.9469295  10.2255107  68.3570161  51.5141802
   7.0229487  53.1126167  58.3667520   7.1557392  52.3157161  58.6948496
   7.4074639  53.6392570  58.9465796   7.0985815  53.0726084  58.5011023
  10.7433938  68.1316631  58.1737118  10.1954884  67.5074514  57.9057184
  11.2046967  68.3210903  57.4581198  10.7301147  68.0675681  58.0287549
  10.0961842  50.0356493  54.9648614   9.2907805  49.9254223  55.2816452
   9.9668577  50.1368949  54.1078480   9.9581975  50.0340163  54.8856654
  13.5527802  56.2001985  55.5588311  12.9690791  56.7011192  55.1465878
  13.8732096  55.6931542  54.9252634  13.5140978  56.1993820  55.4046818
   6.0922601  55.1142580  45.8346985   6.9138296  55.2840893  45.5928680
   5.6292252  55.2689841  45.1113283   6.1453764  55.1624313  45.6918630
   4.6817933  53.1085342  56.6145414   5.2262346  52.7676469  57.2049756
   4.7354869  53.9670804  56.7566699   4.7707053  53.1840602  56.7227288
  10.3092264  69.1367704  54.7046460  11.1290638  68.9930670  54.9662755
  10.0286342  69.7613902  55.2462897  10.3889008  69.2078056  54.8234399
  16.7081386  70.7287272  51.3932649  16.3784716  71.1798415  50.7236348
  16.0326388  70.6503435  51.9405656  16.5591823  70.7838407  51.3755873
  23.9157794  66.7172795  49.6382260  23.6011235  67.4076273  50.0702682
  23.3984736  66.6617577  48.9367761  23.7922265  66.8107683  49.5979209
  14.9137340  68.7899560  46.8755597  15.6683308  69.1577877  46.6372647
  14.7364875  69.1639115  47.6434777  14.9991819  68.8997748  46.9540486
  28.2072239  74.9394001  54.9203136  27.3700660  75.0096188  55.1550731
  28.1760470  74.9418496  54.0477439  28.0790521  74.9504228  54.8262684
  13.2694405  71.1969879  43.5733710  13.0869978  71.4141760  42.7474703
  14.1320018  71.3108892  43.6292325  13.3698994  71.2459777  43.4588197
  18.9494124  68.1996290  46.6082734  19.6780285  68.0212245  46.1620890
  19.0389017  69.0414370  46.8189912  19.0700786  68.2980168  46.5736252
  25.8880079  70.0036782  53.5046859  26.5305987  70.0734887  54.0908774
  26.1403100  69.3366005  53.0026401  26.0202211  69.9163131  53.5174138
  21.1231361  71.0973754  51.2157812  20.4187688  70.6082939  51.3741731
  21.1716336  71.1096228  50.3446256  21.0261413  71.0263402  51.1097152
  28.3261581  74.7781420  49.2358822  28.0698146  73.9661361  49.0456705
  29.1690895  74.7858987  49.0089010  28.4127607  74.6593417  49.1743639
  22.5064674  68.7181044  53.9734977  22.8875185  68.0359215  54.3602851
  21.7027958  68.4290646  53.7910641  22.4441135  68.5748092  54.0039032
  16.4656514  71.2235242  63.8397585  16.1509955  71.9934805  63.5767148
  16.1446447  70.6605498  63.2549812  16.3715433  71.2545511  63.7138935
  14.0188411  69.6125764  49.4543781  13.1510836  69.6848363  49.5201391
  14.3063615  70.4147842  49.6431756  13.9328159  69.7419911  49.4918548
  23.1421300  69.7603623  57.7855103  23.8874892  69.5713433  57.3718529
  22.7258604  70.2861861  57.2268959  23.1906274  69.8105768  57.6419676
  30.5183571  77.1312851  52.7360608  31.0691492  76.4980920  52.9757700
  30.5027686  77.6628244  53.4276112  30.5968767  77.1161800  52.8739466
  24.2211977  75.3709185  51.8465204  23.8776743  74.6499520  52.1972454
  24.3205019  75.1623036  51.0043563  24.1854020  75.2333388  51.7736884
  22.7402942  73.2900770  53.7224747  21.9014043  73.3162049  53.4863010
  22.8107309  73.9371505  54.3030094  22.6271336  73.3896896  53.7733864
  21.1872220  70.1886147  48.4552363  21.8898573  69.9893895  47.9772321
  20.9216409  69.4162089  48.7621207  21.2518853  70.0449113  48.4297805
  15.9500777  71.4521432  57.5083244  15.7583974  71.4676566  58.3582667
  16.7999373  71.6485106  57.4849899  16.0476499  71.4835783  57.6306538
  18.8605004  71.6476941  57.7155067  19.3177618  72.3800916  57.8427859
  18.9361333  71.2243407  58.4742323  18.9395974  71.6934179  57.8456143
  23.3332330  64.8266817  51.5848910  23.4515898  65.2843280  50.8516212
  23.1594505  64.0212078  51.2985127  23.3251501  64.7760589  51.4349843
  20.9095165  73.5717683  57.5380229  21.1237134  72.9328598  56.9843583
  20.2929064  74.0163507  57.1088091  20.8500494  73.5427827  57.3930660
  23.0734253  75.1806748  58.4763536  22.2610935  74.8732639  58.5576709
  23.5324187  74.7005749  59.0406248  23.0214638  75.0643241  58.5718130
  20.3009893  66.6817619  52.5267572  19.4303451  66.6556340  52.4800881
  20.5550235  66.5094811  51.7093417  20.2103454  66.6527763  52.3987708
  17.3259034  68.6923847  53.9841042  16.8097523  68.0004039  54.1092621
  16.7652963  69.3594624  53.9303641  17.1665547  68.6887105  53.9947108
  19.3951267  69.2316807  55.8133895  19.0083021  69.2565839  56.5947425
  18.9084205  68.6658486  55.3608411  19.2663776  69.1512558  55.8621798
  19.0608409  66.1183793  58.1044155  19.6901527  66.6544093  57.8265225
  19.2294272  66.0261152  58.9557720  19.1786204  66.1845155  58.1892683
  18.8622324  70.9054988  60.3770566  19.6895753  70.6340137  60.4329181
  18.8830170  71.7015829  60.7334384  18.9875174  70.9834742  60.4385749
  22.5532328  68.6519681  51.0729456  22.7581921  68.5841989  51.9186454
  22.2258752  69.4578503  51.0050634  22.5347575  68.7605622  51.1889112
  25.8066015  69.2051446  50.5532222  25.1940329  69.6921848  50.9385954
  25.9030190  68.5294937  51.0969873  25.7303913  69.1769754  50.6911080
  19.8085096  70.9614287  45.6529721  20.2628843  71.1324847  46.3777566
  20.2825142  70.3482397  45.2527497  19.9453416  70.8965172  45.7003483
  19.0677692  69.4607080  51.7906590  18.2213737  69.6329888  51.6647940
  19.0648824  68.6556424  52.1272418  18.9424842  69.3668109  51.8217717
  20.1375992  73.2382294  52.6568648  19.6635946  72.7124056  53.1673959
  20.5094128  72.6911767  52.0883509  20.1225881  73.0798291  52.6483795
  22.0659492  74.1318849  45.7194402  21.5382510  74.2147593  45.0300110
  22.5255200  74.8736720  45.7159046  22.0561342  74.2539511  45.6169097
  28.4017910  75.0786127  52.0204687  28.1627680  75.0381961  51.1825472
  28.5651811  75.9257279  52.1470409  28.3908213  75.1978212  51.9158169
  21.0861857  67.8350634  57.4588270  20.5902418  68.0314308  56.7679836
  21.8430919  68.2343302  57.2877071  21.1248681  67.9228367  57.3308406
  18.3564736  71.5092979  54.0491580  18.3807223  70.9753092  53.3604360
  18.6076210  71.0010288  54.7117171  18.3974655  71.3553883  54.0456225
  14.6366058  70.2363798  53.4297325  14.6764430  70.7373004  54.1432032
  13.8115723  70.3274191  53.1603248  14.5205584  70.3245614  53.4947863
  13.8664205  70.2433200  61.3627634  14.4916908  69.6995333  61.6357067
  13.4114685  69.7628118  60.7935425  13.8912466  70.0922682  61.3189228
  16.0395671  71.8260985  43.5599360  16.3611512  71.3464068  42.9058622
  16.3022615  72.6360632  43.3690172  16.1261696  71.8750883  43.4354852
  21.4354826  71.2133179  55.9222839  21.8609897  70.7605706  55.3106366
  20.8211819  70.6593250  56.1987627  21.4083471  71.0647156  55.8727864
  19.8749049  67.6848279  49.3313416  19.2317367  67.5345926  49.8998555
  19.5348456  67.4390624  48.5662521  19.7294126  67.6260402  49.3016431
  24.6276523  72.0963590  51.6633798  24.9804133  71.6693313  52.3379597
  23.7691324  72.0114433  51.7934874  24.5525967  72.0208330  51.7828808
  26.0600583  67.2182002  52.5918110  25.5531447  66.5111141  52.5239288
  26.8568016  66.8875190  52.7219187  26.1027822  67.0655153  52.6017105
  21.9764599  73.7248614  48.4891774  21.7478292  73.7481315  47.6470132
  22.2362675  72.9006081  48.6086785  21.9810787  73.6064694  48.3816972
  24.7021305  72.7148551  48.7394933  24.7015531  72.5597208  49.5979209
  24.4977485  73.5611538  48.6836318  24.6721083  72.8169172  48.8582872
  17.9962070  68.6311475  58.3667520  18.1289976  67.8342469  58.6948496
  18.3807223  69.1577878  58.9465796  18.0718399  68.5911392  58.5011023
  21.0694425  65.5541801  54.9648614  20.2640389  65.4439531  55.2816452
  20.9401161  65.6554257  54.1078480  20.9314558  65.5525471  54.8856654
  24.5260386  71.7187293  55.5588311  23.9423375  72.2196500  55.1465878
  24.8464680  71.2116849  54.9252634  24.4873561  71.7179128  55.4046818
  17.0655185  70.6327888  45.8346985  17.8870879  70.8026201  45.5928680
  16.6024836  70.7875149  45.1113283  17.1186347  70.6809621  45.6918630
  15.6550517  68.6270650  56.6145414  16.1994930  68.2861777  57.2049756
  15.7087453  69.4856112  56.7566699  15.7439636  68.7025910  56.7227288
   4.5291571  22.6940071  34.6029383   4.4985576  23.5484707  34.7747652
   5.1272920  22.3935363  35.1615526   4.6128729  22.7756567  34.7104185
   1.0384973  28.0502247  48.9642769   1.7451740  27.5554278  49.0929704
   1.2272908  28.4911329  48.2345427   1.1712878  28.0420598  48.8751815
   2.3508146  25.2692373  32.8747693   2.2347672  26.0200059  33.3039831
   3.1464033  25.0116326  33.1243780   2.4512735  25.3427220  32.9751784
   1.6643451  12.6180310  36.5722307   1.3496892  13.3083789  37.0042729
   1.1470393  12.5625092  35.8707808   1.5407921  12.7115199  36.5319256
   6.4603938  28.1931116  38.0592762   5.6301641  28.4041759  38.2226178
   6.4113190  27.3668170  37.7835046   6.3310673  28.1020722  38.0430127
   5.9557896  20.8401516  41.8543183   5.1186317  20.9103703  42.0890778
   5.9246127  20.8426011  40.9817486   5.8276178  20.8511743  41.7602731
   0.6788082  25.0357193  37.4455075   1.4345597  25.4688707  37.4843983
   0.7850406  24.3861962  38.0189711   0.8058252  25.0034677  37.5353100
   3.7168253  28.8630470  38.1957478   3.2803485  28.8667212  38.9516449
   3.3831168  29.5435969  37.7637055   3.6030873  28.9642926  38.2438310
   3.6365736  15.9044298  40.4386906   4.2791644  15.9742402  41.0248821
   3.8888756  15.2373521  39.9366448   3.7687868  15.8170646  40.4514185
   6.8512599  25.5811390  37.0877115   7.5129033  25.0202058  36.9873023
   6.2104011  25.0863421  37.4129806   6.8541467  25.4247799  37.1209455
   3.1377430  26.5976772  36.8289104   3.3733019  26.7421971  36.0015954
   3.2866993  27.3619180  37.2220617   3.1943233  26.7315827  36.7652708
   4.9667886  25.4378438  34.6658708   5.2976104  25.9706078  34.0598802
   5.5400975  25.4917326  35.3220659   5.1001566  25.5248007  34.6736489
   6.0747238  20.6788935  36.1698869   5.8183803  19.8668877  35.9796752
   6.9176552  20.6866502  35.9429056   6.1613263  20.5600933  36.1083686
   3.7572397  27.8338531  46.0057422   3.5211035  27.0026596  45.8869482
   4.4015626  27.7824138  46.5912266   3.8167068  27.7036219  46.0743315
   4.7808818  27.6182980  42.0685716   4.4754635  28.3511037  42.4299032
   4.0615034  27.2120909  41.7878502   4.6296160  27.6664713  42.0798853
  10.4810610  24.2575981  41.3954060  10.4135110  24.2771940  40.5256647
  10.4666272  25.1006308  41.6209731  10.4689366  24.3849715  41.3006537
   8.2669227  23.0320367  39.6700655   8.8177149  22.3988436  39.9097747
   8.2513343  23.5635760  40.3616159   8.3454424  23.0169315  39.8079513
   1.9697634  21.2716700  38.7805251   1.6262399  20.5507036  39.1312501
   2.0690676  21.0630552  37.9383609   1.9339676  21.1340904  38.7076931
   2.4310663  27.7342404  34.3229239   2.9968695  28.3935614  34.2387782
   1.7838566  28.0792103  34.7945641   2.4189419  27.8824346  34.3801996
   4.3646123  24.3976272  37.9426036   4.2780097  24.5531698  38.7960815
   3.9096603  25.0414347  37.5685441   4.2849379  24.5152027  38.0133143
   2.1319988  28.4270378  40.3538377   1.9934347  29.1251424  40.8587119
   1.3519986  28.2719035  39.9974558   1.9963215  28.5070545  40.3764651
   3.6273361  27.7848632  31.1154876   3.2480169  26.9985770  31.1084165
   2.9639606  28.3335489  30.9726520   3.4731835  27.7493456  31.0935673
   1.8733459  30.0294123  31.4506562   1.9553297  30.8361109  31.1268012
   2.3583202  30.0490082  32.1747335   1.9570617  30.1514786  31.5093460
   1.3808660  28.7891541  51.5324887   2.1943525  28.5176690  51.6930020
   1.2203626  28.4899081  50.7285083   1.4778608  28.7046467  51.4370293
   1.3929904  29.8497832  46.8047728   2.0309624  29.3558027  46.4710184
   0.7503995  29.7775232  46.2199955   1.3924130  29.7656840  46.6690083
   3.1186904  21.6986978  41.3713644   2.6914512  21.6113326  40.6161743
   2.4812957  21.8064753  41.9568488   2.9616511  21.7019638  41.3459085
   3.5551672  15.1058961  37.4872269   2.9425986  15.5929363  37.8726001
   3.6515847  14.4302452  38.0309920   3.4789570  15.0777270  37.6251127
   7.1976700  26.1775898  42.9149785   7.2559824  26.6262546  43.6609761
   6.5643168  26.5874711  42.4779865   7.1127995  26.3049632  42.9602333
   4.1498380  24.1992185  41.0015475   3.9096602  23.3598601  41.0057902
   4.6290387  24.2792352  41.7256249   4.1850563  24.0873585  41.1090277
   6.1503567  20.9793643  38.9544734   5.9113337  20.9389477  38.1165519
   6.3137468  21.8264795  39.0810455   6.1393870  21.0985728  38.8498216
   2.7549597  25.3643592  44.8849779   3.4783796  24.9116118  44.7060799
   2.4899559  25.6448258  44.1022107   2.8230870  25.3394560  44.7428495
   5.1884911  24.3270003  43.3880329   5.7802751  24.9667253  43.4198527
   5.6243905  23.6293039  43.6772396   5.3403342  24.3188353  43.4361162
   2.2134052  21.5415221  35.6883472   1.5425242  22.0844924  35.5596537
   2.9073802  22.0110077  35.4465166   2.2162920  21.6913493  35.6338999
   2.3762179  17.9971105  38.5973845   2.7289790  17.5700828  39.2719644
   1.5176981  17.9121949  38.7274921   2.3011624  17.9215846  38.7168855
   3.8086240  13.1189517  39.5258157   3.3017104  12.4118656  39.4579335
   4.6053673  12.7882706  39.6559234   3.8513479  12.9662668  39.5357152
   6.0106380  27.6354443  32.5099022   6.3939985  28.3845800  32.7397119
   5.2150493  27.8820263  32.2511011   5.9500162  27.7824137  32.5056595
   2.4506962  18.6156066  35.6734979   2.4501188  18.4604723  36.5319256
   2.2463142  19.4619053  35.6176365   2.4206739  18.7176687  35.7922919
   2.2399633  26.0457256  42.0148315   2.6654704  25.5231678  41.4618740
   1.8756552  26.6438093  41.4936938   2.2486235  26.0567483  41.8557325
   0.9155217  31.3692833  50.5241545   1.0252182  30.5801394  50.8798292
   1.2446113  31.2798770  49.7215883   0.9807622  31.2398686  50.4583935
   2.2746043  17.6194809  42.4928357   1.6909031  18.1204015  42.0805925
   2.5950337  17.1124365  41.8592681   2.2359218  17.6186644  42.3386865
  15.5024155  38.2125378  34.6029383  15.4718159  39.0670015  34.7747652
  16.1005504  37.9120671  35.1615526  15.5861313  38.2941875  34.7104185
   8.7023840  37.3001030  39.3582313   7.8461735  37.4609528  39.4091430
   8.7491494  36.4293093  39.3787374   8.5822951  37.1951831  39.3688379
   3.0864980  46.8363747  35.1219545   2.3347879  46.4579286  34.8935590
   3.5350991  46.8682181  34.3738355   3.0414646  46.7849355  34.9777047
  12.0117556  43.5687555  48.9642769  12.7184324  43.0739586  49.0929704
  12.2005492  44.0096637  48.2345427  12.1445462  43.5605905  48.8751815
   8.5389939  47.2589117  30.5505092   8.2041308  47.9366038  30.1149314
   9.0516810  46.8694428  29.9621963   8.5655521  47.3013695  30.3991883
   8.0794231  49.2103386  36.4916203   8.4633610  49.7790284  35.9520979
   8.0153372  48.4852896  36.0122019   8.1267658  49.1878849  36.3410066
  11.5475661  39.3593073  42.0013965  12.0931621  40.0378160  42.0607934
  11.4892537  39.2180534  41.1415546  11.6191575  39.4385075  41.8826025
   4.6649736  46.8482140  37.3882317   4.7660099  46.0382493  37.6979445
   4.0691481  46.7539086  36.7581996   4.5922274  46.7147168  37.3408556
  13.3240729  40.7877681  32.8747693  13.2080255  41.5385367  33.3039831
  14.1196616  40.5301634  33.1243780  13.4245319  40.8612527  32.9751784
   4.5050475  51.7659729  38.7897173   5.1487931  52.2072893  39.1793332
   4.8306731  50.9613155  38.7027432   4.6482304  51.7124923  38.8342650
   5.2071055  44.7771704  34.1617035   5.5286896  45.3176911  33.5578343
   5.8543152  44.2068475  34.2939325   5.3497110  44.7730879  34.0924070
   7.2572763  36.7787698  34.2451422   7.9552928  36.9575826  34.7372885
   7.5725096  36.2558038  33.6221811   7.4068100  36.7281471  34.2253432
   7.4460698  43.1658144  34.2331213   7.8854334  42.5575244  34.6785986
   7.2965361  42.7865517  33.4616678   7.4882164  43.0196615  34.1850380
   4.9132341  41.7602155  41.4350039   5.5581344  41.2674598  41.1160987
   5.1534119  41.9026942  42.2616117   5.0442927  41.7079598  41.5099572
   7.4518433  44.6057061  41.0856931   7.7341676  43.8108467  40.8643687
   8.1804593  45.0837649  41.1061992   7.6007997  44.5591658  41.0559946
   5.4299627  32.1480095  38.3272696   5.1002957  32.5991239  37.6576395
   4.7544628  32.0696258  38.8745703   5.2810063  32.2031230  38.3095920
  11.0470035  41.5185325  31.1861982  10.9621330  42.3746291  31.3311551
  11.5354418  41.2429649  31.8544141  11.1058932  41.6042646  31.3064064
  12.6376034  28.1365618  36.5722307  12.3229475  28.8269097  37.0042729
  12.1202976  28.0810400  35.8707808  12.5140505  28.2300507  36.5319256
  11.9788468  38.1370119  32.6859717  11.4499940  38.3529753  33.3457024
  12.5013488  38.8306257  32.6060687  11.9776921  38.2713256  32.7715317
  17.4336521  43.7116423  38.0592762  16.6034224  43.9227067  38.2226178
  17.3845773  42.8853478  37.7835046  17.3043257  43.6206030  38.0430127
   3.8688076  42.0333336  31.4867185   3.2845291  42.5383367  31.8933049
   3.4658171  41.8075723  30.7463777   3.7227380  42.0741584  31.4372211
   5.4946259  46.5420278  40.8940671   4.9773200  46.1827693  40.2901980
   6.1920650  46.0182452  40.9046738   5.5211840  46.4117966  40.8070930
   9.1509851  46.9915092  46.8556844   9.2393197  46.8041232  47.7035055
   9.5799563  46.3452521  46.4561691   9.2271953  46.8678099  46.9228596
   6.7180310  46.2746252  45.8374507   6.1551145  45.8618861  46.3614168
   7.4801334  46.1999157  46.2567650   6.7474759  46.2023652  45.9767507
   8.3265290  38.2798988  29.9636106   8.5661294  38.4876972  29.1511449
   8.6481131  37.4756497  30.0725051   8.4102448  38.1913089  29.8596659
   3.6355581  30.2092384  33.8095644   4.3901549  30.5770701  33.5712694
   3.4583115  30.5831938  34.5774824   3.7210059  30.3190571  33.8880532
   2.2776302  48.2644273  38.4411137   2.9796881  47.7496262  38.4983893
   2.1973785  48.5918424  39.2458012   2.3700062  48.2358499  38.5683929
  16.9290479  36.3586824  41.8543183  16.0918901  36.4289011  42.0890778
  16.8978710  36.3611319  40.9817486  16.8008762  36.3697051  41.7602731
   3.3255208  38.5019860  47.5691552   3.4975712  38.3925754  48.4176833
   3.8624566  39.1474265  47.3322744   3.4300212  38.5811861  47.6596649
   1.9912645  32.6162703  30.5073757   1.8088219  32.8334583  29.6814750
   2.8538258  32.7301715  30.5632371   2.0917235  32.6652600  30.3928244
   1.6027077  44.4550625  37.9496745   2.4415977  44.6873558  37.9970506
   1.6338847  43.5854936  37.8803780   1.7308795  44.3607571  37.9461390
   2.2279780  44.8751500  42.2510050   2.7678005  44.7322631  42.9213423
   1.5449727  45.2748251  42.6194077   2.2071934  44.9131171  42.4044472
   7.6712365  29.6189113  33.5422781   8.3998525  29.4405068  33.0960937
   7.7607257  30.4607193  33.7529959   7.7919027  29.7172992  33.5076298
  11.6520665  40.5542501  37.4455075  12.4078180  40.9874015  37.4843983
  11.7582990  39.9047270  38.0189711  11.7790836  40.5219984  37.5353100
  14.6900836  44.3815778  38.1957478  14.2536068  44.3852520  38.9516449
  14.3563752  45.0621277  37.7637055  14.5763456  44.4828234  38.2438310
   9.2629910  46.4224111  49.5200628  10.0470327  46.5354958  49.8856370
   9.0626505  45.5965248  49.7159314   9.3495935  46.3170830  49.6035014
  14.6098319  31.4229606  40.4386906  15.2524228  31.4927710  41.0248821
  14.8621340  30.7558829  39.9366448  14.7420451  31.3355954  40.4514185
   1.5374672  35.8936875  29.0196230   0.8232850  35.6075055  29.4318663
   2.0218641  36.2333501  29.6602617   1.5034036  35.9018525  29.1751865
   2.3815532  34.6330169  45.0511480   1.6887329  34.1627149  45.2972211
   2.9975859  34.4068474  45.6253187   2.3700062  34.5297301  45.1720632
   9.4200303  48.3334213  43.1667084   8.6215549  48.0933713  43.4240952
   9.8686315  48.3848606  43.9134131   9.3674915  48.3056604  43.3152008
   8.7121990  44.3966829  29.3958038   9.1273139  44.0651853  28.7042534
   7.8813920  44.1635731  29.2678175   8.6509999  44.3138085  29.2748886
  14.1110013  42.1162080  36.8289104  14.3465602  42.2607279  36.0015954
  14.2599577  42.8804488  37.2220617  14.1675817  42.2501135  36.7652708
   1.1056091  38.5995573  46.1938325   1.8296063  38.5848604  46.6803220
   1.2072227  39.3090928  45.6960293   1.2274300  38.7020276  46.1917112
  15.9400470  40.9563746  34.6658708  16.2708687  41.4891386  34.0598802
  16.5133558  41.0102634  35.3220659  16.0734149  41.0433315  34.6736489
   8.4801040  42.0794658  51.0587272   7.6874021  42.3938170  51.2439891
   8.5949967  42.2946126  50.2208056   8.3796451  42.1578494  50.9625607
  11.1532359  38.8028649  35.3482288  11.2479214  39.5417943  35.8021913
  10.5291203  38.3746124  35.7816852  11.0741389  38.8489969  35.4790435
   9.4084833  41.9814861  45.9972569   9.9823695  41.3442106  46.1521132
   9.3299637  41.9818944  45.1282226   9.4818068  41.8879973  45.8918979
  11.4055380  40.6477389  28.5819240  11.3235543  40.7179576  29.4474227
  12.0435101  41.2107133  28.3902980  11.4875218  40.7416360  28.6809189
   4.7648552  40.4138127  38.0493766   4.5067796  39.5809861  38.0225065
   4.8197034  40.6395740  37.2086266   4.7348329  40.3235898  37.9213903
   9.8449602  32.5166577  38.1497859   9.1405928  32.0275763  38.3081778
   9.8934576  32.5289052  37.2786303   9.7479653  32.4456225  38.0437198
   3.7383264  37.9675889  38.5358661   3.1632855  38.1268057  39.1722622
   3.3618940  37.3311298  38.0727111   3.5986076  37.8973702  38.5613219
   7.4056552  36.4399238  43.3951039   7.0170985  36.0153456  42.7403230
   6.7411251  36.6881388  43.9028066   7.2503480  36.4137959  43.3738907
  17.0479822  36.1974243  36.1698869  16.7916386  35.3854184  35.9796752
  17.8909135  36.2051810  35.9429056  17.1345847  36.0786240  36.1083686
  11.2282914  30.1373867  40.9075023  11.6093426  29.4552038  41.2942898
  10.4246198  29.8483469  40.7250688  11.1659376  29.9940916  40.9379079
   8.5095491  40.6697843  31.5927846   9.3236129  40.9612736  31.4810617
   8.4454632  40.0157705  31.0186139   8.6198230  40.6163038  31.4916683
  14.7304981  43.3523839  46.0057422  14.4943618  42.5211904  45.8869482
  15.3748210  43.3009446  46.5912266  14.7899652  43.2221527  46.0743315
   4.3803399  44.1419360  36.7200158   5.0177346  43.9031108  37.2651952
   4.8058470  44.3456519  35.9853319   4.5379565  44.1370371  36.6917316
   5.0206214  39.3621650  31.0575048   5.4051367  39.1429357  31.8091593
   4.7717834  40.1884596  31.1876124   5.0408287  39.4519796  31.1876124
   5.1874754  32.6428065  50.7737632   4.8728195  33.4127628  50.5107195
   4.8664687  32.0798321  50.1889859   5.0933673  32.6738334  50.6478982
  15.7541401  43.1368288  42.0685716  15.4487218  43.8696345  42.4299032
  15.0347617  42.7306217  41.7878502  15.6028744  43.1850021  42.0798853
   6.7624871  44.6191783  38.3993944   6.8363879  44.4566955  39.2535794
   7.5794377  44.8081973  38.1554426   6.8941229  44.6228525  38.4891970
   2.7406651  31.0318587  36.3883828   1.8729077  31.1041186  36.4541437
   3.0281856  31.8340666  36.5771803   2.6546399  31.1612734  36.4258595
  11.8639540  31.1796446  44.7195150  12.6093132  30.9906257  44.3058575
  11.4476845  31.7054684  44.1609006  11.9124514  31.2298592  44.5759723
   5.3029457  47.5826526  33.1307418   5.5927755  47.1915507  32.4066644
   6.0332937  47.7643231  33.5712693   5.4536341  47.5520340  33.0890225
   5.8924202  42.3844272  44.2160548   5.3935895  43.0960040  44.2945437
   6.7024426  42.7044939  44.1778711   5.9380308  42.5371121  44.2217117
   3.2435372  49.5593908  36.1967568   3.0235668  49.2691263  36.9894235
   3.0229894  48.9008863  35.6685480   3.1782966  49.4193617  36.2356476
   2.1552319  41.6467225  38.4623269   1.8665568  41.0204696  38.9968997
   3.0235667  41.5887512  38.5287950   2.2412571  41.5454769  38.5514224
  12.9430217  36.7902008  38.7805251  12.5994983  36.0692344  39.1312501
  13.0423260  36.5815859  37.9383609  12.9072260  36.6526212  38.7076931
   5.4103328  50.9323298  34.9798260   6.0627386  50.3999741  35.2089286
   4.7128937  50.5791951  35.3666134   5.4034046  50.8012821  35.0710428
   2.3584593  43.2862476  34.3865634   3.1130561  43.6675515  34.6001097
   1.7655205  43.7373620  34.8412331   2.3821306  43.4091303  34.4848513
  13.4043246  43.2527712  34.3229239  13.9701279  43.9120922  34.2387782
  12.7571150  43.5977410  34.7945641  13.3922003  43.4009654  34.3801996
   4.8191260  35.2425316  49.5122847   4.0091035  35.5483096  49.4012689
   5.2965946  35.9630899  49.6275431   4.7694739  35.3939918  49.5129918
   3.6782819  44.4571037  39.7605750   3.1563573  44.5971329  40.4457614
   4.0656840  43.6981702  39.9507867   3.6586520  44.3656561  39.8906826
   9.8749824  46.1966497  33.7466318   9.6336500  45.4634357  33.3393383
  10.0551157  46.7453354  33.0932652   9.8657448  46.1688888  33.5896541
   3.5027675  38.3729794  35.2768109   4.2250327  38.5370952  34.8171915
   3.0235668  39.0939459  35.1707449   3.5391406  38.5028024  35.1933723
  11.4621183  34.7093593  40.6564794  10.6232283  34.7354872  40.4203057
  11.5325550  35.3564329  41.2370141  11.3489576  34.8089719  40.7073911
   1.1535292  40.7787867  44.3822249   1.6656389  41.0572120  43.7331009
   0.8671634  41.5177161  44.7485062   1.1870155  40.9290220  44.3412127
   9.9090461  31.6078970  35.3892410  10.6116814  31.4086718  34.9112368
   9.6434650  30.8354912  35.6961253   9.9737093  31.4641936  35.3637852
  15.3378706  39.9161580  37.9426036  15.2512681  40.0717006  38.7960815
  14.8829186  40.5599655  37.5685441  15.2581963  40.0337335  38.0133143
   4.6719017  32.8714255  44.4423291   4.4802214  32.8869390  45.2922714
   5.5217613  33.0677930  44.4189945   4.7694739  32.9028606  44.5646585
  13.1052571  43.9455686  40.3538377  12.9666931  44.6436732  40.8587119
  12.3252569  43.7904343  39.9974558  12.9695798  44.0255853  40.3764651
  11.4430656  40.2452062  46.6060758  11.4378695  39.3731878  46.6103185
  12.1491650  40.4440231  46.1330214  11.5475660  40.1455936  46.5367794
   5.1701550  39.9729046  45.9774578   5.3144925  40.5530254  45.3417688
   5.5177198  40.3505342  46.6824433   5.2429011  40.1149750  45.9873573
   7.3421467  39.1719214  43.7599710   6.5944781  39.3650228  43.3547988
   7.4962992  38.3464433  43.5223831   7.2543895  39.0784325  43.6645116
   4.2429305  48.1631817  42.8435605   4.3918868  47.6034733  42.1909010
   5.0229307  48.2423819  43.2268124   4.3803398  48.0917383  42.8032554
  14.6005944  43.3033940  31.1154876  14.2212753  42.5171078  31.1084165
  13.9372190  43.8520797  30.9726520  14.4464419  43.2678764  31.0935673
   6.7682605  48.3346460  44.1220096   6.6926276  47.6655271  44.6770884
   6.6972464  49.0364248  44.6360762   6.7463212  48.3391368  44.2796944
   7.5823244  33.0669765  44.6495114   8.0395858  33.7993739  44.7767906
   7.6579573  32.6436230  45.4082369   7.6614214  33.1127003  44.7796190
  12.0550570  26.2459640  38.5188957  12.1734138  26.7036103  37.7856259
  11.8812746  25.4404901  38.2325174  12.0469741  26.1953412  38.3689890
   7.4252852  46.8547459  34.9543702   8.1902743  46.5857103  34.6326366
   7.3230942  46.3697469  35.6713765   7.5234348  46.7437024  35.0123530
   5.4605622  35.0571869  41.4936938   4.6701697  34.8763329  41.8154274
   5.8566245  34.2798821  41.4767232   5.4022498  34.9159329  41.5389486
   9.9471513  43.8859643  26.9343651  10.7144498  43.9459768  26.5249503
   9.5002822  43.3140084  26.4499970   9.9944940  43.8096219  26.8021362
  10.8449308  42.6914299  39.2196384  10.1694310  42.4599531  39.7209771
  10.8541684  42.0835482  38.5938489  10.7467813  42.5673224  39.2012536
   7.9743452  37.5332128  45.9760437   7.9102594  38.3942084  45.8480573
   8.1140640  37.2164121  45.1755988   7.9858922  37.6132294  45.8388649
  12.8466043  45.5479431  31.4506562  12.9285880  46.3546417  31.1268012
  13.3315785  45.5675390  32.1747335  12.9303201  45.6700093  31.5093460
   6.6562546  40.2264267  40.1176640   6.2324795  40.4268766  39.3815658
   6.4807401  39.3793115  40.2300939   6.5673427  40.1313048  40.0250330
   6.1574240  51.7414780  42.5798097   6.6470170  51.0425569  42.3973761
   5.5858472  51.4438650  43.1674154   6.1458770  51.5941004  42.6399138
   1.9444991  40.7216318  35.5504612   2.1009610  40.6563121  36.4060604
   2.2845584  41.4964871  35.3383292   2.0178226  40.8265517  35.6459206
   8.4824136  40.0974202  34.4197975   9.0239681  39.5944583  34.8836596
   8.7970695  40.0439397  33.6087461   8.6088533  40.0153623  34.3681787
  12.3541243  44.3076849  51.5324887  13.1676108  44.0361998  51.6930020
  12.1936210  44.0084389  50.7285083  12.4511192  44.2231775  51.4370293
   6.6510585  45.4891554  31.7038003   6.7203406  44.6306092  31.8431004
   7.4299041  45.7063434  31.3757028   6.7763436  45.3944418  31.6755161
   9.6313405  34.9910507  44.4720276   9.8455375  34.3521421  43.9183630
   9.0147304  35.4356330  44.0428137   9.5718734  34.9620650  44.3270707
  11.0418073  47.9129255  35.9174497  10.6497865  47.6095970  35.1997363
  11.1971145  48.7498345  35.7279450  11.0071663  47.9913092  35.7830994
  11.7952493  36.5999572  45.4103583  10.9829175  36.2925462  45.4916756
  12.2542428  36.1198572  45.9746295  11.7432878  36.4836064  45.5058177
  11.2057748  44.4779244  35.8580527  10.8472403  44.6493887  36.6344560
  10.7196459  44.9392449  35.3008526  11.0816445  44.5718215  35.8905796
   9.0228134  28.1010442  39.4607619   8.1521692  28.0749163  39.4140928
   9.2768475  27.9287634  38.6433464   8.9321694  28.0720586  39.3327755
   5.9946113  40.1578409  28.3980762   6.2838638  40.9343292  28.6724336
   6.0817912  39.6467141  29.0995261   6.0500369  40.1970327  28.5423259
   8.8906001  38.0059643  50.1932285   9.3605632  38.6301760  50.5800159
   8.9367881  37.3376619  50.7525500   8.9673877  37.9994323  50.3332357
   6.0477274  30.1116671  40.9181089   5.5315763  29.4196862  41.0432668
   5.4871203  30.7787448  40.8643688   5.8883788  30.1079928  40.9287155
   8.1169508  30.6509631  42.7473941   7.7301261  30.6758662  43.5287471
   7.6302445  30.0851309  42.2948458   7.9882017  30.5705382  42.7961845
  12.3662487  45.3683140  46.8047728  13.0042208  44.8743335  46.4710184
  11.7236579  45.2960540  46.2199955  12.3656714  45.2842148  46.6690083
  14.0919487  37.2172286  41.3713644  13.6647095  37.1298634  40.6161743
  13.4545540  37.3250061  41.9568488  13.9349095  37.2204945  41.3459085
   7.7826650  27.5376616  45.0384201   8.4119767  28.0736916  44.7605272
   7.9512512  27.4453975  45.8897767   7.9004444  27.6037978  45.1232730
   7.5840564  32.3247811  47.3110613   8.4113994  32.0532960  47.3669227
   7.6048410  33.1208653  47.6674431   7.7093414  32.4027565  47.3725796
  12.4216744  46.0602948  43.4453085  13.2109122  45.7092013  43.5655166
  12.5960342  46.8739336  43.1829719  12.5637025  46.1288805  43.4240953
   2.1610054  39.4711674  40.4980874   1.3198061  39.3715548  40.7059767
   2.3700062  40.2407154  40.8495194   2.0674747  39.5703717  40.5808189
  11.2750568  30.0712505  38.0069503  11.4800161  30.0034813  38.8526500
  10.9476992  30.8771326  37.9390681  11.2565816  30.1798445  38.1229158
   5.9726719  37.3993073  39.7478471   5.6689857  36.8449061  40.3488879
   5.2706140  37.5785283  39.2606505   5.8242929  37.3437855  39.7648177
   5.0292816  34.7093593  34.3123173   5.3052551  33.9912505  33.9000741
   5.6291485  35.3078513  34.1044279   5.1586081  34.6913963  34.2203934
   4.0345070  44.6142794  44.4550569   3.9265425  44.6244856  45.3212627
   4.2440852  45.4397574  44.2655523   4.0495181  44.7383868  44.5554661
  14.5284256  30.6244269  37.4872269  13.9158569  31.1114671  37.8726001
  14.6248431  29.9487760  38.0309920  14.4522153  30.5962578  37.6251127
   8.5303337  32.3807110  32.5869768   8.9847083  32.5517670  33.3117613
   9.0043382  31.7675221  32.1867544   8.6671657  32.3157995  32.6343530
   2.0518862  41.8655436  41.9172507   1.4606795  42.5064934  41.8875522
   2.8139886  42.2893053  41.8903806   2.0767123  42.0231274  41.9087654
   2.4479485  33.0257434  42.5840524   2.9080966  33.0996363  43.3215648
   2.4935592  33.8238688  42.2340346   2.5230040  33.1551581  42.6413281
   4.0962835  33.6924129  47.1512551   3.7048400  33.0457476  47.5868329
   4.2648697  34.2835564  47.7706807   4.0633745  33.6838396  47.3075257
  18.1709284  41.6961206  42.9149785  18.2292407  42.1447854  43.6609761
  17.5375751  42.1060018  42.4779865  18.0860579  41.8234940  42.9602333
  11.8108378  47.3164748  39.3504531  11.6128067  47.8055562  38.6560742
  11.1896089  47.5205989  39.9288664  11.6895943  47.4181286  39.3327754
   5.8716357  39.0849644  33.6914775   6.6158402  39.4723921  33.9297725
   6.0177053  38.2407070  33.8555263   6.0026942  39.0180117  33.7508745
   7.7895932  30.8799903  38.7246637   6.9431977  31.0522711  38.5987987
   7.7867065  30.0749247  39.0612465   7.6643082  30.7860932  38.7557764
   8.8594233  34.6575118  39.5908695   8.3854187  34.1316880  40.1014006
   9.2312368  34.1104591  39.0223556   8.8444121  34.4991114  39.5823842
  15.1230963  39.7177493  41.0015475  14.8829186  38.8783909  41.0057902
  15.6022970  39.7977660  41.7256249  15.1583147  39.6058893  41.1090277
  10.7877732  35.5511672  32.6534448  10.2600751  35.6340416  31.9640157
  11.2473440  36.2929544  32.6499093  10.7779583  35.6732335  32.5509144
  17.1236150  36.4978951  38.9544734  16.8845920  36.4574785  38.1165519
  17.2870051  37.3450103  39.0810455  17.1126454  36.6171036  38.8498216
  13.7282180  40.8828900  44.8849779  14.4516379  40.4301426  44.7060799
  13.4632143  41.1633566  44.1022107  13.7963454  40.8579868  44.7428495
   2.5969049  35.4789073  41.6202659   1.9722119  35.4907465  41.0128611
   2.2614644  35.9549249  42.2693899   2.4554540  35.5507590  41.6259227
   2.7810797  33.8214192  27.6775344   2.4323602  34.4733917  28.1406893
   2.3007243  33.8071305  26.9499215   2.6581041  33.9157245  27.6386435
  10.3414815  44.1215236  31.7844105  11.0649014  44.5873349  31.6408679
   9.9015406  44.1888845  31.0341702  10.3830507  44.1999073  31.6528887
   9.5100970  40.9812778  43.0344794   8.8957963  40.4370828  43.3293430
  10.0268255  40.4677015  42.5550611   9.4956632  40.8249187  43.0069023
   8.7497267  42.0517048  40.7689093   8.3224875  41.4266767  40.3354528
   8.7422211  41.7691970  41.5948100   8.6856408  41.9169829  40.8268921
   1.8659794  37.0882221  43.8377527   2.0253281  36.3325545  44.2429249
   1.6852688  37.6373161  44.4918265   1.8625153  37.0576035  43.9940233
   9.8080097  29.2543457  44.3928317   9.3120658  29.4507131  43.7019883
  10.5649159  29.6536125  44.2217118   9.8466922  29.3421191  44.2648453
   7.0782977  32.9285803  40.9831627   7.1025464  32.3945915  40.2944407
   7.3294450  32.4203111  41.6457218   7.1192895  32.7746707  40.9796272
   3.3584299  31.6556621  40.3637371   3.3982670  32.1565828  41.0772079
   2.5333963  31.7467015  40.0943294   3.2423825  31.7438437  40.4287910
   5.5413912  41.2217361  48.4657666   4.6909542  41.3589075  48.6015311
   5.7042039  40.4881139  48.9105368   5.4397775  41.1331462  48.5513265
   4.7798662  38.1717131  42.6611270   3.9490592  38.3390949  42.4546519
   4.7250179  37.7953082  43.4460156   4.6488077  38.1406862  42.7459799
   2.5882445  31.6626024  48.2967681   3.2135149  31.1188156  48.5697113
   2.1332925  31.1820941  47.7275471   2.6130706  31.5115505  48.2529275
   3.1534706  36.4472722  33.1901388   3.2937667  36.9445187  33.8930029
   3.6517239  35.7459017  33.3315602   3.2475787  36.4174701  33.3152967
   3.1834928  37.3139833  30.5193965   3.8180008  37.9100258  30.4543427
   3.2660539  37.0143291  31.3339835   3.2891479  37.3580741  30.6297051
  16.1617494  39.8455311  43.3880329  16.7535334  40.4852561  43.4198527
  16.5976489  39.1478347  43.6772396  16.3135925  39.8373661  43.4361162
   4.7613911  33.2453809  30.4939407   5.0829752  32.7656891  29.8398669
   5.0240855  34.0553455  30.3030219   4.8479937  33.2943707  30.3694899
   7.9910884  44.2672683  44.0138223   7.4835975  44.8208530  44.4578854
   7.6937530  44.3280973  43.1956998   7.8715769  44.3578994  43.9586680
  10.1573066  32.6326003  42.8562886  10.5828138  32.1798529  42.2446412
   9.5430059  32.0786073  43.1327673  10.1301712  32.4839979  42.8067911
  10.6018664  48.1835941  31.9442167   9.8847974  48.0096803  31.4789404
  11.2525402  47.9488513  31.4117653  10.5920515  48.1231733  31.7971384
   8.5967289  29.1041103  36.2653463   7.9535607  28.9538749  36.8338601
   8.2566696  28.8583448  35.5002568   8.4512366  29.0453225  36.2356478
   7.2353369  49.1997241  40.9195230   7.0119024  48.4416071  41.2879256
   6.7463213  49.2295263  40.1975670   7.1296818  49.0919466  40.8671971
  13.3494763  33.5156413  38.5973845  13.7022373  33.0886136  39.2719644
  12.4909565  33.4307256  38.7274921  13.2744208  33.4401154  38.7168855
   2.0478448  36.1463933  36.6556691   1.3290437  36.5628065  36.9229555
   2.4190810  36.7118171  36.1048330   1.9970380  36.2913214  36.6139498
  11.3478029  36.7791782  42.5458687  11.3275956  36.5975077  43.3993466
  11.3957230  37.6503800  42.5218271  11.3512670  36.8808320  42.6681982
   9.2924359  43.3678974  48.4707164   9.2520214  42.7228650  47.8852320
  10.1047677  43.3115591  48.7832576   9.4067512  43.2637940  48.4304113
   5.8831826  49.4197699  38.3732315   5.4692225  48.7571830  37.9836156
   6.5679201  49.5675558  37.8528009   5.9230198  49.3438358  38.2388812
   9.2497120  48.5787785  39.1255931   8.8513404  48.6890055  38.3576751
   8.6348340  48.7869851  39.7082491   9.0996010  48.6261353  39.0987230
   7.8225022  35.1861933  31.9930071   7.2289862  35.5078929  31.4414638
   7.8600300  34.3403028  31.7851177   7.7399412  35.1086261  31.8812842
  14.7818823  28.6374825  39.5258157  14.2749688  27.9303964  39.4579335
  15.5786257  28.3068014  39.6559234  14.8246062  28.4847976  39.5357152
  10.6982839  35.1441437  35.4231821  10.4696532  35.1674138  34.5810179
  10.9580915  34.3198904  35.5426832  10.7029027  35.0257517  35.3157019
   4.9802067  36.9975910  45.0256921   4.4680971  36.3897093  45.3841953
   4.8081564  37.7132503  45.4930897   4.8791704  37.0139209  45.1473145
   3.7527601  33.6817983  36.7186017   4.2284968  34.0435063  36.0836198
   3.2516201  34.3374451  36.9986159   3.7492960  33.8312172  36.6662758
  16.9838963  43.1539751  32.5099022  17.3672569  43.9031108  32.7397119
  16.1883076  43.4005571  32.2511011  16.9232745  43.3009445  32.5056595
   8.8571138  34.9200155  47.4659177   9.4142568  34.6913964  46.8337642
   8.5332203  35.6805820  47.1894389   8.8917548  34.9983991  47.3315674
   6.5754255  38.0067808  48.4311184   7.3265582  38.3219485  48.7450738
   6.7676832  37.8046979  47.6045106   6.7145669  38.0235190  48.3554580
   5.7954255  35.8259183  30.0859401   6.1753219  35.8438812  29.3010515
   5.0546851  36.2713172  29.9650248   5.7423092  35.8940958  29.9522969
  13.4239545  34.1341374  35.6734979  13.4233772  33.9790031  36.5319256
  13.2195725  34.9804361  35.6176365  13.3939323  34.2361995  35.7922919
  11.1480397  38.8138876  39.3271186  11.6434063  38.0961871  39.2875207
  10.3380173  38.5109674  39.2125673  11.1024291  38.6636522  39.3044912
   6.5939009  42.6636689  31.4768191   5.7850331  42.3403363  31.4301500
   7.1013918  41.9569911  31.4096439   6.5488676  42.5118006  31.4598485
  13.2132216  41.5642564  42.0148315  13.6387288  41.0416985  41.4618740
  12.8489136  42.1623401  41.4936938  13.2218819  41.5752791  41.8557325
   2.8486296  49.8606781  40.7745661   3.1632855  50.6743170  40.7823442
   3.2579709  49.4757000  41.4427820   2.9554394  49.9235484  40.8749752
   9.8010816  45.2776828  38.3449472  10.2721994  45.9917090  38.5139458
  10.1370994  44.6775578  38.8809342   9.9205931  45.2948292  38.4481848
  11.8887800  46.8878141  50.5241545  11.9984766  46.0986702  50.8798292
  12.2178697  46.7984077  49.7215883  11.9540206  46.7583994  50.4583935
   6.7180311  30.0504298  45.3007567   6.8508216  29.2535292  45.6288543
   7.1025463  30.5770701  45.8805843   6.7936639  30.0104215  45.4351070
  10.4384762  45.0694762  45.1077165   9.8905708  44.4452646  44.8397230
  10.8997791  45.2589034  44.3921245  10.4251971  45.0053812  44.9627596
   9.7912666  26.9734625  41.8988661   8.9858629  26.8632354  42.2156499
   9.6619401  27.0747080  41.0418526   9.6532799  26.9718295  41.8196701
  13.2478626  33.1380117  42.4928357  12.6641615  33.6389323  42.0805925
  13.5682920  32.6309673  41.8592681  13.2091802  33.1371952  42.3386865
   5.7873425  32.0520711  32.7687032   6.6089120  32.2219024  32.5268727
   5.3243076  32.2067972  32.0453330   5.8404588  32.1002444  32.6258677
   4.3768757  30.0463474  43.5485461   4.9213170  29.7054600  44.1389803
   4.4305693  30.9048935  43.6906746   4.4657877  30.1218733  43.6567334
  10.0043088  46.0745835  41.6386506  10.8241462  45.9308801  41.9002801
   9.7237166  46.6992034  42.1802944  10.0839832  46.1456187  41.7574446
  19.6756423  52.8186337  39.3582313  18.8194319  52.9794836  39.4091430
  19.7224077  51.9478401  39.3787374  19.5555535  52.7137139  39.3688379
  14.0597563  62.3549055  35.1219545  13.3080463  61.9764594  34.8935590
  14.5083575  62.3867489  34.3738355  14.0147230  62.3034662  34.9777047
  22.9850140  59.0872863  48.9642769  23.6916907  58.5924894  49.0929704
  23.1738075  59.5281945  48.2345427  23.1178046  59.0791213  48.8751815
  19.5122523  62.7774425  30.5505092  19.1773891  63.4551346  30.1149314
  20.0249393  62.3879736  29.9621963  19.5388104  62.8199003  30.3991883
  19.0526814  64.7288694  36.4916203  19.4366194  65.2975592  35.9520979
  18.9885956  64.0038204  36.0122019  19.1000242  64.7064157  36.3410066
  22.5208244  54.8778381  42.0013965  23.0664204  55.5563468  42.0607934
  22.4625121  54.7365842  41.1415546  22.5924159  54.9570383  41.8826025
  15.6382319  62.3667447  37.3882317  15.7392682  61.5567801  37.6979445
  15.0424065  62.2724394  36.7581996  15.5654858  62.2332476  37.3408556
  24.2973313  56.3062988  32.8747693  24.1812839  57.0570675  33.3039831
  25.0929200  56.0486942  33.1243780  24.3977903  56.3797835  32.9751784
  15.4783059  67.2845037  38.7897173  16.1220514  67.7258201  39.1793332
  15.8039314  66.4798463  38.7027432  15.6214888  67.2310231  38.8342650
   8.8347364  58.3887734  37.0134651   8.5997548  57.5555386  36.9066920
   8.9733004  58.6692400  36.1995852   8.8203026  58.3071237  36.8777006
  11.1337451  50.5573465  39.9118959  10.5142483  49.9666112  39.7428973
  11.0321315  51.1484900  39.2783282  11.0275127  50.5577547  39.7923948
  16.1803639  60.2957011  34.1617035  16.5019480  60.8362219  33.5578343
  16.8275735  59.7253783  34.2939325  16.3229694  60.2916187  34.0924070
  18.2305347  52.2973006  34.2451422  18.9285511  52.4761134  34.7372885
  18.5457679  51.7743346  33.6221811  18.3800684  52.2466779  34.2253432
  10.8606584  54.1025746  42.1562527  10.7365281  54.6888192  42.7912346
  11.5124869  53.6085942  42.4574802  10.9380233  54.1164551  42.2948457
  18.4193282  58.6843451  34.2331213  18.8586918  58.0760552  34.6785986
  18.2697945  58.3050825  33.4616678  18.4614748  58.5381923  34.1850380
  15.8864925  57.2787463  41.4350039  16.5313928  56.7859906  41.1160987
  16.1266702  57.4212250  42.2616117  16.0175510  57.2264905  41.5099572
  18.4251016  60.1242369  41.0856931  18.7074259  59.3293775  40.8643687
  19.1537177  60.6022957  41.1061992  18.5740580  60.0776966  41.0559946
  16.4032210  47.6665403  38.3272696  16.0735540  48.1176547  37.6576395
  15.7277212  47.5881566  38.8745703  16.2542647  47.7216538  38.3095920
  22.0202619  57.0370633  31.1861982  21.9353914  57.8931599  31.3311551
  22.5087002  56.7614957  31.8544141  22.0791516  57.1227954  31.3064064
  22.9521052  53.6555427  32.6859717  22.4232523  53.8715060  33.3457024
  23.4746072  54.3491565  32.6060687  22.9509505  53.7898564  32.7715317
  14.8420660  57.5518644  31.4867185  14.2577875  58.0568675  31.8933049
  14.4390755  57.3261031  30.7463777  14.6959963  57.5926892  31.4372211
  10.3964688  63.2673405  38.2890857   9.9132266  63.9923894  38.2650441
  11.2088007  63.5649535  38.4001015  10.4455436  63.4175759  38.3018136
  16.4678842  62.0605586  40.8940671  15.9505784  61.7013001  40.2901980
  17.1653234  61.5367760  40.9046738  16.4944423  61.9303273  40.8070930
  20.1242434  62.5100400  46.8556844  20.2125780  62.3226540  47.7035055
  20.5532147  61.8637829  46.4561691  20.2004537  62.3863407  46.9228596
  17.6912894  61.7931560  45.8374507  17.1283729  61.3804169  46.3614168
  18.4533918  61.7184465  46.2567650  17.7207343  61.7208960  45.9767507
  19.2997874  53.7984296  29.9636106  19.5393878  54.0062280  29.1511449
  19.6213715  52.9941804  30.0725051  19.3835032  53.7098397  29.8596659
  14.6088164  45.7277691  33.8095644  15.3634132  46.0956009  33.5712694
  14.4315699  46.1017246  34.5774824  14.6942643  45.8375879  33.8880532
  13.2508886  63.7829581  38.4411137  13.9529465  63.2681570  38.4983893
  13.1706369  64.1103732  39.2458012  13.3432646  63.7543807  38.5683929
  27.9023063  51.8772132  41.8543183  27.0651484  51.9474319  42.0890778
  27.8711294  51.8796627  40.9817486  27.7741345  51.8882359  41.7602731
  14.2987792  54.0205168  47.5691552  14.4708296  53.9111062  48.4176833
  14.8357150  54.6659573  47.3322744  14.4032796  54.0997169  47.6596649
  12.9645229  48.1348010  30.5073757  12.7820802  48.3519891  29.6814750
  13.8270842  48.2487023  30.5632371  13.0649818  48.1837908  30.3928244
  12.5759661  59.9735933  37.9496745  13.4148560  60.2058866  37.9970506
  12.6071430  59.1040244  37.8803780  12.7041379  59.8792879  37.9461390
  13.2012364  60.3936808  42.2510050  13.7410589  60.2507939  42.9213423
  12.5182310  60.7933559  42.6194077  13.1804518  60.4316479  42.4044472
  18.6444948  45.1374421  33.5422781  19.3731109  44.9590376  33.0960937
  18.7339841  45.9792501  33.7529959  18.7651610  45.2358300  33.5076298
  22.6253249  56.0727809  37.4455075  23.3810764  56.5059323  37.4843983
  22.7315573  55.4232578  38.0189711  22.7523419  56.0405292  37.5353100
  25.6633420  59.9001086  38.1957478  25.2268652  59.9037828  38.9516449
  25.3296335  60.5806585  37.7637055  25.5496040  60.0013542  38.2438310
  20.2362494  61.9409419  49.5200628  21.0202910  62.0540266  49.8856370
  20.0359088  61.1150556  49.7159314  20.3228519  61.8356138  49.6035014
   8.6049509  56.6137099  42.4044472   8.3387924  55.7976215  42.5635462
   8.6188073  56.6590254  41.5339987   8.5674231  56.4994003  42.2997954
  12.5107256  51.4122183  29.0196230  11.7965433  51.1260363  29.4318663
  12.9951225  51.7518809  29.6602617  12.4766619  51.4203833  29.1751865
  13.3548115  50.1515477  45.0511480  12.6619912  49.6812457  45.2972211
  13.9708443  49.9253782  45.6253187  13.3432645  50.0482609  45.1720632
  20.3932887  63.8519521  43.1667084  19.5948133  63.6119021  43.4240952
  20.8418898  63.9033914  43.9134131  20.3407498  63.8241912  43.3152008
  19.6854574  59.9152137  29.3958038  20.1005722  59.5837161  28.7042534
  18.8546504  59.6821039  29.2678175  19.6242583  59.8323393  29.2748886
   9.0142923  57.3995878  39.6856216   8.8318496  57.3742764  38.8328508
   9.7492592  57.8694816  39.7245125   9.0956987  57.4657240  39.5654135
  12.0788674  54.1180881  46.1938325  12.8028647  54.1033912  46.6803220
  12.1804811  54.8276236  45.6960293  12.2006883  54.2205584  46.1917112
  19.4533624  57.5979966  51.0587272  18.6606605  57.9123477  51.2439891
  19.5682551  57.8131434  50.2208056  19.3529034  57.6763802  50.9625607
  22.1264943  54.3213957  35.3482288  22.2211797  55.0603251  35.8021913
  21.5023786  53.8931432  35.7816852  22.0473973  54.3675277  35.4790435
  20.3817417  57.5000169  45.9972569  20.9556278  56.8627414  46.1521132
  20.3032220  57.5004252  45.1282226  20.4550651  57.4065281  45.8918979
   8.9813833  54.2789379  39.8355283   9.5587336  54.1425830  40.4747528
   8.2827895  53.8225163  40.0900867   8.9634854  54.1911645  39.9677572
  22.3787964  56.1662697  28.5819240  22.2968127  56.2364884  29.4474227
  23.0167685  56.7292440  28.3902980  22.4607801  56.2601668  28.6809189
  15.7381135  55.9323434  38.0493766  15.4800379  55.0995169  38.0225065
  15.7929618  56.1581047  37.2086266  15.7080913  55.8421206  37.9213903
  20.8182185  48.0351885  38.1497859  20.1138512  47.5461071  38.3081778
  20.8667160  48.0474360  37.2786303  20.7212237  47.9641533  38.0437198
  14.7115847  53.4861197  38.5358661  14.1365439  53.6453365  39.1722622
  14.3351524  52.8496606  38.0727111  14.5718660  53.4159010  38.5613219
  18.3789136  51.9584546  43.3951039  17.9903569  51.5338764  42.7403230
  17.7143834  52.2066696  43.9028066  18.2236064  51.9323267  43.3738907
   4.4572666  53.1301272  36.5503101   4.5432918  52.7533140  37.3316631
   5.0848464  52.7561717  36.0723060   4.5629217  53.0186754  36.5948579
  22.2015498  45.6559175  40.9075023  22.5826009  44.9737346  41.2942898
  21.3978782  45.3668777  40.7250688  22.1391959  45.5126223  40.9379079
  19.4828074  56.1883151  31.5927846  20.2968713  56.4798044  31.4810617
  19.4187215  55.5343013  31.0186139  19.5930813  56.1348346  31.4916683
  25.7037564  58.8709147  46.0057422  25.4676202  58.0397212  45.8869482
  26.3480793  58.8194754  46.5912266  25.7632235  58.7406835  46.0743315
  15.3535983  59.6604668  36.7200158  15.9909929  59.4216416  37.2651952
  15.7791054  59.8641827  35.9853319  15.5112149  59.6555678  36.6917316
  10.0448625  61.8993005  40.6034462  10.0852770  62.1707856  39.7754242
  10.6043149  62.4234913  41.0192250  10.1331971  62.0168760  40.5426350
  15.9938798  54.8806958  31.0575048  16.3783950  54.6614665  31.8091593
  15.7450418  55.7069903  31.1876124  16.0140870  54.9705104  31.1876124
  16.1607338  48.1613373  50.7737632  15.8460779  48.9312936  50.5107195
  15.8397270  47.5983629  50.1889859  16.0666257  48.1923642  50.6478982
  26.7273985  58.6553596  42.0685716  26.4219802  59.3881653  42.4299032
  26.0080201  58.2491525  41.7878502  26.5761327  58.7035329  42.0798853
  17.7357454  60.1377091  38.3993944  17.8096463  59.9752263  39.2535794
  18.5526961  60.3267280  38.1554426  17.8673813  60.1413833  38.4891970
  32.4275777  55.2946596  41.3954060  32.3600277  55.3142556  40.5256647
  32.4131440  56.1376924  41.6209731  32.4154534  55.4220331  41.3006537
  11.4963211  60.4834954  35.4288388  10.6701329  60.7296691  35.3022667
  11.5575202  60.4047035  36.2950446  11.3837378  60.5079903  35.5377332
  13.7139235  46.5503895  36.3883828  12.8461660  46.6226494  36.4541437
  14.0014439  47.3525974  36.5771803  13.6278983  46.6798042  36.4258595
  22.8372124  46.6981754  44.7195150  23.5825716  46.5091564  44.3058575
  22.4209428  47.2239992  44.1609006  22.8857098  46.7483899  44.5759723
  16.2762040  63.1011834  33.1307418  16.5660339  62.7100815  32.4066644
  17.0065521  63.2828539  33.5712693  16.4268924  63.0705648  33.0890225
  16.8656785  57.9029580  44.2160548  16.3668479  58.6145348  44.2945437
  17.6757010  58.2230246  44.1778711  16.9112892  58.0556428  44.2217117
  14.2167956  65.0779216  36.1967568  13.9968251  64.7876571  36.9894235
  13.9962478  64.4194171  35.6685480  14.1515550  64.9378925  36.2356476
  13.1284903  57.1652533  38.4623269  12.8398152  56.5390004  38.9968997
  13.9968251  57.1072820  38.5287950  13.2145155  57.0640077  38.5514224
  23.9162801  52.3087316  38.7805251  23.5727567  51.5877651  39.1312501
  24.0155843  52.1001167  37.9383609  23.8804844  52.1711520  38.7076931
  16.3835911  66.4508606  34.9798260  17.0359969  65.9185049  35.2089286
  15.6861520  66.0977259  35.3666134  16.3766629  66.3198129  35.0710428
  13.3317176  58.8047784  34.3865634  14.0863144  59.1860823  34.6001097
  12.7387789  59.2558928  34.8412331  13.3553890  58.9276611  34.4848513
  24.3775830  58.7713020  34.3229239  24.9433862  59.4306230  34.2387782
  23.7303733  59.1162718  34.7945641  24.3654586  58.9194962  34.3801996
  15.7923843  50.7610624  49.5122847  14.9823619  51.0668404  49.4012689
  16.2698530  51.4816207  49.6275431  15.7427322  50.9125225  49.5129918
  14.6515403  59.9756345  39.7605750  14.1296156  60.1156637  40.4457614
  15.0389423  59.2167010  39.9507867  14.6319104  59.8841869  39.8906826
  11.6406587  50.0262154  33.8300704  11.3531383  49.6563424  33.0932652
  12.3277055  50.4957009  33.5684409  11.6995484  50.0409123  33.6815780
  20.8482408  61.7151805  33.7466318  20.6069084  60.9819665  33.3393383
  21.0283741  62.2638661  33.0932652  20.8390032  61.6874196  33.5896541
  16.0781729  57.0060364  35.1587241  15.8824511  57.6135099  34.5647544
  16.3016074  56.3128308  34.6778915  16.0816370  56.9937890  35.0003322
  14.4760259  53.8915102  35.2768109  15.1982910  54.0556260  34.8171915
  13.9968251  54.6124767  35.1707449  14.5123989  54.0213332  35.1933723
  22.4353766  50.2278901  40.6564794  21.5964867  50.2540180  40.4203057
  22.5058133  50.8749636  41.2370141  22.3222160  50.3275027  40.7073911
  12.1267875  56.2973175  44.3822249  12.6388972  56.5757428  43.7331009
  11.8404218  57.0362469  44.7485062  12.1602738  56.4475528  44.3412127
  20.8823044  47.1264278  35.3892410  21.5849397  46.9272026  34.9112368
  20.6167233  46.3540220  35.6961253  20.9469677  46.9827244  35.3637852
   9.2134782  50.8043366  34.6785985   9.3150918  51.6069528  35.0066961
  10.0090668  50.6030702  34.3809066   9.3462687  50.8929265  34.6821341
  15.6451601  48.3899563  44.4423291  15.4534798  48.4054698  45.2922714
  16.4950197  48.5863238  44.4189945  15.7427323  48.4213914  44.5646585
  10.0298514  50.9190545  42.4207107   9.8884005  50.0674485  42.5451615
  10.3139077  50.9619205  41.5969313  10.0506360  50.7990295  42.3174731
  20.1837106  52.7557635  36.5651595  19.9371820  52.6753386  37.3988384
  20.5122229  51.9711103  36.3714123  20.1958350  52.6283900  36.6599118
  24.0785155  59.4640994  40.3538377  23.9399514  60.1622040  40.8587119
  23.2985153  59.3089651  39.9974558  23.9428382  59.5441161  40.3764651
  22.4163240  55.7637370  46.6060758  22.4111278  54.8917186  46.6103185
  23.1224234  55.9625539  46.1330214  22.5208244  55.6641244  46.5367794
  16.1434133  55.4914353  45.9774578  16.2877509  56.0715562  45.3417688
  16.4909782  55.8690650  46.6824433  16.2161595  55.6335058  45.9873573
  18.3154051  54.6904522  43.7599710  17.5677365  54.8835536  43.3547988
  18.4695576  53.8649741  43.5223831  18.2276478  54.5969633  43.6645116
  15.2161888  63.6817125  42.8435605  15.3651452  63.1220041  42.1909010
  15.9961890  63.7609127  43.2268124  15.3535982  63.6102691  42.8032554
  25.5738528  58.8219248  31.1154876  25.1945336  58.0356386  31.1084165
  24.9104773  59.3706105  30.9726520  25.4197002  58.7864072  31.0935673
  17.7415189  63.8531768  44.1220096  17.6658860  63.1840579  44.6770884
  17.6705048  64.5549556  44.6360762  17.7195796  63.8576676  44.2796944
  18.5555828  48.5855073  44.6495114  19.0128442  49.3179047  44.7767906
  18.6312156  48.1621538  45.4082369  18.6346798  48.6312311  44.7796190
  10.7988819  48.8320892  45.7384557  10.2631008  48.2201250  46.0545325
  10.8606584  49.4069028  46.3918224  10.7284452  48.8267820  45.8819984
  18.3985436  62.3732767  34.9543702  19.1635327  62.1042411  34.6326366
  18.2963526  61.8882777  35.6713765  18.4966931  62.2622332  35.0123530
  16.4338206  50.5757176  41.4936938  15.6434280  50.3948637  41.8154274
  16.8298828  49.7984129  41.4767232  16.3755082  50.4344637  41.5389486
  20.9204096  59.4044951  26.9343651  21.6877082  59.4645076  26.5249503
  20.4735405  58.8325392  26.4499970  20.9677524  59.3281527  26.8021362
  21.8181892  58.2099607  39.2196384  21.1426894  57.9784839  39.7209771
  21.8274268  57.6020790  38.5938489  21.7200396  58.0858532  39.2012536
  18.9476036  53.0517436  45.9760437  18.8835177  53.9127392  45.8480573
  19.0873224  52.7349429  45.1755988  18.9591506  53.1317602  45.8388649
  23.8198626  61.0664739  31.4506562  23.9018464  61.8731725  31.1268012
  24.3048369  61.0860698  32.1747335  23.9035784  61.1885401  31.5093460
  17.6295130  55.7449575  40.1176640  17.2057379  55.9454074  39.3815658
  17.4539985  54.8978423  40.2300939  17.5406010  55.6498356  40.0250330
  17.1306823  67.2600088  42.5798097  17.6202754  66.5610877  42.3973761
  16.5591056  66.9623958  43.1674154  17.1191353  67.1126312  42.6399138
  12.9177575  56.2401626  35.5504612  13.0742194  56.1748429  36.4060604
  13.2578168  57.0150179  35.3383292  12.9910810  56.3450825  35.6459206
  19.4556719  55.6159510  34.4197975  19.9972265  55.1129891  34.8836596
  19.7703278  55.5624705  33.6087461  19.5821116  55.5338931  34.3681787
  23.3273827  59.8262157  51.5324887  24.1408692  59.5547306  51.6930020
  23.1668793  59.5269697  50.7285083  23.4243775  59.7417083  51.4370293
  17.6243169  61.0076862  31.7038003  17.6935989  60.1491400  31.8431004
  18.4031624  61.2248742  31.3757028  17.7496019  60.9129725  31.6755161
  20.6045989  50.5095814  44.4720276  20.8187958  49.8706729  43.9183630
  19.9879888  50.9541638  44.0428137  20.5451318  50.4805958  44.3270707
  22.0150657  63.4314563  35.9174497  21.6230448  63.1281278  35.1997363
  22.1703729  64.2683653  35.7279450  21.9804246  63.5098400  35.7830994
   9.4911836  53.4236577  35.8665379   9.8710801  53.8421122  35.2025647
   8.9167201  54.0050033  36.1734223   9.4623161  53.5714436  35.8142120
  22.7685077  52.1184880  45.4103583  21.9561758  51.8110770  45.4916756
  23.2275011  51.6383880  45.9746295  22.7165461  52.0021372  45.5058177
  22.1790331  59.9964552  35.8580527  21.8204986  60.1679195  36.6344560
  21.6929042  60.4577757  35.3008526  22.0549028  60.0903523  35.8905796
  19.9960717  43.6195750  39.4607619  19.1254275  43.5934471  39.4140928
  20.2501059  43.4472942  38.6433464  19.9054277  43.5905894  39.3327755
  16.9678697  55.6763717  28.3980762  17.2571222  56.4528600  28.6724336
  17.0550496  55.1652448  29.0995261  17.0232953  55.7155635  28.5423259
  19.8638584  53.5244951  50.1932285  20.3338215  54.1487067  50.5800159
  19.9100464  52.8561927  50.7525500  19.9406460  53.5179631  50.3332357
  17.0209858  45.6301979  40.9181089  16.5048346  44.9382170  41.0432668
  16.4603787  46.2972756  40.8643688  16.8616371  45.6265236  40.9287155
  19.0902091  46.1694939  42.7473941  18.7033844  46.1943970  43.5287471
  18.6035029  45.6036617  42.2948458  18.9614600  46.0890689  42.7961845
  23.3395071  60.8868448  46.8047728  23.9774791  60.3928643  46.4710184
  22.6969162  60.8145848  46.2199955  23.3389297  60.8027456  46.6690083
  25.0652071  52.7357594  41.3713644  24.6379679  52.6483942  40.6161743
  24.4278124  52.8435369  41.9568488  24.9081678  52.7390253  41.3459085
  18.7559233  43.0561924  45.0384201  19.3852351  43.5922224  44.7605272
  18.9245096  42.9639283  45.8897767  18.8737028  43.1223286  45.1232730
  18.5573148  47.8433119  47.3110613  19.3846577  47.5718268  47.3669227
  18.5780994  48.6393960  47.6674431  18.6825998  47.9212873  47.3725796
  23.3949327  61.5788256  43.4453085  24.1841706  61.2277321  43.5655166
  23.5692925  62.3924644  43.1829719  23.5369609  61.6474113  43.4240953
  13.1342638  54.9896982  40.4980874  12.2930644  54.8900856  40.7059767
  13.3432646  55.7592462  40.8495194  13.0407330  55.0889025  40.5808189
  10.6118205  52.6116519  38.3265624  10.2174902  52.6859530  37.5515734
  10.0558322  52.9974465  38.8773986  10.4721017  52.6798293  38.2933284
  16.9459303  52.9178381  39.7478471  16.6422440  52.3634369  40.3488879
  16.2438723  53.0970591  39.2606505  16.7975512  52.8623163  39.7648177
  16.0025400  50.2278901  34.3123173  16.2785134  49.5097813  33.9000741
  16.6024069  50.8263821  34.1044279  16.1318664  50.2099271  34.2203934
  15.0077654  60.1328101  44.4550569  14.8998009  60.1430164  45.3212627
  15.2173435  60.9582882  44.2655523  15.0227765  60.2569176  44.5554661
  19.5035920  47.8992418  32.5869768  19.9579667  48.0702978  33.3117613
  19.9775966  47.2860529  32.1867544  19.6404240  47.8343303  32.6343530
  13.0251446  57.3840744  41.9172507  12.4339379  58.0250242  41.8875522
  13.7872469  57.8078361  41.8903806  13.0499706  57.5416582  41.9087654
  13.4212068  48.5442742  42.5840524  13.8813550  48.6181671  43.3215648
  13.4668175  49.3423996  42.2340346  13.4962624  48.6736889  42.6413281
  15.0695418  49.2109437  47.1512551  14.6780983  48.5642784  47.5868329
  15.2381281  49.8020872  47.7706807  15.0366329  49.2023704  47.3075257
  29.1441867  57.2146514  42.9149785  29.2024991  57.6633162  43.6609761
  28.5108335  57.6245326  42.4779865  29.0593162  57.3420248  42.9602333
  22.7840962  62.8350055  39.3504531  22.5860651  63.3240870  38.6560742
  22.1628673  63.0391297  39.9288664  22.6628526  62.9366594  39.3327754
  16.8448940  54.6034952  33.6914775  17.5890985  54.9909229  33.9297725
  16.9909636  53.7592378  33.8555263  16.9759525  54.5365425  33.7508745
  18.7628516  46.3985211  38.7246637  17.9164561  46.5708019  38.5987987
  18.7599648  45.5934555  39.0612465  18.6375666  46.3046240  38.7557764
  19.8326816  50.1760426  39.5908695  19.3586770  49.6502188  40.1014006
  20.2044952  49.6289898  39.0223556  19.8176705  50.0176422  39.5823842
  10.2099846  52.1731932  44.9592240  11.0725459  52.0727642  44.8729570
   9.8791629  51.5926642  44.3977813  10.2885043  52.0723559  44.8637646
  26.0963547  55.2362801  41.0015475  25.8561770  54.3969216  41.0057902
  26.5755554  55.3162968  41.7256249  26.1315730  55.1244201  41.1090277
  21.7610316  51.0696980  32.6534448  21.2333334  51.1525724  31.9640157
  22.2206024  51.8114852  32.6499093  21.7512166  51.1917643  32.5509144
  28.0968734  52.0164258  38.9544734  27.8578504  51.9760093  38.1165519
  28.2602635  52.8635411  39.0810455  28.0859037  52.1356344  38.8498216
  24.7014764  56.4014208  44.8849779  25.4248963  55.9486734  44.7060799
  24.4364726  56.6818873  44.1022107  24.7696037  56.3765176  44.7428495
  13.5701632  50.9974381  41.6202659  12.9454702  51.0092773  41.0128611
  13.2347227  51.4734556  42.2693899  13.4287124  51.0692898  41.6259227
  13.7543381  49.3399500  27.6775344  13.4056185  49.9919225  28.1406893
  13.2739827  49.3256613  26.9499215  13.6313625  49.4342553  27.6386435
  10.2827308  59.0574841  43.0606423   9.7527232  58.3667280  43.1101398
  10.5552401  59.0485027  42.2319131  10.2452030  58.9541973  42.9453839
  21.3147398  59.6400544  31.7844105  22.0381597  60.1058657  31.6408679
  20.8747989  59.7074153  31.0341702  21.3563090  59.7184380  31.6528887
  20.4833553  56.4998086  43.0344794  19.8690546  55.9556136  43.3293430
  21.0000838  55.9862323  42.5550611  20.4689216  56.3434495  43.0069023
  19.7229850  57.5702356  40.7689093  19.2957459  56.9452075  40.3354528
  19.7154795  57.2877278  41.5948100  19.6588992  57.4355137  40.8268921
  12.8392378  52.6067529  43.8377527  12.9985864  51.8510853  44.2429249
  12.6585271  53.1558469  44.4918265  12.8357737  52.5761343  43.9940233
  20.7812681  44.7728765  44.3928317  20.2853242  44.9692439  43.7019883
  21.5381743  45.1721433  44.2217118  20.8199505  44.8606499  44.2648453
  18.0515560  48.4471111  40.9831627  18.0758047  47.9131223  40.2944407
  18.3027034  47.9388419  41.6457218  18.0925479  48.2932015  40.9796272
   5.5623150  55.7302606  40.4174771   5.4566599  55.6849450  39.5526855
   4.8123370  56.0756386  40.6989056   5.4358753  55.7743514  40.3312101
  14.3316882  47.1741929  40.3637371  14.3715254  47.6751135  41.0772079
  13.5066547  47.2652323  40.0943294  14.2156408  47.2623745  40.4287910
  16.5146495  56.7402669  48.4657666  15.6642126  56.8774383  48.6015311
  16.6774623  56.0066447  48.9105368  16.4130359  56.6516770  48.5513265
  15.7531246  53.6902439  42.6611270  14.9223175  53.8576257  42.4546519
  15.6982763  53.3138389  43.4460156  15.6220661  53.6592170  42.7459799
  13.5615029  47.1811332  48.2967681  14.1867732  46.6373464  48.5697113
  13.1065509  46.7006249  47.7275471  13.5863290  47.0300813  48.2529275
  14.1267290  51.9658030  33.1901388  14.2670251  52.4630494  33.8930029
  14.6249822  51.2644325  33.3315602  14.2208371  51.9360009  33.3152967
  14.1567512  52.8325141  30.5193965  14.7912591  53.4285566  30.4543427
  14.2393123  52.5328599  31.3339835  14.2624063  52.8766049  30.6297051
  27.1350078  55.3640619  43.3880329  27.7267918  56.0037869  43.4198527
  27.5709072  54.6663655  43.6772396  27.2868509  55.3558969  43.4361162
  15.7346495  48.7639117  30.4939407  16.0562336  48.2842199  29.8398669
  15.9973439  49.5738763  30.3030219  15.8212520  48.8129015  30.3694899
  18.9643468  59.7857991  44.0138223  18.4568559  60.3393838  44.4578854
  18.6670114  59.8466281  43.1956998  18.8448353  59.8764302  43.9586680
  21.1305650  48.1511311  42.8562886  21.5560721  47.6983837  42.2446412
  20.5162643  47.5971381  43.1327673  21.1034295  48.0025287  42.8067911
  10.6620500  55.0292982  33.7883511  11.1712729  55.6257490  34.1694816
  11.1354772  54.7618956  33.1059931  10.8063876  55.0778797  33.7438034
  21.5751248  63.7021249  31.9442167  20.8580558  63.5282111  31.4789404
  22.2257986  63.4673821  31.4117653  21.5653098  63.6417041  31.7971384
  19.5699873  44.6226410  36.2653463  18.9268191  44.4724057  36.8338601
  19.2299280  44.3768756  35.5002568  19.4244950  44.5638533  36.2356478
  24.1599219  52.5785837  35.6883472  23.4890409  53.1215539  35.5596537
  24.8538969  53.0480693  35.4465166  24.1628087  52.7284108  35.6338999
  18.2085953  64.7182549  40.9195230  17.9851607  63.9601379  41.2879256
  17.7195796  64.7480570  40.1975670  18.1029402  64.6104774  40.8671971
  24.3227347  49.0341721  38.5973845  24.6754957  48.6071444  39.2719644
  23.4642148  48.9492564  38.7274921  24.2476791  48.9586462  38.7168855
  13.0211032  51.6649241  36.6556691  12.3023021  52.0813373  36.9229555
  13.3923394  52.2303479  36.1048330  12.9702963  51.8098522  36.6139498
  22.3210612  52.2977089  42.5458687  22.3008540  52.1160385  43.3993466
  22.3689813  53.1689108  42.5218271  22.3245253  52.3993628  42.6681982
  20.2656942  58.8864281  48.4707164  20.2252797  58.2413958  47.8852320
  21.0780261  58.8300899  48.7832576  20.3800096  58.7823248  48.4304113
  16.8564410  64.9383007  38.3732315  16.4424808  64.2757138  37.9836156
  17.5411784  65.0860866  37.8528009  16.8962782  64.8623666  38.2388812
  20.2229704  64.0973093  39.1255931  19.8245987  64.2075363  38.3576751
  19.6080924  64.3055159  39.7082491  20.0728593  64.1446661  39.0987230
  18.7957606  50.7047240  31.9930071  18.2022445  51.0264237  31.4414638
  18.8332884  49.8588336  31.7851177  18.7131995  50.6271569  31.8812842
  21.6715423  50.6626745  35.4231821  21.4429116  50.6859446  34.5810179
  21.9313499  49.8384212  35.5426832  21.6761611  50.5442825  35.3157019
  15.9534651  52.5161218  45.0256921  15.4413554  51.9082401  45.3841953
  15.7814147  53.2317811  45.4930897  15.8524288  52.5324517  45.1473145
  10.8000366  50.9598793  47.6759283  10.6302956  51.6200168  47.1307490
  10.3566316  51.1705355  48.3971772  10.7099699  51.0884775  47.7020913
  14.7260185  49.2003291  36.7186017  15.2017551  49.5620371  36.0836198
  14.2248785  49.8559759  36.9986159  14.7225544  49.3497480  36.6662758
  19.8303721  50.4385463  47.4659177  20.3875152  50.2099272  46.8337642
  19.5064786  51.1991128  47.1894389  19.8650132  50.5169299  47.3315674
   7.7002430  53.8645659  42.9347773   7.1529150  53.1946304  43.0528641
   8.4894808  53.4975507  42.9991240   7.7354614  53.7110645  42.9616473
  17.5486839  53.5253116  48.4311184  18.2998166  53.8404793  48.7450738
  17.7409415  53.3232287  47.6045106  17.6878253  53.5420498  48.3554580
  16.7686838  51.3444491  30.0859401  17.1485803  51.3624120  29.3010515
  16.0279434  51.7898480  29.9650248  16.7155676  51.4126266  29.9522969
   6.4589400  53.0766467  40.0893796   6.2811161  52.6243076  40.8148712
   6.1708422  53.8792628  40.2732273   6.3902353  53.1289024  40.2237299
  22.1212981  54.3324184  39.3271186  22.6166646  53.6147179  39.2875207
  21.3112757  54.0294982  39.2125673  22.0756874  54.1821830  39.3044912
  17.5671592  58.1821997  31.4768191  16.7582915  57.8588671  31.4301500
  18.0746501  57.4755219  31.4096439  17.5221259  58.0303314  31.4598485
   8.1961870  55.6094190  37.2015555   7.3307389  55.5979881  37.0898326
   8.2960685  55.4224413  38.0486694   8.0836037  55.5800252  37.3104499
  24.1864800  57.0827872  42.0148315  24.6119871  56.5602293  41.4618740
  23.8221720  57.6808709  41.4936938  24.1951402  57.0938099  41.8557325
  13.8218879  65.3792089  40.7745661  14.1365438  66.1928477  40.7823442
  14.2312293  64.9942308  41.4427820  13.9286977  65.4420791  40.8749752
  20.7743399  60.7962136  38.3449472  21.2454577  61.5102398  38.5139458
  21.1103578  60.1960886  38.8809342  20.8938514  60.8133600  38.4481848
  22.8620384  62.4063449  50.5241545  22.9717349  61.6172010  50.8798292
  23.1911280  62.3169385  49.7215883  22.9272790  62.2769302  50.4583935
  17.6912894  45.5689606  45.3007567  17.8240800  44.7720600  45.6288543
  18.0758047  46.0956009  45.8805843  17.7669223  45.5289523  45.4351070
  21.4117345  60.5880070  45.1077165  20.8638291  59.9637954  44.8397230
  21.8730374  60.7774342  44.3921245  21.3984555  60.5239120  44.9627596
  20.7645249  42.4919933  41.8988661  19.9591213  42.3817662  42.2156499
  20.6351985  42.5932388  41.0418526  20.6265382  42.4903603  41.8196701
  24.2211210  48.6565424  42.4928357  23.6374199  49.1574631  42.0805925
  24.5415504  48.1494981  41.8592681  24.1824385  48.6557259  42.3386865
  16.7606009  47.5706019  32.7687032  17.5821703  47.7404332  32.5268727
  16.2975660  47.7253280  32.0453330  16.8137171  47.6187752  32.6258677
  15.3501341  45.5648781  43.5485461  15.8945754  45.2239908  44.1389803
  15.4038277  46.4234243  43.6906746  15.4390460  45.6404041  43.6567334
  11.1631900  59.3265197  40.4224269  11.7676757  59.2861032  39.7938090
  10.9559212  60.1736350  40.4528325  11.2220797  59.4453200  40.3340385
  20.9775672  61.5931143  41.6386506  21.7974046  61.4494109  41.9002801
  20.6969749  62.2177342  42.1802944  21.0572415  61.6641495  41.7574446
   6.3983182  58.3099815  40.2923192   6.3007460  57.4996087  40.6013249
   7.1812052  58.2891608  39.9069460   6.4999318  58.1866905  40.2810055
  37.4489322  69.2495994  34.6029383  37.4183326  70.1040631  34.7747652
  38.0470671  68.9491287  35.1615526  37.5326480  69.3312491  34.7104185
  30.6489007  68.3371645  39.3582313  29.7926902  68.4980144  39.4091430
  30.6956661  67.4663709  39.3787374  30.5288118  68.2322447  39.3688379
  33.9582723  74.6058171  48.9642769  34.6649491  74.1110202  49.0929704
  34.1470659  75.0467252  48.2345427  34.0910629  74.5976521  48.8751815
  33.4940828  70.3963689  42.0013965  34.0396788  71.0748776  42.0607934
  33.4357704  70.2551150  41.1415546  33.5656742  70.4755691  41.8826025
  35.2705897  71.8248296  32.8747693  35.1545423  72.5755982  33.3039831
  36.0661783  71.5672250  33.1243780  35.3710486  71.8983143  32.9751784
  22.1070035  66.0758773  39.9118959  21.4875066  65.4851420  39.7428973
  22.0053898  66.6670208  39.2783282  22.0007710  66.0762855  39.7923948
  27.1536222  75.8142319  34.1617035  27.4752063  76.3547527  33.5578343
  27.8008319  75.2439091  34.2939325  27.2962277  75.8101495  34.0924070
  29.2037930  67.8158314  34.2451422  29.9018095  67.9946442  34.7372885
  29.5190263  67.2928654  33.6221811  29.3533267  67.7652086  34.2253432
  21.8339168  69.6211054  42.1562527  21.7097864  70.2073500  42.7912346
  22.4857452  69.1271250  42.4574802  21.9112817  69.6349859  42.2948457
  29.3925866  74.2028759  34.2331213  29.8319501  73.5945860  34.6785986
  29.2430528  73.8236133  33.4616678  29.4347331  74.0567231  34.1850380
  26.8597509  72.7972771  41.4350039  27.5046511  72.3045214  41.1160987
  27.0999286  72.9397558  42.2616117  26.9908094  72.7450213  41.5099572
  29.3983600  75.6427677  41.0856931  29.6806843  74.8479083  40.8643687
  30.1269760  76.1208265  41.1061992  29.5473164  75.5962274  41.0559946
  27.3764794  63.1850711  38.3272696  27.0468124  63.6361855  37.6576395
  26.7009796  63.1066874  38.8745703  27.2275230  63.2401846  38.3095920
  32.9935202  72.5555941  31.1861982  32.9086497  73.4116907  31.3311551
  33.4819585  72.2800265  31.8544141  33.0524099  72.6413262  31.3064064
  33.9253635  69.1740735  32.6859717  33.3965107  69.3900368  33.3457024
  34.4478655  69.8676873  32.6060687  33.9242088  69.3083872  32.7715317
  39.3801688  74.7487039  38.0592762  38.5499391  74.9597683  38.2226178
  39.3310941  73.9224094  37.7835046  39.2508424  74.6576646  38.0430127
  25.8153243  73.0703952  31.4867185  25.2310458  73.5753983  31.8933049
  25.4123338  72.8446339  30.7463777  25.6692547  73.1112200  31.4372211
  31.0975018  78.0285708  46.8556844  31.1858364  77.8411848  47.7035055
  31.5264730  77.3823137  46.4561691  31.1737120  77.9048715  46.9228596
  30.2730458  69.3169604  29.9636106  30.5126461  69.5247587  29.1511449
  30.5946299  68.5127112  30.0725051  30.3567616  69.2283705  29.8596659
  25.5820748  61.2462999  33.8095644  26.3366716  61.6141317  33.5712694
  25.4048282  61.6202554  34.5774824  25.6675226  61.3561187  33.8880532
  38.8755647  67.3957440  41.8543183  38.0384068  67.4659627  42.0890778
  38.8443878  67.3981935  40.9817486  38.7473929  67.4067667  41.7602731
  25.2720376  69.5390476  47.5691552  25.4440879  69.4296370  48.4176833
  25.8089733  70.1844881  47.3322744  25.3765380  69.6182477  47.6596649
  23.9377813  63.6533318  30.5073757  23.7553386  63.8705199  29.6814750
  24.8003426  63.7672331  30.5632371  24.0382402  63.7023216  30.3928244
  33.5985832  71.5913116  37.4455075  34.3543347  72.0244631  37.4843983
  33.7048157  70.9417886  38.0189711  33.7256003  71.5590600  37.5353100
  36.6366004  75.4186394  38.1957478  36.2001235  75.4223136  38.9516449
  36.3028919  76.0991893  37.7637055  36.5228623  75.5198850  38.2438310
  31.2095077  77.4594727  49.5200628  31.9935494  77.5725574  49.8856370
  31.0091672  76.6335864  49.7159314  31.2961103  77.3541446  49.6035014
  19.5782093  72.1322407  42.4044472  19.3120508  71.3161523  42.5635462
  19.5920657  72.1775562  41.5339987  19.5406815  72.0179311  42.2997954
  36.5563486  62.4600222  40.4386906  37.1989395  62.5298326  41.0248821
  36.8086507  61.7929444  39.9366448  36.6885619  62.3726570  40.4514185
  23.4839840  66.9307491  29.0196230  22.7698017  66.6445671  29.4318663
  23.9683808  67.2704117  29.6602617  23.4499203  66.9389141  29.1751865
  24.3280699  65.6700785  45.0511480  23.6352496  65.1997765  45.2972211
  24.9441026  65.4439089  45.6253187  24.3165229  65.5667917  45.1720632
  39.7710350  72.1367314  37.0877115  40.4326784  71.5757982  36.9873023
  39.1301762  71.6419344  37.4129806  39.7739217  71.9803723  37.1209455
  30.6587157  75.4337445  29.3958038  31.0738306  75.1022469  28.7042534
  29.8279087  75.2006347  29.2678175  30.5975166  75.3508701  29.2748886
  19.9875506  72.9181186  39.6856216  19.8051079  72.8928072  38.8328508
  20.7225175  73.3880124  39.7245125  20.0689570  72.9842548  39.5654135
  23.0521258  69.6366189  46.1938325  23.7761230  69.6219220  46.6803220
  23.1537394  70.3461544  45.6960293  23.1739467  69.7390892  46.1917112
  37.8865637  71.9934362  34.6658708  38.2173854  72.5262002  34.0598802
  38.4598725  72.0473250  35.3220659  38.0199316  72.0803931  34.6736489
  30.4266207  73.1165274  51.0587272  29.6339188  73.4308785  51.2439891
  30.5415134  73.3316742  50.2208056  30.3261618  73.1949110  50.9625607
  33.0997526  69.8399265  35.3482288  33.1944381  70.5788559  35.8021913
  32.4756370  69.4116740  35.7816852  33.0206556  69.8860585  35.4790435
  31.3550000  73.0185477  45.9972569  31.9288862  72.3812721  46.1521132
  31.2764804  73.0189560  45.1282226  31.4283235  72.9250589  45.8918979
  19.9546417  69.7974687  39.8355283  20.5319919  69.6611137  40.4747528
  19.2560478  69.3410471  40.0900867  19.9367438  69.7096953  39.9677572
  33.3520548  71.6848004  28.5819240  33.2700710  71.7550192  29.4474227
  33.9900268  72.2477748  28.3902980  33.4340385  71.7786976  28.6809189
  26.7113719  71.4508742  38.0493766  26.4532963  70.6180477  38.0225065
  26.7662202  71.6766355  37.2086266  26.6813497  71.3606514  37.9213903
  31.7914769  63.5537193  38.1497859  31.0871096  63.0646379  38.3081778
  31.8399743  63.5659668  37.2786303  31.6944820  63.4826841  38.0437198
  25.6848431  69.0046505  38.5358661  25.1098022  69.1638673  39.1722622
  25.3084107  68.3681914  38.0727111  25.5451243  68.9344318  38.5613219
  29.3521720  67.4769854  43.3951039  28.9636152  67.0524072  42.7403230
  28.6876418  67.7252004  43.9028066  29.1968647  67.4508575  43.3738907
  38.9944989  67.2344859  36.1698869  38.7381554  66.4224800  35.9796752
  39.8374303  67.2422426  35.9429056  39.0811014  67.1156856  36.1083686
  15.4305250  68.6486580  36.5503101  15.5165502  68.2718448  37.3316631
  16.0581047  68.2747025  36.0723060  15.5361801  68.5372062  36.5948579
  33.1748081  61.1744483  40.9075023  33.5558593  60.4922654  41.2942898
  32.3711365  60.8854085  40.7250688  33.1124543  61.0311531  40.9379079
  30.4560658  71.7068459  31.5927846  31.2701297  71.9983352  31.4810617
  30.3919799  71.0528321  31.0186139  30.5663397  71.6533653  31.4916683
  36.6770148  74.3894455  46.0057422  36.4408785  73.5582520  45.8869482
  37.3213377  74.3380062  46.5912266  36.7364819  74.2592143  46.0743315
  26.3268566  75.1789976  36.7200158  26.9642513  74.9401724  37.2651952
  26.7523638  75.3827135  35.9853319  26.4844732  75.1740986  36.6917316
  26.9671381  70.3992266  31.0575048  27.3516534  70.1799973  31.8091593
  26.7183001  71.2255211  31.1876124  26.9873454  70.4890412  31.1876124
  27.1339922  63.6798681  50.7737632  26.8193363  64.4498244  50.5107195
  26.8129854  63.1168937  50.1889859  27.0398841  63.7108950  50.6478982
  37.7006569  74.1738904  42.0685716  37.3952386  74.9066960  42.4299032
  36.9812784  73.7676833  41.7878502  37.5493911  74.2220637  42.0798853
  28.7090038  75.6562399  38.3993944  28.7829046  75.4937571  39.2535794
  29.5259544  75.8452588  38.1554426  28.8406397  75.6599141  38.4891970
  43.4008361  70.8131904  41.3954060  43.3332861  70.8327863  40.5256647
  43.3864023  71.6562232  41.6209731  43.3887117  70.9405639  41.3006537
  24.6871818  62.0689203  36.3883828  23.8194244  62.1411802  36.4541437
  24.9747023  62.8711282  36.5771803  24.6011567  62.1983350  36.4258595
  33.8104707  62.2167062  44.7195150  34.5558299  62.0276872  44.3058575
  33.3942012  62.7425300  44.1609006  33.8589681  62.2669207  44.5759723
  41.1866978  69.5876291  39.6700655  41.7374900  68.9544360  39.9097747
  41.1711093  70.1191683  40.3616159  41.2652174  69.5725239  39.8079513
  27.8389369  73.4214888  44.2160548  27.3401063  74.1330655  44.2945437
  28.6489593  73.7415554  44.1778711  27.8845476  73.5741736  44.2217117
  24.1017487  72.6837841  38.4623269  23.8130735  72.0575312  38.9968997
  24.9700835  72.6258128  38.5287950  24.1877738  72.5825385  38.5514224
  34.8895384  67.8272624  38.7805251  34.5460150  67.1062959  39.1312501
  34.9888427  67.6186475  37.9383609  34.8537427  67.6896827  38.7076931
  24.3049760  74.3233092  34.3865634  25.0595728  74.7046131  34.6001097
  23.7120373  74.7744235  34.8412331  24.3286473  74.4461919  34.4848513
  35.3508413  74.2898328  34.3229239  35.9166446  74.9491538  34.2387782
  34.7036317  74.6348026  34.7945641  35.3387170  74.4380270  34.3801996
  26.7656427  66.2795932  49.5122847  25.9556203  66.5853712  49.4012689
  27.2431114  67.0001515  49.6275431  26.7159906  66.4310533  49.5129918
  25.6247987  75.4941653  39.7605750  25.1028740  75.6341945  40.4457614
  26.0122007  74.7352317  39.9507867  25.6051687  75.4027177  39.8906826
  22.6139171  65.5447462  33.8300704  22.3263966  65.1748732  33.0932652
  23.3009639  66.0142317  33.5684409  22.6728068  65.5594431  33.6815780
  31.8214991  77.2337112  33.7466318  31.5801667  76.5004973  33.3393383
  32.0016324  77.7823969  33.0932652  31.8122615  77.2059504  33.5896541
  27.0514312  72.5245672  35.1587241  26.8557095  73.1320407  34.5647544
  27.2748658  71.8313616  34.6778915  27.0548953  72.5123198  35.0003322
  25.4492842  69.4100410  35.2768109  26.1715494  69.5741568  34.8171915
  24.9700835  70.1310075  35.1707449  25.4856573  69.5398640  35.1933723
  33.4086350  65.7464209  40.6564794  32.5697450  65.7725488  40.4203057
  33.4790717  66.3934944  41.2370141  33.2954743  65.8460335  40.7073911
  23.1000459  71.8158483  44.3822249  23.6121556  72.0942736  43.7331009
  22.8136801  72.5547777  44.7485062  23.1335322  71.9660836  44.3412127
  37.2843874  70.9532196  37.9426036  37.1977848  71.1087622  38.7960815
  36.8294353  71.5970271  37.5685441  37.2047130  71.0707951  38.0133143
  20.1867365  66.3228674  34.6785985  20.2883502  67.1254836  35.0066961
  20.9823252  66.1216010  34.3809066  20.3195271  66.4114573  34.6821341
  26.6184184  63.9084871  44.4423291  26.4267381  63.9240006  45.2922714
  27.4682780  64.1048545  44.4189945  26.7159906  63.9399222  44.5646585
  21.0031097  66.4375853  42.4207107  20.8616589  65.5859793  42.5451615
  21.2871661  66.4804513  41.5969313  21.0238943  66.3175603  42.3174731
  31.1569690  68.2742943  36.5651595  30.9104404  68.1938694  37.3988384
  31.4854813  67.4896411  36.3714123  31.1690933  68.1469208  36.6599118
  35.0517738  74.9826302  40.3538377  34.9132098  75.6807348  40.8587119
  34.2717736  74.8274959  39.9974558  34.9160965  75.0626469  40.3764651
  33.3895824  71.2822678  46.6060758  33.3843862  70.4102494  46.6103185
  34.0956817  71.4810847  46.1330214  33.4940828  71.1826552  46.5367794
  27.1166717  71.0099661  45.9774578  27.2610093  71.5900870  45.3417688
  27.4642365  71.3875958  46.6824433  27.1894178  71.1520365  45.9873573
  29.2886634  70.2089830  43.7599710  28.5409948  70.4020844  43.3547988
  29.4428159  69.3835049  43.5223831  29.2009062  70.1154941  43.6645116
  36.5471111  74.3404556  31.1154876  36.1677920  73.5541694  31.1084165
  35.8837357  74.8891413  30.9726520  36.3929586  74.3049380  31.0935673
  29.5288411  64.1040380  44.6495114  29.9861025  64.8364355  44.7767906
  29.6044740  63.6806846  45.4082369  29.6079381  64.1497619  44.7796190
  21.7721402  64.3506200  45.7384557  21.2363592  63.7386558  46.0545325
  21.8339167  64.9254336  46.3918224  21.7017035  64.3453128  45.8819984
  34.0015737  57.2830256  38.5188957  34.1199305  57.7406719  37.7856259
  33.8277913  56.4775517  38.2325174  33.9934908  57.2324028  38.3689890
  27.4070789  66.0942484  41.4936938  26.6166864  65.9133945  41.8154274
  27.8031412  65.3169437  41.4767232  27.3487665  65.9529945  41.5389486
  31.8936680  74.9230259  26.9343651  32.6609665  74.9830384  26.5249503
  31.4467989  74.3510700  26.4499970  31.9410107  74.8466834  26.8021362
  32.7914475  73.7284915  39.2196384  32.1159477  73.4970147  39.7209771
  32.8006852  73.1206098  38.5938489  32.6932980  73.6043840  39.2012536
  29.9208619  68.5702744  45.9760437  29.8567761  69.4312700  45.8480573
  30.0605807  68.2534737  45.1755988  29.9324090  68.6502910  45.8388649
  34.7931210  76.5850047  31.4506562  34.8751047  77.3917033  31.1268012
  35.2780952  76.6046006  32.1747335  34.8768368  76.7070709  31.5093460
  28.6027713  71.2634883  40.1176640  28.1789962  71.4639382  39.3815658
  28.4272569  70.4163731  40.2300939  28.5138594  71.1683664  40.0250330
  23.8910158  71.7586934  35.5504612  24.0474777  71.6933737  36.4060604
  24.2310751  72.5335487  35.3383292  23.9643393  71.8636132  35.6459206
  30.4289303  71.1344818  34.4197975  30.9704848  70.6315199  34.8836596
  30.7435862  71.0810013  33.6087461  30.5553700  71.0524239  34.3681787
  34.3006410  75.3447465  51.5324887  35.1141276  75.0732614  51.6930020
  34.1401377  75.0455005  50.7285083  34.3976359  75.2602391  51.4370293
  28.5975753  76.5262169  31.7038003  28.6668573  75.6676708  31.8431004
  29.3764208  76.7434050  31.3757028  28.7228603  76.4315033  31.6755161
  31.5778572  66.0281122  44.4720276  31.7920542  65.3892037  43.9183630
  30.9612471  66.4726946  44.0428137  31.5183902  65.9991266  44.3270707
  20.4644420  68.9421885  35.8665379  20.8443385  69.3606430  35.2025647
  19.8899785  69.5235340  36.1734223  20.4355745  69.0899744  35.8142120
  33.7417660  67.6370188  45.4103583  32.9294342  67.3296078  45.4916756
  34.2007595  67.1569188  45.9746295  33.6898045  67.5206680  45.5058177
  33.1522915  75.5149860  35.8580527  32.7937570  75.6864502  36.6344560
  32.6661626  75.9763065  35.3008526  33.0281612  75.6088831  35.8905796
  27.9411280  71.1949025  28.3980762  28.2303805  71.9713907  28.6724336
  28.0283079  70.6837756  29.0995261  27.9965537  71.2340943  28.5423259
  27.9942441  61.1487286  40.9181089  27.4780930  60.4567478  41.0432668
  27.4336370  61.8158064  40.8643688  27.8348955  61.1450544  40.9287155
  30.0634675  61.6880247  42.7473941  29.6766428  61.7129278  43.5287471
  29.5767612  61.1221925  42.2948458  29.9347184  61.6075997  42.7961845
  34.3127654  76.4053756  46.8047728  34.9507375  75.9113951  46.4710184
  33.6701746  76.3331156  46.2199955  34.3121881  76.3212764  46.6690083
  36.0384654  68.2542901  41.3713644  35.6112262  68.1669250  40.6161743
  35.4010707  68.3620677  41.9568488  35.8814262  68.2575561  41.3459085
  29.7291817  58.5747232  45.0384201  30.3584935  59.1107532  44.7605272
  29.8977679  58.4824591  45.8897767  29.8469611  58.6408594  45.1232730
  29.5305732  63.3618427  47.3110613  30.3579161  63.0903576  47.3669227
  29.5513578  64.1579268  47.6674431  29.6558582  63.4398181  47.3725796
  34.3681911  77.0973564  43.4453085  35.1574289  76.7462629  43.5655166
  34.5425509  77.9109952  43.1829719  34.5102193  77.1659421  43.4240953
  24.1075221  70.5082290  40.4980874  23.2663228  70.4086164  40.7059767
  24.3165229  71.2777770  40.8495194  24.0139914  70.6074333  40.5808189
  21.5850788  68.1301826  38.3265624  21.1907486  68.2044838  37.5515734
  21.0290905  68.5159773  38.8773986  21.4453601  68.1983601  38.2933284
  27.9191886  68.4363689  39.7478471  27.6155024  67.8819677  40.3488879
  27.2171307  68.6155899  39.2606505  27.7708096  68.3808471  39.7648177
  26.9757983  65.7464209  34.3123173  27.2517718  65.0283121  33.9000741
  27.5756653  66.3449128  34.1044279  27.1051248  65.7284579  34.2203934
  23.9984029  72.9026052  41.9172507  23.4071962  73.5435550  41.8875522
  24.7605053  73.3263669  41.8903806  24.0232290  73.0601890  41.9087654
  24.3944652  64.0628050  42.5840524  24.8546134  64.1366979  43.3215648
  24.4400759  64.8609304  42.2340346  24.4695207  64.1922197  42.6413281
  26.0428002  64.7294744  47.1512551  25.6513567  64.0828092  47.5868329
  26.2113864  65.3206180  47.7706807  26.0098912  64.7209012  47.3075257
  40.1174451  72.7331822  42.9149785  40.1757574  73.1818470  43.6609761
  39.4840918  73.1430634  42.4779865  40.0325746  72.8605556  42.9602333
  33.7573545  78.3535363  39.3504531  33.5593234  78.8426178  38.6560742
  33.1361257  78.5576605  39.9288664  33.6361110  78.4551902  39.3327754
  27.8181524  70.1220260  33.6914775  28.5623569  70.5094537  33.9297725
  27.9642220  69.2777686  33.8555263  27.9492109  70.0550733  33.7508745
  29.7361099  61.9170519  38.7246637  28.8897144  62.0893327  38.5987987
  29.7332232  61.1119863  39.0612465  29.6108249  61.8231548  38.7557764
  30.8059400  65.6945734  39.5908695  30.3319354  65.1687496  40.1014006
  31.1777535  65.1475206  39.0223556  30.7909289  65.5361730  39.5823842
  21.1832430  67.6917240  44.9592240  22.0458043  67.5912949  44.8729570
  20.8524213  67.1111950  44.3977813  21.2617626  67.5908867  44.8637646
  37.0696130  70.7548109  41.0015475  36.8294353  69.9154524  41.0057902
  37.5488137  70.8348276  41.7256249  37.1048314  70.6429509  41.1090277
  32.7342899  66.5882288  32.6534448  32.2065918  66.6711032  31.9640157
  33.1938607  67.3300160  32.6499093  32.7244750  66.7102951  32.5509144
  39.0701317  67.5349566  38.9544734  38.8311087  67.4945401  38.1165519
  39.2335219  68.3820718  39.0810455  39.0591621  67.6541651  38.8498216
  35.6747347  71.9199516  44.8849779  36.3981546  71.4672042  44.7060799
  35.4097310  72.2004181  44.1022107  35.7428621  71.8950484  44.7428495
  24.5434216  66.5159689  41.6202659  23.9187286  66.5278081  41.0128611
  24.2079811  66.9919864  42.2693899  24.4019708  66.5878206  41.6259227
  24.7275964  64.8584808  27.6775344  24.3788769  65.5104533  28.1406893
  24.2472410  64.8441921  26.9499215  24.6046208  64.9527861  27.6386435
  32.2879982  75.1585852  31.7844105  33.0114181  75.6243965  31.6408679
  31.8480573  75.2259461  31.0341702  32.3295674  75.2369688  31.6528887
  31.4566137  72.0183394  43.0344794  30.8423130  71.4741444  43.3293430
  31.9733422  71.5047630  42.5550611  31.4421799  71.8619803  43.0069023
  30.6962434  73.0887664  40.7689093  30.2690042  72.4637383  40.3354528
  30.6887378  72.8062586  41.5948100  30.6321575  72.9540445  40.8268921
  23.8124961  68.1252837  43.8377527  23.9718448  67.3696161  44.2429249
  23.6317855  68.6743777  44.4918265  23.8090320  68.0946651  43.9940233
  31.7545264  60.2914073  44.3928317  31.2585825  60.4877747  43.7019883
  32.5114326  60.6906741  44.2217118  31.7932089  60.3791806  44.2648453
  29.0248144  63.9656419  40.9831627  29.0490631  63.4316531  40.2944407
  29.2759617  63.4573727  41.6457218  29.0658062  63.8117322  40.9796272
  16.5355734  71.2487914  40.4174771  16.4299183  71.2034758  39.5526855
  15.7855954  71.5941694  40.6989056  16.4091336  71.2928822  40.3312101
  25.3049466  62.6927237  40.3637371  25.3447838  63.1936443  41.0772079
  24.4799131  62.7837630  40.0943294  25.1888992  62.7809053  40.4287910
  27.4879079  72.2587977  48.4657666  26.6374709  72.3959691  48.6015311
  27.6507207  71.5251755  48.9105368  27.3862942  72.1702078  48.5513265
  26.7263829  69.2087747  42.6611270  25.8955759  69.3761565  42.4546519
  26.6715347  68.8323697  43.4460156  26.5953244  69.1777478  42.7459799
  24.5347613  62.6996640  48.2967681  25.1600316  62.1558772  48.5697113
  24.0798093  62.2191557  47.7275471  24.5595873  62.5486121  48.2529275
  25.0999873  67.4843338  33.1901388  25.2402834  67.9815802  33.8930029
  25.5982406  66.7829633  33.3315602  25.1940954  67.4545317  33.3152967
  25.1300096  68.3510449  30.5193965  25.7645175  68.9470874  30.4543427
  25.2125706  68.0513907  31.3339835  25.2356647  68.3951357  30.6297051
  38.1082661  70.8825927  43.3880329  38.7000502  71.5223177  43.4198527
  38.5441656  70.1848963  43.6772396  38.2601093  70.8744277  43.4361162
  26.7079078  64.2824425  30.4939407  27.0294920  63.8027507  29.8398669
  26.9706022  65.0924071  30.3030219  26.7945104  64.3314322  30.3694899
  29.9376051  75.3043299  44.0138223  29.4301142  75.8579146  44.4578854
  29.6402697  75.3651589  43.1956998  29.8180936  75.3949610  43.9586680
  32.1038233  63.6696619  42.8562886  32.5293305  63.2169145  42.2446412
  31.4895227  63.1156689  43.1327673  32.0766879  63.5210595  42.8067911
  21.6353083  70.5478290  33.7883511  22.1445313  71.1442797  34.1694816
  22.1087356  70.2804264  33.1059931  21.7796459  70.5964105  33.7438034
  35.1331803  68.0971145  35.6883472  34.4622993  68.6400847  35.5596537
  35.8271553  68.5666000  35.4465166  35.1360670  68.2469416  35.6338999
  35.2959930  64.5527029  38.5973845  35.6487540  64.1256752  39.2719644
  34.4374732  64.4677872  38.7274921  35.2209375  64.4771769  38.7168855
  23.9943615  67.1834548  36.6556691  23.2755604  67.5998681  36.9229555
  24.3655977  67.7488787  36.1048330  23.9435547  67.3283830  36.6139498
  33.2943196  67.8162397  42.5458687  33.2741123  67.6345693  43.3993466
  33.3422397  68.6874416  42.5218271  33.2977837  67.9178936  42.6681982
  31.2389526  74.4049589  48.4707164  31.1985381  73.7599266  47.8852320
  32.0512844  74.3486207  48.7832576  31.3532679  74.3008556  48.4304113
  29.7690190  66.2232548  31.9930071  29.1755029  66.5449545  31.4414638
  29.8065467  65.3773644  31.7851177  29.6864579  66.1456877  31.8812842
  36.7283990  59.6745441  39.5258157  36.2214855  58.9674580  39.4579335
  37.5251424  59.3438629  39.6559234  36.7711230  59.5218592  39.5357152
  32.6448006  66.1812053  35.4231821  32.4161699  66.2044754  34.5810179
  32.9046082  65.3569520  35.5426832  32.6494194  66.0628133  35.3157019
  26.9267235  68.0346526  45.0256921  26.4146138  67.4267709  45.3841953
  26.7546731  68.7503118  45.4930897  26.8256872  68.0509825  45.1473145
  21.7732949  66.4784101  47.6759283  21.6035540  67.1385476  47.1307490
  21.3298899  66.6890662  48.3971772  21.6832283  66.6070083  47.7020913
  25.6992769  64.7188599  36.7186017  26.1750135  65.0805679  36.0836198
  25.1981368  65.3745067  36.9986159  25.6958128  64.8682788  36.6662758
  38.9304130  74.1910367  32.5099022  39.3137736  74.9401723  32.7397119
  38.1348244  74.4376187  32.2511011  38.8697912  74.3380061  32.5056595
  30.8036305  65.9570771  47.4659177  31.3607735  65.7284580  46.8337642
  30.4797370  66.7176436  47.1894389  30.8382715  66.0354607  47.3315674
  18.6735014  69.3830967  42.9347773  18.1261733  68.7131612  43.0528641
  19.4627392  69.0160815  42.9991240  18.7087197  69.2295953  42.9616473
  28.5219422  69.0438424  48.4311184  29.2730749  69.3590101  48.7450738
  28.7141999  68.8417595  47.6045106  28.6610836  69.0605806  48.3554580
  27.7419422  66.8629799  30.0859401  28.1218387  66.8809428  29.3010515
  27.0012018  67.3083788  29.9650248  27.6888260  66.9311574  29.9522969
  35.3704712  65.1711990  35.6734979  35.3698939  65.0160647  36.5319256
  35.1660892  66.0174977  35.6176365  35.3404490  65.2732611  35.7922919
  17.4321983  68.5951775  40.0893796  17.2543744  68.1428384  40.8148712
  17.1441005  69.3977936  40.2732273  17.3634936  68.6474332  40.2237299
  33.0945564  69.8509492  39.3271186  33.5899230  69.1332487  39.2875207
  32.2845340  69.5480290  39.2125673  33.0489458  69.7007138  39.3044912
  28.5404176  73.7007305  31.4768191  27.7315499  73.3773979  31.4301500
  29.0479085  72.9940527  31.4096439  28.4953843  73.5488622  31.4598485
  19.1694453  71.1279498  37.2015555  18.3039973  71.1165189  37.0898326
  19.2693269  70.9409721  38.0486694  19.0568620  71.0985560  37.3104499
  35.1597383  72.6013179  42.0148315  35.5852455  72.0787601  41.4618740
  34.7954303  73.1994017  41.4936938  35.1683986  72.6123407  41.8557325
  31.7475983  76.3147444  38.3449472  32.2187161  77.0287706  38.5139458
  32.0836161  75.7146194  38.8809342  31.8671098  76.3318908  38.4481848
  33.8352967  77.9248757  50.5241545  33.9449933  77.1357318  50.8798292
  34.1643864  77.8354693  49.7215883  33.9005373  77.7954610  50.4583935
  28.6645478  61.0874914  45.3007567  28.7973383  60.2905908  45.6288543
  29.0490630  61.6141317  45.8805843  28.7401807  61.0474831  45.4351070
  32.3849929  76.1065378  45.1077165  31.8370875  75.4823262  44.8397230
  32.8462958  76.2959650  44.3921245  32.3717138  76.0424428  44.9627596
  31.7377833  58.0105240  41.8988661  30.9323797  57.9002970  42.2156499
  31.6084568  58.1117696  41.0418526  31.5997966  58.0088911  41.8196701
  35.1943793  64.1750732  42.4928357  34.6106782  64.6759939  42.0805925
  35.5148087  63.6680289  41.8592681  35.1556969  64.1742567  42.3386865
  27.7338593  63.0891327  32.7687032  28.5554287  63.2589640  32.5268727
  27.2708243  63.2438588  32.0453330  27.7869755  63.1373060  32.6258677
  26.3233924  61.0834089  43.5485461  26.8678337  60.7425216  44.1389803
  26.3770860  61.9419551  43.6906746  26.4123044  61.1589349  43.6567334
  31.9508255  77.1116451  41.6386506  32.7706629  76.9679417  41.9002801
  31.6702333  77.7362649  42.1802944  32.0304999  77.1826803  41.7574446
  38.3497377  78.7036019  38.3272696  38.0200707  79.1547163  37.6576395
  37.6742379  78.6252182  38.8745703  38.2007814  78.7587154  38.3095920
  45.5573785  74.6921542  36.5722307  45.2427226  75.3825020  37.0042729
  45.0400727  74.6366324  35.8707808  45.4338256  74.7856430  36.5319256
  36.5553331  76.7648307  33.8095644  37.3099299  77.1326624  33.5712694
  36.3780866  77.1387862  34.5774824  36.6407810  76.8746495  33.8880532
  49.8488230  82.9142748  41.8543183  49.0116651  82.9844935  42.0890778
  49.8176461  82.9167243  40.9817486  49.7206513  82.9252975  41.7602731
  40.5910115  76.1745037  33.5422781  41.3196276  75.9960992  33.0960937
  40.6805008  77.0163117  33.7529959  40.7116777  76.2728915  33.5076298
  47.5296070  77.9785529  40.4386906  48.1721978  78.0483634  41.0248821
  47.7819091  77.3114752  39.9366448  47.6618202  77.8911878  40.4514185
  42.7647352  79.0722501  38.1497859  42.0603679  78.5831687  38.3081778
  42.8132327  79.0844975  37.2786303  42.6677404  79.0012149  38.0437198
  49.9677572  82.7530167  36.1698869  49.7114137  81.9410108  35.9796752
  50.8106886  82.7607734  35.9429056  50.0543598  82.6342164  36.1083686
  44.1480665  76.6929791  40.9075023  44.5291176  76.0107962  41.2942898
  43.3443949  76.4039393  40.7250688  44.0857126  76.5496839  40.9379079
  38.1072505  79.1983989  50.7737632  37.7925946  79.9683552  50.5107195
  37.7862438  78.6354245  50.1889859  38.0131424  79.2294258  50.6478982
  35.6604402  77.5874511  36.3883828  34.7926827  77.6597110  36.4541437
  35.9479606  78.3896589  36.5771803  35.5744150  77.7168658  36.4258595
  44.7837291  77.7352370  44.7195150  45.5290883  77.5462180  44.3058575
  44.3674595  78.2610608  44.1609006  44.8322265  77.7854515  44.5759723
  44.3818933  81.2649517  40.6564794  43.5430034  81.2910796  40.4203057
  44.4523301  81.9120252  41.2370141  44.2687327  81.3645643  40.7073911
  42.8288212  78.1634894  35.3892410  43.5314564  77.9642642  34.9112368
  42.5632400  77.3910836  35.6961253  42.8934844  78.0197860  35.3637852
  37.5916768  79.4270179  44.4423291  37.3999965  79.4425313  45.2922714
  38.4415364  79.6233853  44.4189945  37.6892490  79.4584530  44.5646585
  40.5020995  79.6225688  44.6495114  40.9593609  80.3549663  44.7767906
  40.5777324  79.1992154  45.4082369  40.5811965  79.6682926  44.7796190
  44.9748321  72.8015564  38.5188957  45.0931889  73.2592027  37.7856259
  44.8010496  71.9960825  38.2325174  44.9667492  72.7509336  38.3689890
  41.9425885  74.6566366  39.4607619  41.0719442  74.6305087  39.4140928
  42.1966226  74.4843558  38.6433464  41.8519445  74.6276510  39.3327755
  38.9675025  76.6672594  40.9181089  38.4513514  75.9752786  41.0432668
  38.4068954  77.3343371  40.8643688  38.8081538  76.6635852  40.9287155
  41.0367259  77.2065554  42.7473941  40.6499012  77.2314586  43.5287471
  40.5500196  76.6407233  42.2948458  40.9079767  77.1261305  42.7961845
  40.7024400  74.0932540  45.0384201  41.3317518  74.6292840  44.7605272
  40.8710263  74.0009899  45.8897767  40.8202195  74.1593902  45.1232730
  40.5038315  78.8803735  47.3110613  41.3311744  78.6088884  47.3669227
  40.5246161  79.6764576  47.6674431  40.6291165  78.9583489  47.3725796
  44.1948319  76.6268428  38.0069503  44.3997912  76.5590736  38.8526500
  43.8674743  77.4327250  37.9390681  44.1763567  76.7354369  38.1229158
  47.4482006  77.1800193  37.4872269  46.8356320  77.6670595  37.8726001
  47.5446181  76.5043684  38.0309920  47.3719904  77.1518501  37.6251127
  41.4501087  78.9363034  32.5869768  41.9044834  79.1073594  33.3117613
  41.9241133  78.3231144  32.1867544  41.5869408  78.8713919  32.6343530
  40.7093683  77.4355827  38.7246637  39.8629728  77.6078635  38.5987987
  40.7064815  76.6305171  39.0612465  40.5840833  77.3416856  38.7557764
  41.7791983  81.2131041  39.5908695  41.3051938  80.6872804  40.1014006
  42.1510119  80.6660514  39.0223556  41.7641872  81.0547038  39.5823842
  50.0433901  83.0534874  38.9544734  49.8043671  83.0130708  38.1165519
  50.2067802  83.9006026  39.0810455  50.0324204  83.1726959  38.8498216
  42.7277848  75.8099381  44.3928317  42.2318409  76.0063055  43.7019883
  43.4846910  76.2092049  44.2217118  42.7664672  75.8977114  44.2648453
  39.9980727  79.4841726  40.9831627  40.0223215  78.9501839  40.2944407
  40.2492201  78.9759035  41.6457218  40.0390646  79.3302630  40.9796272
  36.2782050  78.2112545  40.3637371  36.3180421  78.7121751  41.0772079
  35.4531714  78.3022938  40.0943294  36.1621575  78.2994361  40.4287910
  35.5080196  78.2181947  48.2967681  36.1332900  77.6744080  48.5697113
  35.0530676  77.7376865  47.7275471  35.5328457  78.0671429  48.2529275
  43.0770817  79.1881926  42.8562886  43.5025889  78.7354453  42.2446412
  42.4627810  78.6341997  43.1327673  43.0499462  79.0395903  42.8067911
  41.5165040  75.6597026  36.2653463  40.8733358  75.5094673  36.8338601
  41.1764447  75.4139372  35.5002568  41.3710117  75.6009149  36.2356478
  46.2692514  80.0712337  38.5973845  46.6220124  79.6442060  39.2719644
  45.4107315  79.9863180  38.7274921  46.1941958  79.9957077  38.7168855
  47.7016574  75.1930749  39.5258157  47.1947439  74.4859888  39.4579335
  48.4984008  74.8623937  39.6559234  47.7443813  75.0403900  39.5357152
  43.6180590  81.6997361  35.4231821  43.3894283  81.7230062  34.5810179
  43.8778666  80.8754828  35.5426832  43.6226778  81.5813441  35.3157019
  46.3437296  80.6897298  35.6734979  46.3431522  80.5345955  36.5319256
  46.1393476  81.5360285  35.6176365  46.3137074  80.7917919  35.7922919
  39.6378061  76.6060222  45.3007567  39.7705967  75.8091216  45.6288543
  40.0223214  77.1326625  45.8805843  39.7134390  76.5660139  45.4351070
  42.7110416  73.5290548  41.8988661  41.9056380  73.4188278  42.2156499
  42.5817152  73.6303004  41.0418526  42.5730549  73.5274218  41.8196701
  46.1676377  79.6936040  42.4928357  45.5839366  80.1945247  42.0805925
  46.4880671  79.1865596  41.8592681  46.1289552  79.6927875  42.3386865
  38.7071176  78.6076635  32.7687032  39.5286870  78.7774948  32.5268727
  38.2440827  78.7623896  32.0453330  38.7602338  78.6558368  32.6258677
  37.2966508  76.6019397  43.5485461  37.8410921  76.2610524  44.1389803
  37.3503444  77.4604859  43.6906746  37.3855627  76.6774657  43.6567334
  15.1974979  15.1503510  21.5369429  15.1668983  16.0048146  21.7087699
  15.7956328  14.8498802  22.0955573  15.2812137  15.2320006  21.6444232
   8.3974664  14.2379161  26.2922360   7.5412559  14.3987659  26.3431477
   8.4442317  13.3671225  26.3127421   8.2773775  14.1329963  26.3028426
   2.7815803  23.7741879  22.0559591   2.0298703  23.3957417  21.8275637
   3.2301815  23.8060312  21.3078402   2.7365470  23.7227486  21.9117094
  11.7068380  20.5065686  35.8982816  12.4135148  20.0117717  36.0269750
  11.8956316  20.9474768  35.1685474  11.8396286  20.4984037  35.8091861
   8.2340763  24.1967248  17.4845139   7.8992132  24.8744170  17.0489361
   8.7467634  23.8072559  16.8962010   8.2606344  24.2391826  17.3331930
   7.7745055  26.1481517  23.4256250   8.1584434  26.7168415  22.8861025
   7.7104196  25.4231027  22.9462066   7.8218482  26.1256980  23.2750113
  11.2426485  16.2971205  28.9354012  11.7882445  16.9756291  28.9947981
  11.1843361  16.1558665  28.0755593  11.3142399  16.3763206  28.8166072
   4.3600560  23.7860271  24.3222364   4.4610923  22.9760625  24.6319492
   3.7642305  23.6917217  23.6922042   4.2873098  23.6525299  24.2748602
  13.0191553  17.7255812  19.8087739  12.9031079  18.4763498  20.2379877
  13.8147440  17.4679765  20.0583826  13.1196143  17.7990659  19.9091831
   4.2001299  28.7037860  25.7237220   4.8438755  29.1451024  26.1133378
   4.5257555  27.8991286  25.6367479   4.3433128  28.6503055  25.7682697
   4.9021879  21.7149835  21.0957082   5.2237720  22.2555042  20.4918390
   5.5493975  21.1446606  21.2279371   5.0447934  21.7109010  21.0264117
   6.9523587  13.7165830  21.1791468   7.6503752  13.8953957  21.6712932
   7.2675920  13.1936169  20.5561858   7.1018924  13.6659602  21.1593479
   7.1411522  20.1036275  21.1671260   7.5805158  19.4953375  21.6126033
   6.9916185  19.7243648  20.3956725   7.1832988  19.9574746  21.1190427
   4.6083165  18.6980287  28.3690085   5.2532168  18.2052730  28.0501034
   4.8484942  18.8405073  29.1956164   4.7393751  18.6457729  28.4439619
   7.1469257  21.5435192  28.0196978   7.4292500  20.7486598  27.7983734
   7.8755417  22.0215780  28.0402039   7.2958820  21.4969789  27.9899993
  10.7420859  18.4563456  18.1202029  10.6572154  19.3124423  18.2651598
  11.2305242  18.1807780  18.7884188  10.8009756  18.5420777  18.2404111
  11.6739292  15.0748250  19.6199764  11.1450764  15.2907884  20.2797070
  12.1964312  15.7684389  19.5400734  11.6727745  15.2091387  19.7055363
  17.1287345  20.6494555  24.9932809  16.2985048  20.8605198  25.1566225
  17.0796597  19.8231609  24.7175092  16.9994080  20.5584161  24.9770174
   5.1897083  23.4798409  27.8280718   4.6724024  23.1205824  27.2242026
   5.8871474  22.9560583  27.8386784   5.2162664  23.3496097  27.7410977
   8.8460675  23.9293223  33.7896891   8.9344020  23.7419363  34.6375102
   9.2750387  23.2830652  33.3901738   8.9222777  23.8056231  33.8568643
   6.4131134  23.2124383  32.7714553   5.8501969  22.7996993  33.2954215
   7.1752158  23.1377288  33.1907697   6.4425583  23.1401783  32.9107554
   1.9727126  25.2022404  25.3751184   2.6747705  24.6874393  25.4323940
   1.8924609  25.5296555  26.1798059   2.0650886  25.1736630  25.5023976
  16.6241303  13.2964955  28.7883230  15.7869724  13.3667142  29.0230825
  16.5929534  13.2989450  27.9157532  16.4959586  13.3075182  28.6942778
   3.0206032  15.4397991  34.5031599   3.1926536  15.3303886  35.3516880
   3.5575390  16.0852396  34.2662791   3.1251036  15.5189993  34.5936695
   1.2977901  21.3928756  24.8836792   2.1366801  21.6251689  24.9310553
   1.3289670  20.5233067  24.8143827   1.4259619  21.2985702  24.8801436
   1.9230604  21.8129631  29.1850097   2.4628829  21.6700762  29.8553470
   1.2400551  22.2126382  29.5534123   1.9022758  21.8509302  29.3384519
  11.3471489  17.4920632  24.3795122  12.1029004  17.9252146  24.4184030
  11.4533814  16.8425402  24.9529758  11.4741660  17.4598116  24.4693147
  14.3851660  21.3193909  25.1297525  13.9486892  21.3230651  25.8856496
  14.0514576  21.9999408  24.6977102  14.2714280  21.4206365  25.1778357
   8.9580734  23.3602242  36.4540675   9.7421151  23.4733090  36.8196417
   8.7577328  22.5343379  36.6499361   9.0446759  23.2548961  36.5375061
  14.3049143   8.3607737  27.3726952  14.9475052   8.4305841  27.9588868
  14.5572164   7.6936960  26.8706494  14.4371275   8.2734086  27.3854232
   9.1151127  25.2712344  30.1007130   8.3166373  25.0311844  30.3580999
   9.5637139  25.3226737  30.8474178   9.0625738  25.2434735  30.2492055
  17.5196007  18.0374829  24.0217162  18.1812441  17.4765497  23.9213070
  16.8787418  17.5426860  24.3469853  17.5224874  17.8811238  24.0549502
   8.4072814  21.3344960  16.3298085   8.8223963  21.0029984  15.6382581
   7.5764744  21.1013863  16.2018222   8.3460823  21.2516216  16.2088932
  13.8060837  19.0540211  23.7629151  14.0416426  19.1985410  22.9356001
  13.9550401  19.8182619  24.1560664  13.8626640  19.1879266  23.6992754
   0.8006915  15.5373704  33.1278372   1.5246887  15.5226735  33.6143266
   0.9023051  16.2469059  32.6300340   0.9225124  15.6398407  33.1257158
  15.6351294  17.8941877  21.5998754  15.9659511  18.4269517  20.9938849
  16.2084382  17.9480765  22.2560705  15.7684973  17.9811446  21.6076536
   8.1751864  19.0172789  37.9927319   7.3824845  19.3316301  38.1779938
   8.2900791  19.2324257  37.1548103   8.0747275  19.0956626  37.8965653
  10.8483183  15.7406780  22.2822334  10.9430037  16.4796074  22.7361960
  10.2242027  15.3124255  22.7156899  10.7692213  15.7868101  22.4130482
   9.1035657  18.9192993  32.9312615   9.6774519  18.2820237  33.0861179
   9.0250461  18.9197075  32.0622273   9.1768892  18.8258104  32.8259026
   4.4599376  17.3516258  24.9833813   4.2018620  16.5187993  24.9565112
   4.5147858  17.5773871  24.1426313   4.4299153  17.2614029  24.8553950
   9.5400426   9.4544708  25.0837905   8.8356752   8.9653894  25.2421825
   9.5885400   9.4667183  24.2126350   9.4430477   9.3834356  24.9777245
   3.4334088  14.9054020  25.4698708   2.8583679  15.0646189  26.1062668
   3.0569764  14.2689429  25.0067158   3.2936900  14.8351833  25.4953266
   7.1007376  13.3777369  30.3291086   6.7121809  12.9531587  29.6743277
   6.4362075  13.6259519  30.8368113   6.9454304  13.3516091  30.3078954
  16.7430645  13.1352374  23.1038916  16.4867210  12.3232316  22.9136799
  17.5859959  13.1429941  22.8769103  16.8296671  13.0164372  23.0423733
  10.9233738   7.0751998  27.8415070  11.3044250   6.3930169  28.2282944
  10.1197022   6.7861600  27.6590735  10.8610200   6.9319047  27.8719126
   8.2046315  17.6075974  18.5267893   9.0186953  17.8990867  18.4150664
   8.1405456  16.9535836  17.9526186   8.3149054  17.5541169  18.4256730
  14.4255805  20.2901970  32.9397469  14.1894442  19.4590035  32.8209529
  15.0699034  20.2387577  33.5252313  14.4850476  20.1599658  33.0083362
   4.0754223  21.0797492  23.6540205   4.7128170  20.8409239  24.1991998
   4.5009294  21.2834650  22.9193366   4.2330389  21.0748502  23.6257362
  15.4492225  20.0746419  29.0025763  15.1438042  20.8074476  29.3639079
  14.7298441  19.6684348  28.7218549  15.2979568  20.1228152  29.0138900
   6.4575695  21.5569914  25.3333991   6.5314703  21.3945086  26.1875841
   7.2745201  21.7460104  25.0894473   6.5892053  21.5606656  25.4232017
  21.1494018  16.7139420  28.3294107  21.0818518  16.7335379  27.4596694
  21.1349680  17.5569747  28.5549778  21.1372774  16.8413154  28.2346584
  11.5590364   8.1174577  31.6535197  12.3043956   7.9284388  31.2398622
  11.1427669   8.6432815  31.0949053  11.6075338   8.1676723  31.5099770
   4.9980281  24.5204657  20.0647465   5.2878579  24.1293639  19.3406691
   5.7283761  24.7021362  20.5052740   5.1487165  24.4898471  20.0230272
  18.9352635  15.4883806  26.6040702  19.4860556  14.8551875  26.8437794
  18.9196750  16.0199199  27.2956206  19.0137831  15.4732754  26.7419560
   5.5875026  19.3222403  31.1500595   5.0886719  20.0338171  31.2285484
   6.3975250  19.6423070  31.1118758   5.6331132  19.4749252  31.1557164
   2.9386196  26.4972040  23.1307614   2.7186492  26.2069394  23.9234281
   2.7180718  25.8386995  22.6025527   2.8733790  26.3571748  23.1696523
   1.8503143  18.5845356  25.3963316   1.5616392  17.9582827  25.9309043
   2.7186491  18.5265644  25.4627997   1.9363395  18.4832900  25.4854271
  12.6381041  13.7280139  25.7145298  12.2945807  13.0070475  26.0652548
  12.7374084  13.5193991  24.8723656  12.6023084  13.5904343  25.6416978
   5.1054152  27.8701430  21.9138307   5.7578210  27.3377872  22.1429333
   4.4079761  27.5170082  22.3006181   5.0984870  27.7390953  22.0050475
   2.0535417  20.2240607  21.3205681   2.8081385  20.6053646  21.5341144
   1.4606029  20.6751751  21.7752378   2.0772130  20.3469435  21.4188560
  13.0994070  20.1905844  21.2569286  13.6652103  20.8499053  21.1727829
  12.4521974  20.5355542  21.7285688  13.0872827  20.3387785  21.3142043
   4.5142084  12.1803448  36.4462893   3.7041859  12.4861227  36.3352736
   4.9916770  12.9009030  36.5615477   4.4645562  12.3318049  36.4469964
   3.3733643  21.3949169  26.6945797   2.8514397  21.5349460  27.3797661
   3.7607664  20.6359833  26.8847914   3.3537344  21.3034692  26.8246873
   9.5700648  23.1344628  20.6806365   9.3287324  22.4012488  20.2733430
   9.7501981  23.6831485  20.0272699   9.5608272  23.1067019  20.5236588
   4.7999969  18.4253188  22.0927288   4.6042752  19.0327922  21.4987591
   5.0234314  17.7321132  21.6118961   4.8034610  18.4130713  21.9343368
   3.1978499  15.3107925  22.2108156   3.9201151  15.4749084  21.7511962
   2.7186492  16.0317590  22.1047496   3.2342230  15.4406155  22.1273770
  11.1572007  11.6471724  27.5904841  10.3183107  11.6733003  27.3543104
  11.2276374  12.2942460  28.1710187  11.0440400  11.7467850  27.6413958
   9.6041285   8.5457101  22.3232457  10.3067638   8.3464850  21.8452415
   9.3385474   7.7733044  22.6301300   9.6687917   8.4020067  22.2977898
  15.0329530  16.8539711  24.8766083  14.9463505  17.0095137  25.7300861
  14.5780010  17.4977787  24.5025488  14.9532787  16.9715466  24.9473189
   4.3669841   9.8092386  31.3763337   4.1753038   9.8247521  32.2262761
   5.2168437  10.0056061  31.3529992   4.4645563   9.8406738  31.4986632
   8.9055346  14.1750458  23.4991642   8.6590061  14.0946209  24.3328431
   9.2340469  13.3903926  23.3054170   8.9176590  14.0476723  23.5939165
  12.8003395  20.8833817  27.2878423  12.6617755  21.5814863  27.7927166
  12.0203393  20.7282474  26.9314605  12.6646622  20.9633984  27.3104698
  11.1381480  17.1830193  33.5400805  11.1329519  16.3110009  33.5443231
  11.8442474  17.3818362  33.0670261  11.2426484  17.0834067  33.4707840
   4.8652374  16.9107177  32.9114625   5.0095749  17.4908385  32.2757735
   5.2128022  17.2883473  33.6164480   4.9379835  17.0527881  32.9213620
   7.0372291  16.1097345  30.6939757   6.2895605  16.3028359  30.2888035
   7.1913816  15.2842565  30.4563878   6.9494719  16.0162457  30.5985163
   3.9380129  25.1009949  29.7775652   4.0869692  24.5412864  29.1249056
   4.7180131  25.1801950  30.1608171   4.0754222  25.0295514  29.7372601
  14.2956768  20.2412071  18.0494923  13.9163577  19.4549209  18.0424212
  13.6323013  20.7898928  17.9066567  14.1415243  20.2056895  18.0275719
   6.4633429  25.2724591  31.0560143   6.3877100  24.6033402  31.6110931
   6.3923288  25.9742380  31.5700809   6.4414036  25.2769499  31.2136991
   7.2774068  10.0047896  31.5835161   7.7346682  10.7371870  31.7107953
   7.3530397   9.5814361  32.3422416   7.3565038  10.0505134  31.7136237
   7.1203676  23.7925590  21.8883749   7.8853567  23.5235234  21.5666413
   7.0181766  23.3075601  22.6053812   7.2185172  23.6815155  21.9463576
   5.1556446  11.9950000  28.4276985   4.3652521  11.8141460  28.7494320
   5.5517069  11.2176952  28.4107279   5.0973322  11.8537461  28.4729533
  10.5400132  19.6292430  26.1536430   9.8645134  19.3977662  26.6549817
  10.5492508  19.0213613  25.5278535  10.4418637  19.5051355  26.1352583
   7.6694276  14.4710259  32.9100483   7.6053417  15.3320215  32.7820620
   7.8091464  14.1542252  32.1096035   7.6809746  14.5510426  32.7728696
  12.5416867  22.4857562  18.3846608  12.6236704  23.2924548  18.0608059
  13.0266609  22.5053522  19.1087382  12.6254025  22.6078225  18.4433507
   6.3513370  17.1642398  27.0516686   5.9275619  17.3646897  26.3155705
   6.1758225  16.3171246  27.1640986   6.2624251  17.0691180  26.9590376
   5.8525064  28.6792911  29.5138144   6.3420994  27.9803700  29.3313808
   5.2809296  28.3816781  30.1014201   5.8409594  28.5319135  29.5739184
   1.6395815  17.6594450  22.4844659   1.7960434  17.5941252  23.3400651
   1.9796408  18.4343002  22.2723338   1.7129050  17.7643648  22.5799253
   8.1774960  17.0352333  21.3538022   8.7190505  16.5322714  21.8176643
   8.4921519  16.9817528  20.5427507   8.3039357  16.9531754  21.3021834
  12.0492067  21.2454981  38.4664934  12.8626932  20.9740129  38.6270067
  11.8887033  20.9462521  37.6625130  12.1462016  21.1609907  38.3710340
   6.3461409  22.4269685  18.6378050   6.4154230  21.5684223  18.7771051
   7.1249865  22.6441566  18.3097075   6.4714260  22.3322549  18.6095207
   9.3264229  11.9288638  31.4060323   9.5406199  11.2899552  30.8523677
   8.7098128  12.3734462  30.9768184   9.2669558  11.8998781  31.2610754
  10.7368897  24.8507386  22.8514543  10.3448689  24.5474101  22.1337410
  10.8921969  25.6876476  22.6619497  10.7022487  24.9291223  22.7171041
  11.4903317  13.5377703  32.3443630  10.6779999  13.2303593  32.4256802
  11.9493252  13.0576703  32.9086342  11.4383702  13.4214195  32.4398224
  10.9008572  21.4157375  22.7920574  10.5423227  21.5872018  23.5684606
  10.4147283  21.8770581  22.2348572  10.7767269  21.5096346  22.8245843
   8.5856825  14.9437774  37.1272332   9.0556456  15.5679891  37.5140206
   8.6318705  14.2754750  37.6865547   8.6624700  14.9372455  37.2672403
  12.0613311  22.3061271  33.7387775  12.6993032  21.8121466  33.4050231
  11.4187403  22.2338671  33.1540002  12.0607538  22.2220279  33.6030130
  13.7870311  14.1550417  28.3053690  13.3597919  14.0676765  27.5501790
  13.1496364  14.2628192  28.8908535  13.6299918  14.1583077  28.2799132
   7.2791388   9.2625942  34.2450660   8.1064818   8.9911091  34.3009274
   7.2999234  10.0586784  34.6014478   7.4044238   9.3405696  34.3065843
  12.1167568  22.9981079  30.3793132  12.9059946  22.6470144  30.4995213
  12.2911166  23.8117468  30.1169765  12.2587849  23.0666936  30.3581000
   1.8560878  16.4089805  27.4320920   1.0148885  16.3093679  27.6399814
   2.0650886  17.1785285  27.7835241   1.7625571  16.5081848  27.5148235
  10.9701392   7.0090636  24.9409550  11.1750985   6.9412944  25.7866547
  10.6427816   7.8149457  24.8730727  10.9516640   7.1176576  25.0569205
   5.6677543  14.3371204  26.6818518   5.3640681  13.7827192  27.2828926
   4.9656964  14.5163414  26.1946552   5.5193753  14.2815986  26.6988224
   3.7295894  21.5520925  31.3890616   3.6216249  21.5622987  32.2552674
   3.9391676  22.3775705  31.1995570   3.7446005  21.6762000  31.4894707
  14.2235080   7.5622400  24.4212315  13.6109393   8.0492802  24.8066047
  14.3199255   6.8865891  24.9649967  14.1472977   7.5340709  24.5591174
   1.7469686  18.8033567  28.8512553   1.1557619  19.4443065  28.8215568
   2.5090710  19.2271184  28.8243853   1.7717947  18.9609406  28.8427701
  17.8660108  18.6339337  29.8489832  17.9243231  19.0825986  30.5949808
  17.2326575  19.0438150  29.4119912  17.7811403  18.7613072  29.8942380
  11.5059202  24.2542879  26.2844578  11.3078891  24.7433693  25.5900789
  10.8846913  24.4584120  26.8628711  11.3846767  24.3559417  26.2667801
   5.5667181  16.0227776  20.6254822   6.3109226  16.4102052  20.8637772
   5.7127877  15.1785201  20.7895310   5.6977766  15.9558248  20.6848792
   8.5545056  11.5953249  26.5248741   8.0805011  11.0695011  27.0354052
   8.9263192  11.0482722  25.9563603   8.5394945  11.4369245  26.5163889
  14.8181787  16.6555625  27.9355522  14.5780010  15.8162040  27.9397948
  15.2973794  16.7355791  28.6596295  14.8533971  16.5437024  28.0430324
  16.8186974  13.4357082  25.8884781  16.5796744  13.3952916  25.0505566
  16.9820875  14.2828234  26.0150502  16.8077278  13.5549167  25.7838263
  13.4233004  17.8207031  31.8189826  14.1467203  17.3679557  31.6400846
  13.1582967  18.1011697  31.0362154  13.4914278  17.7958000  31.6768542
   2.2919873  12.4167205  28.5542705   1.6672943  12.4285597  27.9468658
   1.9565467  12.8927380  29.2033946   2.1505364  12.4885722  28.5599274
  10.0365639  21.0593367  18.7184152  10.7599838  21.5251480  18.5748726
   9.5966230  21.1266977  17.9681749  10.0781331  21.1377204  18.5868934
   9.2051794  17.9190909  29.9684841   8.5908787  17.3748960  30.2633477
   9.7219079  17.4055146  29.4890657   9.1907456  17.7627318  29.9409070
   8.4448091  18.9895179  27.7029140   8.0175699  18.3644898  27.2694575
   8.4373035  18.7070101  28.5288147   8.3807232  18.8547960  27.7608967
   1.5610618  14.0260352  30.7717574   1.7204105  13.2703677  31.1769296
   1.3803512  14.5751292  31.4258312   1.5575977  13.9954166  30.9280280
   9.5030921   6.1921588  31.3268363   9.0071482   6.3885262  30.6359930
  10.2599983   6.5914256  31.1557165   9.5417746   6.2799322  31.1988500
   6.7733801   9.8663934  27.9171674   6.7976288   9.3324046  27.2284454
   7.0245274   9.3581243  28.5797264   6.8143719   9.7124838  27.9136319
   5.2364736  18.1595492  35.3997713   4.3860366  18.2967206  35.5355358
   5.3992863  17.4259270  35.8445414   5.1348599  18.0709593  35.4853312
   4.4749486  15.1095262  29.5951317   3.6441416  15.2769080  29.3886565
   4.4201003  14.7331213  30.3800203   4.3438901  15.0784993  29.6799845
  15.8568318  16.7833442  30.3220376  16.4486158  17.4230693  30.3538574
  16.2927313  16.0856479  30.6112443  16.0086749  16.7751792  30.3701209
   7.6861708  21.2050814  30.9478270   7.1786799  21.7586661  31.3918900
   7.3888354  21.2659104  30.1297044   7.5666593  21.2957125  30.8926727
   9.8523890   9.5704134  29.7902933  10.2778962   9.1176660  29.1786459
   9.2380883   9.0164205  30.0667720   9.8252536   9.4218110  29.7407958
  10.2969488  25.1214072  18.8782213   9.5798798  24.9474934  18.4129451
  10.9476226  24.8866644  18.3457699  10.2871339  25.0609864  18.7311431
  12.8817460  13.9978660  22.6223518  12.2108649  14.5408363  22.4936584
  13.5757210  14.4673516  22.3805213  12.8846327  14.1476932  22.5679046
   6.9304193  26.1375372  27.8535277   6.7069848  25.3794202  28.2219303
   6.4414037  26.1673394  27.1315716   6.8247642  26.0297597  27.8012018
  13.0445587  10.4534544  25.5313892  13.3973197  10.0264267  26.2059690
  12.1860388  10.3685388  25.6614968  12.9695032  10.3779285  25.6508902
   1.7429272  13.0842064  23.5896738   1.0241261  13.5006196  23.8569602
   2.1141634  13.6496303  23.0388376   1.6921204  13.2291345  23.5479545
  11.0428853  13.7169913  29.4798734  11.0226780  13.5353208  30.3333513
  11.0908054  14.5881931  29.4558318  11.0463494  13.8186451  29.6022029
   8.9875183  20.3057105  35.4047210   8.9471038  19.6606782  34.8192366
   9.7998501  20.2493722  35.7172622   9.1018336  20.2016072  35.3644160
   5.5782650  26.3575831  25.3072361   5.1643049  25.6949961  24.9176203
   6.2630024  26.5053689  24.7868056   5.6181022  26.2816489  25.1728858
   8.9447944  25.5165916  26.0595978   8.5464228  25.6268186  25.2916798
   8.3299164  25.7247982  26.6422538   8.7946834  25.5639484  26.0327277
  14.4769647   5.5752956  26.4598204  13.9700512   4.8682096  26.3919382
  15.2737081   5.2446145  26.5899281  14.5196886   5.4226107  26.4697199
  10.3933663  12.0819568  22.3571868  10.1647356  12.1052270  21.5150226
  10.6531739  11.2577035  22.4766878  10.3979851  11.9635648  22.2497066
   4.6752891  13.9354041  31.9596968   4.1631794  13.3275224  32.3181999
   4.5032388  14.6510634  32.4270944   4.5742528  13.9517341  32.0813192
   3.4478425  10.6196115  23.6526064   3.9235792  10.9813194  23.0176245
   2.9467025  11.2752582  23.9326206   3.4443784  10.7690303  23.6002805
  16.6789787  20.0917883  19.4439069  17.0623393  20.8409239  19.6737166
  15.8833900  20.3383702  19.1851058  16.6183569  20.2387576  19.4396642
   8.5521962  11.8578286  34.3999224   9.1093392  11.6292095  33.7677689
   8.2283027  12.6183952  34.1234436   8.5868372  11.9362123  34.2655721
   6.2705079  14.9445939  35.3651231   7.0216406  15.2597616  35.6790785
   6.4627655  14.7425110  34.5385153   6.4096493  14.9613321  35.2894626
  13.1190369  11.0719506  22.6075026  13.1184596  10.9168162  23.4659303
  12.9146549  11.9182493  22.5516412  13.0890147  11.1740126  22.7262966
  10.8431221  15.7517007  26.2611233  11.3384886  15.0340002  26.2215253
  10.0330997  15.4487805  26.1465720  10.7975114  15.6014654  26.2384959
   6.2889833  19.6014821  18.4108238   5.4801155  19.2781494  18.3641547
   6.7964742  18.8948043  18.3436486   6.2439499  19.4496137  18.3938532
  12.9083040  18.5020695  28.9488362  13.3338112  17.9795117  28.3958787
  12.5439960  19.1001532  28.4276985  12.9169643  18.5130922  28.7897372
   2.5437120  26.7984912  27.7085707   2.8583679  27.6121301  27.7163489
   2.9530533  26.4135131  28.3767866   2.6505218  26.8613615  27.8089799
   9.4961639  22.2154959  25.2789519   9.9672818  22.9295222  25.4479504
   9.8321818  21.6153709  25.8149389   9.6156755  22.2326423  25.3821895
  11.5838624  23.8256272  37.4581591  11.6935590  23.0364833  37.8138339
  11.9129521  23.7362209  36.6555929  11.6491030  23.6962125  37.3923982
  10.1335586  22.0072893  32.0417212   9.5856532  21.3830777  31.7737277
  10.5948615  22.1967165  31.3261291  10.1202795  21.9431943  31.8967643
  12.9429450  10.0758248  29.4268404  12.3592439  10.5767454  29.0145972
  13.2633744   9.5687804  28.7932728  12.9042625  10.0750083  29.2726911
   9.6993912  23.0123966  28.5726553  10.5192286  22.8686932  28.8342848
   9.4187990  23.6370165  29.1142991   9.7790655  23.0834318  28.6914493
  26.1707562  30.6688818  21.5369429  26.1401567  31.5233454  21.7087699
  26.7688911  30.3684110  22.0955573  26.2544720  30.7505314  21.6444232
  19.3707247  29.7564469  26.2922360  18.5145143  29.9172967  26.3431477
  19.4174901  28.8856533  26.3127421  19.2506359  29.6515271  26.3028426
  13.7548387  39.2927186  22.0559591  13.0031287  38.9142725  21.8275637
  14.2034399  39.3245620  21.3078402  13.7098054  39.2412794  21.9117094
  19.2073347  39.7152556  17.4845139  18.8724715  40.3929478  17.0489361
  19.7200217  39.3257867  16.8962010  19.2338928  39.7577134  17.3331930
  18.7477638  41.6666825  23.4256250  19.1317018  42.2353723  22.8861025
  18.6836779  40.9416335  22.9462066  18.7951065  41.6442288  23.2750113
  15.3333143  39.3045579  24.3222364  15.4343506  38.4945933  24.6319492
  14.7374888  39.2102525  23.6922042  15.2605682  39.1710607  24.2748602
  23.9924137  33.2441120  19.8087739  23.8763663  33.9948806  20.2379877
  24.7880024  32.9865073  20.0583826  24.0928726  33.3175967  19.9091831
  15.1733883  44.2223168  25.7237220  15.8171338  44.6636332  26.1133378
  15.4990138  43.4176594  25.6367479  15.3165711  44.1688363  25.7682697
   8.5298188  35.3265865  23.9474698   8.2948372  34.4933518  23.8406966
   8.6683828  35.6070531  23.1335899   8.5153850  35.2449369  23.8117053
  10.8288275  27.4951596  26.8459005  10.2093307  26.9044243  26.6769020
  10.7272139  28.0863031  26.2123329  10.7225950  27.4955678  26.7263995
  15.8754463  37.2335143  21.0957082  16.1970304  37.7740350  20.4918390
  16.5226559  36.6631914  21.2279371  16.0180518  37.2294318  21.0264117
  17.9256171  29.2351138  21.1791468  18.6236335  29.4139265  21.6712932
  18.2408503  28.7121477  20.5561858  18.0751508  29.1844910  21.1593479
  10.5557408  31.0403878  29.0902574  10.4316105  31.6266323  29.7252393
  11.2075692  30.5464073  29.3914849  10.6331057  31.0542682  29.2288504
  18.1144106  35.6221583  21.1671260  18.5537741  35.0138683  21.6126033
  17.9648769  35.2428956  20.3956725  18.1565572  35.4760054  21.1190427
  15.5815749  34.2165594  28.3690085  16.2264752  33.7238038  28.0501034
  15.8217526  34.3590381  29.1956164  15.7126334  34.1643037  28.4439619
  18.1201840  37.0620500  28.0196978  18.4025083  36.2671906  27.7983734
  18.8488001  37.5401088  28.0402039  18.2691404  37.0155097  27.9899993
  16.0983034  24.6043534  25.2612743  15.7686364  25.0554678  24.5916442
  15.4228036  24.5259698  25.8085749  15.9493470  24.6594669  25.2435966
  21.7153443  33.9748764  18.1202029  21.6304738  34.8309731  18.2651598
  22.2037826  33.6993088  18.7884188  21.7742340  34.0606085  18.2404111
  23.3059442  20.5929057  23.5062354  22.9912883  21.2832536  23.9382776
  22.7886384  20.5373839  22.8047854  23.1823912  20.6863946  23.4659303
  22.6471876  30.5933558  19.6199764  22.1183347  30.8093192  20.2797070
  23.1696896  31.2869697  19.5400734  22.6460329  30.7276695  19.7055363
  14.5371484  34.4896775  18.4207232  13.9528699  34.9946806  18.8273096
  14.1341579  34.2639162  17.6803824  14.3910787  34.5305023  18.3712257
  10.0915512  40.2051536  25.2230904   9.6083090  40.9302026  25.1990487
  10.9038830  40.5027666  25.3341061  10.1406260  40.3553890  25.2358183
  16.1629666  38.9983717  27.8280718  15.6456608  38.6391132  27.2242026
  16.8604057  38.4745891  27.8386784  16.1895247  38.8681405  27.7410977
  18.9948698  30.7362427  16.8976153  19.2344702  30.9440411  16.0851496
  19.3164539  29.9319936  17.0065097  19.0785856  30.6476528  16.7936706
  14.3038988  22.6655823  20.7435691  15.0584956  23.0334140  20.5052741
  14.1266523  23.0395377  21.5114870  14.3893467  22.7754011  20.8220579
  12.9459709  40.7207712  25.3751184  13.6480289  40.2059701  25.4323940
  12.8657193  41.0481863  26.1798059  13.0383470  40.6921938  25.5023976
  13.9938616  30.9583299  34.5031599  14.1659120  30.8489193  35.3516880
  14.5307974  31.6037704  34.2662791  14.0983620  31.0375301  34.5936695
  12.6596053  25.0726142  17.4413804  12.4771626  25.2898023  16.6154797
  13.5221666  25.1865154  17.4972418  12.7600642  25.1216040  17.3268291
  12.2710485  36.9114064  24.8836792  13.1099384  37.1436997  24.9310553
  12.3022254  36.0418375  24.8143827  12.3992202  36.8171010  24.8801436
  12.8963188  37.3314939  29.1850097  13.4361413  37.1886070  29.8553470
  12.2133134  37.7311690  29.5534123  12.8755342  37.3694610  29.3384519
  18.3395772  22.0752552  20.4762828  19.0681933  21.8968507  20.0300984
  18.4290665  22.9170632  20.6870006  18.4602434  22.1736431  20.4416345
   8.3000333  33.5515230  29.3384519   8.0338748  32.7354347  29.4975509
   8.3138897  33.5968385  28.4680034   8.2625055  33.4372135  29.2338001
  12.2058080  28.3500314  15.9536277  11.4916257  28.0638494  16.3658709
  12.6902049  28.6896940  16.5942664  12.1717443  28.3581964  16.1091912
  13.0498939  27.0893608  31.9851526  12.3570736  26.6190588  32.2312258
  13.6659267  26.8631913  32.5593234  13.0383469  26.9860740  32.1060679
  19.3805398  36.8530268  16.3298085  19.7956546  36.5215292  15.6382581
  18.5497327  36.6199171  16.2018222  19.3193407  36.7701524  16.2088932
   8.7093747  34.3374009  26.6196263   8.5269320  34.3120895  25.7668555
   9.4443416  34.8072947  26.6585172   8.7907810  34.4035372  26.4994181
  11.7739498  31.0559012  33.1278372  12.4979471  31.0412043  33.6143266
  11.8755635  31.7654367  32.6300340  11.8957707  31.1583715  33.1257158
  26.6083878  33.4127185  21.5998754  26.9392095  33.9454825  20.9938849
  27.1816966  33.4666073  22.2560705  26.7417557  33.4996754  21.6076536
  19.1484448  34.5358097  37.9927319  18.3557428  34.8501609  38.1779938
  19.2633375  34.7509565  37.1548103  19.0479858  34.6141933  37.8965653
  21.8215767  31.2592088  22.2822334  21.9162621  31.9981382  22.7361960
  21.1974610  30.8309563  22.7156899  21.7424797  31.3053408  22.4130482
   8.6764657  31.2167510  26.7695330   9.2538160  31.0803961  27.4087575
   7.9778719  30.7603294  27.0240914   8.6585678  31.1289776  26.9017619
  22.0738788  33.1040828  15.5159286  21.9918951  33.1743015  16.3814273
  22.7118508  33.6670572  15.3243027  22.1558625  33.1979799  15.6149236
  15.4331959  32.8701566  24.9833813  15.1751203  32.0373301  24.9565112
  15.4880442  33.0959179  24.1426313  15.4031737  32.7799337  24.8553950
  20.5133009  24.9730016  25.0837905  19.8089336  24.4839202  25.2421825
  20.5617984  24.9852491  24.2126350  20.4163061  24.9019664  24.9777245
  14.4066671  30.4239328  25.4698708  13.8316263  30.5831496  26.1062668
  14.0302348  29.7874737  25.0067158  14.2669484  30.3537141  25.4953266
  18.0739960  28.8962677  30.3291086  17.6854393  28.4716895  29.6743277
  17.4094658  29.1444827  30.8368113  17.9186888  28.8701398  30.3078954
   4.1523490  30.0679403  23.4843148   4.2383742  29.6911271  24.2656678
   4.7799288  29.6939849  23.0063106   4.2580041  29.9564885  23.5288625
  19.1778898  33.1261282  18.5267893  19.9919537  33.4176175  18.4150664
  19.1138039  32.4721144  17.9526186  19.2881637  33.0726477  18.4256730
  15.0486806  36.5982799  23.6540205  15.6860753  36.3594547  24.1991998
  15.4741878  36.8019958  22.9193366  15.2062973  36.5933810  23.6257362
   9.7399449  38.8371136  27.5374509   9.7803594  39.1085987  26.7094288
  10.2993973  39.3613044  27.9532297   9.8282795  38.9546891  27.4766397
  15.6889621  31.8185089  17.9915094  16.0734774  31.5992796  18.7431640
  15.4401242  32.6448035  18.1216171  15.7091694  31.9083235  18.1216171
  15.8558162  25.0991504  37.7077679  15.5411603  25.8691067  37.4447241
  15.5348094  24.5361760  37.1229906  15.7617081  25.1301773  37.5819029
  17.4308278  37.0755222  25.3333991  17.5047287  36.9130394  26.1875841
  18.2477785  37.2645412  25.0894473  17.5624637  37.0791964  25.4232017
  11.1914035  37.4213085  22.3628435  10.3652153  37.6674822  22.2362714
  11.2526026  37.3425166  23.2290493  11.0788202  37.4458034  22.4717379
  13.4090059  23.4882026  23.3223875  12.5412484  23.5604625  23.3881484
  13.6965263  24.2904105  23.5111850  13.3229807  23.6176173  23.3598642
  15.9712864  40.0389965  20.0647465  16.2611163  39.6478946  19.3406691
  16.7016345  40.2206670  20.5052740  16.1219748  40.0083779  20.0230272
  16.5607609  34.8407711  31.1500595  16.0619303  35.5523479  31.2285484
  17.3707834  35.1608378  31.1118758  16.6063716  34.9934560  31.1557164
  13.9118780  42.0157348  23.1307614  13.6919075  41.7254702  23.9234281
  13.6913302  41.3572303  22.6025527  13.8466374  41.8757056  23.1696523
  12.8235727  34.1030664  25.3963316  12.5348976  33.4768135  25.9309043
  13.6919075  34.0450951  25.4627997  12.9095979  34.0018208  25.4854271
  16.0786735  43.3886737  21.9138307  16.7310793  42.8563180  22.1429333
  15.3812344  43.0355390  22.3006181  16.0717453  43.2576260  22.0050475
  13.0268000  35.7425915  21.3205681  13.7813968  36.1238954  21.5341144
  12.4338613  36.1937059  21.7752378  13.0504714  35.8654742  21.4188560
  24.0726654  35.7091152  21.2569286  24.6384686  36.3684361  21.1727829
  23.4254557  36.0540850  21.7285688  24.0605410  35.8573093  21.3142043
  15.4874667  27.6988755  36.4462893  14.6774443  28.0046535  36.3352736
  15.9649354  28.4194338  36.5615477  15.4378146  27.8503357  36.4469964
  14.3466227  36.9134476  26.6945797  13.8246980  37.0534768  27.3797661
  14.7340247  36.1545141  26.8847914  14.3269928  36.8220000  26.8246873
  11.3357411  26.9640285  20.7640751  11.0482207  26.5941556  20.0272699
  12.0227879  27.4335140  20.5024456  11.3946308  26.9787255  20.6155827
  20.5433232  38.6529936  20.6806365  20.3019908  37.9197796  20.2733430
  20.7234565  39.2016793  20.0272699  20.5340856  38.6252327  20.5236588
  15.7732552  33.9438495  22.0927288  15.5775335  34.5513230  21.4987591
  15.9966898  33.2506439  21.6118961  15.7767193  33.9316021  21.9343368
  14.1711082  30.8293233  22.2108156  14.8933734  30.9934392  21.7511962
  13.6919075  31.5502898  22.1047496  14.2074813  30.9591463  22.1273770
  11.8218699  33.2351306  31.3162296  12.3339796  33.5135559  30.6671056
  11.5355042  33.9740600  31.6825109  11.8553562  33.3853659  31.2752174
  20.5773868  24.0642409  22.3232457  21.2800221  23.8650158  21.8452415
  20.3118057  23.2918352  22.6301300  20.6420501  23.9205375  22.2977898
   8.9085606  27.7421498  21.6126032   9.0101742  28.5447659  21.9407008
   9.7041492  27.5408834  21.3149113   9.0413511  27.8307396  21.6161388
  15.3402425  25.3277694  31.3763337  15.1485622  25.3432829  32.2262761
  16.1901021  25.5241369  31.3529992  15.4378147  25.3592046  31.4986632
   9.7249338  27.8568676  29.3547154   9.5834829  27.0052617  29.4791662
  10.0089901  27.8997337  28.5309360   9.7457184  27.7368426  29.2514778
  19.8787930  29.6935766  23.4991642  19.6322644  29.6131517  24.3328431
  20.2073053  28.9089234  23.3054170  19.8909174  29.5662031  23.5939165
  15.8384957  32.4292485  32.9114625  15.9828333  33.0093693  32.2757735
  16.1860606  32.8068781  33.6164480  15.9112419  32.5713189  32.9213620
  18.0104875  31.6282653  30.6939757  17.2628189  31.8213667  30.2888035
  18.1646400  30.8027873  30.4563878  17.9227302  31.5347764  30.5985163
  14.9112712  40.6195256  29.7775652  15.0602276  40.0598172  29.1249056
  15.6912714  40.6987258  30.1608171  15.0486806  40.5480822  29.7372601
  25.2689352  35.7597379  18.0494923  24.8896160  34.9734517  18.0424212
  24.6055597  36.3084236  17.9066567  25.1147826  35.7242203  18.0275719
  18.2506652  25.5233204  31.5835161  18.7079266  26.2557178  31.7107953
  18.3262980  25.0999669  32.3422416  18.3297621  25.5690442  31.7136237
  10.4939643  25.7699023  32.6724604   9.9581832  25.1579382  32.9885371
  10.5557408  26.3447159  33.3258271  10.4235276  25.7645951  32.8160031
  22.7233978  18.7023079  25.4529003  22.8417546  19.1599542  24.7196306
  22.5496153  17.8968340  25.1665221  22.7153149  18.6516851  25.3029937
  18.0936260  39.3110898  21.8883749  18.8586151  39.0420542  21.5666413
  17.9914350  38.8260909  22.6053812  18.1917755  39.2000463  21.9463576
  16.1289030  27.5135308  28.4276985  15.3385104  27.3326768  28.7494320
  16.5249652  26.7362260  28.4107279  16.0705906  27.3722769  28.4729533
  20.6154920  36.3423082  13.8683698  21.3827905  36.4023207  13.4589550
  20.1686229  35.7703523  13.3840017  20.6628348  36.2659658  13.7361408
  21.5132716  35.1477738  26.1536430  20.8377718  34.9162970  26.6549817
  21.5225092  34.5398921  25.5278535  21.4151220  35.0236663  26.1352583
  18.6426860  29.9895567  32.9100483  18.5786001  30.8505523  32.7820620
  18.7824048  29.6727560  32.1096035  18.6542330  30.0695733  32.7728696
  23.5149450  38.0042870  18.3846608  23.5969288  38.8109856  18.0608059
  23.9999193  38.0238829  19.1087382  23.5986608  38.1263533  18.4433507
  17.3245954  32.6827706  27.0516686  16.9008203  32.8832205  26.3155705
  17.1490809  31.8356554  27.1640986  17.2356834  32.5876488  26.9590376
  16.8257647  44.1978219  29.5138144  17.3153577  43.4989008  29.3313808
  16.2541879  43.9002089  30.1014201  16.8142177  44.0504443  29.5739184
  12.6128399  33.1779758  22.4844659  12.7693018  33.1126560  23.3400651
  12.9528992  33.9528310  22.2723338  12.6861634  33.2828956  22.5799253
  19.1507543  32.5537641  21.3538022  19.6923089  32.0508022  21.8176643
  19.4654102  32.5002836  20.5427507  19.2771940  32.4717062  21.3021834
  17.3193993  37.9454993  18.6378050  17.3886813  37.0869531  18.7771051
  18.0982448  38.1626874  18.3097075  17.4446843  37.8507857  18.6095207
  21.7101481  40.3692694  22.8514543  21.3181272  40.0659409  22.1337410
  21.8654553  41.2061784  22.6619497  21.6755070  40.4476531  22.7171041
   9.1862660  30.3614708  22.8005426   9.5661625  30.7799253  22.1365693
   8.6118025  30.9428164  23.1074269   9.1573985  30.5092567  22.7482167
  21.8741155  36.9342683  22.7920574  21.5155810  37.1057326  23.5684606
  21.3879866  37.3955888  22.2348572  21.7499852  37.0281654  22.8245843
  19.6911541  20.5573881  26.3947665  18.8205099  20.5312602  26.3480975
  19.9451883  20.3851073  25.5773511  19.6005101  20.5284025  26.2667802
  16.6629521  32.6141848  15.3320808  16.9522046  33.3906731  15.6064383
  16.7501320  32.1030580  16.0335308  16.7183777  32.6533767  15.4763306
  19.5589408  30.4623082  37.1272332  20.0289039  31.0865199  37.5140206
  19.6051288  29.7940058  37.6865547  19.6357284  30.4557763  37.2672403
  16.7160682  22.5680110  27.8521136  16.1999170  21.8760301  27.9772715
  16.1554611  23.2350887  27.7983734  16.5567195  22.5643367  27.8627202
  18.7852915  23.1073070  29.6813988  18.3984668  23.1322101  30.4627518
  18.2985853  22.5414748  29.2288505  18.6565424  23.0268821  29.7301892
  18.4510057  19.9940055  31.9724248  19.0803175  20.5300355  31.6945319
  18.6195920  19.9017414  32.8237814  18.5687852  20.0601418  32.0572776
  18.2523972  24.7811250  34.2450660  19.0797401  24.5096399  34.3009274
  18.2731818  25.5772092  34.6014478  18.3776822  24.8591004  34.3065843
  12.8293462  31.9275113  27.4320920  11.9881468  31.8278987  27.6399814
  13.0383470  32.6970593  27.7835241  12.7358154  32.0267156  27.5148235
  10.3069029  29.5494650  25.2605671   9.9125726  29.6237662  24.4855781
   9.7509146  29.9352596  25.8114033  10.1671841  29.6176424  25.2273331
  21.9433975  22.5275944  24.9409550  22.1483569  22.4598252  25.7866547
  21.6160399  23.3334765  24.8730727  21.9249223  22.6361884  25.0569205
  16.6410127  29.8556512  26.6818518  16.3373264  29.3012500  27.2828926
  15.9389547  30.0348722  26.1946552  16.4926336  29.8001294  26.6988224
  15.6976224  27.1657032  21.2463220  15.9735958  26.4475944  20.8340787
  16.2974893  27.7641952  21.0384326  15.8269488  27.1477403  21.1543981
  14.7028478  37.0706233  31.3890616  14.5948833  37.0808295  32.2552674
  14.9124259  37.8961013  31.1995570  14.7178589  37.1947307  31.4894707
  25.1967663  23.0807708  24.4212315  24.5841977  23.5678110  24.8066047
  25.2931838  22.4051199  24.9649967  25.1205561  23.0526017  24.5591174
  19.1986744  24.8370549  19.5209815  19.6530491  25.0081110  20.2457659
  19.6726790  24.2238660  19.1207591  19.3355064  24.7721434  19.5683576
  12.7202270  34.3218875  28.8512553  12.1290203  34.9628373  28.8215568
  13.4823293  34.7456492  28.8243853  12.7450530  34.4794714  28.8427701
  13.1162892  25.4820873  29.5180571  13.5764374  25.5559802  30.2555695
  13.1618999  26.2802127  29.1680392  13.1913448  25.6115020  29.5753327
  14.7646242  26.1487568  34.0852598  14.3731807  25.5020915  34.5208376
  14.9332105  26.7399003  34.7046853  14.7317152  26.1401836  34.2415304
  22.4791786  39.7728187  26.2844578  22.2811474  40.2619001  25.5900789
  21.8579497  39.9769428  26.8628711  22.3579350  39.8744725  26.2667801
  16.5399764  31.5413083  20.6254822  17.2841809  31.9287360  20.8637772
  16.6860460  30.6970509  20.7895310  16.6710349  31.4743556  20.6848792
  18.4579340  23.3363342  25.6586683  17.6115385  23.5086150  25.5328033
  18.4550472  22.5312686  25.9952512  18.3326490  23.2424371  25.6897810
  19.5277640  27.1138557  26.5248741  19.0537594  26.5880319  27.0354052
  19.8995776  26.5668030  25.9563603  19.5127529  26.9554553  26.5163889
   9.9050670  29.1110064  31.8932287  10.7676283  29.0105773  31.8069617
   9.5742453  28.5304773  31.3317859   9.9835867  29.0101690  31.7977693
  21.4561140  28.0075111  19.5874495  20.9284158  28.0903855  18.8980204
  21.9156848  28.7492983  19.5839140  21.4462990  28.1295774  19.4849190
  13.2652456  27.9352513  28.5542705  12.6405526  27.9470904  27.9468658
  12.9298051  28.4112688  29.2033946  13.1237948  28.0071030  28.5599274
   9.9778132  35.9952973  29.9946470   9.4478056  35.3045412  30.0441444
  10.2503225  35.9863158  29.1659178   9.9402854  35.8920104  29.8793886
  21.0098222  36.5778675  18.7184152  21.7332421  37.0436788  18.5748726
  20.5698813  36.6452285  17.9681749  21.0513914  36.6562512  18.5868934
  19.4180674  34.5080487  27.7029140  18.9908282  33.8830206  27.2694575
  19.4105619  34.2255409  28.5288147  19.3539816  34.3733268  27.7608967
  12.5343202  29.5445660  30.7717574  12.6936688  28.7888984  31.1769296
  12.3536095  30.0936600  31.4258312  12.5308561  29.5139474  30.9280280
  20.4763505  21.7106896  31.3268363  19.9804066  21.9070570  30.6359930
  21.2332567  22.1099564  31.1557165  20.5150329  21.7984630  31.1988500
  17.7466384  25.3849242  27.9171674  17.7708871  24.8509354  27.2284454
  17.9977858  24.8766551  28.5797264  17.7876303  25.2310146  27.9136319
   5.2573974  32.6680737  27.3514818   5.1517423  32.6227581  26.4866902
   4.5074194  33.0134517  27.6329103   5.1309577  32.7121645  27.2652148
  14.0267706  24.1120060  27.2977418  14.0666078  24.6129267  28.0112126
  13.2017371  24.2030454  27.0283341  13.9107232  24.2001876  27.3627956
  16.2097319  33.6780800  35.3997713  15.3592950  33.8152514  35.5355358
  16.3725447  32.9444578  35.8445414  16.1081183  33.5894901  35.4853312
  15.4482070  30.6280570  29.5951317  14.6173999  30.7954388  29.3886565
  15.3933587  30.2516521  30.3800203  15.3171485  30.5970301  29.6799845
  13.2565853  24.1189463  35.2307728  13.8818556  23.5751596  35.5037160
  12.8016333  23.6384380  34.6615518  13.2814114  23.9678944  35.1869322
  13.8218114  28.9036161  20.1241435  13.9621075  29.4008626  20.8270076
  14.3200646  28.2022456  20.2655649  13.9159194  28.8738140  20.2493014
  13.8518336  29.7703272  17.4534012  14.4863415  30.3663697  17.3883474
  13.9343947  29.4706730  18.2679882  13.9574887  29.8144181  17.5637098
  15.4297319  25.7017248  17.4279454  15.7513160  25.2220330  16.7738716
  15.6924263  26.5116894  17.2370265  15.5163344  25.7507146  17.3034946
  18.6594292  36.7236122  30.9478270  18.1519383  37.2771969  31.3918900
  18.3620938  36.7844412  30.1297044  18.5399177  36.8142433  30.8926727
  10.3571324  31.9671113  20.7223558  10.8663553  32.5635621  21.1034863
  10.8305596  31.6997087  20.0399977  10.5014700  32.0156929  20.6778080
  21.2702072  40.6399380  18.8782213  20.5531382  40.4660242  18.4129451
  21.9208809  40.4051952  18.3457699  21.2603922  40.5795172  18.7311431
  19.2650697  21.5604542  23.1993510  18.6219015  21.4102188  23.7678648
  18.9250104  21.3146887  22.4342614  19.1195774  21.5016664  23.1696525
  17.9036777  41.6560680  27.8535277  17.6802431  40.8979510  28.2219303
  17.4146620  41.6858702  27.1315716  17.7980226  41.5482905  27.8012018
  24.0178171  25.9719852  25.5313892  24.3705781  25.5449575  26.2059690
  23.1592972  25.8870696  25.6614968  23.9427615  25.8964593  25.6508902
  12.7161856  28.6027372  23.5896738  11.9973845  29.0191504  23.8569602
  13.0874218  29.1681611  23.0388376  12.6653787  28.7476653  23.5479545
  16.5515234  41.8761139  25.3072361  16.1375632  41.2135269  24.9176203
  17.2362608  42.0238997  24.7868056  16.5913605  41.8001797  25.1728858
  19.9180528  41.0351224  26.0595978  19.5196811  41.1453494  25.2916798
  19.3031747  41.2433290  26.6422538  19.7679417  41.0824792  26.0327277
  18.4908430  27.6425372  18.9270118  17.8973269  27.9642368  18.3754685
  18.5283708  26.7966467  18.7191224  18.4082819  27.5649700  18.8152889
  25.4502231  21.0938264  26.4598204  24.9433095  20.3867403  26.3919382
  26.2469664  20.7631453  26.5899281  25.4929470  20.9411415  26.4697199
  21.3666247  27.6004876  22.3571868  21.1379940  27.6237578  21.5150226
  21.6264323  26.7762343  22.4766878  21.3712435  27.4820956  22.2497066
  15.6485475  29.4539349  31.9596968  15.1364378  28.8460532  32.3181999
  15.4764971  30.1695942  32.4270944  15.5475112  29.4702648  32.0813192
  10.4951190  27.8976925  34.6099330  10.3253780  28.5578299  34.0647537
  10.0517140  28.1083486  35.3311819  10.4050523  28.0262907  34.6360959
  14.4211009  26.1381422  23.6526064  14.8968375  26.4998502  23.0176245
  13.9199609  26.7937890  23.9326206  14.4176368  26.2875611  23.6002805
  27.6522371  35.6103191  19.4439069  28.0355976  36.3594547  19.6737166
  26.8566484  35.8569010  19.1851058  27.5916153  35.7572884  19.4396642
  19.5254545  27.3763594  34.3999224  20.0825975  27.1477403  33.7677689
  19.2015610  28.1369259  34.1234436  19.5600955  27.4547431  34.2655721
   7.3953254  30.8023790  29.8687820   6.8479974  30.1324436  29.9868688
   8.1845632  30.4353638  29.9331287   7.4305438  30.6488776  29.8956520
  17.2437663  30.4631247  35.3651231  17.9948990  30.7782924  35.6790785
  17.4360239  30.2610418  34.5385153  17.3829077  30.4798629  35.2894626
  16.4637662  28.2822622  17.0199448  16.8436627  28.3002251  16.2350562
  15.7230258  28.7276611  16.8990295  16.4106500  28.3504397  16.8863016
  24.0922953  26.5904813  22.6075026  24.0917179  26.4353470  23.4659303
  23.8879133  27.4367800  22.5516412  24.0622731  26.6925434  22.7262966
   6.1540224  30.0144598  27.0233843   5.9761985  29.5621207  27.7488758
   5.8659246  30.8170759  27.2072320   6.0853177  30.0667156  27.1577346
  17.2622416  35.1200128  18.4108238  16.4533739  34.7966802  18.3641547
  17.7697325  34.4133351  18.3436486  17.2172083  34.9681445  18.3938532
   7.8912694  32.5472322  24.1355602   7.0258213  32.5358012  24.0238373
   7.9911509  32.3602544  24.9826741   7.7786860  32.5178383  24.2444546
  13.5169703  42.3170220  27.7085707  13.8316262  43.1306609  27.7163489
  13.9263117  41.9320439  28.3767866  13.6237801  42.3798923  27.8089799
  20.4694223  37.7340267  25.2789519  20.9405401  38.4480530  25.4479504
  20.8054402  37.1339017  25.8149389  20.5889338  37.7511731  25.3821895
  17.3863718  22.5067738  32.2347614  17.5191624  21.7098731  32.5628590
  17.7708871  23.0334141  32.8145890  17.4620047  22.4667654  32.3691117
  20.4596073  19.4298064  28.8328707  19.6542037  19.3195793  29.1496546
  20.3302809  19.5310519  27.9758573  20.3216206  19.4281734  28.7536748
  16.4556833  24.5084150  19.7027079  17.2772527  24.6782463  19.4608774
  15.9926484  24.6631411  18.9793377  16.5087995  24.5565883  19.5598723
  15.0452165  22.5026913  30.4825508  15.5896578  22.1618039  31.0729850
  15.0989101  23.3612374  30.6246792  15.1341284  22.5782172  30.5907381
  10.8582724  36.2643329  27.3564316  11.4627581  36.2239163  26.7278136
  10.6510036  37.1114481  27.3868372  10.9171621  36.3831331  27.2680432
   6.0934006  35.2477946  27.2263239   5.9958284  34.4374218  27.5353296
   6.8762876  35.2269740  26.8409507   6.1950142  35.1245036  27.2150102
  37.1440146  46.1874126  21.5369429  37.1134150  47.0418762  21.7087699
  37.7421495  45.8869418  22.0955573  37.2277304  46.2690622  21.6444232
  30.3439831  45.2749777  26.2922360  29.4877726  45.4358275  26.3431477
  30.3907485  44.4041841  26.3127421  30.2238942  45.1700578  26.3028426
  24.7280971  54.8112494  22.0559591  23.9763870  54.4328033  21.8275637
  25.1766982  54.8430928  21.3078402  24.6830637  54.7598102  21.9117094
  30.1805930  55.2337864  17.4845139  29.8457299  55.9114786  17.0489361
  30.6932801  54.8443175  16.8962010  30.2071512  55.2762442  17.3331930
  29.7210222  57.1852133  23.4256250  30.1049601  57.7539031  22.8861025
  29.6569363  56.4601643  22.9462066  29.7683649  57.1627596  23.2750113
  33.1891652  47.3341820  28.9354012  33.7347612  48.0126907  28.9947981
  33.1308528  47.1929281  28.0755593  33.2607566  47.4133822  28.8166072
  26.3065727  54.8230887  24.3222364  26.4076090  54.0131241  24.6319492
  25.7107472  54.7287833  23.6922042  26.2338265  54.6895915  24.2748602
  34.9656721  48.7626428  19.8087739  34.8496247  49.5134114  20.2379877
  35.7612607  48.5050381  20.0583826  35.0661310  48.8361274  19.9091831
  26.1466466  59.7408476  25.7237220  26.7903922  60.1821640  26.1133378
  26.4722722  58.9361902  25.6367479  26.2898295  59.6873670  25.7682697
  19.5030771  50.8451173  23.9474698  19.2680956  50.0118826  23.8406966
  19.6416412  51.1255839  23.1335899  19.4886434  50.7634677  23.8117053
  21.8020859  43.0136904  26.8459005  21.1825890  42.4229551  26.6769020
  21.7004722  43.6048339  26.2123329  21.6958534  43.0140986  26.7263995
  26.8487046  52.7520451  21.0957082  27.1702887  53.2925658  20.4918390
  27.4959143  52.1817222  21.2279371  26.9913101  52.7479626  21.0264117
  28.8988754  44.7536446  21.1791468  29.5968919  44.9324573  21.6712932
  29.2141087  44.2306785  20.5561858  29.0484091  44.7030218  21.1593479
  21.5289992  46.5589185  29.0902574  21.4048688  47.1451631  29.7252393
  22.1808276  46.0649381  29.3914849  21.6063641  46.5727990  29.2288504
  29.0876690  51.1406891  21.1671260  29.5270325  50.5323991  21.6126033
  28.9381352  50.7614264  20.3956725  29.1298155  50.9945362  21.1190427
  26.5548333  49.7350902  28.3690085  27.1997335  49.2423346  28.0501034
  26.7950110  49.8775689  29.1956164  26.6858918  49.6828345  28.4439619
  29.0934424  52.5805808  28.0196978  29.3757667  51.7857214  27.7983734
  29.8220584  53.0586396  28.0402039  29.2423988  52.5340405  27.9899993
  27.0715618  40.1228842  25.2612743  26.7418948  40.5739986  24.5916442
  26.3960620  40.0445006  25.8085749  26.9226054  40.1779977  25.2435966
  32.6886026  49.4934072  18.1202029  32.6037321  50.3495039  18.2651598
  33.1770409  49.2178396  18.7884188  32.7474923  49.5791393  18.2404111
  33.6204459  46.1118866  19.6199764  33.0915931  46.3278500  20.2797070
  34.1429479  46.8055004  19.5400734  33.6192912  46.2462003  19.7055363
  25.5104067  50.0082083  18.4207232  24.9261282  50.5132114  18.8273096
  25.1074162  49.7824470  17.6803824  25.3643371  50.0490331  18.3712257
  21.0648096  55.7236844  25.2230904  20.5815674  56.4487334  25.1990487
  21.8771414  56.0212974  25.3341061  21.1138843  55.8739198  25.2358183
  27.1362250  54.5169025  27.8280718  26.6189191  54.1576440  27.2242026
  27.8336641  53.9931199  27.8386784  27.1627831  54.3866713  27.7410977
  29.9681282  46.2547735  16.8976153  30.2077285  46.4625719  16.0851496
  30.2897123  45.4505244  17.0065097  30.0518439  46.1661836  16.7936706
  25.2771572  38.1841131  20.7435691  26.0317540  38.5519448  20.5052741
  25.0999106  38.5580685  21.5114870  25.3626050  38.2939319  20.8220579
  23.9192293  56.2393020  25.3751184  24.6212872  55.7245009  25.4323940
  23.8389776  56.5667171  26.1798059  24.0116053  56.2107246  25.5023976
  23.6328636  40.5911450  17.4413804  23.4504210  40.8083330  16.6154797
  24.4954249  40.7050462  17.4972418  23.7333226  40.6401348  17.3268291
  23.2443068  52.4299372  24.8836792  24.0831968  52.6622305  24.9310553
  23.2754838  51.5603683  24.8143827  23.3724786  52.3356318  24.8801436
  23.8695771  52.8500247  29.1850097  24.4093996  52.7071378  29.8553470
  23.1865718  53.2496998  29.5534123  23.8487925  52.8879918  29.3384519
  29.3128356  37.5937860  20.4762828  30.0414516  37.4153815  20.0300984
  29.4023249  38.4355940  20.6870006  29.4335018  37.6921739  20.4416345
  19.2732917  49.0700538  29.3384519  19.0071332  48.2539655  29.4975509
  19.2871481  49.1153693  28.4680034  19.2357639  48.9557443  29.2338001
  23.1790663  43.8685622  15.9536277  22.4648841  43.5823802  16.3658709
  23.6634632  44.2082248  16.5942664  23.1450027  43.8767272  16.1091912
  30.3537981  52.3715576  16.3298085  30.7689130  52.0400600  15.6382581
  29.5229911  52.1384478  16.2018222  30.2925990  52.2886832  16.2088932
  19.6826330  49.8559317  26.6196263  19.5001903  49.8306203  25.7668555
  20.4175999  50.3258255  26.6585172  19.7640394  49.9220679  26.4994181
  22.7472082  46.5744320  33.1278372  23.4712054  46.5597351  33.6143266
  22.8488218  47.2839675  32.6300340  22.8690291  46.6769023  33.1257158
  32.7948350  46.7777396  22.2822334  32.8895205  47.5166690  22.7361960
  32.1707194  46.3494871  22.7156899  32.7157380  46.8238716  22.4130482
  19.6497241  46.7352818  26.7695330  20.2270743  46.5989269  27.4087575
  18.9511302  46.2788602  27.0240914  19.6318262  46.6475084  26.9017619
  33.0471372  48.6226136  15.5159286  32.9651534  48.6928323  16.3814273
  33.6851092  49.1855880  15.3243027  33.1291209  48.7165107  15.6149236
  26.4064543  48.3886874  24.9833813  26.1483787  47.5558608  24.9565112
  26.4613026  48.6144487  24.1426313  26.3764321  48.2984645  24.8553950
  31.4865593  40.4915324  25.0837905  30.7821920  40.0024510  25.2421825
  31.5350567  40.5037799  24.2126350  31.3895644  40.4204972  24.9777245
  25.3799255  45.9424636  25.4698708  24.8048846  46.1016804  26.1062668
  25.0034931  45.3060045  25.0067158  25.2402067  45.8722449  25.4953266
  29.0472543  44.4147985  30.3291086  28.6586976  43.9902203  29.6743277
  28.3827242  44.6630135  30.8368113  28.8919471  44.3886706  30.3078954
  38.6895813  44.1722990  23.1038916  38.4332377  43.3602931  22.9136799
  39.5325127  44.1800557  22.8769103  38.7761838  44.0534987  23.0423733
  15.1256074  45.5864711  23.4843148  15.2116326  45.2096579  24.2656678
  15.7531871  45.2125156  23.0063106  15.2312625  45.4750193  23.5288625
  32.8698905  38.1122614  27.8415070  33.2509417  37.4300785  28.2282944
  32.0662189  37.8232216  27.6590735  32.8075367  37.9689663  27.8719126
  30.1511482  48.6446590  18.5267893  30.9652121  48.9361483  18.4150664
  30.0870623  47.9906452  17.9526186  30.2614221  48.5911785  18.4256730
  26.0219390  52.1168107  23.6540205  26.6593337  51.8779855  24.1991998
  26.4474462  52.3205266  22.9193366  26.1795556  52.1119118  23.6257362
  20.7132032  54.3556444  27.5374509  20.7536178  54.6271295  26.7094288
  21.2726556  54.8798352  27.9532297  20.8015378  54.4732199  27.4766397
  26.6622205  47.3370397  17.9915094  27.0467358  47.1178104  18.7431640
  26.4133825  48.1633343  18.1216171  26.6824278  47.4268543  18.1216171
  28.4040862  52.5940530  25.3333991  28.4779870  52.4315702  26.1875841
  29.2210368  52.7830720  25.0894473  28.5357221  52.5977272  25.4232017
  22.1646619  52.9398393  22.3628435  21.3384736  53.1860130  22.2362714
  22.2258610  52.8610474  23.2290493  22.0520786  52.9643342  22.4717379
  24.3822642  39.0067334  23.3223875  23.5145068  39.0789933  23.3881484
  24.6697847  39.8089413  23.5111850  24.2962391  39.1361481  23.3598642
  26.9445448  55.5575273  20.0647465  27.2343746  55.1664254  19.3406691
  27.6748929  55.7391978  20.5052740  27.0952332  55.5269087  20.0230272
  24.8851363  57.5342655  23.1307614  24.6651659  57.2440010  23.9234281
  24.6645885  56.8757611  22.6025527  24.8198957  57.3942364  23.1696523
  23.7968310  49.6215972  25.3963316  23.5081559  48.9953443  25.9309043
  24.6651659  49.5636259  25.4627997  23.8828562  49.5203516  25.4854271
  27.0519319  58.9072045  21.9138307  27.7043377  58.3748488  22.1429333
  26.3544928  58.5540698  22.3006181  27.0450037  58.7761568  22.0050475
  24.0000584  51.2611223  21.3205681  24.7546552  51.6424262  21.5341144
  23.4071197  51.7122367  21.7752378  24.0237297  51.3840050  21.4188560
  35.0459237  51.2276459  21.2569286  35.6117270  51.8869669  21.1727829
  34.3987141  51.5726158  21.7285688  35.0337994  51.3758401  21.3142043
  25.3198810  52.4319784  26.6945797  24.7979564  52.5720076  27.3797661
  25.7072831  51.6730449  26.8847914  25.3002511  52.3405308  26.8246873
  22.3089994  42.4825593  20.7640751  22.0214790  42.1126864  20.0272699
  22.9960463  42.9520448  20.5024456  22.3678892  42.4972562  20.6155827
  31.5165815  54.1715244  20.6806365  31.2752491  53.4383104  20.2733430
  31.6967148  54.7202101  20.0272699  31.5073439  54.1437635  20.5236588
  26.7465136  49.4623803  22.0927288  26.5507919  50.0698538  21.4987591
  26.9699482  48.7691747  21.6118961  26.7499777  49.4501329  21.9343368
  25.1443666  46.3478541  22.2108156  25.8666318  46.5119699  21.7511962
  24.6651659  47.0688206  22.1047496  25.1807397  46.4776771  22.1273770
  33.1037174  42.6842340  27.5904841  32.2648274  42.7103619  27.3543104
  33.1741541  43.3313076  28.1710187  32.9905567  42.7838466  27.6413958
  22.7951283  48.7536614  31.3162296  23.3072380  49.0320867  30.6671056
  22.5087625  49.4925908  31.6825109  22.8286146  48.9038967  31.2752174
  31.5506452  39.5827717  22.3232457  32.2532805  39.3835465  21.8452415
  31.2850641  38.8103659  22.6301300  31.6153084  39.4390683  22.2977898
  19.8818189  43.2606806  21.6126032  19.9834326  44.0632967  21.9407008
  20.6774076  43.0594141  21.3149113  20.0146095  43.3492704  21.6161388
  30.8520514  45.2121074  23.4991642  30.6055228  45.1316825  24.3328431
  31.1805637  44.4274542  23.3054170  30.8641757  45.0847339  23.5939165
  34.7468562  51.9204433  27.2878423  34.6082922  52.6185479  27.7927166
  33.9668560  51.7653090  26.9314605  34.6111789  52.0004600  27.3104698
  25.8845296  56.1380564  29.7775652  26.0334860  55.5783480  29.1249056
  26.6645298  56.2172566  30.1608171  26.0219389  56.0666130  29.7372601
  36.2421935  51.2782687  18.0494923  35.8628744  50.4919825  18.0424212
  35.5788181  51.8269544  17.9066567  36.0880410  51.2427511  18.0275719
  28.4098596  56.3095207  31.0560143  28.3342268  55.6404018  31.6110931
  28.3388456  57.0112995  31.5700809  28.3879203  56.3140115  31.2136991
  29.0668843  54.8296206  21.8883749  29.8318734  54.5605850  21.5666413
  28.9646933  54.3446217  22.6053812  29.1650339  54.7185771  21.9463576
  27.1021613  43.0320616  28.4276985  26.3117688  42.8512076  28.7494320
  27.4982236  42.2547568  28.4107279  27.0438489  42.8908077  28.4729533
  31.5887504  51.8608390  13.8683698  32.3560489  51.9208515  13.4589550
  31.1418813  51.2888831  13.3840017  31.6360931  51.7844966  13.7361408
  32.4865299  50.6663046  26.1536430  31.8110301  50.4348278  26.6549817
  32.4957676  50.0584229  25.5278535  32.3883804  50.5421971  26.1352583
  34.4882034  53.5228178  18.3846608  34.5701871  54.3295164  18.0608059
  34.9731776  53.5424137  19.1087382  34.5719192  53.6448841  18.4433507
  28.2978537  48.2013014  27.0516686  27.8740786  48.4017513  26.3155705
  28.1223392  47.3541862  27.1640986  28.2089418  48.1061796  26.9590376
  27.7990231  59.7163527  29.5138144  28.2886161  59.0174316  29.3313808
  27.2274463  59.4187397  30.1014201  27.7874761  59.5689751  29.5739184
  23.5860982  48.6965066  22.4844659  23.7425601  48.6311868  23.3400651
  23.9261575  49.4713618  22.2723338  23.6594217  48.8014264  22.5799253
  30.1240127  48.0722949  21.3538022  30.6655672  47.5693330  21.8176643
  30.4386686  48.0188144  20.5427507  30.2504524  47.9902370  21.3021834
  28.2926577  53.4640301  18.6378050  28.3619397  52.6054839  18.7771051
  29.0715032  53.6812181  18.3097075  28.4179427  53.3693165  18.6095207
  32.6834064  55.8878002  22.8514543  32.2913856  55.5844717  22.1337410
  32.8387136  56.7247092  22.6619497  32.6487654  55.9661839  22.7171041
  20.1595244  45.8800016  22.8005426  20.5394209  46.2984561  22.1365693
  19.5850609  46.4613472  23.1074269  20.1306569  46.0277875  22.7482167
  32.8473739  52.4527991  22.7920574  32.4888394  52.6242634  23.5684606
  32.3612450  52.9141196  22.2348572  32.7232436  52.5466962  22.8245843
  27.6362104  48.1327156  15.3320808  27.9254629  48.9092039  15.6064383
  27.7233903  47.6215888  16.0335308  27.6916361  48.1719075  15.4763306
  23.8026045  47.4460421  27.4320920  22.9614052  47.3464295  27.6399814
  24.0116053  48.2155901  27.7835241  23.7090738  47.5452464  27.5148235
  21.2801612  45.0679958  25.2605671  20.8858310  45.1422969  24.4855781
  20.7241729  45.4537904  25.8114033  21.1404425  45.1361732  25.2273331
  27.6142710  45.3741820  26.6818518  27.3105848  44.8197808  27.2828926
  26.9122131  45.5534030  26.1946552  27.4658920  45.3186602  26.6988224
  26.6708807  42.6842340  21.2463220  26.9468542  41.9661252  20.8340787
  27.2707477  43.2827260  21.0384326  26.8002072  42.6662710  21.1543981
  25.6761061  52.5891541  31.3890616  25.5681416  52.5993603  32.2552674
  25.8856843  53.4146321  31.1995570  25.6911172  52.7132615  31.4894707
  36.1700247  38.5993016  24.4212315  35.5574560  39.0863418  24.8066047
  36.2664422  37.9236507  24.9649967  36.0938144  38.5711325  24.5591174
  30.1719328  40.3555857  19.5209815  30.6263074  40.5266417  20.2457659
  30.6459374  39.7423968  19.1207591  30.3087648  40.2906742  19.5683576
  23.6934853  49.8404183  28.8512553  23.1022786  50.4813681  28.8215568
  24.4555877  50.2641800  28.8243853  23.7183114  49.9980021  28.8427701
  24.0895476  41.0006181  29.5180571  24.5496958  41.0745110  30.2555695
  24.1351583  41.7987435  29.1680392  24.1646031  41.1300328  29.5753327
  27.5132348  47.0598391  20.6254822  28.2574393  47.4472668  20.8637772
  27.6593044  46.2155817  20.7895310  27.6442933  46.9928864  20.6848792
  30.5010224  42.6323865  26.5248741  30.0270178  42.1065627  27.0354052
  30.8728359  42.0853338  25.9563603  30.4860113  42.4739861  26.5163889
  32.4293723  43.5260419  19.5874495  31.9016742  43.6089163  18.8980204
  32.8889431  44.2678291  19.5839140  32.4195574  43.6481082  19.4849190
  24.2385040  43.4537820  28.5542705  23.6138110  43.4656212  27.9468658
  23.9030635  43.9297996  29.2033946  24.0970532  43.5256337  28.5599274
  24.4226788  41.7962939  14.6115390  24.0739593  42.4482664  15.0746940
  23.9423234  41.7820052  13.8839262  24.2997032  41.8905992  14.5726482
  20.9510715  51.5138281  29.9946470  20.4210640  50.8230719  30.0441444
  21.2235809  51.5048466  29.1659178  20.9135438  51.4105412  29.8793886
  31.9830806  52.0963983  18.7184152  32.7065005  52.5622096  18.5748726
  31.5431397  52.1637593  17.9681749  32.0246498  52.1747820  18.5868934
  31.1516961  48.9561525  29.9684841  30.5373954  48.4119575  30.2633477
  31.6684246  48.4425762  29.4890657  31.1372623  48.7997934  29.9409070
  30.3913258  50.0265795  27.7029140  29.9640866  49.4015514  27.2694575
  30.3838202  49.7440717  28.5288147  30.3272399  49.8918576  27.7608967
  23.5075785  45.0630968  30.7717574  23.6669272  44.3074292  31.1769296
  23.3268679  45.6121908  31.4258312  23.5041144  45.0324782  30.9280280
  28.7198968  40.9034550  27.9171674  28.7441455  40.3694662  27.2284454
  28.9710441  40.3951859  28.5797264  28.7608886  40.7495454  27.9136319
  16.2306558  48.1866045  27.3514818  16.1250007  48.1412889  26.4866902
  15.4806777  48.5319825  27.6329103  16.1042160  48.2306953  27.2652148
  25.0000290  39.6305368  27.2977418  25.0398662  40.1314575  28.0112126
  24.1749955  39.7215762  27.0283341  24.8839816  39.7187184  27.3627956
  26.4214653  46.1465878  29.5951317  25.5906583  46.3139696  29.3886565
  26.3666170  45.7701829  30.3800203  26.2904068  46.1155609  29.6799845
  24.7950697  44.4221469  20.1241435  24.9353658  44.9193934  20.8270076
  25.2933230  43.7207764  20.2655649  24.8891778  44.3923448  20.2493014
  24.8250920  45.2888580  17.4534012  25.4595999  45.8849005  17.3883474
  24.9076530  44.9892038  18.2679882  24.9307471  45.3329489  17.5637098
  26.4029902  41.2202556  17.4279454  26.7245743  40.7405638  16.7738716
  26.6656846  42.0302202  17.2370265  26.4895928  41.2692454  17.3034946
  21.3303907  47.4856421  20.7223558  21.8396137  48.0820929  21.1034863
  21.8038180  47.2182395  20.0399977  21.4747283  47.5342237  20.6778080
  32.2434655  56.1584688  18.8782213  31.5263965  55.9845550  18.4129451
  32.8941393  55.9237260  18.3457699  32.2336506  56.0980480  18.7311431
  34.8282627  45.0349276  22.6223518  34.1573817  45.5778979  22.4936584
  35.5222377  45.5044132  22.3805213  34.8311494  45.1847548  22.5679046
  28.8769360  57.1745988  27.8535277  28.6535015  56.4164818  28.2219303
  28.3879204  57.2044010  27.1315716  28.7712809  57.0668213  27.8012018
  34.9910754  41.4905160  25.5313892  35.3438364  41.0634883  26.2059690
  34.1325556  41.4056004  25.6614968  34.9160199  41.4149901  25.6508902
  23.6894439  44.1212680  23.5896738  22.9706428  44.5376812  23.8569602
  24.0606801  44.6866918  23.0388376  23.6386371  44.2661961  23.5479545
  27.5247817  57.3946446  25.3072361  27.1108216  56.7320577  24.9176203
  28.2095192  57.5424305  24.7868056  27.5646189  57.3187105  25.1728858
  30.8913111  56.5536532  26.0595978  30.4929395  56.6638802  25.2916798
  30.2764331  56.7618598  26.6422538  30.7412001  56.6010100  26.0327277
  29.4641014  43.1610680  18.9270118  28.8705853  43.4827676  18.3754685
  29.5016291  42.3151775  18.7191224  29.3815403  43.0835008  18.8152889
  32.3398830  43.1190184  22.3571868  32.1112523  43.1422886  21.5150226
  32.5996906  42.2947651  22.4766878  32.3445018  43.0006264  22.2497066
  25.3943593  41.6566730  23.6526064  25.8700959  42.0183810  23.0176245
  24.8932192  42.3123198  23.9326206  25.3908952  41.8060919  23.6002805
  18.3685838  46.3209098  29.8687820  17.8212557  45.6509744  29.9868688
  19.1578216  45.9538946  29.9331287  18.4038021  46.1674084  29.8956520
  27.4370246  43.8007930  17.0199448  27.8169211  43.8187559  16.2350562
  26.6962842  44.2461919  16.8990295  27.3839084  43.8689705  16.8863016
  35.0655536  42.1090121  22.6075026  35.0649763  41.9538778  23.4659303
  34.8611716  42.9553108  22.5516412  35.0355314  42.2110742  22.7262966
  17.1272807  45.5329906  27.0233843  16.9494568  45.0806515  27.7488758
  16.8391829  46.3356067  27.2072320  17.0585760  45.5852464  27.1577346
  28.2355000  50.6385436  18.4108238  27.4266323  50.3152110  18.3641547
  28.7429909  49.9318658  18.3436486  28.1904667  50.4866753  18.3938532
  18.8645277  48.0657630  24.1355602  17.9990797  48.0543320  24.0238373
  18.9644093  47.8787852  24.9826741  18.7519444  48.0363691  24.2444546
  24.4902287  57.8355528  27.7085707  24.8048846  58.6491917  27.7163489
  24.8995700  57.4505747  28.3767866  24.5970385  57.8984231  27.8089799
  31.4426807  53.2525575  25.2789519  31.9137985  53.9665838  25.4479504
  31.7786985  52.6524325  25.8149389  31.5621922  53.2697039  25.3821895
  27.4289416  40.0269458  19.7027079  28.2505111  40.1967771  19.4608774
  26.9659067  40.1816719  18.9793377  27.4820579  40.0751191  19.5598723
  21.8315307  51.7828637  27.3564316  22.4360165  51.7424471  26.7278136
  21.6242620  52.6299789  27.3868372  21.8904204  51.9016639  27.2680432
  17.0666589  50.7663254  27.2263239  16.9690867  49.9559526  27.5353296
  17.8495459  50.7455047  26.8409507  17.1682726  50.6430344  27.2150102
  35.7013554  70.3297802  22.0559591  34.9496454  69.9513341  21.8275637
  36.1499566  70.3616236  21.3078402  35.6563221  70.2783409  21.9117094
  44.6266131  67.0621610  35.8982816  45.3332898  66.5673641  36.0269750
  44.8154066  67.5030692  35.1685474  44.7594037  67.0539960  35.8091861
  41.1538514  70.7523172  17.4845139  40.8189883  71.4300093  17.0489361
  41.6665385  70.3628483  16.8962010  41.1804095  70.7947750  17.3331930
  40.6942805  72.7037441  23.4256250  41.0782185  73.2724339  22.8861025
  40.6301947  71.9786951  22.9462066  40.7416233  72.6812904  23.2750113
  44.1624236  62.8527128  28.9354012  44.7080196  63.5312215  28.9947981
  44.1041112  62.7114589  28.0755593  44.2340150  62.9319130  28.8166072
  37.2798310  70.3416195  24.3222364  37.3808673  69.5316548  24.6319492
  36.6840056  70.2473141  23.6922042  37.2070849  70.2081223  24.2748602
  45.9389304  64.2811735  19.8087739  45.8228830  65.0319422  20.2379877
  46.7345191  64.0235689  20.0583826  46.0393894  64.3546582  19.9091831
  37.1199050  75.2593784  25.7237220  37.7636505  75.7006948  26.1133378
  37.4455306  74.4547210  25.6367479  37.2630879  75.2058978  25.7682697
  30.4763355  66.3636481  23.9474698  30.2413539  65.5304133  23.8406966
  30.6148995  66.6441147  23.1335899  30.4619017  66.2819984  23.8117053
  37.8219630  68.2705759  21.0957082  38.1435471  68.8110966  20.4918390
  38.4691726  67.7002530  21.2279371  37.9645685  68.2664934  21.0264117
  39.8721338  60.2721753  21.1791468  40.5701502  60.4509881  21.6712932
  40.1873670  59.7492093  20.5561858  40.0216675  60.2215526  21.1593479
  40.0609273  66.6592198  21.1671260  40.5002909  66.0509299  21.6126033
  39.9113936  66.2799572  20.3956725  40.1030739  66.5130670  21.1190427
  40.0667008  68.0991116  28.0196978  40.3490250  67.3042522  27.7983734
  40.7953168  68.5771704  28.0402039  40.2156571  68.0525713  27.9899993
  43.6618610  65.0119380  18.1202029  43.5769905  65.8680346  18.2651598
  44.1502993  64.7363704  18.7884188  43.7207507  65.0976701  18.2404111
  44.5937043  61.6304174  19.6199764  44.0648514  61.8463807  20.2797070
  45.1162063  62.3240312  19.5400734  44.5925496  61.7647311  19.7055363
  36.4836651  65.5267391  18.4207232  35.8993866  66.0317422  18.8273096
  36.0806746  65.3009778  17.6803824  36.3375955  65.5675639  18.3712257
  32.0380679  71.2422152  25.2230904  31.5548258  71.9672641  25.1990487
  32.8503998  71.5398282  25.3341061  32.0871427  71.3924506  25.2358183
  38.1094833  70.0354333  27.8280718  37.5921775  69.6761748  27.2242026
  38.8069225  69.5116507  27.8386784  38.1360415  69.9052021  27.7410977
  41.7658425  70.4849147  33.7896891  41.8541771  70.2975287  34.6375102
  42.1948138  69.8386576  33.3901738  41.8420528  70.3612154  33.8568643
  39.3328885  69.7680307  32.7714553  38.7699720  69.3552916  33.2954215
  40.0949909  69.6933212  33.1907697  39.3623334  69.6957707  32.9107554
  40.9413865  61.7733043  16.8976153  41.1809869  61.9811027  16.0851496
  41.2629706  60.9690551  17.0065097  41.0251023  61.6847144  16.7936706
  36.2504155  53.7026439  20.7435691  37.0050123  54.0704756  20.5052741
  36.0731690  54.0765993  21.5114870  36.3358634  53.8124626  20.8220579
  34.8924877  71.7578328  25.3751184  35.5945456  71.2430317  25.4323940
  34.8122360  72.0852479  26.1798059  34.9848637  71.7292554  25.5023976
  34.6061220  56.1096758  17.4413804  34.4236793  56.3268638  16.6154797
  35.4686833  56.2235770  17.4972418  34.7065810  56.1586655  17.3268291
  34.2175652  67.9484680  24.8836792  35.0564551  68.1807613  24.9310553
  34.2487421  67.0788991  24.8143827  34.3457370  67.8541626  24.8801436
  34.8428355  68.3685555  29.1850097  35.3826580  68.2256686  29.8553470
  34.1598301  68.7682306  29.5534123  34.8220509  68.4065226  29.3384519
  44.2669240  64.0476556  24.3795122  45.0226755  64.4808070  24.4184030
  44.3731564  63.3981325  24.9529758  44.3939411  64.0154039  24.4693147
  47.3049411  67.8749833  25.1297525  46.8684643  67.8786575  25.8856496
  46.9712327  68.5555332  24.6977102  47.1912031  67.9762289  25.1778357
  41.8778485  69.9158166  36.4540675  42.6618901  70.0289013  36.8196417
  41.6775079  69.0899303  36.6499361  41.9644510  69.8104885  36.5375061
  34.1523247  59.3870930  15.9536277  33.4381424  59.1009110  16.3658709
  34.6367216  59.7267556  16.5942664  34.1182610  59.3952580  16.1091912
  42.0348878  71.8268268  30.1007130  41.2364124  71.5867768  30.3580999
  42.4834890  71.8782661  30.8474178  41.9823489  71.7990659  30.2492055
  41.3270565  67.8900884  16.3298085  41.7421713  67.5585908  15.6382581
  40.4962495  67.6569786  16.2018222  41.2658574  67.8072140  16.2088932
  30.6558914  65.3744625  26.6196263  30.4734487  65.3491511  25.7668555
  31.3908583  65.8443563  26.6585172  30.7372978  65.4405987  26.4994181
  46.7258588  65.6096135  23.7629151  46.9614177  65.7541334  22.9356001
  46.8748152  66.3738543  24.1560664  46.7824391  65.7435190  23.6992754
  48.5549045  64.4497801  21.5998754  48.8857262  64.9825441  20.9938849
  49.1282133  64.5036689  22.2560705  48.6882724  64.5367370  21.6076536
  41.0949615  65.5728713  37.9927319  40.3022596  65.8872224  38.1779938
  41.2098542  65.7880181  37.1548103  40.9945025  65.6512549  37.8965653
  43.7680934  62.2962704  22.2822334  43.8627788  63.0351998  22.7361960
  43.1439777  61.8680179  22.7156899  43.6889964  62.3424024  22.4130482
  42.0233408  65.4748916  32.9312615  42.5972269  64.8376161  33.0861179
  41.9448211  65.4752999  32.0622273  42.0966643  65.3814028  32.8259026
  44.0203955  64.1411444  15.5159286  43.9384118  64.2113631  16.3814273
  44.6583676  64.7041187  15.3243027  44.1023792  64.2350415  15.6149236
  37.3797126  63.9072181  24.9833813  37.1216371  63.0743916  24.9565112
  37.4345609  64.1329794  24.1426313  37.3496904  63.8169953  24.8553950
  36.3531838  61.4609944  25.4698708  35.7781430  61.6202112  26.1062668
  35.9767515  60.8245353  25.0067158  36.2134651  61.3907757  25.4953266
  26.0988657  61.1050019  23.4843148  26.1848909  60.7281887  24.2656678
  26.7264455  60.7310464  23.0063106  26.2045208  60.9935501  23.5288625
  41.1244065  64.1631898  18.5267893  41.9384704  64.4546791  18.4150664
  41.0603207  63.5091760  17.9526186  41.2346804  64.1097093  18.4256730
  47.3453555  66.8457894  32.9397469  47.1092193  66.0145959  32.8209529
  47.9896784  66.7943501  33.5252313  47.4048226  66.7155582  33.0083362
  36.9951974  67.6353415  23.6540205  37.6325921  67.3965163  24.1991998
  37.4207045  67.8390574  22.9193366  37.1528140  67.6304425  23.6257362
  31.6864616  69.8741752  27.5374509  31.7268761  70.1456603  26.7094288
  32.2459140  70.3983660  27.9532297  31.7747962  69.9917507  27.4766397
  37.6354789  62.8555705  17.9915094  38.0199941  62.6363412  18.7431640
  37.3866409  63.6818650  18.1216171  37.6556861  62.9453851  18.1216171
  39.3773446  68.1125838  25.3333991  39.4512454  67.9501010  26.1875841
  40.1942952  68.3016027  25.0894473  39.5089804  68.1162580  25.4232017
  33.1379202  68.4583701  22.3628435  32.3117320  68.7045438  22.2362714
  33.1991193  68.3795782  23.2290493  33.0253369  68.4828650  22.4717379
  37.9178031  71.0760581  20.0647465  38.2076330  70.6849562  19.3406691
  38.6481512  71.2577286  20.5052740  38.0684915  71.0454395  20.0230272
  38.5072776  65.8778327  31.1500595  38.0084470  66.5894095  31.2285484
  39.3173001  66.1978993  31.1118758  38.5528883  66.0305175  31.1557164
  35.8583947  73.0527963  23.1307614  35.6384242  72.7625318  23.9234281
  35.6378469  72.3942918  22.6025527  35.7931541  72.9127672  23.1696523
  34.7700894  65.1401280  25.3963316  34.4814143  64.5138751  25.9309043
  35.6384242  65.0821567  25.4627997  34.8561146  65.0388824  25.4854271
  38.0251903  74.4257353  21.9138307  38.6775961  73.8933796  22.1429333
  37.3277511  74.0726006  22.3006181  38.0182621  74.2946876  22.0050475
  34.9733167  66.7796531  21.3205681  35.7279135  67.1609570  21.5341144
  34.3803780  67.2307675  21.7752378  34.9969881  66.9025358  21.4188560
  46.0191821  66.7461767  21.2569286  46.5849854  67.4054977  21.1727829
  45.3719724  67.0911465  21.7285688  46.0070577  66.8943709  21.3142043
  36.2931394  67.9505092  26.6945797  35.7712148  68.0905384  27.3797661
  36.6805414  67.1915757  26.8847914  36.2735095  67.8590616  26.8246873
  33.2822578  58.0010901  20.7640751  32.9947374  57.6312171  20.0272699
  33.9693046  58.4705756  20.5024456  33.3411475  58.0157870  20.6155827
  42.4898399  69.6900552  20.6806365  42.2485075  68.9568412  20.2733430
  42.6699732  70.2387409  20.0272699  42.4806023  69.6622943  20.5236588
  37.7197720  64.9809111  22.0927288  37.5240502  65.5883846  21.4987591
  37.9432065  64.2877055  21.6118961  37.7232361  64.9686637  21.9343368
  36.1176250  61.8663849  22.2108156  36.8398902  62.0305007  21.7511962
  35.6384242  62.5873514  22.1047496  36.1539980  61.9962079  22.1273770
  30.8550773  58.7792114  21.6126032  30.9566909  59.5818275  21.9407008
  31.6506659  58.5779449  21.3149113  30.9878678  58.8678012  21.6161388
  45.7201146  67.4389741  27.2878423  45.5815505  68.1370787  27.7927166
  44.9401144  67.2838398  26.9314605  45.5844373  67.5189908  27.3104698
  44.0579231  63.7386117  33.5400805  44.0527270  62.8665933  33.5443231
  44.7640225  63.9374286  33.0670261  44.1624235  63.6389991  33.4707840
  36.8577879  71.6565872  29.7775652  37.0067443  71.0968788  29.1249056
  37.6377881  71.7357874  30.1608171  36.9951973  71.5851438  29.7372601
  47.2154519  66.7967995  18.0494923  46.8361328  66.0105133  18.0424212
  46.5520764  67.3454852  17.9066567  47.0612994  66.7612819  18.0275719
  39.3831180  71.8280515  31.0560143  39.3074851  71.1589326  31.6110931
  39.3121039  72.5298303  31.5700809  39.3611787  71.8325423  31.2136991
  40.0401427  70.3481514  21.8883749  40.8051318  70.0791158  21.5666413
  39.9379517  69.8631524  22.6053812  40.1382922  70.2371079  21.9463576
  42.5620087  67.3793698  13.8683698  43.3293073  67.4393823  13.4589550
  42.1151396  66.8074139  13.3840017  42.6093515  67.3030274  13.7361408
  43.4597883  66.1848354  26.1536430  42.7842885  65.9533586  26.6549817
  43.4690259  65.5769537  25.5278535  43.3616388  66.0607279  26.1352583
  45.4614618  69.0413486  18.3846608  45.5434455  69.8480472  18.0608059
  45.9464360  69.0609445  19.1087382  45.5451775  69.1634148  18.4433507
  39.2711121  63.7198322  27.0516686  38.8473370  63.9202821  26.3155705
  39.0955976  62.8727170  27.1640986  39.1822001  63.6247103  26.9590376
  38.7722814  75.2348835  29.5138144  39.2618745  74.5359624  29.3313808
  38.2007047  74.9372705  30.1014201  38.7607344  75.0875059  29.5739184
  34.5593566  64.2150373  22.4844659  34.7158185  64.1497176  23.3400651
  34.8994159  64.9898926  22.2723338  34.6326801  64.3199572  22.5799253
  41.0972710  63.5908257  21.3538022  41.6388256  63.0878638  21.8176643
  41.4119269  63.5373452  20.5427507  41.2237108  63.5087678  21.3021834
  44.9689818  67.8010904  38.4664934  45.7824683  67.5296053  38.6270067
  44.8084784  67.5018444  37.6625130  45.0659766  67.7165830  38.3710340
  39.2659160  68.9825609  18.6378050  39.3351980  68.1240147  18.7771051
  40.0447615  69.1997489  18.3097075  39.3912010  68.8878473  18.6095207
  43.6566648  71.4063310  22.8514543  43.2646439  71.1030025  22.1337410
  43.8119720  72.2432400  22.6619497  43.6220238  71.4847147  22.7171041
  31.1327827  61.3985324  22.8005426  31.5126792  61.8169869  22.1365693
  30.5583192  61.9798780  23.1074269  31.1039152  61.5463183  22.7482167
  43.8206323  67.9713299  22.7920574  43.4620977  68.1427942  23.5684606
  43.3345033  68.4326504  22.2348572  43.6965019  68.0652270  22.8245843
  38.6094688  63.6512464  15.3320808  38.8987213  64.4277347  15.6064383
  38.6966487  63.1401196  16.0335308  38.6648944  63.6904382  15.4763306
  44.9811062  68.8617195  33.7387775  45.6190782  68.3677390  33.4050231
  44.3385153  68.7894595  33.1540002  44.9805288  68.7776203  33.6030130
  45.0365318  69.5537003  30.3793132  45.8257697  69.2026068  30.4995213
  45.2108916  70.3673391  30.1169765  45.1785600  69.6222860  30.3581000
  32.2534196  60.5865266  25.2605671  31.8590894  60.6608277  24.4855781
  31.6974313  60.9723212  25.8114033  32.1137008  60.6547040  25.2273331
  37.6441391  58.2027648  21.2463220  37.9201125  57.4846560  20.8340787
  38.2440060  58.8012568  21.0384326  37.7734655  58.1848018  21.1543981
  36.6493645  68.1076849  31.3890616  36.5414000  68.1178911  32.2552674
  36.8589426  68.9331629  31.1995570  36.6643756  68.2317923  31.4894707
  44.4256953  70.8098803  26.2844578  44.2276642  71.2989617  25.5900789
  43.8044664  71.0140044  26.8628711  44.3044517  70.9115341  26.2667801
  38.4864931  62.5783699  20.6254822  39.2306976  62.9657976  20.8637772
  38.6325628  61.7341125  20.7895310  38.6175516  62.5114172  20.6848792
  46.3430755  64.3762955  31.8189826  47.0664954  63.9235481  31.6400846
  46.0780717  64.6567621  31.0362154  46.4112028  64.3513923  31.6768542
  35.3959372  57.3148247  14.6115390  35.0472176  57.9667972  15.0746940
  34.9155818  57.3005360  13.8839262  35.2729616  57.4091300  14.5726482
  42.9563389  67.6149291  18.7184152  43.6797588  68.0807404  18.5748726
  42.5163980  67.6822900  17.9681749  42.9979082  67.6933128  18.5868934
  42.1249544  64.4746833  29.9684841  41.5106538  63.9304883  30.2633477
  42.6416829  63.9611070  29.4890657  42.1105207  64.3183242  29.9409070
  41.3645842  65.5451103  27.7029140  40.9373450  64.9200822  27.2694575
  41.3570786  65.2626025  28.5288147  41.3004983  65.4103884  27.7608967
  27.2039141  63.7051353  27.3514818  27.0982590  63.6598197  26.4866902
  26.4539361  64.0505133  27.6329103  27.0774744  63.7492261  27.2652148
  38.1562486  64.7151416  35.3997713  37.3058117  64.8523130  35.5355358
  38.3190614  63.9815194  35.8445414  38.0546350  64.6265517  35.4853312
  35.7683281  59.9406777  20.1241435  35.9086242  60.4379241  20.8270076
  36.2665814  59.2393072  20.2655649  35.8624362  59.9108756  20.2493014
  35.7983503  60.8073888  17.4534012  36.4328583  61.4034313  17.3883474
  35.8809114  60.5077346  18.2679882  35.9040054  60.8514796  17.5637098
  37.3762486  56.7387864  17.4279454  37.6978327  56.2590946  16.7738716
  37.6389430  57.5487510  17.2370265  37.4628511  56.7877762  17.3034946
  40.6059459  67.7606738  30.9478270  40.0984550  68.3142585  31.3918900
  40.3086105  67.8215028  30.1297044  40.4864344  67.8513049  30.8926727
  32.3036491  63.0041729  20.7223558  32.8128720  63.6006237  21.1034863
  32.7770763  62.7367703  20.0399977  32.4479867  63.0527544  20.6778080
  43.2167239  71.6769996  18.8782213  42.4996549  71.5030858  18.4129451
  43.8673977  71.4422568  18.3457699  43.2069090  71.6165788  18.7311431
  39.8501944  72.6931296  27.8535277  39.6267598  71.9350126  28.2219303
  39.3611787  72.7229317  27.1315716  39.7445393  72.5853521  27.8012018
  34.6627023  59.6397988  23.5896738  33.9439012  60.0562120  23.8569602
  35.0339385  60.2052226  23.0388376  34.6118954  59.7847269  23.5479545
  41.9072933  66.8613028  35.4047210  41.8668788  66.2162705  34.8192366
  42.7196252  66.8049646  35.7172622  42.0216087  66.7571995  35.3644160
  38.4980401  72.9131754  25.3072361  38.0840800  72.2505885  24.9176203
  39.1827775  73.0609613  24.7868056  38.5378773  72.8372413  25.1728858
  41.8645695  72.0721840  26.0595978  41.4661978  72.1824110  25.2916798
  41.2496915  72.2803906  26.6422538  41.7144584  72.1195408  26.0327277
  40.4373597  58.6795987  18.9270118  39.8438436  59.0012984  18.3754685
  40.4748875  57.8337083  18.7191224  40.3547986  58.6020316  18.8152889
  49.5987538  66.6473806  19.4439069  49.9821144  67.3965163  19.6737166
  48.8031651  66.8939626  19.1851058  49.5381320  66.7943500  19.4396642
  29.3418421  61.8394406  29.8687820  28.7945141  61.1695051  29.9868688
  30.1310799  61.4724254  29.9331287  29.3770605  61.6859392  29.8956520
  38.4102829  59.3193238  17.0199448  38.7901794  59.3372867  16.2350562
  37.6695425  59.7647227  16.8990295  38.3571667  59.3875013  16.8863016
  28.1005391  61.0515214  27.0233843  27.9227152  60.5991823  27.7488758
  27.8124413  61.8541375  27.2072320  28.0318344  61.1037772  27.1577346
  43.7628972  62.3072931  26.2611233  44.2582637  61.5895926  26.2215253
  42.9528748  62.0043729  26.1465720  43.7172865  62.1570577  26.2384959
  39.2087583  66.1570744  18.4108238  38.3998906  65.8337418  18.3641547
  39.7162492  65.4503966  18.3436486  39.1637250  66.0052061  18.3938532
  29.8377861  63.5842937  24.1355602  28.9723380  63.5728628  24.0238373
  29.9376677  63.3973160  24.9826741  29.7252028  63.5548999  24.2444546
  35.4634871  73.3540836  27.7085707  35.7781430  74.1677225  27.7163489
  35.8728284  72.9691055  28.3767866  35.5702969  73.4169538  27.8089799
  42.4159390  68.7710883  25.2789519  42.8870568  69.4851145  25.4479504
  42.7519569  68.1709633  25.8149389  42.5354505  68.7882347  25.3821895
  44.5036375  70.3812196  37.4581591  44.6133340  69.5920757  37.8138339
  44.8327271  70.2918132  36.6555929  44.5688781  70.2518049  37.3923982
  43.0533337  68.5628817  32.0417212  42.5054283  67.9386701  31.7737277
  43.5146365  68.7523089  31.3261291  43.0400546  68.4987867  31.8967643
  38.4022000  55.5454766  19.7027079  39.2237694  55.7153079  19.4608774
  37.9391651  55.7002027  18.9793377  38.4553162  55.5936499  19.5598723
  32.8047891  67.3013945  27.3564316  33.4092748  67.2609779  26.7278136
  32.5975203  68.1485097  27.3868372  32.8636788  67.4201947  27.2680432
  42.6191663  69.5679890  28.5726553  43.4390037  69.4242856  28.8342848
  42.3385740  70.1926089  29.1142991  42.6988406  69.6390242  28.6914493
  28.0399173  66.2848562  27.2263239  27.9423451  65.4744834  27.5353296
  28.8228043  66.2640355  26.8409507  28.1415309  66.1615652  27.2150102
  52.2904998  76.3120392  26.2922360  51.4342894  76.4728891  26.3431477
  52.3372652  75.4412456  26.3127421  52.1704110  76.2071194  26.3028426
  55.5998715  82.5806918  35.8982816  56.3065482  82.0858949  36.0269750
  55.7886650  83.0216000  35.1685474  55.7326620  82.5725268  35.8091861
  55.1356819  78.3712436  28.9354012  55.6812779  79.0497523  28.9947981
  55.0773695  78.2299897  28.0755593  55.2072733  78.4504438  28.8166072
  43.7486026  74.0507520  26.8459005  43.1291057  73.4600167  26.6769020
  43.6469889  74.6418955  26.2123329  43.6423701  74.0511602  26.7263995
  50.8453921  75.7907061  21.1791468  51.5434086  75.9695189  21.6712932
  51.1606254  75.2677401  20.5561858  50.9949259  75.7400834  21.1593479
  43.4755159  77.5959801  29.0902574  43.3513856  78.1822247  29.7252393
  44.1273443  77.1019997  29.3914849  43.5528808  77.6098606  29.2288504
  48.5013500  80.7721518  28.3690085  49.1462502  80.2793961  28.0501034
  48.7415277  80.9146305  29.1956164  48.6324085  80.7198960  28.4439619
  51.0399591  83.6176424  28.0196978  51.3222834  82.8227830  27.7983734
  51.7685751  84.0957012  28.0402039  51.1889155  83.5711021  27.9899993
  49.0180785  71.1599458  25.2612743  48.6884115  71.6110602  24.5916442
  48.3425787  71.0815621  25.8085749  48.8691221  71.2150593  25.2435966
  56.2257193  67.1484981  23.5062354  55.9110634  67.8388460  23.9382776
  55.7084134  67.0929763  22.8047854  56.1021663  67.2419870  23.4659303
  47.2236739  69.2211746  20.7435691  47.9782707  69.5890064  20.5052741
  47.0464274  69.5951301  21.5114870  47.3091217  69.3309934  20.8220579
  60.5171638  75.3706187  28.7883230  59.6800059  75.4408374  29.0230825
  60.4859869  75.3730682  27.9157532  60.3889920  75.3816414  28.6942778
  46.9136367  77.5139223  34.5031599  47.0856870  77.4045117  35.3516880
  47.4505724  78.1593628  34.2662791  47.0181371  77.5931224  34.5936695
  45.5793804  71.6282065  17.4413804  45.3969377  71.8453946  16.6154797
  46.4419417  71.7421078  17.4972418  45.6798393  71.6771963  17.3268291
  51.2593523  68.6308476  20.4762828  51.9879683  68.4524431  20.0300984
  51.3488416  69.4726556  20.6870006  51.3800185  68.7292355  20.4416345
  55.2401824  79.5661863  24.3795122  55.9959339  79.9993378  24.4184030
  55.3464148  78.9166633  24.9529758  55.3671994  79.5339347  24.4693147
  41.2198084  80.1071154  29.3384519  40.9536499  79.2910270  29.4975509
  41.2336648  80.1524309  28.4680034  41.1822806  79.9928058  29.2338001
  58.1979478  70.4348969  27.3726952  58.8405386  70.5047073  27.9588868
  58.4502498  69.7678191  26.8706494  58.3301610  70.3475317  27.3854232
  45.1255831  74.9056238  15.9536277  44.4114008  74.6194418  16.3658709
  45.6099799  75.2452864  16.5942664  45.0915194  74.9137888  16.1091912
  45.9696690  73.6449532  31.9851526  45.2768487  73.1746512  32.2312258
  46.5857017  73.4187836  32.5593234  45.9581220  73.5416664  32.1060679
  41.6291497  80.8929933  26.6196263  41.4467071  80.8676819  25.7668555
  42.3641166  81.3628871  26.6585172  41.7105561  80.9591295  26.4994181
  44.6937249  77.6114936  33.1278372  45.4177221  77.5967967  33.6143266
  44.7953386  78.3210291  32.6300340  44.8155458  77.7139639  33.1257158
  52.0682198  81.0914021  37.9927319  51.2755179  81.4057532  38.1779938
  52.1831126  81.3065489  37.1548103  51.9677609  81.1697857  37.8965653
  54.7413517  77.8148012  22.2822334  54.8360372  78.5537306  22.7361960
  54.1172361  77.3865487  22.7156899  54.6622547  77.8609332  22.4130482
  52.9965991  80.9934224  32.9312615  53.5704853  80.3561469  33.0861179
  52.9180795  80.9938307  32.0622273  53.0699226  80.8999336  32.8259026
  41.5962408  77.7723434  26.7695330  42.1735910  77.6359885  27.4087575
  40.8976469  77.3159218  27.0240914  41.5783429  77.6845700  26.9017619
  48.3529710  79.4257489  24.9833813  48.0948954  78.5929224  24.9565112
  48.4078193  79.6515102  24.1426313  48.3229488  79.3355261  24.8553950
  53.4330760  71.5285940  25.0837905  52.7287087  71.0395126  25.2421825
  53.4815734  71.5408415  24.2126350  53.3360812  71.4575588  24.9777245
  47.3264422  76.9795252  25.4698708  46.7514013  77.1387420  26.1062668
  46.9500098  76.3430661  25.0067158  47.1867234  76.9093065  25.4953266
  50.9937711  75.4518601  30.3291086  50.6052143  75.0272819  29.6743277
  50.3292409  75.7000751  30.8368113  50.8384638  75.4257322  30.3078954
  60.6360980  75.2093606  23.1038916  60.3797545  74.3973547  22.9136799
  61.4790294  75.2171173  22.8769103  60.7227005  75.0905603  23.0423733
  37.0721241  76.6235327  23.4843148  37.1581493  76.2467195  24.2656678
  37.6997038  76.2495772  23.0063106  37.1777792  76.5120809  23.5288625
  54.8164072  69.1493230  27.8415070  55.1974584  68.4671401  28.2282944
  54.0127356  68.8602832  27.6590735  54.7540534  69.0060278  27.8719126
  47.9684557  83.1538723  23.6540205  48.6058504  82.9150471  24.1991998
  48.3939629  83.3575882  22.9193366  48.1260723  83.1489733  23.6257362
  48.6087372  78.3741013  17.9915094  48.9932525  78.1548720  18.7431640
  48.3598993  79.2003958  18.1216171  48.6289445  78.4639159  18.1216171
  48.7755913  71.6547428  37.7077679  48.4609354  72.4246991  37.4447241
  48.4545845  71.0917684  37.1229906  48.6814832  71.6857697  37.5819029
  50.3506029  83.6311146  25.3333991  50.4245037  83.4686318  26.1875841
  51.1675535  83.8201335  25.0894473  50.4822388  83.6347888  25.4232017
  46.3287810  70.0437950  23.3223875  45.4610235  70.1160549  23.3881484
  46.6163014  70.8460029  23.5111850  46.2427558  70.1732097  23.3598642
  55.4520698  70.1915809  31.6535197  56.1974290  70.0025619  31.2398622
  55.0358003  70.7174047  31.0949053  55.5005673  70.2417954  31.5099770
  62.8282969  77.5625038  26.6040702  63.3790891  76.9293107  26.8437794
  62.8127085  78.0940430  27.2956206  62.9068166  77.5473986  26.7419560
  49.4805360  81.3963635  31.1500595  48.9817054  82.1079403  31.2285484
  50.2905584  81.7164301  31.1118758  49.5261467  81.5490483  31.1557164
  45.7433478  80.6586588  25.3963316  45.4546726  80.0324059  25.9309043
  46.6116826  80.6006875  25.4627997  45.8293730  80.5574132  25.4854271
  56.5311375  75.8021371  25.7145298  56.1876141  75.0811706  26.0652548
  56.6304418  75.5935222  24.8723656  56.4953418  75.6645574  25.6416978
  45.9465751  82.2981839  21.3205681  46.7011719  82.6794878  21.5341144
  45.3536364  82.7492983  21.7752378  45.9702465  82.4210666  21.4188560
  48.4072418  74.2544679  36.4462893  47.5972194  74.5602459  36.3352736
  48.8847105  74.9750262  36.5615477  48.3575897  74.4059280  36.4469964
  44.2555162  73.5196209  20.7640751  43.9679957  73.1497479  20.0272699
  44.9425630  73.9891064  20.5024456  44.3144059  73.5343178  20.6155827
  48.6930303  80.4994419  22.0927288  48.4973086  81.1069154  21.4987591
  48.9164649  79.8062363  21.6118961  48.6964944  80.4871945  21.9343368
  47.0908833  77.3849157  22.2108156  47.8131485  77.5490315  21.7511962
  46.6116826  78.1058822  22.1047496  47.1272564  77.5147387  22.1273770
  55.0502341  73.7212956  27.5904841  54.2113441  73.7474235  27.3543104
  55.1206708  74.3683691  28.1710187  54.9370734  73.8209082  27.6413958
  44.7416450  79.7907230  31.3162296  45.2537547  80.0691483  30.6671056
  44.4552793  80.5296524  31.6825109  44.7751313  79.9409583  31.2752174
  58.9259865  78.9280943  24.8766083  58.8393839  79.0836369  25.7300861
  58.4710345  79.5719018  24.5025488  58.8463121  79.0456698  24.9473189
  41.8283356  74.2977421  21.6126032  41.9299493  75.1003583  21.9407008
  42.6239243  74.0964757  21.3149113  41.9611262  74.3863320  21.6161388
  48.2600175  71.8833618  31.3763337  48.0683372  71.8988753  32.2262761
  49.1098771  72.0797292  31.3529992  48.3575897  71.9147969  31.4986632
  42.6447088  74.4124600  29.3547154  42.5032580  73.5608540  29.4791662
  42.9287652  74.4553260  28.5309360  42.6654934  74.2924350  29.2514778
  52.7985681  76.2491690  23.4991642  52.5520395  76.1687441  24.3328431
  53.1270804  75.4645158  23.3054170  52.8106924  76.1217955  23.5939165
  55.0311815  79.2571425  33.5400805  55.0259853  78.3851241  33.5443231
  55.7372809  79.4559594  33.0670261  55.1356819  79.1575299  33.4707840
  48.7582708  78.9848408  32.9114625  48.9026084  79.5649617  32.2757735
  49.1058357  79.3624705  33.6164480  48.8310169  79.1269112  32.9213620
  50.9302625  78.1838577  30.6939757  50.1825939  78.3769591  30.2888035
  51.0844151  77.3583796  30.4563878  50.8425053  78.0903688  30.5985163
  51.1704402  72.0789128  31.5835161  51.6277016  72.8113102  31.7107953
  51.2460731  71.6555593  32.3422416  51.2495372  72.1246366  31.7136237
  43.4137394  72.3254947  32.6724604  42.8779583  71.7135305  32.9885371
  43.4755158  72.9003083  33.3258271  43.3433026  72.3201875  32.8160031
  55.6431728  65.2579003  25.4529003  55.7615296  65.7155466  24.7196306
  55.4693904  64.4524264  25.1665221  55.6350899  65.2072775  25.3029937
  49.0486780  74.0691231  28.4276985  48.2582855  73.8882692  28.7494320
  49.4447403  73.2918184  28.4107279  48.9903656  73.9278692  28.4729533
  54.4330467  81.7033662  26.1536430  53.7575468  81.4718894  26.6549817
  54.4422843  81.0954845  25.5278535  54.3348971  81.5792587  26.1352583
  51.5624611  76.5451491  32.9100483  51.4983752  77.4061447  32.7820620
  51.7021798  76.2283484  32.1096035  51.5740081  76.6251657  32.7728696
  50.2443704  79.2383630  27.0516686  49.8205954  79.4388129  26.3155705
  50.0688560  78.3912478  27.1640986  50.1554585  79.1432411  26.9590376
  45.5326149  79.7335681  22.4844659  45.6890769  79.6682484  23.3400651
  45.8726743  80.5084234  22.2723338  45.6059384  79.8384879  22.5799253
  52.0705294  79.1093565  21.3538022  52.6120839  78.6063946  21.8176643
  52.3851853  79.0558760  20.5427507  52.1969691  79.0272986  21.3021834
  53.2194563  74.0029869  31.4060323  53.4336533  73.3640784  30.8523677
  52.6028463  74.4475693  30.9768184  53.1599893  73.9740013  31.2610754
  42.1060411  76.9170632  22.8005426  42.4859376  77.3355177  22.1365693
  41.5315776  77.4984088  23.1074269  42.0771736  77.0648491  22.7482167
  55.3833651  75.6118935  32.3443630  54.5710333  75.3044825  32.4256802
  55.8423586  75.1317935  32.9086342  55.3314036  75.4955427  32.4398224
  52.4787159  77.0179006  37.1272332  52.9486790  77.6421122  37.5140206
  52.5249039  76.3495982  37.6865547  52.5555035  77.0113686  37.2672403
  49.6358433  69.1236034  27.8521136  49.1196921  68.4316225  27.9772715
  49.0752361  69.7906811  27.7983734  49.4764946  69.1199291  27.8627202
  51.7050666  69.6628994  29.6813988  51.3182419  69.6878025  30.4627518
  51.2183603  69.0970672  29.2288505  51.5763175  69.5824744  29.7301892
  57.6800646  76.2291648  28.3053690  57.2528254  76.1417997  27.5501790
  57.0426698  76.3369424  28.8908535  57.5230253  76.2324308  28.2799132
  51.1721723  71.3367174  34.2450660  51.9995152  71.0652323  34.3009274
  51.1929569  72.1328015  34.6014478  51.2974573  71.4146928  34.3065843
  45.7491212  78.4831037  27.4320920  44.9079219  78.3834911  27.6399814
  45.9581220  79.2526517  27.7835241  45.6555905  78.5823080  27.5148235
  43.2266779  76.1050573  25.2605671  42.8323477  76.1793585  24.4855781
  42.6706896  76.4908520  25.8114033  43.0869592  76.1732348  25.2273331
  54.8631726  69.0831868  24.9409550  55.0681320  69.0154175  25.7866547
  54.5358150  69.8890689  24.8730727  54.8446974  69.1917808  25.0569205
  49.5607877  76.4112436  26.6818518  49.2571015  75.8568424  27.2828926
  48.8587298  76.5904646  26.1946552  49.4124087  76.3557218  26.6988224
  48.6173974  73.7212956  21.2463220  48.8933709  73.0031868  20.8340787
  49.2172644  74.3197875  21.0384326  48.7467239  73.7033326  21.1543981
  58.1165414  69.6363632  24.4212315  57.5039728  70.1234034  24.8066047
  58.2129589  68.9607123  24.9649967  58.0403312  69.6081941  24.5591174
  52.1184495  71.3926473  19.5209815  52.5728241  71.5637033  20.2457659
  52.5924541  70.7794584  19.1207591  52.2552815  71.3277358  19.5683576
  45.6400020  80.8774799  28.8512553  45.0487954  81.5184297  28.8215568
  46.4021044  81.3012416  28.8243853  45.6648281  81.0350637  28.8427701
  46.0360643  72.0376797  29.5180571  46.4962125  72.1115726  30.2555695
  46.0816750  72.8358051  29.1680392  46.1111198  72.1670944  29.5753327
  47.6843993  72.7043491  34.0852598  47.2929558  72.0576839  34.5208376
  47.8529856  73.2954927  34.7046853  47.6514903  72.6957759  34.2415304
  49.4597515  78.0969007  20.6254822  50.2039560  78.4843284  20.8637772
  49.6058211  77.2526433  20.7895310  49.5908100  78.0299480  20.6848792
  51.3777090  69.8919266  25.6586683  50.5313135  70.0642074  25.5328033
  51.3748223  69.0868610  25.9952512  51.2524240  69.7980295  25.6897810
  52.4475391  73.6694481  26.5248741  51.9735345  73.1436243  27.0354052
  52.8193527  73.1223953  25.9563603  52.4325280  73.5110477  26.5163889
  42.8248421  75.6665987  31.8932287  43.6874034  75.5661696  31.8069617
  42.4940204  75.0860697  31.3317859  42.9033617  75.5657614  31.7977693
  58.7112121  78.7296856  27.9355522  58.4710344  77.8903271  27.9397948
  59.1904129  78.8097023  28.6596295  58.7464305  78.6178256  28.0430324
  54.3758890  74.5631035  19.5874495  53.8481909  74.6459779  18.8980204
  54.8354599  75.3048907  19.5839140  54.3660741  74.6851698  19.4849190
  60.7117308  75.5098313  25.8884781  60.4727078  75.4694148  25.0505566
  60.8751210  76.3569465  26.0150502  60.7007612  75.6290398  25.7838263
  57.3163338  79.8948263  31.8189826  58.0397537  79.4420789  31.6400846
  57.0513301  80.1752928  31.0362154  57.3844612  79.8699231  31.6768542
  46.1850207  74.4908436  28.5542705  45.5603277  74.5026828  27.9468658
  45.8495802  74.9668611  29.2033946  46.0435699  74.5626953  28.5599274
  46.3691956  72.8333555  14.6115390  46.0204760  73.4853280  15.0746940
  45.8888401  72.8190668  13.8839262  46.2462200  72.9276608  14.5726482
  53.0982128  79.9932141  29.9684841  52.4839121  79.4490191  30.2633477
  53.6149413  79.4796377  29.4890657  53.0837790  79.8368550  29.9409070
  52.3378425  81.0636411  27.7029140  51.9106033  80.4386130  27.2694575
  52.3303370  80.7811333  28.5288147  52.2737566  80.9289192  27.7608967
  45.4540952  76.1001584  30.7717574  45.6134439  75.3444908  31.1769296
  45.2733846  76.6492524  31.4258312  45.4506311  76.0695398  30.9280280
  53.3961255  68.2662820  31.3268363  52.9001817  68.4626494  30.6359930
  54.1530317  68.6655488  31.1557165  53.4348080  68.3540553  31.1988500
  50.6664135  71.9405166  27.9171674  50.6906622  71.4065278  27.2284454
  50.9175608  71.4322474  28.5797264  50.7074054  71.7866070  27.9136319
  38.1771725  79.2236661  27.3514818  38.0715174  79.1783505  26.4866902
  37.4271945  79.5690441  27.6329103  38.0507328  79.2677569  27.2652148
  46.9465457  70.6675984  27.2977418  46.9863829  71.1685190  28.0112126
  46.1215122  70.7586377  27.0283341  46.8304983  70.7557800  27.3627956
  49.1295070  80.2336724  35.3997713  48.2790700  80.3708438  35.5355358
  49.2923198  79.5000502  35.8445414  49.0278933  80.1450825  35.4853312
  48.3679820  77.1836494  29.5951317  47.5371750  77.3510312  29.3886565
  48.3131338  76.8072444  30.3800203  48.2369235  77.1526225  29.6799845
  46.1763604  70.6745387  35.2307728  46.8016307  70.1307519  35.5037160
  45.7214084  70.1940304  34.6615518  46.2011864  70.5234868  35.1869322
  46.7415864  75.4592085  20.1241435  46.8818825  75.9564549  20.8270076
  47.2398397  74.7578380  20.2655649  46.8356945  75.4294064  20.2493014
  46.7716087  76.3259196  17.4534012  47.4061166  76.9219621  17.3883474
  46.8541697  76.0262654  18.2679882  46.8772638  76.3700104  17.5637098
  59.7498652  78.8574674  30.3220376  60.3416493  79.4971924  30.3538574
  60.1857647  78.1597710  30.6112443  59.9017084  78.8493024  30.3701209
  48.3495070  72.2573172  17.4279454  48.6710911  71.7776254  16.7738716
  48.6122013  73.0672818  17.2370265  48.4361095  72.3063070  17.3034946
  51.5792042  83.2792046  30.9478270  51.0717133  83.8327893  31.3918900
  51.2818689  83.3400336  30.1297044  51.4596927  83.3698357  30.8926727
  53.7454225  71.6445366  29.7902933  54.1709296  71.1917892  29.1786459
  53.1311218  71.0905436  30.0667720  53.7182870  71.4959342  29.7407958
  43.2769075  78.5227037  20.7223558  43.7861304  79.1191544  21.1034863
  43.7503347  78.2553011  20.0399977  43.4212450  78.5712852  20.6778080
  52.1848447  68.1160465  23.1993510  51.5416765  67.9658112  23.7678648
  51.8447854  67.8702811  22.4342614  52.0393525  68.0572588  23.1696525
  56.7747794  76.0719892  22.6223518  56.1038984  76.6149594  22.4936584
  57.4687544  76.5414748  22.3805213  56.7776661  76.2218163  22.5679046
  56.9375921  72.5275776  25.5313892  57.2903531  72.1005499  26.2059690
  56.0790723  72.4426619  25.6614968  56.8625366  72.4520516  25.6508902
  45.6359606  75.1583296  23.5896738  44.9171595  75.5747428  23.8569602
  46.0071969  75.7237534  23.0388376  45.5851538  75.3032577  23.5479545
  54.9359187  75.7911144  29.4798734  54.9157114  75.6094440  30.3333513
  54.9838388  76.6623163  29.4558318  54.9393828  75.8927683  29.6022029
  52.8805517  82.3798336  35.4047210  52.8401372  81.7348013  34.8192366
  53.6928835  82.3234954  35.7172622  52.9948670  82.2757303  35.3644160
  51.4106181  74.1981295  18.9270118  50.8171020  74.5198292  18.3754685
  51.4481458  73.3522391  18.7191224  51.3280570  74.1205624  18.8152889
  58.3699981  67.6494188  26.4598204  57.8630846  66.9423327  26.3919382
  59.1667415  67.3187377  26.5899281  58.4127221  67.4967339  26.4697199
  54.2863997  74.1560800  22.3571868  54.0577690  74.1793501  21.5150226
  54.5462073  73.3318267  22.4766878  54.2910185  74.0376880  22.2497066
  48.5683226  76.0095273  31.9596968  48.0562129  75.4016456  32.3181999
  48.3962722  76.7251866  32.4270944  48.4672863  76.0258572  32.0813192
  43.4148940  74.4532848  34.6099330  43.2451531  75.1134223  34.0647537
  42.9714890  74.6639410  35.3311819  43.3248274  74.5818830  34.6360959
  47.3408760  72.6937346  23.6526064  47.8166126  73.0554426  23.0176245
  46.8397359  73.3493814  23.9326206  47.3374119  72.8431535  23.6002805
  52.4452296  73.9319518  34.3999224  53.0023726  73.7033327  33.7677689
  52.1213361  74.6925183  34.1234436  52.4798706  74.0103354  34.2655721
  40.3151005  77.3579714  29.8687820  39.7677724  76.6880359  29.9868688
  41.1043383  76.9909562  29.9331287  40.3503189  77.2044700  29.8956520
  50.1635413  77.0187171  35.3651231  50.9146740  77.3338848  35.6790785
  50.3557990  76.8166342  34.5385153  50.3026827  77.0354553  35.2894626
  49.3835413  74.8378546  17.0199448  49.7634378  74.8558175  16.2350562
  48.6428009  75.2832535  16.8990295  49.3304251  74.9060321  16.8863016
  57.0120703  73.1460737  22.6075026  57.0114930  72.9909394  23.4659303
  56.8076883  73.9923724  22.5516412  56.9820481  73.2481358  22.7262966
  39.0737974  76.5700522  27.0233843  38.8959735  76.1177131  27.7488758
  38.7856997  77.3726683  27.2072320  39.0050928  76.6223079  27.1577346
  54.7361555  77.8258239  26.2611233  55.2315221  77.1081234  26.2215253
  53.9261331  77.5229037  26.1465720  54.6905449  77.6755885  26.2384959
  40.8110444  79.1028245  24.1355602  39.9455964  79.0913936  24.0238373
  40.9109260  78.9158468  24.9826741  40.6984611  79.0734307  24.2444546
  56.8013374  80.5761927  28.9488362  57.2268446  80.0536348  28.3958787
  56.4370294  81.1742764  28.4276985  56.8099977  80.5872154  28.7897372
  53.3891974  84.2896191  25.2789519  53.8603152  85.0036453  25.4479504
  53.7252152  83.6894941  25.8149389  53.5087089  84.3067655  25.3821895
  50.3061469  69.0623661  32.2347614  50.4389374  68.2654655  32.5628590
  50.6906621  69.5890064  32.8145890  50.3817798  69.0223578  32.3691117
  54.0265920  84.0814125  32.0417212  53.4786866  83.4572009  31.7737277
  54.4878949  84.2708397  31.3261291  54.0133130  84.0173175  31.8967643
  56.8359784  72.1499479  29.4268404  56.2522773  72.6508686  29.0145972
  57.1564079  71.6429036  28.7932728  56.7972960  72.1491314  29.2726911
  49.3754584  71.0640074  19.7027079  50.1970278  71.2338387  19.4608774
  48.9124235  71.2187335  18.9793377  49.4285746  71.1121807  19.5598723
  47.9649916  69.0582836  30.4825508  48.5094328  68.7173963  31.0729850
  48.0186851  69.9168298  30.6246792  48.0539035  69.1338096  30.5907381
  22.3751788  12.9629125  22.8322863  23.0818555  12.4681156  22.9609797
  22.5639723  13.4038207  22.1025521  22.5079693  12.9547476  22.7431908
  19.5144082  16.3856662  20.7236938  19.6027428  16.1982802  21.5715148
  19.9433795  15.7394091  20.3241785  19.5906185  16.2619670  20.7908690
  17.0814542  15.6687822  19.7054600  16.5185377  15.2560432  20.2294262
  17.8435565  15.5940728  20.1247744  17.1108991  15.5965222  19.8447601
  13.6889440   7.8961430  21.4371646  13.8609944   7.7867325  22.2856927
  14.2258797   8.5415835  21.2002838  13.7934444   7.9753432  21.5276742
  19.6264141  15.8165681  23.3880722  20.4104558  15.9296529  23.7536464
  19.4260736  14.9906818  23.5839407  19.7130167  15.7112400  23.4715108
  19.7834535  17.7275783  17.0347177  18.9849781  17.4875283  17.2921046
  20.2320546  17.7790176  17.7814225  19.7309146  17.6998174  17.1832102
  18.8435272  11.4736228  24.9267365  18.0508252  11.7879740  25.1119985
  18.9584199  11.6887696  24.0888150  18.7430682  11.5520065  24.8305700
  19.7719064  11.3756432  19.8652662  20.3457926  10.7383676  20.0201226
  19.6933868  11.3760514  18.9962320  19.8452299  11.2821543  19.7599073
  25.0939212  12.7465409  19.8737515  24.8577850  11.9153474  19.7549576
  25.7382441  12.6951016  20.4592360  25.1533883  12.6163097  19.9423409
  26.1175633  12.5309858  15.9365810  25.8121450  13.2637915  16.2979125
  25.3981849  12.1247788  15.6558596  25.9662975  12.5791591  15.9478947
  31.8177425   9.1702859  15.2634154  31.7501925   9.1898818  14.3936741
  31.8033087  10.0133186  15.4889825  31.8056181   9.2976593  15.1686631
  16.2558433  11.7785842  18.0840642  15.7570127  12.4901610  18.1625530
  17.0658658  12.0986509  18.0458804  16.3014540  11.9312691  18.0897211
  15.1825491   4.6366887  23.3802940  14.3725267   4.9424666  23.2692783
  15.6600178   5.3572469  23.4955524  15.1328970   4.7881488  23.3810011
  21.8064888   9.6393632  20.4740852  21.8012926   8.7673448  20.4783278
  22.5125882   9.8381801  20.0010308  21.9109892   9.5397506  20.4047887
  15.5335781   9.3670616  19.8454672  15.6779157   9.9471824  19.2097782
  15.8811430   9.7446913  20.5504527  15.6063243   9.5091320  19.8553667
  14.6063536  17.5573388  16.7115699  14.7553100  16.9976304  16.0589103
  15.3863538  17.6365389  17.0948218  14.7437630  17.4858953  16.6712648
  17.1316837  17.7288031  17.9900190  17.0560508  17.0596841  18.5450978
  17.0606696  18.4305819  18.5040856  17.1097444  17.7332938  18.1477038
  16.5208471  21.1356350  16.4478190  17.0104401  20.4367140  16.2653855
  15.9492703  20.8380220  17.0354248  16.5093001  20.9882574  16.5079231
  22.7175475  13.7018420  25.4004981  23.5310340  13.4303569  25.5610114
  22.5570441  13.4025960  24.5965177  22.8145423  13.6173346  25.3050387
  22.1586725   5.9941142  19.2783676  21.3463406   5.6867032  19.3596849
  22.6176659   5.5140142  19.8426389  22.1067109   5.8777634  19.3738271
  19.2540232   7.4001213  24.0612379  19.7239863   8.0243330  24.4480253
  19.3002112   6.7318189  24.6205593  19.3308108   7.3935894  24.2012450
  22.7296719  14.7624710  20.6727822  23.3676439  14.2684906  20.3390278
  22.0870810  14.6902110  20.0880049  22.7290945  14.6783718  20.5370177
  22.7850975  15.4544518  17.3133178  23.5743353  15.1033583  17.4335260
  22.9594573  16.2680907  17.0509812  22.9271257  15.5230375  17.2921046
  14.3979302  14.0084364  18.3230663  14.2899656  14.0186426  19.1892721
  14.6075083  14.8339144  18.1335616  14.4129413  14.1325439  18.4234754
  28.5343515  11.0902776  16.7829878  28.5926639  11.5389425  17.5289855
  27.9009983  11.5001589  16.3459958  28.4494810  11.2176511  16.8282427
  22.1742610  16.7106318  13.2184625  21.9762298  17.1997132  12.5240836
  21.5530321  16.9147559  13.7968758  22.0530174  16.8122856  13.2007848
  24.0916412  10.2770470  18.7529873  24.8150611   9.8242997  18.5740893
  23.8266374  10.5575136  17.9702201  24.1597685  10.2521439  18.6108588
  15.9048143  10.6158931  22.3337760  15.0543774  10.7530645  22.4695404
  16.0676271   9.8822709  22.7785461  15.8032007  10.5273032  22.4193359
  26.5251726   9.2396881  17.2560423  27.1169566   9.8794132  17.2878621
  26.9610720   8.5419918  17.5452490  26.6770157   9.2315231  17.3041255
  18.3545116  13.6614253  17.8818317  17.8470207  14.2150100  18.3258947
  18.0571762  13.7222543  17.0637091  18.2350000  13.7520565  17.8266773
  17.5987601  18.5938812  14.7875324  17.3753255  17.8357641  15.1559350
  17.1097444  18.6236833  14.0655763  17.4931050  18.4861036  14.7352064
  19.6558590  12.7620544  22.3387257  19.6154445  12.1170221  21.7532413
  20.4681908  12.7057161  22.6512669  19.7701744  12.6579511  22.2984206
  19.2205369   4.3141725  21.3339270  19.7776799   4.0855535  20.7017736
  18.8966434   5.0747391  21.0574483  19.2551779   4.3925562  21.1995768
  16.9388487   7.4009378  22.2991278  17.6899813   7.7161055  22.6130832
  17.1311063   7.1988549  21.4725199  17.0779901   7.4176760  22.2234673
  23.5766448  10.9584134  15.8828409  24.0021519  10.4358556  15.3298834
  23.2123367  11.5564971  15.3617032  23.5853050  10.9694361  15.7237418
  13.2120527  19.2548351  14.6425754  13.5267086  20.0684740  14.6503536
  13.6213941  18.8698570  15.3107913  13.3188625  19.3177054  14.7429846
  22.2522032  16.2819712  24.3921638  22.3618997  15.4928272  24.7478385
  22.5812928  16.1925648  23.5895976  22.3174437  16.1525564  24.3264029
  20.8018993  14.4636332  18.9757259  20.2539939  13.8394216  18.7077324
  21.2632022  14.6530604  18.2601338  20.7886203  14.3995383  18.8307690
  20.3677320  15.4687405  15.5066600  21.1875693  15.3250371  15.7682895
  20.0871397  16.0933604  16.0483038  20.4474063  15.5397757  15.6254539
  36.8390970  23.1252257   8.4709476  36.8084974  23.9796893   8.6427746
  37.4372319  22.8247549   9.0295620  36.9228128  23.2068753   8.5784279
  30.0390655  22.2127908  13.2262407  29.1828550  22.3736406  13.2771524
  30.0858309  21.3419972  13.2467468  29.9189766  22.1078710  13.2368473
  24.4231795  31.7490626   8.9899638  23.6714694  31.3706164   8.7615683
  24.8717806  31.7809059   8.2418449  24.3781461  31.6976233   8.8457140
  29.8756754  32.1715995   4.4185185  29.5408123  32.8492917   3.9829408
  30.3883625  31.7821306   3.8302057  29.9022336  32.2140573   4.2671977
  29.4161046  34.1230264  10.3596297  29.8000425  34.6917162   9.8201072
  29.3520187  33.3979774   9.8802113  29.4634473  34.1005727  10.2090160
  32.8842476  24.2719952  15.8694058  33.4298436  24.9505038  15.9288028
  32.8259352  24.1307413  15.0095640  32.9558390  24.3511953  15.7506119
  26.0016551  31.7609018  11.2562411  26.1026914  30.9509372  11.5659539
  25.4058296  31.6665964  10.6262089  25.9289089  31.6274046  11.2088649
  34.6607545  25.7004559   6.7427786  34.5447070  26.4512245   7.1719924
  35.4563431  25.4428512   6.9923873  34.7612134  25.7739406   6.8431878
  25.8417290  36.6786607  12.6577267  26.4854746  37.1199771  13.0473425
  26.1673546  35.8740033  12.5707526  25.9849119  36.6251802  12.7022744
  19.1981595  27.7829304  10.8814744  18.9631779  26.9496957  10.7747013
  19.3367236  28.0633970  10.0675945  19.1837257  27.7012808  10.7457099
  21.4971682  19.9515035  13.7799052  20.8776714  19.3607682  13.6109067
  21.3955546  20.5426470  13.1463375  21.3909358  19.9519117  13.6604042
  26.5437870  29.6898582   8.0297129  26.8653711  30.2303789   7.4258437
  27.1909967  29.1195353   8.1619418  26.6863925  29.6857757   7.9604164
  28.5939578  21.6914577   8.1131515  29.2919743  21.8702704   8.6052979
  28.9091911  21.1684916   7.4901905  28.7434915  21.6408349   8.0933525
  21.2240815  23.4967317  16.0242621  21.0999512  24.0829762  16.6592440
  21.8759100  23.0027512  16.3254896  21.3014465  23.5106121  16.1628550
  28.7827513  28.0785022   8.1011307  29.2221149  27.4702122   8.5466080
  28.6332176  27.6992395   7.3296772  28.8248979  27.9323493   8.0530474
  26.2499156  26.6729034  15.3030132  26.8948159  26.1801477  14.9841081
  26.4900934  26.8153820  16.1296211  26.3809742  26.6206476  15.3779665
  28.7885248  29.5183939  14.9537025  29.0708491  28.7235345  14.7323781
  29.5171408  29.9964527  14.9742086  28.9374812  29.4718536  14.9240040
  26.7666442  17.0606973  12.1952790  26.4369772  17.5118117  11.5256489
  26.0911443  16.9823137  12.7425796  26.6176878  17.1158109  12.1776013
  32.3836850  26.4312203   5.0542076  32.2988145  27.2873170   5.1991645
  32.8721233  26.1556527   5.7224235  32.4425747  26.5169524   5.1744157
  33.9742849  13.0492496  10.4402401  33.6596290  13.7395975  10.8722823
  33.4569791  12.9937279   9.7387901  33.8507320  13.1427385  10.3999350
  33.3155283  23.0496997   6.5539811  32.7866755  23.2656631   7.2137117
  33.8380303  23.7433136   6.4740780  33.3143736  23.1840134   6.6395410
  38.7703336  28.6243302  11.9272856  37.9401039  28.8353945  12.0906272
  38.7212588  27.7980356  11.6515139  38.6410072  28.5332908  11.9110221
  20.7598920  32.6614975  12.1570951  20.2766498  33.3865465  12.1330534
  21.5722238  32.9591105  12.2681108  20.8089667  32.8117329  12.1698230
  26.8313074  31.4547156  14.7620765  26.3140015  31.0954571  14.1582073
  27.5287465  30.9309330  14.7726831  26.8578655  31.3244844  14.6751024
  30.4876666  31.9041970  20.7236938  30.5760012  31.7168110  21.5715148
  30.9166378  31.2579399  20.3241785  30.5638768  31.7804978  20.7908690
  28.0547125  31.1873130  19.7054600  27.4917960  30.7745740  20.2294262
  28.8168149  31.1126035  20.1247744  28.0841574  31.1150530  19.8447601
  23.6143117  33.1771151  12.3091230  24.3163696  32.6623140  12.3663987
  23.5340600  33.5045302  13.1138106  23.7066877  33.1485377  12.4364023
  38.2657294  21.2713702  15.7223277  37.4285716  21.3415889  15.9570871
  38.2345525  21.2738197  14.8497579  38.1375577  21.2823929  15.6282825
  24.6622024  23.4146738  21.4371646  24.8342527  23.3052633  22.2856927
  25.1991381  24.0601143  21.2002838  24.7667027  23.4938740  21.5276742
  22.9393892  29.3677503  11.8176838  23.7782792  29.6000436  11.8650600
  22.9705662  28.4981814  11.7483874  23.0675610  29.2734449  11.8141483
  32.9887480  25.4669379  11.3135168  33.7444995  25.9000893  11.3524077
  33.0949805  24.8174149  11.8869804  33.1157651  25.4346863  11.4033194
  36.0267651  29.2942656  12.0637571  35.5902883  29.2979398  12.8196543
  35.6930567  29.9748155  11.6317149  35.9130271  29.3955112  12.1118404
  18.9683740  26.0078669  16.2724566  18.7022156  25.1917786  16.4315556
  18.9822305  26.0531825  15.4020081  18.9308463  25.8935574  16.1678048
  35.9465134  16.3356484  14.3066999  36.5891043  16.4054589  14.8928915
  36.1988155  15.6685707  13.8046541  36.0787266  16.2482833  14.3194279
  23.7182347  19.5457047  18.9191573  23.0254144  19.0754027  19.1652305
  24.3342674  19.3195352  19.4933280  23.7066877  19.4424179  19.0400726
  30.7567118  33.2461091  17.0347177  29.9582364  33.0060591  17.2921046
  31.2053130  33.2975484  17.7814225  30.7041730  33.2183482  17.1832102
  39.1611998  26.0123576  10.9557209  39.8228432  25.4514244  10.8553117
  38.5203410  25.5175607  11.2809900  39.1640865  25.8559985  10.9889549
  30.0488805  29.3093707   3.2638132  30.4639954  28.9778731   2.5722628
  29.2180735  29.0762610   3.1358268  29.9876814  29.2264963   3.1428979
  19.3777154  26.7937448  13.5536310  19.1952727  26.7684334  12.7008602
  20.1126823  27.2636386  13.5925219  19.4591218  26.8598811  13.4334228
  35.4476828  27.0288958  10.6969197  35.6832417  27.1734157   9.8696048
  35.5966392  27.7931366  11.0900711  35.5042632  27.1628013  10.6332801
  22.4422906  23.5122451  20.0618418  23.1662878  23.4975482  20.5483313
  22.5439042  24.2217807  19.5640387  22.5641115  23.6147154  20.0597205
  37.2767285  25.8690624   8.5338801  37.6075502  26.4018264   7.9278896
  37.8500373  25.9229512   9.1900752  37.4100964  25.9560193   8.5416583
  32.4899174  23.7155527   9.2162381  32.5846029  24.4544821   9.6702007
  31.8658018  23.2873002   9.6496946  32.4108204  23.7616848   9.3470529
  30.7451648  26.8941740  19.8652662  31.3190510  26.2568984  20.0201226
  30.6666452  26.8945822  18.9962320  30.8184883  26.8006851  19.7599073
  19.3448064  23.6730949  13.7035376  19.9221567  23.5367400  14.3427622
  18.6462126  23.2166733  13.9580961  19.3269086  23.5853215  13.8357666
  26.1015367  25.3265005  11.9173860  25.8434611  24.4936740  11.8905159
  26.1563849  25.5522618  11.0766360  26.0715144  25.2362776  11.7893996
  31.1816417  17.4293455  12.0177952  30.4772744  16.9402641  12.1761871
  31.2301391  17.4415930  11.1466397  31.0846468  17.3583103  11.9117292
  25.0750079  22.8802767  12.4038754  24.4999670  23.0394936  13.0402715
  24.6985755  22.2438176  11.9407205  24.9352891  22.8100580  12.4293313
  28.7423367  21.3526117  17.2631133  28.3537800  20.9280334  16.6083324
  28.0778066  21.6008266  17.7708159  28.5870295  21.3264838  17.2419001
  38.3846637  21.1101121  10.0378963  38.1283201  20.2981063   9.8476846
  39.2275951  21.1178688   9.8109150  38.4712662  20.9913119   9.9763780
  32.5649729  15.0500745  14.7755117  32.9460241  14.3678916  15.1622991
  31.7613013  14.7610347  14.5930781  32.5026191  14.9067794  14.8059173
  29.8462306  25.5824721   5.4607940  30.6602945  25.8739614   5.3490711
  29.7821447  24.9284583   4.8866233  29.9565045  25.5289916   5.3596777
  36.0671796  28.2650717  19.8737515  35.8310433  27.4338782  19.7549576
  36.7115025  28.2136324  20.4592360  36.1266467  28.1348405  19.9423409
  25.7170214  29.0546239  10.5880252  26.3544161  28.8157986  11.1332045
  26.1425286  29.2583397   9.8533412  25.8746380  29.0497249  10.5597409
  20.4082856  31.2934575  14.4714556  20.4487002  31.5649426  13.6434335
  20.9677380  31.8176483  14.8872343  20.4966202  31.4110330  14.4106444
  26.5241569  17.5554944  24.6417725  26.2095010  18.3254506  24.3787288
  26.2031502  16.9925200  24.0569952  26.4300488  17.5865212  24.5159075
  37.0908216  28.0495166  15.9365810  36.7854034  28.7823223  16.2979125
  36.3714432  27.6433095  15.6558596  36.9395559  28.0976899  15.9478947
  28.0991686  29.5318661  12.2674038  28.1730694  29.3693833  13.1215888
  28.9161192  29.7208851  12.0234520  28.2308045  29.5355404  12.3572064
  42.7910009  24.6888167  15.2634154  42.7234509  24.7084126  14.3936741
  42.7765671  25.5318494  15.4889825  42.7788765  24.8161901  15.1686631
  21.8597443  29.8776524   9.2968482  21.0335560  30.1238261   9.1702760
  21.9209434  29.7988605  10.1630540  21.7471610  29.9021473   9.4057426
  33.2006355  16.0923324  18.5875244  33.9459947  15.9033135  18.1738669
  32.7843660  16.6181562  18.0289100  33.2491329  16.1425470  18.4439817
  26.6396272  32.4953404   6.9987511  26.9294570  32.1042386   6.2746738
  27.3699752  32.6770109   7.4392787  26.7903156  32.4647218   6.9570318
  40.5768626  23.4632553  13.5380749  41.1276548  22.8300622  13.7777841
  40.5612741  23.9947946  14.2296253  40.6553822  23.4481501  13.6759607
  27.2291017  27.2971150  18.0840642  26.7302710  28.0086918  18.1625530
  28.0391241  27.6171817  18.0458804  27.2747124  27.4497999  18.0897211
  24.5802187  34.4720787  10.0647661  24.3602483  34.1818141  10.8574328
  24.3596709  33.8135742   9.5365574  24.5149781  34.3320495  10.1036570
  23.4919134  26.5594103  12.3303363  23.2032383  25.9331574  12.8649090
  24.3602482  26.5014391  12.3968043  23.5779386  26.4581647  12.4194317
  34.2797032  21.7028887  12.6485345  33.9361798  20.9819222  12.9992594
  34.3790075  21.4942738  11.8063703  34.2439075  21.5653090  12.5757025
  26.7470143  35.8450177   8.8478354  27.3994201  35.3126619   9.0769380
  26.0495752  35.4918829   9.2346228  26.7400861  35.7139700   8.9390521
  23.6951408  28.1989354   8.2545728  24.4497376  28.5802393   8.4681190
  23.1022020  28.6500498   8.7092424  23.7188121  28.3218182   8.3528606
  34.7410061  28.1654591   8.1909333  35.3068094  28.8247800   8.1067876
  34.0937965  28.5104289   8.6625735  34.7288818  28.3136532   8.2482089
  26.1558075  20.1552195  23.3802940  25.3457851  20.4609974  23.2692783
  26.6332762  20.8757777  23.4955524  26.1061554  20.3066796  23.3810011
  25.0149634  29.3697916  13.6285843  24.4930388  29.5098207  14.3137708
  25.4023655  28.6108580  13.8187961  24.9953335  29.2783439  13.7586920
  31.2116639  31.1093375   7.6146412  30.9703315  30.3761235   7.2073477
  31.3917972  31.6580232   6.9612745  31.2024263  31.0815766   7.4576635
  26.4415960  26.4001935   9.0267334  26.2458743  27.0076669   8.4327637
  26.6650306  25.7069879   8.5459008  26.4450601  26.3879460   8.8683415
  24.8394490  23.2856673   9.1448203  25.5617142  23.4497831   8.6852009
  24.3602483  24.0066337   9.0387542  24.8758221  23.4154902   9.0613817
  32.7987998  19.6220471  14.5244888  31.9599098  19.6481750  14.2883151
  32.8692365  20.2691207  15.1050234  32.6856391  19.7216597  14.5754005
  22.4902107  25.6914745  18.2502343  23.0023204  25.9698998  17.6011102
  22.2038449  26.4304039  18.6165156  22.5236970  25.8417099  18.2092221
  31.2457276  16.5205848   9.2572504  31.9483629  16.3213597   8.7792462
  30.9801465  15.7481791   9.5641347  31.3103908  16.3768814   9.2317945
  36.6745521  24.8288458  11.8106129  36.5879496  24.9843884  12.6640908
  36.2196001  25.4726534  11.4365534  36.5948778  24.9464213  11.8813236
  26.0085832  17.7841134  18.3103384  25.8169029  17.7996268  19.1602808
  26.8584428  17.9804808  18.2870039  26.1061554  17.8155485  18.4326679
  20.3932745  20.3132115  16.2887201  20.2518237  19.4616056  16.4131709
  20.6773308  20.3560776  15.4649407  20.4140591  20.1931865  16.1854825
  30.5471337  22.1499205  10.4331689  30.3006052  22.0694956  11.2668478
  30.8756461  21.3652673  10.2394216  30.5592581  22.0225471  10.5279212
  34.4419386  28.8582565  14.2218470  34.3033746  29.5563610  14.7267213
  33.6619384  28.7031221  13.8654652  34.3062613  28.9382731  14.2444744
  26.5068365  24.8855924  19.8454672  26.6511740  25.4657132  19.2097782
  26.8544013  25.2632220  20.5504527  26.5795826  25.0276628  19.8553667
  28.6788282  24.0846092  17.6279804  27.9311596  24.2777107  17.2228082
  28.8329807  23.2591312  17.3903925  28.5910710  23.9911204  17.5325209
  25.5796120  33.0758696  16.7115699  25.7285683  32.5161611  16.0589103
  26.3596122  33.1550697  17.0948218  25.7170213  33.0044261  16.6712648
  35.9372759  28.2160818   4.9834969  35.5579568  27.4297956   4.9764259
  35.2739005  28.7647675   4.8406614  35.7831234  28.1805642   4.9615766
  28.1049420  33.2473338  17.9900190  28.0293091  32.5782149  18.5450978
  28.0339280  33.9491127  18.5040856  28.0830027  33.2518246  18.1477038
  28.9190059  17.9796643  18.5175207  29.3762673  18.7120617  18.6448000
  28.9946388  17.5563108  19.2762463  28.9981029  18.0253881  18.6476284
  21.1623050  18.2262463  19.6064651  20.6265240  17.6142821  19.9225418
  21.2240815  18.8010599  20.2598318  21.0918683  18.2209390  19.7500078
  33.3917385  11.1586518  12.3869050  33.5100953  11.6162981  11.6536353
  33.2179561  10.3531779  12.1005268  33.3836556  11.1080290  12.2369984
  28.7619667  31.7674337   8.8223796  29.5269558  31.4983981   8.5006460
  28.6597757  31.2824348   9.5393858  28.8601163  31.6563902   8.8803623
  26.7972437  19.9698747  15.3617031  26.0068512  19.7890207  15.6834367
  27.1933060  19.1925699  15.3447326  26.7389313  19.8286208  15.4069580
  32.1816123  27.6041177  13.0876477  31.5061125  27.3726409  13.5889864
  32.1908499  26.9962360  12.4618582  32.0834628  27.4800102  13.0692629
  29.3110267  22.4459006  19.8440530  29.2469409  23.3068962  19.7160667
  29.4507455  22.1290999  19.0436082  29.3225737  22.5259173  19.7068743
  34.1832858  30.4606309   5.3186655  34.2652695  31.2673296   4.9948106
  34.6682600  30.4802269   6.0427429  34.2670016  30.5826972   5.3773554
  27.9929361  25.1391145  13.9856733  27.5691610  25.3395644  13.2495752
  27.8174216  24.2919993  14.0981033  27.9040242  25.0439927  13.8930423
  27.4941055  36.6541658  16.4478190  27.9836985  35.9552447  16.2653855
  26.9225287  36.3565528  17.0354248  27.4825585  36.5067882  16.5079231
  23.2811806  25.6343197   9.4184706  23.4376425  25.5689999  10.2740698
  23.6212399  26.4091749   9.2063385  23.3545041  25.7392395   9.5139300
  29.8190951  25.0101080   8.2878069  30.3606496  24.5071461   8.7516689
  30.1337510  24.9566275   7.4767554  29.9455348  24.9280501   8.2361881
  27.9877401  30.4018432   5.5718097  28.0570221  29.5432970   5.7111097
  28.7665856  30.6190313   5.2437121  28.1130251  30.3071296   5.5435254
  30.9680220  19.9037385  18.3400369  31.1822190  19.2648299  17.7863723
  30.3514119  20.3483209  17.9108231  30.9085549  19.8747528  18.1950800
  32.3784888  32.8256133   9.7854590  31.9864680  32.5222848   9.0677456
  32.5337960  33.6625223   9.5959544  32.3438478  32.9039970   9.6511087
  33.1319308  21.5126450  19.2783676  32.3195990  21.2052340  19.3596849
  33.5909243  21.0325450  19.8426389  33.0799693  21.3962942  19.3738271
  32.5424563  29.3906122   9.7260621  32.1839218  29.5620765  10.5024653
  32.0563274  29.8519328   9.1688619  32.4183260  29.4845093   9.7585890
  30.3594949  13.0137320  13.3287712  29.4888507  12.9876042  13.2821022
  30.6135290  12.8414513  12.5113558  30.2688509  12.9847464  13.2007849
  30.2272816  22.9186521  24.0612379  30.6972447  23.5428638  24.4480253
  30.2734696  22.2503497  24.6205593  30.3040692  22.9121202  24.2012450
  27.3844089  15.0243549  14.7861183  26.8682578  14.3323740  14.9112762
  26.8238018  15.6914326  14.7323781  27.2250603  15.0206806  14.7967249
  29.4536323  15.5636509  16.6154035  29.0668076  15.5885540  17.3967565
  28.9669260  14.9978188  16.1628552  29.3248832  15.4832260  16.6641939
  35.4286302  22.1299164  15.2393737  35.0013910  22.0425512  14.4841837
  34.7912355  22.2376939  15.8248581  35.2715910  22.1331824  15.2139179
  29.1193465  12.4503494  18.9064295  29.7486582  12.9863794  18.6285365
  29.2879327  12.3580853  19.7577861  29.2371259  12.5164857  18.9912823
  28.9207379  17.2374689  21.1790707  29.7480809  16.9659838  21.2349321
  28.9415225  18.0335531  21.5354525  29.0460229  17.3154443  21.2405890
  33.7583559  30.9729826  17.3133178  34.5475937  30.6218891  17.4335260
  33.9327157  31.7866215  17.0509812  33.9003840  31.0415683  17.2921046
  23.4976869  24.3838552  14.3660967  22.6564876  24.2842426  14.5739861
  23.7066877  25.1534032  14.7175288  23.4041562  24.4830595  14.4488282
  20.9752436  22.0058089  12.1945718  20.5809134  22.0801101  11.4195828
  20.4192553  22.3916035  12.7454080  20.8355249  22.0739863  12.1613378
  32.6117383  14.9839383  11.8749597  32.8166976  14.9161691  12.7206594
  32.2843807  15.7898204  11.8070774  32.5932631  15.0925323  11.9909252
  27.3093534  22.3119951  13.6158565  27.0056672  21.7575939  14.2168972
  26.6072955  22.4912161  13.1286599  27.1609744  22.2564733  13.6328270
  25.3711885  29.5269672  18.3230663  25.2632240  29.5371734  19.1892721
  25.5807667  30.3524452  18.1335616  25.3861996  29.6510747  18.4234754
  35.8651071  15.5371147  11.3552362  35.2525384  16.0241549  11.7406094
  35.9615246  14.8614638  11.8990013  35.7888968  15.5089456  11.4931220
  23.3885677  26.7782314  15.7852600  22.7973610  27.4191812  15.7555615
  24.1506701  27.2019931  15.7583900  23.4133938  26.9358153  15.7767747
  23.7846300  17.9384312  16.4520618  24.2447781  18.0123241  17.1895742
  23.8302407  18.7365566  16.1020439  23.8596855  18.0678459  16.5093374
  25.4329650  18.6051007  21.0192645  25.0415215  17.9584354  21.4548423
  25.6015512  19.1962442  21.6386900  25.4000560  18.5965275  21.1755351
  39.5076099  26.6088084  16.7829878  39.5659222  27.0574733  17.5289855
  38.8742566  27.0186897  16.3459958  39.4227394  26.7361819  16.8282427
  33.1475193  32.2291626  13.2184625  32.9494882  32.7182440  12.5240836
  32.5262904  32.4332867  13.7968758  33.0262758  32.3308164  13.2007848
  27.2083172  23.9976523   7.5594869  27.9525217  24.3850799   7.7977819
  27.3543868  23.1533948   7.7235357  27.3393757  23.9306995   7.6188839
  29.1262747  15.7926782  12.5926730  28.2798792  15.9649589  12.4668080
  29.1233880  14.9876125  12.9292559  29.0009897  15.6987810  12.6237857
  30.1961048  19.5701996  13.4588788  29.7221002  19.0443758  13.9694099
  30.5679183  19.0231469  12.8903650  30.1810937  19.4117993  13.4503935
  20.5734078  21.5673503  18.8272334  21.4359691  21.4669212  18.7409664
  20.2425861  20.9868212  18.2657906  20.6519274  21.4665129  18.7317740
  36.4597778  24.6304372  14.8695569  36.2196001  23.7910787  14.8737995
  36.9389785  24.7104538  15.5936342  36.4949962  24.5185771  14.9770371
  38.4602965  21.4105829  12.8224828  38.2212735  21.3701663  11.9845612
  38.6236866  22.2576981  12.9490549  38.4493269  21.5297914  12.7178310
  35.0648995  25.7955778  18.7529873  35.7883194  25.3428305  18.5740893
  34.7998958  26.0760444  17.9702201  35.1330269  25.7706747  18.6108588
  23.9335864  20.3915952  15.4882752  23.3088934  20.4034344  14.8808705
  23.5981459  20.8676127  16.1373992  23.7921356  20.4634469  15.4939321
  20.6461539  28.4516412  16.9286516  20.1161464  27.7608851  16.9781491
  20.9186633  28.4426597  16.0999225  20.6086262  28.3483544  16.8133932
  31.6781630  29.0342114   5.6524199  32.4015829  29.5000227   5.5088772
  31.2382221  29.1015724   4.9021796  31.7197322  29.1125951   5.5208980
  30.8467785  25.8939656  16.9024888  30.2324778  25.3497707  17.1973523
  31.3635070  25.3803893  16.4230704  30.8323447  25.7376065  16.8749116
  30.0864082  26.9643926  14.6369187  29.6591690  26.3393645  14.2034622
  30.0789026  26.6818848  15.4628194  30.0223223  26.8296707  14.6949014
  23.2026609  22.0009099  17.7057621  23.3620096  21.2452424  18.1109343
  23.0219503  22.5500039  18.3598358  23.1991968  21.9702913  17.8620327
  31.1446912  14.1670335  18.2608410  30.6487473  14.3634009  17.5699977
  31.9015974  14.5663003  18.0897212  31.1833737  14.2548069  18.1328547
  28.4149792  17.8412681  14.8511721  28.4392279  17.3072793  14.1624501
  28.6661265  17.3329990  15.5137311  28.4559710  17.6873585  14.8476365
  15.9257381  25.1244176  14.2854865  15.8200831  25.0791020  13.4206949
  15.1757601  25.4697956  14.5669150  15.7992984  25.1685084  14.1992194
  24.6951114  16.5683499  14.2317465  24.7349485  17.0692706  14.9452172
  23.8700779  16.6593893  13.9623388  24.5790640  16.6565315  14.2968003
  26.8780727  26.1344239  22.3337760  26.0276357  26.2715953  22.4695404
  27.0408854  25.4008017  22.7785461  26.7764590  26.0458340  22.4193359
  26.1165477  23.0844009  16.5291364  25.2857407  23.2517827  16.3226612
  26.0616994  22.7079960  17.3140249  25.9854892  23.0533740  16.6139892
  23.9249261  16.5752902  22.1647775  24.5501964  16.0315035  22.4377207
  23.4699740  16.0947819  21.5955565  23.9497521  16.4242383  22.1209369
  37.4984309  24.7582189  17.2560423  38.0902150  25.3979440  17.2878621
  37.9343304  24.0605226  17.5452490  37.6502740  24.7500539  17.3041255
  29.3277699  29.1799561  17.8818317  28.8202790  29.7335408  18.3258947
  29.0304345  29.2407851  17.0637091  29.2082584  29.2705872  17.8266773
  31.4939881  17.5452881  16.7242980  31.9194953  17.0925407  16.1126506
  30.8796874  16.9912952  17.0007767  31.4668527  17.3966857  16.6748005
  31.9385479  33.0962819   5.8122260  31.2214789  32.9223681   5.3469497
  32.5892217  32.8615391   5.2797746  31.9287330  33.0358611   5.6651478
  34.5233451  21.9727408   9.5563565  33.8524641  22.5157110   9.4276631
  35.2173201  22.4422263   9.3145260  34.5262318  22.1225679   9.5019093
  28.5720184  34.1124120  14.7875324  28.3485839  33.3542949  15.1559350
  28.0830028  34.1422141  14.0655763  28.4663633  34.0046344  14.7352064
  34.6861578  18.4283291  12.4653938  35.0389188  18.0013014  13.1399737
  33.8276380  18.3434135  12.5955015  34.6111023  18.3528032  12.5848949
  23.3845263  21.0590811  10.5236785  22.6657252  21.4754943  10.7909649
  23.7557625  21.6245050   9.9728423  23.3337195  21.2040092  10.4819592
  32.6844844  21.6918660  16.4138781  32.6642771  21.5101955  17.2673560
  32.7324045  22.5630678  16.3898364  32.6879485  21.7935198  16.5362075
  30.6291174  28.2805852  22.3387257  30.5887029  27.6355529  21.7532413
  31.4414492  28.2242469  22.6512669  30.7434327  28.1764819  22.2984206
  27.2198641  34.3324578  12.2412408  26.8059040  33.6698708  11.8516250
  27.9046016  34.4802436  11.7208102  27.2597013  34.2565236  12.1068905
  30.5863935  33.4914663  12.9936025  30.1880219  33.6016933  12.2256845
  29.9715155  33.6996729  13.5762585  30.4362825  33.5388231  12.9667324
  36.1185638  13.5501703  13.3938251  35.6116503  12.8430843  13.3259428
  36.9153072  13.2194892  13.5239328  36.1612877  13.3974854  13.4037246
  32.0349654  20.0568315   9.2911915  31.8063347  20.0801017   8.4490273
  32.2947730  19.2325782   9.4106925  32.0395842  19.9384395   9.1837112
  26.3168882  21.9102788  18.8937015  25.8047786  21.3023971  19.2522046
  26.1448379  22.6259381  19.3610991  26.2158519  21.9266088  19.0153239
  21.1634597  20.3540364  21.5439377  20.9937187  21.0141738  20.9987583
  20.7200547  20.5646925  22.2651866  21.0733931  20.4826346  21.5701006
  25.0894417  18.5944862  10.5866110  25.5651783  18.9561941   9.9516291
  24.5883016  19.2501329  10.8666253  25.0859776  18.7439050  10.5342851
  38.3205778  28.0666630   6.3779115  38.7039384  28.8157986   6.6077212
  37.5249891  28.3132449   6.1191104  38.2599560  28.2136323   6.3736689
  30.1937953  19.8327033  21.3339270  30.7509383  19.6040842  20.7017736
  29.8699018  20.5932699  21.0574483  30.2284363  19.9110870  21.1995768
  18.0636662  23.2587229  16.8027866  17.5163381  22.5887875  16.9208735
  18.8529040  22.8917077  16.8671334  18.0988845  23.1052216  16.8296567
  27.9121070  22.9194686  22.2991278  28.6632397  23.2346363  22.6130832
  28.1043647  22.7173857  21.4725199  28.0512484  22.9362068  22.2234673
  34.7606360  19.0468253   9.5415073  34.7600587  18.8916909  10.3999349
  34.5562540  19.8931240   9.4856459  34.7306138  19.1488873   9.6603012
  16.8223631  22.4708037  13.9573890  16.6445392  22.0184646  14.6828805
  16.5342653  23.2734198  14.1412367  16.7536584  22.5230595  14.0917392
  32.4847212  23.7265754  13.1951280  32.9800878  23.0088749  13.1555300
  31.6746988  23.4236552  13.0805767  32.4391106  23.5763401  13.1725006
  27.9305824  27.5763568   5.3448284  27.1217147  27.2530241   5.2981594
  28.4380733  26.8696790   5.2776533  27.8855491  27.4244884   5.3278579
  18.5596101  25.0035761  11.0695649  17.6941621  24.9921451  10.9578420
  18.6594917  24.8165984  11.9166788  18.4470268  24.9741822  11.1784593
  34.5499031  26.4769442  15.8828409  34.9754103  25.9543864  15.3298834
  34.1855951  27.0750279  15.3617032  34.5585634  26.4879669  15.7237418
  24.1853111  34.7733659  14.6425754  24.4999670  35.5870048  14.6503536
  24.5946524  34.3883878  15.3107913  24.2921209  34.8362362  14.7429846
  31.1377631  30.1903706  12.2129566  31.6088809  30.9043969  12.3819551
  31.4737809  29.5902456  12.7489436  31.2572746  30.2075170  12.3161942
  28.0547126  14.9631177  19.1687661  28.1875031  14.1662170  19.4968636
  28.4392278  15.4897580  19.7485937  28.1303454  14.9231093  19.3031164
  31.7751577  29.9821640  18.9757259  31.2272523  29.3579524  18.7077324
  32.2364606  30.1715912  18.2601338  31.7618786  29.9180690  18.8307690
  31.1279481  11.8861503  15.7668754  30.3225444  11.7759232  16.0836592
  30.9986216  11.9873959  14.9098620  30.9899614  11.8845173  15.6876795
  34.5845441  18.0506995  16.3608451  34.0008430  18.5516201  15.9486018
  34.9049735  17.5436551  15.7272774  34.5458617  18.0498830  16.2066958
  25.7135572  14.9590352  17.4165555  26.2579985  14.6181479  18.0069896
  25.7672508  15.8175813  17.5586839  25.8024692  15.0345611  17.5247428
  21.5266131  28.7206768  14.2904363  22.1310988  28.6802602  13.6618183
  21.3193444  29.5677920  14.3208418  21.5855028  28.8394770  14.2020479
  31.3409903  30.9872713  15.5066600  32.1608277  30.8435679  15.7682895
  31.0603981  31.6118912  16.0483038  31.4206647  31.0583065  15.6254539
  16.7617413  27.7041385  14.1603286  16.6641691  26.8937657  14.4693342
  17.5446283  27.6833179  13.7749554  16.8633550  27.5808475  14.1490149
  47.8123554  38.6437565   8.4709476  47.7817558  39.4982201   8.6427746
  48.4104902  38.3432857   9.0295620  47.8960711  38.7254061   8.5784279
  41.0123238  37.7313216  13.2262407  40.1561134  37.8921714  13.2771524
  41.0590892  36.8605280  13.2467468  40.8922350  37.6264018  13.2368473
  35.3964378  47.2675934   8.9899638  34.6447278  46.8891472   8.7615683
  35.8450390  47.2994367   8.2418449  35.3514045  47.2161541   8.8457140
  40.8489338  47.6901303   4.4185185  40.5140706  48.3678225   3.9829408
  41.3616208  47.3006614   3.8302057  40.8754919  47.7325881   4.2671977
  40.3893629  49.6415572  10.3596297  40.7733009  50.2102470   9.8201072
  40.3252771  48.9165082   9.8802113  40.4367057  49.6191035  10.2090160
  43.8575059  39.7905260  15.8694058  44.4031019  40.4690346  15.9288028
  43.7991936  39.6492720  15.0095640  43.9290974  39.8697261  15.7506119
  36.9749134  47.2794326  11.2562411  37.0759497  46.4694680  11.5659539
  36.3790880  47.1851272  10.6262089  36.9021673  47.1459354  11.2088649
  45.6340128  41.2189867   6.7427786  45.5179654  41.9697553   7.1719924
  46.4296015  40.9613820   6.9923873  45.7344718  41.2924714   6.8431878
  36.8149874  52.1971915  12.6577267  37.4587329  52.6385079  13.0473425
  37.1406129  51.3925341  12.5707526  36.9581703  52.1437110  12.7022744
  30.1714179  43.3014612  10.8814744  29.9364363  42.4682265  10.7747013
  30.3099819  43.5819278  10.0675945  30.1569841  43.2198116  10.7457099
  32.4704266  35.4700343  13.7799052  31.8509298  34.8792990  13.6109067
  32.3688130  36.0611778  13.1463375  32.3641942  35.4704425  13.6604042
  37.5170454  45.2083890   8.0297129  37.8386295  45.7489097   7.4258437
  38.1642550  44.6380661   8.1619418  37.6596509  45.2043065   7.9604164
  39.5672162  37.2099885   8.1131515  40.2652326  37.3888012   8.6052979
  39.8824494  36.6870224   7.4901905  39.7167499  37.1593657   8.0933525
  32.1973399  39.0152625  16.0242621  32.0732096  39.6015070  16.6592440
  32.8491684  38.5212820  16.3254896  32.2747048  39.0291429  16.1628550
  39.7560097  43.5970330   8.1011307  40.1953733  42.9887430   8.5466080
  39.6064760  43.2177703   7.3296772  39.7981563  43.4508801   8.0530474
  37.2231740  42.1914342  15.3030132  37.8680743  41.6986785  14.9841081
  37.4633517  42.3339128  16.1296211  37.3542325  42.1391784  15.3779665
  39.7617831  45.0369247  14.9537025  40.0441074  44.2420653  14.7323781
  40.4903992  45.5149835  14.9742086  39.9107395  44.9903844  14.9240040
  37.7399025  32.5792281  12.1952790  37.4102355  33.0303425  11.5256489
  37.0644027  32.5008445  12.7425796  37.5909462  32.6343417  12.1776013
  43.3569434  41.9497511   5.0542076  43.2720729  42.8058478   5.1991645
  43.8453817  41.6741835   5.7224235  43.4158331  42.0354832   5.1744157
  44.9475433  28.5677804  10.4402401  44.6328874  29.2581283  10.8722823
  44.4302375  28.5122586   9.7387901  44.8239903  28.6612693  10.3999350
  44.2887867  38.5682305   6.5539811  43.7599338  38.7841939   7.2137117
  44.8112887  39.2618444   6.4740780  44.2876320  38.7025442   6.6395410
  49.7435920  44.1428610  11.9272856  48.9133623  44.3539253  12.0906272
  49.6945172  43.3165664  11.6515139  49.6142655  44.0518216  11.9110221
  36.1787475  42.4645522   5.3547279  35.5944690  42.9695553   5.7613143
  35.7757570  42.2387909   4.6143871  36.0326778  42.5053770   5.3052304
  31.7331503  48.1800283  12.1570951  31.2499082  48.9050773  12.1330534
  32.5454822  48.4776413  12.2681108  31.7822251  48.3302637  12.1698230
  37.8045657  46.9732464  14.7620765  37.2872599  46.6139879  14.1582073
  38.5020049  46.4494638  14.7726831  37.8311238  46.8430152  14.6751024
  39.0279709  46.7058438  19.7054600  38.4650544  46.2931048  20.2294262
  39.7900733  46.6311343  20.1247744  39.0574158  46.6335838  19.8447601
  40.6364689  38.7111174   3.8316200  40.8760693  38.9189158   3.0191543
  40.9580530  37.9068683   3.9405144  40.7201847  38.6225275   3.7276753
  35.9454979  30.6404570   7.6775738  36.7000947  31.0082887   7.4392788
  35.7682514  31.0144124   8.4454917  36.0309458  30.7502758   7.7560626
  34.5875701  48.6956459  12.3091230  35.2896280  48.1808448  12.3663987
  34.5073184  49.0230610  13.1138106  34.6799461  48.6670685  12.4364023
  49.2389878  36.7899010  15.7223277  48.4018299  36.8601197  15.9570871
  49.2078109  36.7923505  14.8497579  49.1108160  36.8009237  15.6282825
  35.6354607  38.9332046  21.4371646  35.8075111  38.8237941  22.2856927
  36.1723965  39.5786451  21.2002838  35.7399611  39.0124048  21.5276742
  34.3012044  33.0474889   4.3753851  34.1187617  33.2646770   3.5494843
  35.1637657  33.1613901   4.4312465  34.4016633  33.0964787   4.2608338
  33.9126476  44.8862811  11.8176838  34.7515375  45.1185744  11.8650600
  33.9438245  44.0167122  11.7483874  34.0408194  44.7919757  11.8141483
  34.5379179  45.3063686  16.1190144  35.0777404  45.1634817  16.7893516
  33.8549125  45.7060437  16.4874170  34.5171333  45.3443357  16.2724566
  39.9811763  30.0501299   7.4102874  40.7097924  29.8717254   6.9641031
  40.0706656  30.8919379   7.6210053  40.1018425  30.1485178   7.3756392
  43.9620064  40.9854687  11.3135168  44.7177579  41.4186201  11.3524077
  44.0682388  40.3359456  11.8869804  44.0890234  40.9532171  11.4033194
  47.0000235  44.8127964  12.0637571  46.5635467  44.8164706  12.8196543
  46.6663150  45.4933463  11.6317149  46.8862855  44.9140420  12.1118404
  29.9416324  41.5263977  16.2724566  29.6754739  40.7103094  16.4315556
  29.9554888  41.5717132  15.4020081  29.9041046  41.4120882  16.1678048
  46.9197718  31.8541792  14.3066999  47.5623626  31.9239896  14.8928915
  47.1720739  31.1871015  13.8046541  47.0519850  31.7668140  14.3194279
  33.8474071  36.3249061   2.8876324  33.1332248  36.0387241   3.2998756
  34.3318040  36.6645687   3.5282711  33.8133434  36.3330711   3.0431959
  34.6914930  35.0642355  18.9191573  33.9986727  34.5939335  19.1652305
  35.3075258  34.8380660  19.4933280  34.6799460  34.9609487  19.0400726
  41.7299702  48.7646399  17.0347177  40.9314948  48.5245899  17.2921046
  42.1785713  48.8160792  17.7814225  41.6774313  48.7368790  17.1832102
  50.1344581  41.5308884  10.9557209  50.7961015  40.9699552  10.8553117
  49.4935993  41.0360915  11.2809900  50.1373449  41.3745293  10.9889549
  41.0221389  44.8279015   3.2638132  41.4372537  44.4964039   2.5722628
  40.1913319  44.5947918   3.1358268  40.9609398  44.7450271   3.1428979
  30.3509738  42.3122756  13.5536310  30.1685311  42.2869642  12.7008602
  31.0859407  42.7821694  13.5925219  30.4323802  42.3784119  13.4334228
  46.4209412  42.5474266  10.6969197  46.6565001  42.6919465   9.8696048
  46.5698976  43.3116674  11.0900711  46.4775215  42.6813321  10.6332801
  33.4155489  39.0307759  20.0618418  34.1395462  39.0160790  20.5483313
  33.5171626  39.7403114  19.5640387  33.5373698  39.1332462  20.0597205
  48.2499869  41.3875932   8.5338801  48.5808086  41.9203572   7.9278896
  48.8232957  41.4414820   9.1900752  48.3833548  41.4745501   8.5416583
  43.4631758  39.2340835   9.2162381  43.5578612  39.9730129   9.6702007
  42.8390601  38.8058310   9.6496946  43.3840788  39.2802156   9.3470529
  41.7184232  42.4127048  19.8652662  42.2923093  41.7754292  20.0201226
  41.6399035  42.4131130  18.9962320  41.7917466  42.3192159  19.7599073
  30.3180648  39.1916257  13.7035376  30.8954151  39.0552708  14.3427622
  29.6194710  38.7352041  13.9580961  30.3001669  39.1038523  13.8357666
  43.7154779  41.0789575   2.4499333  43.6334942  41.1491762   3.3154320
  44.3534500  41.6419319   2.2583074  43.7974616  41.1728546   2.5489283
  37.0747950  40.8450313  11.9173860  36.8167195  40.0122048  11.8905159
  37.1296433  41.0707926  11.0766360  37.0447728  40.7548084  11.7893996
  42.1549000  32.9478763  12.0177952  41.4505327  32.4587949  12.1761871
  42.2033975  32.9601238  11.1466397  42.0579052  32.8768411  11.9117292
  36.0482662  38.3988075  12.4038754  35.4732254  38.5580244  13.0402715
  35.6718339  37.7623484  11.9407205  35.9085475  38.3285888  12.4293313
  39.7155951  36.8711424  17.2631133  39.3270384  36.4465642  16.6083324
  39.0510649  37.1193574  17.7708159  39.5602879  36.8450146  17.2419001
  49.3579220  36.6286429  10.0378963  49.1015785  35.8166371   9.8476846
  50.2008534  36.6363996   9.8109150  49.4445246  36.5098427   9.9763780
  25.7939481  38.0428150  10.4183195  25.8799733  37.6660018  11.1996725
  26.4215279  37.6688596   9.9403153  25.8996032  37.9313632  10.4628672
  43.5382313  30.5686053  14.7755117  43.9192824  29.8864224  15.1622991
  42.7345597  30.2795655  14.5930781  43.4758774  30.4253102  14.8059173
  40.8194889  41.1010029   5.4607940  41.6335528  41.3924922   5.3490711
  40.7554031  40.4469891   4.8866233  40.9297628  41.0475224   5.3596777
  47.0404379  43.7836025  19.8737515  46.8043017  42.9524090  19.7549576
  47.6847608  43.7321632  20.4592360  47.0999050  43.6533713  19.9423409
  36.6902798  44.5731546  10.5880252  37.3276744  44.3343294  11.1332045
  37.1157869  44.7768705   9.8533412  36.8478964  44.5682557  10.5597409
  31.3815440  46.8119883  14.4714556  31.4219585  47.0834734  13.6434335
  31.9409964  47.3361791  14.8872343  31.4698786  46.9295638  14.4106444
  37.3305613  39.7933836   4.9255141  37.7150765  39.5741543   5.6771686
  37.0817233  40.6196782   5.0556218  37.3507685  39.8831982   5.0556218
  48.0640800  43.5680474  15.9365810  47.7586617  44.3008531  16.2979125
  47.3447016  43.1618403  15.6558596  47.9128142  43.6162207  15.9478947
  39.0724269  45.0503969  12.2674038  39.1463278  44.8879141  13.1215888
  39.8893776  45.2394159  12.0234520  39.2040628  45.0540711  12.3572064
  53.7642592  40.2073475  15.2634154  53.6967092  40.2269434  14.3936741
  53.7498255  41.0503802  15.4889825  53.7521349  40.3347209  15.1686631
  32.8330026  45.3961832   9.2968482  32.0068144  45.6423569   9.1702760
  32.8942017  45.3173913  10.1630540  32.7204193  45.4206781   9.4057426
  35.0506050  31.4630773  10.2563922  34.1828475  31.5353372  10.3221531
  35.3381254  32.2652852  10.4451897  34.9645798  31.5924920  10.2938688
  44.1738939  31.6108632  18.5875244  44.9192531  31.4218443  18.1738669
  43.7576243  32.1366870  18.0289100  44.2223913  31.6610778  18.4439817
  37.6128855  48.0138712   6.9987511  37.9027154  47.6227693   6.2746738
  38.3432336  48.1955417   7.4392787  37.7635739  47.9832526   6.9570318
  51.5501210  38.9817861  13.5380749  52.1009131  38.3485930  13.7777841
  51.5345325  39.5133254  14.2296253  51.6286406  38.9666809  13.6759607
  38.2023600  42.8156458  18.0840642  37.7035294  43.5272226  18.1625530
  39.0123825  43.1357125  18.0458804  38.2479707  42.9683307  18.0897211
  35.5534771  49.9906095  10.0647661  35.3335066  49.7003449  10.8574328
  35.3329293  49.3321050   9.5365574  35.4882365  49.8505803  10.1036570
  34.4651718  42.0779411  12.3303363  34.1764967  41.4516882  12.8649090
  35.3335066  42.0199699  12.3968043  34.5511970  41.9766955  12.4194317
  45.2529616  37.2214194  12.6485345  44.9094382  36.5004530  12.9992594
  45.3522658  37.0128046  11.8063703  45.2171659  37.0838398  12.5757025
  37.7202727  51.3635485   8.8478354  38.3726785  50.8311927   9.0769380
  37.0228335  51.0104137   9.2346228  37.7133444  51.2325007   8.9390521
  34.6683991  43.7174662   8.2545728  35.4229959  44.0987701   8.4681190
  34.0754604  44.1685806   8.7092424  34.6920705  43.8403490   8.3528606
  45.7142645  43.6839899   8.1909333  46.2800677  44.3433108   8.1067876
  45.0670548  44.0289597   8.6625735  45.7021401  43.8321840   8.2482089
  37.1290658  35.6737502  23.3802940  36.3190434  35.9795282  23.2692783
  37.6065345  36.3943085  23.4955524  37.0794137  35.8252104  23.3810011
  35.9882218  44.8883223  13.6285843  35.4662971  45.0283515  14.3137708
  36.3756238  44.1293888  13.8187961  35.9685919  44.7968747  13.7586920
  32.9773402  34.9389032   7.6980798  32.6898198  34.5690303   6.9612745
  33.6643870  35.4083888   7.4364503  33.0362299  34.9536002   7.5495874
  42.1849223  46.6278683   7.6146412  41.9435899  45.8946543   7.2073477
  42.3650556  47.1765540   6.9612745  42.1756847  46.6001074   7.4576635
  37.4148544  41.9187243   9.0267334  37.2191326  42.5261977   8.4327637
  37.6382889  41.2255187   8.5459008  37.4183185  41.9064768   8.8683415
  35.8127074  38.8041980   9.1448203  36.5349725  38.9683139   8.6852009
  35.3335066  39.5251645   9.0387542  35.8490804  38.9340210   9.0613817
  43.7720581  35.1405779  14.5244888  42.9331682  35.1667058  14.2883151
  43.8424948  35.7876515  15.1050234  43.6588975  35.2401905  14.5754005
  33.4634690  41.2100053  18.2502343  33.9755787  41.4884306  17.6011102
  33.1771033  41.9489347  18.6165156  33.4969553  41.3602407  18.2092221
  42.2189859  32.0391156   9.2572504  42.9216212  31.8398905   8.7792462
  41.9534048  31.2667099   9.5641347  42.2836492  31.8954122   9.2317945
  47.6478105  40.3473766  11.8106129  47.5612080  40.5029192  12.6640908
  47.1928585  40.9911842  11.4365534  47.5681362  40.4649521  11.8813236
  30.5501597  35.7170245   8.5466079  30.6517733  36.5196406   8.8747054
  31.3457483  35.5157581   8.2489160  30.6829502  35.8056143   8.5501434
  36.9818416  33.3026441  18.3103384  36.7901613  33.3181576  19.1602808
  37.8317012  33.4990116  18.2870039  37.0794138  33.3340793  18.4326679
  31.3665329  35.8317423  16.2887201  31.2250821  34.9801364  16.4131709
  31.6505892  35.8746084  15.4649407  31.3873175  35.7117173  16.1854825
  41.5203921  37.6684513  10.4331689  41.2738635  37.5880264  11.2668478
  41.8489044  36.8837981  10.2394216  41.5325165  37.5410778  10.5279212
  45.4151970  44.3767872  14.2218470  45.2766329  45.0748918  14.7267213
  44.6351968  44.2216529  13.8654652  45.2795197  44.4568039  14.2444744
  43.7530055  40.6764248  20.4740852  43.7478094  39.8044064  20.4783278
  44.4591049  40.8752417  20.0010308  43.8575059  40.5768122  20.4047887
  37.4800948  40.4041232  19.8454672  37.6244324  40.9842440  19.2097782
  37.8276597  40.7817528  20.5504527  37.5528410  40.5461936  19.8553667
  39.6520866  39.6031400  17.6279804  38.9044180  39.7962414  17.2228082
  39.8062391  38.7776620  17.3903925  39.5643293  39.5096511  17.5325209
  36.5528703  48.5944003  16.7115699  36.7018267  48.0346919  16.0589103
  37.3328705  48.6736005  17.0948218  36.6902797  48.5229569  16.6712648
  46.9105343  43.7346126   4.9834969  46.5312151  42.9483264   4.9764259
  46.2471588  44.2832983   4.8406614  46.7563818  43.6990950   4.9615766
  39.0782004  48.7658646  17.9900190  39.0025675  48.0967457  18.5450978
  39.0071863  49.4676435  18.5040856  39.0562611  48.7703554  18.1477038
  39.8922643  33.4981951  18.5175207  40.3495257  34.2305925  18.6448000
  39.9678971  33.0748416  19.2762463  39.9713613  33.5439189  18.6476284
  32.1355634  33.7447771  19.6064651  31.5997823  33.1328129  19.9225418
  32.1973399  34.3195906  20.2598318  32.0651267  33.7394698  19.7500078
  44.3649969  26.6771826  12.3869050  44.4833537  27.1348289  11.6536353
  44.1912144  25.8717087  12.1005268  44.3569140  26.6265598  12.2369984
  39.7352251  47.2859645   8.8223796  40.5002142  47.0169289   8.5006460
  39.6330341  46.8009656   9.5393858  39.8333746  47.1749210   8.8803623
  37.7705021  35.4884055  15.3617031  36.9801095  35.3075515  15.6834367
  38.1665643  34.7111007  15.3447326  37.7121897  35.3471516  15.4069580
  42.2570911  44.3171829   0.8023745  43.0243897  44.3771954   0.3929597
  41.8102220  43.7452270   0.3180063  42.3044339  44.2408405   0.6701455
  43.1548707  43.1226485  13.0876477  42.4793709  42.8911717  13.5889864
  43.1641083  42.5147668  12.4618582  43.0567211  42.9985410  13.0692629
  40.2842851  37.9644314  19.8440530  40.2201992  38.8254270  19.7160667
  40.4240039  37.6476307  19.0436082  40.2958321  38.0444480  19.7068743
  45.1565442  45.9791617   5.3186655  45.2385279  46.7858603   4.9948106
  45.6415184  45.9987576   6.0427429  45.2402599  46.1012280   5.3773554
  38.9661945  40.6576453  13.9856733  38.5424194  40.8580952  13.2495752
  38.7906800  39.8105301  14.0981033  38.8772825  40.5625235  13.8930423
  34.2544390  41.1528505   9.4184706  34.4109009  41.0875307  10.2740698
  34.5944983  41.9277057   9.2063385  34.3277625  41.2577703   9.5139300
  40.7923534  40.5286388   8.2878069  41.3339080  40.0256769   8.7516689
  41.1070093  40.4751583   7.4767554  40.9187931  40.4465809   8.2361881
  38.9609984  45.9203740   5.5718097  39.0302804  45.0618278   5.7111097
  39.7398439  46.1375621   5.2437121  39.0862834  45.8256604   5.5435254
  41.9412804  35.4222693  18.3400369  42.1554773  34.7833607  17.7863723
  41.3246703  35.8668517  17.9108231  41.8818133  35.3932836  18.1950800
  43.3517472  48.3441441   9.7854590  42.9597263  48.0408156   9.0677456
  43.5070544  49.1810531   9.5959544  43.3171062  48.4225278   9.6511087
  30.8278651  38.3363455   9.7345473  31.2077616  38.7548000   9.0705740
  30.2534016  38.9176911  10.0414316  30.7989976  38.4841314   9.6822214
  44.1051892  37.0311758  19.2783676  43.2928573  36.7237648  19.3596849
  44.5641826  36.5510758  19.8426389  44.0532277  36.9148250  19.3738271
  43.5157146  44.9091430   9.7260621  43.1571801  45.0806073  10.5024653
  43.0295857  45.3704635   9.1688619  43.3915843  45.0030401   9.7585890
  41.3327532  28.5322628  13.3287712  40.4621090  28.5061349  13.2821022
  41.5867874  28.3599821  12.5113558  41.2421093  28.5032772  13.2007849
  38.3045512  40.5890595   2.2660855  38.5938037  41.3655478   2.5404429
  38.3917311  40.0779327   2.9675354  38.3599768  40.6282514   2.4103353
  38.3576673  30.5428857  14.7861183  37.8415161  29.8509048  14.9112762
  37.7970602  31.2099634  14.7323781  38.1983186  30.5392114  14.7967249
  40.4268906  31.0821817  16.6154035  40.0400660  31.1070848  17.3967565
  39.9401844  30.5163495  16.1628552  40.2981415  31.0017568  16.6641939
  46.4018886  37.6484472  15.2393737  45.9746494  37.5610820  14.4841837
  45.7644939  37.7562247  15.8248581  46.2448493  37.6517132  15.2139179
  40.0926048  27.9688802  18.9064295  40.7219166  28.5049102  18.6285365
  40.2611911  27.8766161  19.7577861  40.2103843  28.0350165  18.9912823
  39.8939963  32.7559997  21.1790707  40.7213392  32.4845146  21.2349321
  39.9147809  33.5520839  21.5354525  40.0192813  32.8339751  21.2405890
  34.4709453  39.9023860  14.3660967  33.6297459  39.8027734  14.5739861
  34.6799461  40.6719340  14.7175288  34.3774145  40.0015903  14.4488282
  31.9485020  37.5243397  12.1945718  31.5541718  37.5986409  11.4195828
  31.3925137  37.9101343  12.7454080  31.8087832  37.5925171  12.1613378
  43.5849967  30.5024691  11.8749597  43.7899560  30.4346999  12.7206594
  43.2576391  31.3083512  11.8070774  43.5665214  30.6110631  11.9909252
  38.2826118  37.8305259  13.6158565  37.9789255  37.2761247  14.2168972
  37.5805538  38.0097469  13.1286599  38.1342327  37.7750041  13.6328270
  37.3392215  35.1405779   8.1803267  37.6151949  34.4224691   7.7680834
  37.9390884  35.7390699   7.9724373  37.4685479  35.1226150   8.0884028
  36.3444469  45.0454980  18.3230663  36.2364824  45.0557042  19.1892721
  36.5540250  45.8709760  18.1335616  36.3594580  45.1696055  18.4234754
  46.8383654  31.0556455  11.3552362  46.2257968  31.5426857  11.7406094
  46.9347829  30.3799946  11.8990013  46.7621552  31.0274764  11.4931220
  40.8402735  32.8119296   6.4549862  41.2946482  32.9829857   7.1797706
  41.3142781  32.1987407   6.0547637  40.9771055  32.7470181   6.5023623
  34.3618261  42.2967622  15.7852600  33.7706194  42.9377120  15.7555615
  35.1239284  42.7205239  15.7583900  34.3866521  42.4543461  15.7767747
  34.7578883  33.4569620  16.4520618  35.2180365  33.5308549  17.1895742
  34.8034990  34.2550874  16.1020439  34.8329439  33.5863767  16.5093374
  36.4062233  34.1236315  21.0192645  36.0147798  33.4769662  21.4548423
  36.5748096  34.7147750  21.6386900  36.3733144  34.1150583  21.1755351
  50.4808682  42.1273392  16.7829878  50.5391806  42.5760041  17.5289855
  49.8475150  42.5372205  16.3459958  50.3959977  42.2547126  16.8282427
  44.1207777  47.7476934  13.2184625  43.9227466  48.2367748  12.5240836
  43.4995488  47.9518175  13.7968758  43.9995341  47.8493472  13.2007848
  38.1815755  39.5161831   7.5594869  38.9257800  39.9036107   7.7977819
  38.3276451  38.6719256   7.7235357  38.3126340  39.4492303   7.6188839
  40.0995331  31.3112089  12.5926730  39.2531376  31.4834897  12.4668080
  40.0966463  30.5061433  12.9292559  39.9742481  31.2173118  12.6237857
  41.1693631  35.0887304  13.4588788  40.6953585  34.5629066  13.9694099
  41.5411767  34.5416777  12.8903650  41.1543520  34.9303300  13.4503935
  31.5466661  37.0858811  18.8272334  32.4092274  36.9854520  18.7409664
  31.2158444  36.5053520  18.2657906  31.6251858  36.9850437  18.7317740
  47.4330362  40.1489680  14.8695569  47.1928585  39.3096095  14.8737995
  47.9122369  40.2289846  15.5936342  47.4682545  40.0371079  14.9770371
  43.0977131  35.9823858   6.5214542  42.5700149  36.0652602   5.8320251
  43.5572839  36.7241730   6.5179187  43.0878981  36.1044521   6.4189237
  49.4335549  36.9291137  12.8224828  49.1945319  36.8886971  11.9845612
  49.5969450  37.7762289  12.9490549  49.4225852  37.0483222  12.7178310
  46.0381579  41.3141086  18.7529873  46.7615778  40.8613612  18.5740893
  45.7731541  41.5945752  17.9702201  46.1062852  41.2892055  18.6108588
  34.9068447  35.9101260  15.4882752  34.2821517  35.9219652  14.8808705
  34.5714042  36.3861435  16.1373992  34.7653939  35.9819777  15.4939321
  35.0910196  34.2526378   1.5455437  34.7423000  34.9046103   2.0086987
  34.6106642  34.2383491   0.8179308  34.9680440  34.3469432   1.5066528
  31.6194123  43.9701720  16.9286516  31.0894047  43.2794159  16.9781491
  31.8919216  43.9611905  16.0999225  31.5818845  43.8668851  16.8133932
  42.6514213  44.5527422   5.6524199  43.3748412  45.0185535   5.5088772
  42.2114804  44.6201032   4.9021796  42.6929906  44.6311259   5.5208980
  41.8200368  41.4124964  16.9024888  41.2057361  40.8683015  17.1973523
  42.3367653  40.8989201  16.4230704  41.8056031  41.2561373  16.8749116
  41.0596666  42.4829234  14.6369187  40.6324274  41.8578953  14.2034622
  41.0521610  42.2004156  15.4628194  40.9955807  42.3482015  14.6949014
  34.1759193  37.5194407  17.7057621  34.3352679  36.7637731  18.1109343
  33.9952086  38.0685347  18.3598358  34.1724552  37.4888221  17.8620327
  42.1179496  29.6855643  18.2608410  41.6220057  29.8819317  17.5699977
  42.8748558  30.0848311  18.0897212  42.1566320  29.7733377  18.1328547
  39.3882375  33.3597989  14.8511721  39.4124862  32.8258101  14.1624501
  39.6393849  32.8515298  15.5137311  39.4292294  33.2058893  14.8476365
  26.8989965  40.6429484  14.2854865  26.7933414  40.5976328  13.4206949
  26.1490185  40.9883264  14.5669150  26.7725568  40.6870392  14.1992194
  35.6683697  32.0868807  14.2317465  35.7082069  32.5878014  14.9452172
  34.8433362  32.1779201  13.9623388  35.5523223  32.1750623  14.2968003
  37.8513310  41.6529547  22.3337760  37.0008941  41.7901261  22.4695404
  38.0141438  40.9193325  22.7785461  37.7497174  41.5643648  22.4193359
  37.0898061  38.6029317  16.5291364  36.2589990  38.7703135  16.3226612
  37.0349578  38.2265268  17.3140249  36.9587476  38.5719048  16.6139892
  35.4634105  36.8784908   7.0581482  35.6037066  37.3757373   7.7610123
  35.9616637  36.1771203   7.1995695  35.5575186  36.8486887   7.1833061
  35.4934327  37.7452019   4.3874059  36.1279407  38.3412445   4.3223520
  35.5759938  37.4455477   5.2019929  35.5990878  37.7892928   4.4977145
  48.4716893  40.2767497  17.2560423  49.0634733  40.9164748  17.2878621
  48.9075887  39.5790534  17.5452490  48.6235324  40.2685847  17.3041255
  37.0713310  33.6765995   4.3619501  37.3929151  33.1969077   3.7078763
  37.3340254  34.4865641   4.1710312  37.1579335  33.7255893   4.2374993
  40.3010283  44.6984869  17.8818317  39.7935374  45.2520716  18.3258947
  40.0036929  44.7593159  17.0637091  40.1815168  44.7891180  17.8266773
  42.4672465  33.0638189  16.7242980  42.8927536  32.6110715  16.1126506
  41.8529458  32.5098260  17.0007767  42.4401110  32.9152165  16.6748005
  31.9987315  39.9419860   7.6563605  32.5079544  40.5384368   8.0374910
  32.4721587  39.6745834   6.9740024  32.1430691  39.9905676   7.6118127
  42.9118063  48.6148127   5.8122260  42.1947373  48.4408989   5.3469497
  43.5624801  48.3800699   5.2797746  42.9019913  48.5543919   5.6651478
  40.9066688  29.5353289  10.1333557  40.2635006  29.3850935  10.7018695
  40.5666095  29.2895634   9.3682661  40.7611765  29.4765411  10.1036572
  45.4966034  37.4912715   9.5563565  44.8257224  38.0342418   9.4276631
  46.1905784  37.9607571   9.3145260  45.4994902  37.6410987   9.5019093
  39.5452768  49.6309427  14.7875324  39.3218422  48.8728257  15.1559350
  39.0562611  49.6607449  14.0655763  39.4396217  49.5231652  14.7352064
  45.6594162  33.9468599  12.4653938  46.0121772  33.5198322  13.1399737
  44.8008963  33.8619443  12.5955015  45.5843606  33.8713340  12.5848949
  34.3577847  36.5776119  10.5236785  33.6389836  36.9940251  10.7909649
  34.7290209  37.1430358   9.9728423  34.3069778  36.7225400  10.4819592
  43.6577427  37.2103968  16.4138781  43.6375355  37.0287263  17.2673560
  43.7056628  38.0815986  16.3898364  43.6612068  37.3120506  16.5362075
  41.6023757  43.7991160  22.3387257  41.5619612  43.1540837  21.7532413
  42.4147076  43.7427777  22.6512669  41.7166911  43.6950127  22.2984206
  38.1931225  49.8509886  12.2412408  37.7791623  49.1884016  11.8516250
  38.8778599  49.9987744  11.7208102  38.2329597  49.7750544  12.1068905
  41.5596519  49.0099971  12.9936025  41.1612802  49.1202241  12.2256845
  40.9447739  49.2182037  13.5762585  41.4095408  49.0573539  12.9667324
  40.1324421  35.6174119   5.8610164  39.5389260  35.9391115   5.3094731
  40.1699699  34.7715214   5.6531271  40.0498810  35.5398447   5.7492936
  47.0918222  29.0687011  13.3938251  46.5849086  28.3616151  13.3259428
  47.8885655  28.7380200  13.5239328  47.1345461  28.9160162  13.4037246
  43.0082238  35.5753623   9.2911915  42.7795931  35.5986325   8.4490273
  43.2680314  34.7511090   9.4106925  43.0128426  35.4569703   9.1837112
  37.2901466  37.4288096  18.8937015  36.7780369  36.8209279  19.2522046
  37.1180962  38.1444689  19.3610991  37.1891103  37.4451396  19.0153239
  36.0627000  34.1130169  10.5866110  36.5384366  34.4747249   9.9516291
  35.5615600  34.7686637  10.8666253  36.0592359  34.2624358  10.5342851
  49.2938362  43.5851938   6.3779115  49.6771967  44.3343294   6.6077212
  48.4982475  43.8317757   6.1191104  49.2332144  43.7321631   6.3736689
  41.1670536  35.3512341  21.3339270  41.7241967  35.1226150  20.7017736
  40.8431601  36.1118006  21.0574483  41.2016947  35.4296178  21.1995768
  29.0369245  38.7772537  16.8027866  28.4895965  38.1073183  16.9208735
  29.8261623  38.4102385  16.8671334  29.0721429  38.6237524  16.8296567
  38.8853654  38.4379994  22.2991278  39.6364981  38.7531671  22.6130832
  39.0776230  38.2359165  21.4725199  39.0245068  38.4547376  22.2234673
  38.1053653  36.2571369   3.9539494  38.4852618  36.2750998   3.1690609
  37.3646249  36.7025358   3.8330342  38.0522491  36.3253144   3.8203062
  45.7338944  34.5653560   9.5415073  45.7333170  34.4102217  10.3999349
  45.5295124  35.4116548   9.4856459  45.7038722  34.6674181   9.6603012
  27.7956215  37.9893345  13.9573890  27.6177976  37.5369954  14.6828805
  27.5075237  38.7919506  14.1412367  27.7269168  38.0415903  14.0917392
  43.4579796  39.2451062  13.1951280  43.9533461  38.5274057  13.1555300
  42.6479572  38.9421860  13.0805767  43.4123689  39.0948709  13.1725006
  38.9038407  43.0948876   5.3448284  38.0949730  42.7715549   5.2981594
  39.4113316  42.3882098   5.2776533  38.8588074  42.9430192   5.3278579
  29.5328685  40.5221069  11.0695649  28.6674204  40.5106759  10.9578420
  29.6327501  40.3351292  11.9166788  29.4202852  40.4927130  11.1784593
  45.5231615  41.9954750  15.8828409  45.9486686  41.4729172  15.3298834
  45.1588535  42.5935587  15.3617032  45.5318217  42.0064977  15.7237418
  35.1585695  50.2918967  14.6425754  35.4732253  51.1055356  14.6503536
  35.5679108  49.9069186  15.3107913  35.2653792  50.3547670  14.7429846
  42.1110214  45.7089014  12.2129566  42.5821392  46.4229277  12.3819551
  42.4470393  45.1087764  12.7489436  42.2305329  45.7260478  12.3161942
  39.0279709  30.4816485  19.1687661  39.1607615  29.6847478  19.4968636
  39.4124862  31.0082888  19.7485937  39.1036038  30.4416401  19.3031164
  42.7484160  45.5006948  18.9757259  42.2005106  44.8764832  18.7077324
  43.2097189  45.6901220  18.2601338  42.7351370  45.4365998  18.8307690
  42.1012064  27.4046811  15.7668754  41.2958028  27.2944540  16.0836592
  41.9718800  27.5059266  14.9098620  41.9632197  27.4030481  15.6876795
  45.5578025  33.5692303  16.3608451  44.9741014  34.0701509  15.9486018
  45.8782319  33.0621859  15.7272774  45.5191200  33.5684138  16.2066958
  36.6868156  30.4775660  17.4165555  37.2312569  30.1366786  18.0069896
  36.7405092  31.3361121  17.5586839  36.7757275  30.5530919  17.5247428
  32.4998715  44.2392076  14.2904363  33.1043572  44.1987910  13.6618183
  32.2926027  45.0863228  14.3208418  32.5587612  44.3580078  14.2020479
  42.3142487  46.5058021  15.5066600  43.1340861  46.3620987  15.7682895
  42.0336564  47.1304220  16.0483038  42.3939230  46.5768373  15.6254539
  27.7349997  43.2226693  14.1603286  27.6374275  42.4122965  14.4693342
  28.5178867  43.2018487  13.7749554  27.8366133  43.0993783  14.1490149
  58.7856137  54.1622873   8.4709476  58.7550142  55.0167509   8.6427746
  59.3837486  53.8618165   9.0295620  58.8693295  54.2439369   8.5784279
  51.9855822  53.2498524  13.2262407  51.1293718  53.4107022  13.2771524
  52.0323476  52.3790588  13.2467468  51.8654933  53.1449325  13.2368473
  46.3696962  62.7861241   8.9899638  45.6179861  62.4076780   8.7615683
  46.8182973  62.8179675   8.2418449  46.3246629  62.7346849   8.8457140
  55.2949539  59.5185049  22.8322863  56.0016306  59.0237080  22.9609797
  55.4837474  59.9594131  22.1025521  55.4277444  59.5103400  22.7431908
  54.8307643  55.3090568  15.8694058  55.3763603  55.9875654  15.9288028
  54.7724519  55.1678028  15.0095640  54.9023557  55.3882569  15.7506119
  47.9481718  62.7979634  11.2562411  48.0492081  61.9879988  11.5659539
  47.3523463  62.7036580  10.6262089  47.8754257  62.6644662  11.2088649
  47.7882457  67.7157223  12.6577267  48.4319913  68.1570387  13.0473425
  48.1138713  66.9110649  12.5707526  47.9314286  67.6622418  12.7022744
  41.1446762  58.8199920  10.8814744  40.9096947  57.9867573  10.7747013
  41.2832403  59.1004586  10.0675945  41.1302425  58.7383424  10.7457099
  43.4436850  50.9885651  13.7799052  42.8241881  50.3978298  13.6109067
  43.3420713  51.5797086  13.1463375  43.3374525  50.9889733  13.6604042
  50.5404745  52.7285193   8.1131515  51.2384910  52.9073320   8.6052979
  50.8557078  52.2055532   7.4901905  50.6900082  52.6778965   8.0933525
  43.1705983  54.5337932  16.0242621  43.0464680  55.1200378  16.6592440
  43.8224267  54.0398128  16.3254896  43.2479632  54.5476737  16.1628550
  50.7292681  59.1155638   8.1011307  51.1686316  58.5072738   8.5466080
  50.5797344  58.7363011   7.3296772  50.7714146  58.9694109   8.0530474
  48.1964324  57.7099649  15.3030132  48.8413326  57.2172093  14.9841081
  48.4366101  57.8524436  16.1296211  48.3274909  57.6577092  15.3779665
  50.7350415  60.5554555  14.9537025  51.0173658  59.7605961  14.7323781
  51.4636575  61.0335143  14.9742086  50.8839979  60.5089152  14.9240040
  48.7131609  48.0977589  12.1952790  48.3834939  48.5488733  11.5256489
  48.0376611  48.0193753  12.7425796  48.5642045  48.1528724  12.1776013
  55.9208017  44.0863112  10.4402401  55.6061458  44.7766591  10.8722823
  55.4034958  44.0307894   9.7387901  55.7972487  44.1798001  10.3999350
  60.7168503  59.6613918  11.9272856  59.8866206  59.8724561  12.0906272
  60.6677756  58.8350972  11.6515139  60.5875239  59.5703524  11.9110221
  42.7064087  63.6985591  12.1570951  42.2231665  64.4236081  12.1330534
  43.5187405  63.9961721  12.2681108  42.7554835  63.8487945  12.1698230
  48.7778241  62.4917772  14.7620765  48.2605183  62.1325187  14.1582073
  49.4752632  61.9679946  14.7726831  48.8043822  62.3615460  14.6751024
  52.4341833  62.9412586  20.7236938  52.5225179  62.7538726  21.5715148
  52.8631545  62.2950015  20.3241785  52.5103935  62.8175593  20.7908690
  50.0012293  62.2243746  19.7054600  49.4383127  61.8116356  20.2294262
  50.7633316  62.1496651  20.1247744  50.0306741  62.1521146  19.8447601
  46.9187563  46.1589878   7.6775738  47.6733531  46.5268195   7.4392788
  46.7415098  46.5329432   8.4454917  47.0042041  46.2688066   7.7560626
  45.5608284  64.2141767  12.3091230  46.2628863  63.6993756  12.3663987
  45.4805767  64.5415918  13.1138106  45.6532045  64.1855993  12.4364023
  60.2122462  52.3084318  15.7223277  59.3750883  52.3786505  15.9570871
  60.1810693  52.3108813  14.8497579  60.0840744  52.3194545  15.6282825
  45.2744628  48.5660197   4.3753851  45.0920201  48.7832077   3.5494843
  46.1370241  48.6799209   4.4312465  45.3749217  48.6150095   4.2608338
  44.8859060  60.4048119  11.8176838  45.7247959  60.6371052  11.8650600
  44.9170829  59.5352430  11.7483874  45.0140777  60.3105065  11.8141483
  45.5111763  60.8248994  16.1190144  46.0509988  60.6820125  16.7893516
  44.8281709  61.2245745  16.4874170  45.4903916  60.8628665  16.2724566
  50.9544347  45.5686607   7.4102874  51.6830507  45.3902562   6.9641031
  51.0439240  46.4104687   7.6210053  51.0751009  45.6670486   7.3756392
  54.9352647  56.5039995  11.3135168  55.6910162  56.9371509  11.3524077
  55.0414972  55.8544764  11.8869804  55.0622818  56.4717479  11.4033194
  57.9732819  60.3313272  12.0637571  57.5368050  60.3350014  12.8196543
  57.6395734  61.0118771  11.6317149  57.8595439  60.4325728  12.1118404
  40.9148908  57.0449285  16.2724566  40.6487323  56.2288402  16.4315556
  40.9287472  57.0902440  15.4020081  40.8773630  56.9306190  16.1678048
  57.8930301  47.3727100  14.3066999  58.5356210  47.4425204  14.8928915
  58.1453322  46.7056323  13.8046541  58.0252434  47.2853448  14.3194279
  44.8206655  51.8434369   2.8876324  44.1064832  51.5572549   3.2998756
  45.3050623  52.1830995   3.5282711  44.7866018  51.8516019   3.0431959
  52.7032285  64.2831707  17.0347177  51.9047531  64.0431207  17.2921046
  53.1518297  64.3346100  17.7814225  52.6506897  64.2554098  17.1832102
  61.1077165  57.0494192  10.9557209  61.7693599  56.4884860  10.8553117
  60.4668577  56.5546223  11.2809900  61.1106032  56.8930601  10.9889549
  41.3242321  57.8308064  13.5536310  41.1417895  57.8054950  12.7008602
  42.0591990  58.3007002  13.5925219  41.4056385  57.8969426  13.4334228
  57.3941995  58.0659574  10.6969197  57.6297585  58.2104773   9.8696048
  57.5431559  58.8301982  11.0900711  57.4507799  58.1998629  10.6332801
  54.4364341  54.7526143   9.2162381  54.5311196  55.4915437   9.6702007
  53.8123185  54.3243618   9.6496946  54.3573371  54.7987463   9.3470529
  52.6916815  57.9312355  19.8652662  53.2655677  57.2939600  20.0201226
  52.6131619  57.9316438  18.9962320  52.7650050  57.8377467  19.7599073
  41.2913232  54.7101565  13.7035376  41.8686734  54.5738016  14.3427622
  40.5927293  54.2537349  13.9580961  41.2734253  54.6223831  13.8357666
  48.0480534  56.3635621  11.9173860  47.7899778  55.5307355  11.8905159
  48.1029017  56.5893234  11.0766360  48.0180312  56.2733392  11.7893996
  53.1281584  48.4664071  12.0177952  52.4237911  47.9773257  12.1761871
  53.1766558  48.4786546  11.1466397  53.0311636  48.3953719  11.9117292
  47.0215246  53.9173383  12.4038754  46.4464837  54.0765551  13.0402715
  46.6450922  53.2808792  11.9407205  46.8818058  53.8471196  12.4293313
  50.6888535  52.3896732  17.2631133  50.3002967  51.9650950  16.6083324
  50.0243233  52.6378882  17.7708159  50.5335462  52.3635453  17.2419001
  60.3311804  52.1471737  10.0378963  60.0748369  51.3351679   9.8476846
  61.1741118  52.1549304   9.8109150  60.4177829  52.0283735   9.9763780
  36.7672065  53.5613458  10.4183195  36.8532317  53.1845326  11.1996725
  37.3947862  53.1873903   9.9403153  36.8728616  53.4498940  10.4628672
  54.5114896  46.0871361  14.7755117  54.8925408  45.4049532  15.1622991
  53.7078180  45.7980963  14.5930781  54.4491358  45.9438410  14.8059173
  58.0136963  59.3021333  19.8737515  57.7775600  58.4709398  19.7549576
  58.6580192  59.2506940  20.4592360  58.0731634  59.1719021  19.9423409
  47.6635381  60.0916854  10.5880252  48.3009328  59.8528602  11.1332045
  48.0890453  60.2954013   9.8533412  47.8211547  60.0867865  10.5597409
  42.3548023  62.3305191  14.4714556  42.3952169  62.6020042  13.6434335
  42.9142548  62.8547099  14.8872343  42.4431369  62.4480946  14.4106444
  48.3038196  55.3119144   4.9255141  48.6883349  55.0926851   5.6771686
  48.0549816  56.1382090   5.0556218  48.3240269  55.4017290   5.0556218
  59.0373384  59.0865782  15.9365810  58.7319201  59.8193839  16.2979125
  58.3179599  58.6803711  15.6558596  58.8860726  59.1347515  15.9478947
  50.0456853  60.5689277  12.2674038  50.1195861  60.4064449  13.1215888
  50.8626359  60.7579467  12.0234520  50.1773212  60.5726019  12.3572064
  64.7375176  55.7258783  15.2634154  64.6699676  55.7454742  14.3936741
  64.7230838  56.5689110  15.4889825  64.7253932  55.8532517  15.1686631
  43.8062610  60.9147140   9.2968482  42.9800727  61.1608877   9.1702760
  43.8674601  60.8359221  10.1630540  43.6936777  60.9392089   9.4057426
  46.0238633  46.9816081  10.2563922  45.1561059  47.0538680  10.3221531
  46.3113838  47.7838160  10.4451897  45.9378382  47.1110228  10.2938688
  55.1471522  47.1293940  18.5875244  55.8925114  46.9403751  18.1738669
  54.7308827  47.6552178  18.0289100  55.1956496  47.1796086  18.4439817
  62.5233793  54.5003169  13.5380749  63.0741715  53.8671238  13.7777841
  62.5077908  55.0318562  14.2296253  62.6018989  54.4852117  13.6759607
  49.1756184  58.3341766  18.0840642  48.6767878  59.0457534  18.1625530
  49.9856408  58.6542433  18.0458804  49.2212291  58.4868615  18.0897211
  46.5267354  65.5091403  10.0647661  46.3067650  65.2188757  10.8574328
  46.3061876  64.8506358   9.5365574  46.4614949  65.3691111  10.1036570
  45.4384302  57.5964719  12.3303363  45.1497550  56.9702190  12.8649090
  46.3067650  57.5385006  12.3968043  45.5244553  57.4952263  12.4194317
  56.2262199  52.7399502  12.6485345  55.8826965  52.0189838  12.9992594
  56.3255242  52.5313354  11.8063703  56.1904242  52.6023706  12.5757025
  45.6416575  59.2359970   8.2545728  46.3962543  59.6173009   8.4681190
  45.0487188  59.6871114   8.7092424  45.6653289  59.3588797   8.3528606
  46.9614802  60.4068531  13.6285843  46.4395555  60.5468823  14.3137708
  47.3488822  59.6479196  13.8187961  46.9418502  60.3154055  13.7586920
  48.3881127  57.4372550   9.0267334  48.1923910  58.0447285   8.4327637
  48.6115473  56.7440494   8.5459008  48.3915768  57.4250076   8.8683415
  46.7859657  54.3227288   9.1448203  47.5082309  54.4868446   8.6852009
  46.3067650  55.0436953   9.0387542  46.8223388  54.4525518   9.0613817
  54.7453165  50.6591087  14.5244888  53.9064265  50.6852366  14.2883151
  54.8157532  51.3061823  15.1050234  54.6321558  50.7587213  14.5754005
  53.1922443  47.5576464   9.2572504  53.8948796  47.3584212   8.7792462
  52.9266632  46.7852407   9.5641347  53.2569075  47.4139430   9.2317945
  58.6210689  55.8659074  11.8106129  58.5344663  56.0214500  12.6640908
  58.1661168  56.5097149  11.4365534  58.5413945  55.9834829  11.8813236
  41.5234180  51.2355553   8.5466079  41.6250317  52.0381714   8.8747054
  42.3190067  51.0342889   8.2489160  41.6562086  51.3241451   8.5501434
  42.3397912  51.3502731  16.2887201  42.1983404  50.4986671  16.4131709
  42.6238476  51.3931391  15.4649407  42.3605758  51.2302481  16.1854825
  52.4936505  53.1869821  10.4331689  52.2471219  53.1065572  11.2668478
  52.8221628  52.4023289  10.2394216  52.5057748  53.0596086  10.5279212
  56.3884553  59.8953180  14.2218470  56.2498913  60.5934226  14.7267213
  55.6084551  59.7401837  13.8654652  56.2527780  59.9753347  14.2444744
  54.7262639  56.1949556  20.4740852  54.7210677  55.3229372  20.4783278
  55.4323632  56.3937725  20.0010308  54.8307643  56.0953430  20.4047887
  50.6253449  55.1216708  17.6279804  49.8776763  55.3147722  17.2228082
  50.7794974  54.2961928  17.3903925  50.5375877  55.0281819  17.5325209
  47.5261287  64.1129311  16.7115699  47.6750851  63.5532227  16.0589103
  48.3061289  64.1921313  17.0948218  47.6635381  64.0414877  16.6712648
  50.0514588  64.2843954  17.9900190  49.9758259  63.6152765  18.5450978
  49.9804447  64.9861742  18.5040856  50.0295194  64.2888862  18.1477038
  50.8655226  49.0167259  18.5175207  51.3227840  49.7491233  18.6448000
  50.9411555  48.5933724  19.2762463  50.9446196  49.0624497  18.6476284
  55.3382552  42.1957134  12.3869050  55.4566120  42.6533597  11.6536353
  55.1644728  41.3902395  12.1005268  55.3301723  42.1450906  12.2369984
  48.7437604  51.0069363  15.3617031  47.9533679  50.8260823  15.6834367
  49.1398227  50.2296315  15.3447326  48.6854480  50.8656824  15.4069580
  54.1281291  58.6411793  13.0876477  53.4526292  58.4097025  13.5889864
  54.1373667  58.0332976  12.4618582  54.0299795  58.5170718  13.0692629
  51.2575434  53.4829622  19.8440530  51.1934576  54.3439578  19.7160667
  51.3972622  53.1661615  19.0436082  51.2690905  53.5629788  19.7068743
  49.9394528  56.1761761  13.9856733  49.5156777  56.3766260  13.2495752
  49.7639384  55.3290609  14.0981033  49.8505409  56.0810543  13.8930423
  49.4406222  67.6912274  16.4478190  49.9302152  66.9923063  16.2653855
  48.8690454  67.3936144  17.0354248  49.4290752  67.5438498  16.5079231
  45.2276973  56.6713813   9.4184706  45.3841593  56.6060615  10.2740698
  45.5677566  57.4462365   9.2063385  45.3010208  56.7763011   9.5139300
  51.7656118  56.0471696   8.2878069  52.3071663  55.5442077   8.7516689
  52.0802677  55.9936891   7.4767554  51.8920515  55.9651117   8.2361881
  55.6373225  60.2574343  25.4004981  56.4508091  59.9859492  25.5610114
  55.4768192  59.9581883  24.5965177  55.7343174  60.1729269  25.3050387
  52.9145387  50.9408001  18.3400369  53.1287357  50.3018915  17.7863723
  52.2979287  51.3853824  17.9108231  52.8550717  50.9118144  18.1950800
  41.8011235  53.8548763   9.7345473  42.1810200  54.2733308   9.0705740
  41.2266600  54.4362219  10.0414316  41.7722560  54.0026622   9.6822214
  55.0784475  52.5497066  19.2783676  54.2661157  52.2422956  19.3596849
  55.5374410  52.0696066  19.8426389  55.0264860  52.4333558  19.3738271
  52.3060116  44.0507936  13.3287712  51.4353674  44.0246657  13.2821022
  52.5600457  43.8785128  12.5113558  52.2153676  44.0218080  13.2007849
  49.3309256  46.0614165  14.7861183  48.8147745  45.3694356  14.9112762
  48.7703185  46.7284942  14.7323781  49.1715770  46.0577422  14.7967249
  51.4001490  46.6007125  16.6154035  51.0133243  46.6256156  17.3967565
  50.9134427  46.0348803  16.1628552  51.2713999  46.5202876  16.6641939
  55.6494469  61.3180634  20.6727822  56.2874190  60.8240829  20.3390278
  55.0068561  61.2458034  20.0880049  55.6488696  61.2339642  20.5370177
  57.3751469  53.1669780  15.2393737  56.9479078  53.0796128  14.4841837
  56.7377522  53.2747555  15.8248581  57.2181077  53.1702440  15.2139179
  51.0658632  43.4874110  18.9064295  51.6951750  44.0234410  18.6285365
  51.2344494  43.3951469  19.7577861  51.1836426  43.5535472  18.9912823
  55.7048726  62.0100442  17.3133178  56.4941104  61.6589507  17.4335260
  55.8792324  62.8236830  17.0509812  55.8469008  62.0786299  17.2921046
  45.4442036  55.4209168  14.3660967  44.6030043  55.3213042  14.5739861
  45.6532044  56.1904648  14.7175288  45.3506729  55.5201211  14.4488282
  42.9217603  53.0428705  12.1945718  42.5274301  53.1171717  11.4195828
  42.3657720  53.4286651  12.7454080  42.7820416  53.1110479  12.1613378
  54.5582550  46.0209999  11.8749597  54.7632144  45.9532307  12.7206594
  54.2308974  46.8268820  11.8070774  54.5397798  46.1295939  11.9909252
  49.2558701  53.3490567  13.6158565  48.9521839  52.7946555  14.2168972
  48.5538122  53.5282777  13.1286599  49.1074911  53.2935349  13.6328270
  48.3124798  50.6591087   8.1803267  48.5884533  49.9409999   7.7680834
  48.9123468  51.2576007   7.9724373  48.4418063  50.6411457   8.0884028
  47.3177052  60.5640288  18.3230663  47.2097407  60.5742350  19.1892721
  47.5272834  61.3895068  18.1335616  47.3327163  60.6881362  18.4234754
  57.8116238  46.5741763  11.3552362  57.1990551  47.0612165  11.7406094
  57.9080413  45.8985254  11.8990013  57.7354135  46.5460072  11.4931220
  51.8135319  48.3304604   6.4549862  52.2679065  48.5015165   7.1797706
  52.2875365  47.7172715   6.0547637  51.9503639  48.2655489   6.5023623
  45.3350844  57.8152930  15.7852600  44.7438778  58.4562428  15.7555615
  46.0971868  58.2390547  15.7583900  45.3599105  57.9728768  15.7767747
  45.7311467  48.9754928  16.4520618  46.1912949  49.0493857  17.1895742
  45.7767574  49.7736182  16.1020439  45.8062022  49.1049075  16.5093374
  61.4541266  57.6458700  16.7829878  61.5124390  58.0945348  17.5289855
  60.8207733  58.0557513  16.3459958  61.3692561  57.7732434  16.8282427
  55.0940361  63.2662242  13.2184625  54.8960049  63.7553056  12.5240836
  54.4728072  63.4703483  13.7968758  54.9727925  63.3678780  13.2007848
  49.1548339  55.0347138   7.5594869  49.8990384  55.4221415   7.7977819
  49.3009035  54.1904564   7.7235357  49.2858924  54.9677611   7.6188839
  51.0727914  46.8297397  12.5926730  50.2263959  47.0020205  12.4668080
  51.0699047  46.0246741  12.9292559  50.9475064  46.7358426  12.6237857
  52.1426215  50.6072612  13.4588788  51.6686169  50.0814374  13.9694099
  52.5144351  50.0602085  12.8903650  52.1276104  50.4488608  13.4503935
  58.4062945  55.6674987  14.8695569  58.1661168  54.8281403  14.8737995
  58.8854952  55.7475154  15.5936342  58.4415129  55.5556387  14.9770371
  54.0709714  51.5009166   6.5214542  53.5432733  51.5837910   5.8320251
  54.5305423  52.2427038   6.5179187  54.0611565  51.6229829   6.4189237
  60.4068132  52.4476445  12.8224828  60.1677902  52.4072279  11.9845612
  60.5702034  53.2947597  12.9490549  60.3958436  52.5668530  12.7178310
  57.0114162  56.8326394  18.7529873  57.7348361  56.3798920  18.5740893
  56.7464125  57.1131060  17.9702201  57.0795436  56.8077362  18.6108588
  45.8801031  51.4286567  15.4882752  45.2554101  51.4404959  14.8808705
  45.5446626  51.9046743  16.1373992  45.7386523  51.5005084  15.4939321
  46.0642780  49.7711686   1.5455437  45.7155584  50.4231411   2.0086987
  45.5839225  49.7568799   0.8179308  45.9413023  49.8654740   1.5066528
  42.5926706  59.4887028  16.9286516  42.0626631  58.7979466  16.9781491
  42.8651800  59.4797213  16.0999225  42.5551429  59.3854159  16.8133932
  52.7932952  56.9310272  16.9024888  52.1789945  56.3868322  17.1973523
  53.3100237  56.4174509  16.4230704  52.7788614  56.7746681  16.8749116
  52.0329249  58.0014542  14.6369187  51.6056857  57.3764261  14.2034622
  52.0254193  57.7189464  15.4628194  51.9688390  57.8667323  14.6949014
  45.1491776  53.0379715  17.7057621  45.3085263  52.2823039  18.1109343
  44.9684670  53.5870655  18.3598358  45.1457135  53.0073529  17.8620327
  53.0912079  45.2040951  18.2608410  52.5952640  45.4004625  17.5699977
  53.8481141  45.6033619  18.0897212  53.1298904  45.2918685  18.1328547
  50.3614959  48.8783297  14.8511721  50.3857446  48.3443409  14.1624501
  50.6126432  48.3700606  15.5137311  50.4024877  48.7244201  14.8476365
  37.8722549  56.1614792  14.2854865  37.7665998  56.1161636  13.4206949
  37.1222769  56.5068572  14.5669150  37.7458152  56.2055700  14.1992194
  46.6416281  47.6054115  14.2317465  46.6814653  48.1063322  14.9452172
  45.8165946  47.6964509  13.9623388  46.5255807  47.6935931  14.2968003
  48.0630644  54.1214625  16.5291364  47.2322574  54.2888443  16.3226612
  48.0082162  53.7450576  17.3140249  47.9320059  54.0904356  16.6139892
  46.4366688  52.3970216   7.0581482  46.5769649  52.8942681   7.7610123
  46.9349221  51.6956511   7.1995695  46.5307769  52.3672195   7.1833061
  46.4666911  53.2637327   4.3874059  47.1011990  53.8597752   4.3223520
  46.5492521  52.9640785   5.2019929  46.5723462  53.3078236   4.4977145
  59.4449476  55.7952805  17.2560423  60.0367317  56.4350055  17.2878621
  59.8808471  55.0975841  17.5452490  59.5967908  55.7871155  17.3041255
  48.0445893  49.1951303   4.3619501  48.3661735  48.7154385   3.7078763
  48.3072837  50.0050949   4.1710312  48.1311919  49.2441201   4.2374993
  51.2742866  60.2170177  17.8818317  50.7667957  60.7706024  18.3258947
  50.9769512  60.2778467  17.0637091  51.1547751  60.3076488  17.8266773
  53.4405048  48.5823497  16.7242980  53.8660120  48.1296023  16.1126506
  52.8262042  48.0283567  17.0007767  53.4133694  48.4337473  16.6748005
  42.9719899  55.4605168   7.6563605  43.4812128  56.0569676   8.0374910
  43.4454171  55.1931142   6.9740024  43.1163274  55.5090984   7.6118127
  51.8799271  45.0538597  10.1333557  51.2367589  44.9036243  10.7018695
  51.5398678  44.8080942   9.3682661  51.7344349  44.9950719  10.1036572
  56.4698618  53.0098023   9.5563565  55.7989808  53.5527726   9.4276631
  57.1638368  53.4792879   9.3145260  56.4727485  53.1596295   9.5019093
  50.5185352  65.1494735  14.7875324  50.2951006  64.3913565  15.1559350
  50.0295195  65.1792757  14.0655763  50.4128801  65.0416960  14.7352064
  56.6326745  49.4653907  12.4653938  56.9854355  49.0383630  13.1399737
  55.7741547  49.3804751  12.5955015  56.5576190  49.3898648  12.5848949
  45.3310430  52.0961427  10.5236785  44.6122419  52.5125559  10.7909649
  45.7022793  52.6615665   9.9728423  45.2802362  52.2410708  10.4819592
  54.6310011  52.7289276  16.4138781  54.6107938  52.5472571  17.2673560
  54.6789212  53.6001294  16.3898364  54.6344652  52.8305814  16.5362075
  52.5756341  59.3176468  22.3387257  52.5352196  58.6726145  21.7532413
  53.3879659  59.2613085  22.6512669  52.6899494  59.2135434  22.2984206
  49.1663808  65.3695193  12.2412408  48.7524207  64.7069324  11.8516250
  49.8511183  65.5173052  11.7208102  49.2062180  65.2935852  12.1068905
  52.5329103  64.5285279  12.9936025  52.1345386  64.6387549  12.2256845
  51.9180322  64.7367345  13.5762585  52.3827992  64.5758847  12.9667324
  51.1057005  51.1359427   5.8610164  50.5121844  51.4576423   5.3094731
  51.1432282  50.2900522   5.6531271  51.0231394  51.0583755   5.7492936
  58.0650805  44.5872319  13.3938251  57.5581670  43.8801458  13.3259428
  58.8618239  44.2565508  13.5239328  58.1078045  44.4345470  13.4037246
  53.9814821  51.0938931   9.2911915  53.7528514  51.1171633   8.4490273
  54.2412897  50.2696398   9.4106925  53.9861009  50.9755011   9.1837112
  47.0359584  49.6315477  10.5866110  47.5116950  49.9932557   9.9516291
  46.5348183  50.2871945  10.8666253  47.0324943  49.7809666  10.5342851
  52.1403120  50.8697649  21.3339270  52.6974550  50.6411458  20.7017736
  51.8164185  51.6303314  21.0574483  52.1749530  50.9481485  21.1995768
  49.0786237  51.7756677   3.9539494  49.4585202  51.7936306   3.1690609
  48.3378833  52.2210666   3.8330342  49.0255075  51.8438452   3.8203062
  56.7071527  50.0838868   9.5415073  56.7065754  49.9287525  10.3999349
  56.5027707  50.9301855   9.4856459  56.6771305  50.1859489   9.6603012
  38.7688798  53.5078653  13.9573890  38.5910559  53.0555262  14.6828805
  38.4807820  54.3104814  14.1412367  38.7001751  53.5601211  14.0917392
  54.4312379  54.7636370  13.1951280  54.9266045  54.0459365  13.1555300
  53.6212155  54.4607168  13.0805767  54.3856273  54.6134016  13.1725006
  40.5061268  56.0406377  11.0695649  39.6406788  56.0292067  10.9578420
  40.6060084  55.8536599  11.9166788  40.3935435  56.0112438  11.1784593
  56.4964198  57.5140058  15.8828409  56.9219270  56.9914480  15.3298834
  56.1321118  58.1120895  15.3617032  56.5050801  57.5250285  15.7237418
  46.1318278  65.8104275  14.6425754  46.4464837  66.6240664  14.6503536
  46.5411691  65.4254494  15.3107913  46.2386376  65.8732978  14.7429846
  53.0842798  61.2274322  12.2129566  53.5553976  61.9414585  12.3819551
  53.4202976  60.6273072  12.7489436  53.2037913  61.2445786  12.3161942
  55.1719782  62.8375635  24.3921638  55.2816748  62.0484196  24.7478385
  55.5010679  62.7481572  23.5895976  55.2372188  62.7081488  24.3264029
  53.7216744  61.0192256  18.9757259  53.1737690  60.3950140  18.7077324
  54.1829773  61.2086528  18.2601338  53.7083954  60.9551306  18.8307690
  53.0744648  42.9232119  15.7668754  52.2690612  42.8129848  16.0836592
  52.9451383  43.0244574  14.9098620  52.9364781  42.9215789  15.6876795
  56.5310608  49.0877611  16.3608451  55.9473597  49.5886817  15.9486018
  56.8514902  48.5807167  15.7272774  56.4923784  49.0869446  16.2066958
  49.0705408  48.0018205   6.6367126  49.8921102  48.1716518   6.3948821
  48.6075058  48.1565466   5.9133423  49.1236570  48.0499938   6.4938770
  47.6600739  45.9960968  17.4165555  48.2045152  45.6552094  18.0069896
  47.7137675  46.8546429  17.5586839  47.7489859  46.0716227  17.5247428
  43.4731298  59.7577384  14.2904363  44.0776156  59.7173218  13.6618183
  43.2658611  60.6048536  14.3208418  43.5320196  59.8765386  14.2020479
  53.2875070  62.0243329  15.5066600  54.1073444  61.8806295  15.7682895
  53.0069148  62.6489528  16.0483038  53.3671814  62.0953681  15.6254539
  38.7082581  58.7412001  14.1603286  38.6106859  57.9308273  14.4693342
  39.4911450  58.7203795  13.7749554  38.8098717  58.6179091  14.1490149
  54.1438566  70.0523240  16.0242621  54.0197263  70.6385686  16.6592440
  54.7956851  69.5583436  16.3254896  54.2212216  70.0662045  16.1628550
  57.5819774  69.9702662  21.4371646  57.7540278  69.8608556  22.2856927
  58.1189132  70.6157067  21.2002838  57.6864778  70.0494663  21.5276742
  56.6380098  66.1012971  18.9191573  55.9451894  65.6309951  19.1652305
  57.2540425  65.8751276  19.4933280  56.6264628  65.9980103  19.0400726
  55.3620657  70.0678375  20.0618418  56.0860629  70.0531406  20.5483313
  55.4636793  70.7773730  19.5640387  55.4838866  70.1703078  20.0597205
  62.7365606  73.5477460  24.9267365  61.9438587  73.8620971  25.1119985
  62.8514533  73.7628928  24.0888150  62.6361016  73.6261296  24.8305700
  61.6621118  67.9082040  17.2631133  61.2735551  67.4836258  16.6083324
  60.9975817  68.1564190  17.7708159  61.5068046  67.8820761  17.2419001
  59.4439320  64.1110867  24.6417725  59.1292761  64.8810430  24.3787288
  59.1229253  63.5481123  24.0569952  59.3498239  64.1421136  24.5159075
  66.1204106  62.6479248  18.5875244  66.8657698  62.4589059  18.1738669
  65.7041410  63.1737486  18.0289100  66.1689080  62.6981394  18.4439817
  59.0755826  66.7108118  23.3802940  58.2655601  67.0165898  23.2692783
  59.5530512  67.4313701  23.4955524  59.0259304  66.8622719  23.3810011
  55.4099857  72.2470669  18.2502343  55.9220954  72.5254922  17.6011102
  55.1236200  72.9859963  18.6165156  55.4434721  72.3973022  18.2092221
  58.9283583  64.3397057  18.3103384  58.7366780  64.3552192  19.1602808
  59.7782179  64.5360732  18.2870039  59.0259305  64.3711408  18.4326679
  53.3130496  66.8688039  16.2887201  53.1715988  66.0171979  16.4131709
  53.5971059  66.9116699  15.4649407  53.3338342  66.7487789  16.1854825
  59.4266115  71.4411848  19.8454672  59.5709491  72.0213056  19.2097782
  59.7741764  71.8188144  20.5504527  59.4993577  71.5832552  19.8553667
  61.8387810  64.5352567  18.5175207  62.2960424  65.2676541  18.6448000
  61.9144139  64.1119032  19.2762463  61.9178780  64.5809805  18.6476284
  54.0820801  64.7818386  19.6064651  53.5462991  64.1698745  19.9225418
  54.1438566  65.3566522  20.2598318  54.0116434  64.7765314  19.7500078
  59.7170188  66.5254671  15.3617031  58.9266263  66.3446131  15.6834367
  60.1130811  65.7481623  15.3447326  59.6587064  66.3842131  15.4069580
  62.2308018  69.0014930  19.8440530  62.1667159  69.8624886  19.7160667
  62.3705206  68.6846923  19.0436082  62.2423488  69.0815096  19.7068743
  63.8877971  66.4593309  18.3400369  64.1019940  65.8204223  17.7863723
  63.2711870  66.9039132  17.9108231  63.8283300  66.4303452  18.1950800
  66.0517059  68.0682374  19.2783676  65.2393741  67.7608264  19.3596849
  66.5106994  67.5881374  19.8426389  65.9997444  67.9518866  19.3738271
  63.1470566  69.4742445  24.0612379  63.6170198  70.0984562  24.4480253
  63.1932447  68.8059421  24.6205593  63.2238442  69.4677125  24.2012450
  60.3041840  61.5799473  14.7861183  59.7880329  60.8879664  14.9112762
  59.7435769  62.2470250  14.7323781  60.1448353  61.5762730  14.7967249
  62.3734074  62.1192433  16.6154035  61.9865827  62.1441464  17.3967565
  61.8867011  61.5534111  16.1628552  62.2446582  62.0388184  16.6641939
  62.0391215  59.0059418  18.9064295  62.6684333  59.5419718  18.6285365
  62.2077078  58.9136777  19.7577861  62.1569010  59.0720780  18.9912823
  61.8405130  63.7930613  21.1790707  62.6678559  63.5215762  21.2349321
  61.8612976  64.5891455  21.5354525  61.9657980  63.8710367  21.2405890
  56.7044051  64.4940236  16.4520618  57.1645532  64.5679165  17.1895742
  56.7500157  65.2921490  16.1020439  56.7794606  64.6234383  16.5093374
  58.3527400  65.1606931  21.0192645  57.9612966  64.5140278  21.4548423
  58.5213263  65.7518366  21.6386900  58.3198311  65.1521198  21.1755351
  53.4931828  68.1229426  18.8272334  54.3557441  68.0225136  18.7409664
  53.1623611  67.5424136  18.2657906  53.5717025  68.0221053  18.7317740
  56.8533614  66.9471875  15.4882752  56.2286685  66.9590267  14.8808705
  56.5179209  67.4232051  16.1373992  56.7119106  67.0190392  15.4939321
  56.1224360  68.5565023  17.7057621  56.2817846  67.8008347  18.1109343
  55.9417253  69.1055963  18.3598358  56.1189719  68.5258837  17.8620327
  64.0644663  60.7226259  18.2608410  63.5685224  60.9189933  17.5699977
  64.8213725  61.1218927  18.0897212  64.1031487  60.8103993  18.1328547
  57.6148865  63.1239423  14.2317465  57.6547236  63.6248629  14.9452172
  56.7898529  63.2149817  13.9623388  57.4988391  63.2121239  14.2968003
  59.7978477  72.6900163  22.3337760  58.9474108  72.8271877  22.4695404
  59.9606605  71.9563941  22.7785461  59.6962341  72.6014264  22.4193359
  56.8447011  63.1308826  22.1647775  57.4699715  62.5870958  22.4377207
  56.3897491  62.6503743  21.5955565  56.8695272  62.9798307  22.1209369
  64.4137632  64.1008805  16.7242980  64.8392704  63.6481331  16.1126506
  63.7994625  63.5468875  17.0007767  64.3866277  63.9522781  16.6748005
  63.5488924  74.8361776  22.3387257  63.5084779  74.1911452  21.7532413
  64.3612243  74.7798393  22.6512669  63.6632078  74.7320742  22.2984206
  59.2366633  68.4658712  18.8937015  58.7245536  67.8579895  19.2522046
  59.0646129  69.1815305  19.3610991  59.1356270  68.4822011  19.0153239
  54.0832348  66.9096287  21.5439377  53.9134938  67.5697662  20.9987583
  53.6398298  67.1202849  22.2651866  53.9931681  67.0382270  21.5701006
  63.1135704  66.3882957  21.3339270  63.6707134  66.1596766  20.7017736
  62.7896769  67.1488622  21.0574483  63.1482114  66.4666793  21.1995768
  50.9834412  69.8143153  16.8027866  50.4361132  69.1443799  16.9208735
  51.7726791  69.4473001  16.8671334  51.0186596  69.6608139  16.8296567
  60.8318821  69.4750610  22.2991278  61.5830148  69.7902287  22.6130832
  61.0241397  69.2729781  21.4725199  60.9710235  69.4917992  22.2234673
  49.7421382  69.0263961  13.9573890  49.5643143  68.5740570  14.6828805
  49.4540404  69.8290122  14.1412367  49.6734335  69.0786519  14.0917392
  60.9744876  61.5187100  19.1687661  61.1072782  60.7218094  19.4968636
  61.3590029  62.0453503  19.7485937  61.0501205  61.4787017  19.3031164
  64.0477231  58.4417427  15.7668754  63.2423195  58.3315156  16.0836592
  63.9183967  58.5429882  14.9098620  63.9097364  58.4401097  15.6876795
  58.6333323  61.5146276  17.4165555  59.1777736  61.1737402  18.0069896
  58.6870259  62.3731737  17.5586839  58.7222442  61.5901535  17.5247428
  44.0167779  20.9377872   9.7662910  44.7234546  20.4429903   9.8949844
  44.2055714  21.3786954   9.0365568  44.1495685  20.9296223   9.6771955
  36.5100698  29.1350046  -0.4082686  37.1538153  29.5763210  -0.0186528
  36.8356953  28.3303472  -0.4952428  36.6532527  29.0815241  -0.3637209
  41.1560073  24.3605409   7.6576985  41.2443419  24.1731549   8.5055195
  41.5849786  23.7142839   7.2581832  41.2322176  24.2368417   7.7248736
  38.7230533  23.6436569   6.6394647  38.1601368  23.2309179   7.1634308
  39.4851557  23.5689475   7.0587790  38.7524982  23.5713969   6.7787647
  35.3305431  15.8710177   8.3711692  35.5025935  15.7616072   9.2196974
  35.8674789  16.5164582   8.1342885  35.4350435  15.9502179   8.4616789
  41.2680133  23.7914428  10.3220768  42.0520549  23.9045276  10.6876511
  41.0676727  22.9655565  10.5179454  41.3546158  23.6861147  10.4055155
  41.4250526  25.7024530   3.9687224  40.6265772  25.4624030   4.2261093
  41.8736537  25.7538923   4.7154272  41.3725137  25.6746921   4.1172148
  40.4851263  19.4484975  11.8607412  39.6924244  19.7628487  12.0460032
  40.6000190  19.6636443  11.0228197  40.3846673  19.5268812  11.7645747
  41.4135056  19.3505179   6.7992709  41.9873917  18.7132423   6.9541273
  41.3349859  19.3509261   5.9302367  41.4868290  19.2570290   6.6939120
  46.7355203  20.7214156   6.8077562  46.4993841  19.8902221   6.6889623
  47.3798432  20.6699764   7.3932406  46.7949874  20.5911844   6.8763456
  37.1924977  10.0118383  11.5757772  36.8778418  10.7817945  11.3127335
  36.8714909   9.4488639  10.9909999  37.0983896  10.0428651  11.4499122
  47.7591624  20.5058605   2.8705857  47.4537441  21.2386662   3.2319172
  47.0397840  20.0996535   2.5898643  47.6078966  20.5540338   2.8818994
  53.4593416  17.1451606   2.1974201  53.3917916  17.1647565   1.3276788
  53.4449079  17.9881933   2.4229872  53.4472173  17.2725340   2.1026678
  37.8974424  19.7534589   5.0180689  37.3986118  20.4650357   5.0965577
  38.7074649  20.0735256   4.9798851  37.9430531  19.9061438   5.0237257
  36.8241482  12.6115634  10.3142987  36.0141258  12.9173413  10.2032829
  37.3016169  13.3321216  10.4295571  36.7744961  12.7630235  10.3150058
  45.1102794  21.3146004   1.1558517  44.9717153  22.0127049   1.6607259
  44.3302792  21.1594660   0.7994699  44.9746021  21.3946170   1.1784791
  43.4480879  17.6142379   7.4080899  43.4428917  16.7422195   7.4123325
  44.1541873  17.8130548   6.9350354  43.5525883  17.5146253   7.3387934
  37.1751772  17.3419363   6.7794719  37.3195148  17.9220571   6.1437829
  37.5227421  17.7195660   7.4844573  37.2479234  17.4840067   6.7893714
  36.2479527  25.5322135   3.6455746  36.3969091  24.9725051   2.9929150
  37.0279529  25.6114136   4.0288264  36.3853621  25.4607700   3.6052695
  38.7732828  25.7036778   4.9240236  38.6976499  25.0345588   5.4791025
  38.7022687  26.4054566   5.4380903  38.7513435  25.7081685   5.0817085
  38.1624462  29.1105097   3.3818237  38.6520393  28.4115887   3.1993902
  37.5908694  28.8128967   3.9694295  38.1508992  28.9631321   3.4419278
  44.3591466  21.6767167  12.3345028  45.1726331  21.4052316  12.4950160
  44.1986432  21.3774707  11.5305224  44.4561414  21.5922093  12.2390434
  43.8002716  13.9689889   6.2123723  42.9879397  13.6615779   6.2936896
  44.2592650  13.4888889   6.7766435  43.7483100  13.8526381   6.3078317
  40.8956223  15.3749960  10.9952426  41.3655854  15.9992077  11.3820300
  40.9418103  14.7066936  11.5545640  40.9724099  15.3684641  11.1352497
  44.3712710  22.7373457   7.6067868  45.0092430  22.2433653   7.2730325
  43.7286801  22.6650857   7.0220095  44.3706936  22.6532465   7.4710223
  44.4266966  23.4293265   4.2473225  45.2159345  23.0782330   4.3675307
  44.6010564  24.2429654   3.9849859  44.5687248  23.4979122   4.2261093
  36.0395293  21.9833111   5.2570709  35.9315648  21.9935173   6.1232767
  36.2491074  22.8087891   5.0675663  36.0545404  22.1074186   5.3574801
  50.1759506  19.0651523   3.7169925  50.2342630  19.5138172   4.4629902
  49.5425974  19.4750336   3.2800005  50.0910801  19.1925258   3.7622474
  43.8158601  24.6855065   0.1524671  43.6178290  25.1745879  -0.5419117
  43.1946312  24.8896306   0.7308805  43.6946165  24.7871603   0.1347895
  45.7332403  18.2519217   5.6869920  46.4566602  17.7991744   5.5080940
  45.4682365  18.5323883   4.9042248  45.8013676  18.2270186   5.5448635
  41.5151192  18.3503095   3.8364935  40.9008185  17.8061146   4.1313570
  42.0318477  17.8367332   3.3570751  41.5006855  18.1939504   3.8089163
  37.5464134  18.5907678   9.2677806  36.6959765  18.7279392   9.4035451
  37.7092262  17.8571456   9.7125508  37.4447998  18.5021779   9.3533406
  48.1667717  17.2145628   4.1900470  48.7585557  17.8542879   4.2218668
  48.6026711  16.5168665   4.4792536  48.3186148  17.2063978   4.2381302
  39.9961107  21.6363000   4.8158363  39.4886198  22.1898847   5.2598994
  39.6987753  21.6971290   3.9977138  39.8765992  21.7269312   4.7606820
  39.2403592  26.5687559   1.7215370  39.0169246  25.8106388   2.0899397
  38.7513435  26.5985580   0.9995810  39.1347041  26.4609783   1.6692111
  41.2974581  20.7369291   9.2727304  41.2570436  20.0918968   8.6872460
  42.1097900  20.6805908   9.5852716  41.4117735  20.6328258   9.2324253
  41.2547343  25.9478102  -0.0723928  40.8563626  26.0580372  -0.8403108
  40.6398563  26.1560168   0.5102631  41.1046232  25.9951670  -0.0992629
  40.8621360  12.2890472   8.2679317  41.4192790  12.0604282   7.6357783
  40.5382425  13.0496138   7.9914530  40.8967771  12.3674309   8.1335814
  38.5804478  15.3758125   9.2331324  39.3315805  15.6909802   9.5470879
  38.7727054  15.1737296   8.4065246  38.7195892  15.3925507   9.1574720
  45.2182439  18.9332881   2.8168455  45.6437510  18.4107303   2.2638880
  44.8539359  19.5313718   2.2957078  45.2269041  18.9443108   2.6577465
  34.8536518  27.2297098   1.5765801  35.1683077  28.0433487   1.5843583
  35.2629932  26.8447317   2.2447960  34.9604616  27.2925801   1.6769893
  43.8938023  24.2568459  11.3261685  44.0034988  23.4677019  11.6818432
  44.2228919  24.1674395  10.5236023  43.9590428  24.1274311  11.2604076
  42.4434984  22.4385079   5.9097306  41.8955930  21.8142963   5.6417371
  42.9048013  22.6279351   5.1941385  42.4302194  22.3744130   5.7647737
  42.0093311  23.4436152   2.4406647  42.8291685  23.2999118   2.7022942
  41.7287388  24.0682351   2.9823085  42.0890054  23.5146504   2.5594586
  51.6806646  30.1876655   0.1602454  50.8244541  30.3485153   0.2111570
  51.7274300  29.3168719   0.1807515  51.5605757  30.0827457   0.1708520
  46.0647786  39.7239373  -4.0760315  45.3130685  39.3454911  -4.3044270
  46.5133797  39.7557806  -4.8241505  46.0197452  39.6724980  -4.2202813
  54.9900362  36.4563180   9.7662910  55.6967130  35.9615211   9.8949844
  55.1788298  36.8972262   9.0365568  55.1228268  36.4481531   9.6771955
  54.5258467  32.2468699   2.8034105  55.0714427  32.9253785   2.8628075
  54.4675343  32.1056160   1.9435687  54.5974381  32.3260700   2.6846166
  47.6432542  39.7357765  -1.8097542  47.7442905  38.9258119  -1.5000415
  47.0474287  39.6414711  -2.4397864  47.5705080  39.6022793  -1.8571304
  47.4833281  44.6535354  -0.4082686  48.1270737  45.0948518  -0.0186528
  47.8089537  43.8488780  -0.4952428  47.6265110  44.6000549  -0.3637209
  40.8397586  35.7578051  -2.1845209  40.6047771  34.9245704  -2.2912940
  40.9783227  36.0382717  -2.9984008  40.8253249  35.6761555  -2.3202854
  43.1387674  27.9263782   0.7139099  42.5192705  27.3356429   0.5449114
  43.0371537  28.5175217   0.0803422  43.0325349  27.9267864   0.5944088
  50.2355569  29.6663324  -4.9528438  50.9335734  29.8451451  -4.4606975
  50.5507902  29.1433663  -5.5758049  50.3850906  29.6157096  -4.9726428
  42.8656807  31.4716064   2.9582668  42.7415503  32.0578509   3.5932487
  43.5175091  30.9776259   3.2594943  42.9430456  31.4854868   3.0968597
  50.4243505  36.0533769  -4.9648646  50.8637140  35.4450869  -4.5193874
  50.2748167  35.6741142  -5.7363181  50.4664970  35.9072240  -5.0129479
  47.8915148  34.6477781   2.2370179  48.5364150  34.1550224   1.9181128
  48.1316925  34.7902567   3.0636257  48.0225733  34.5955223   2.3119712
  50.4301239  37.4932686   1.8877072  50.7124482  36.6984092   1.6663827
  51.1587399  37.9713274   1.9082133  50.5790803  37.4467283   1.8580087
  48.4082433  25.0355720  -0.8707163  48.0785763  25.4866864  -1.5403465
  47.7327435  24.9571884  -0.3234157  48.2592869  25.0906856  -0.8883940
  60.4119327  36.5992049  -1.1387098  59.5817030  36.8102692  -0.9753681
  60.3628580  35.7729103  -1.4144814  60.2826063  36.5081655  -1.1549732
  42.4014911  40.6363722  -0.9089003  41.9182489  41.3614212  -0.9329419
  43.2138229  40.9339852  -0.7978845  42.4505659  40.7866076  -0.8961723
  48.4729065  39.4295903   1.6960812  47.9556006  39.0703318   1.0922120
  49.1703456  38.9058077   1.7066878  48.4994646  39.2993591   1.6091071
  52.1292657  39.8790717   7.6576985  52.2176003  39.6916857   8.5055195
  52.5582369  39.2328146   7.2581832  52.2054759  39.7553725   7.7248736
  49.6963117  39.1621877   6.6394647  49.1333951  38.7494487   7.1634308
  50.4584140  39.0874783   7.0587790  49.7257565  39.0899277   6.7787647
  45.2559108  41.1519898  -0.7568723  45.9579687  40.6371887  -0.6995966
  45.1756591  41.4794049   0.0478152  45.3482869  41.1234124  -0.6295931
  59.9073286  29.2462449   2.6563324  59.0701707  29.3164636   2.8910918
  59.8761517  29.2486944   1.7837626  59.7791568  29.2572676   2.5622872
  46.3038015  31.3895485   8.3711692  46.4758518  31.2801380   9.2196974
  46.8407372  32.0349890   8.1342885  46.4083019  31.4687487   8.4616789
  44.5809883  37.3426250  -1.2483115  45.4198783  37.5749183  -1.2009353
  44.6121653  36.4730561  -1.3176079  44.7091601  37.2483196  -1.2518470
  45.2062586  37.7627125   3.0530191  45.7460811  37.6198256   3.7233563
  44.5232533  38.1623876   3.4214217  45.1854740  37.8006796   3.2064613
  57.6683642  37.2691403  -1.0022382  57.2318874  37.2728146  -0.2463410
  57.3346558  37.9496902  -1.4342804  57.5546262  37.3703859  -0.9541549
  52.2412716  39.3099736  10.3220768  53.0253133  39.4230584  10.6876511
  52.0409311  38.4840873  10.5179454  52.3278742  39.2046455  10.4055155
  40.6099732  33.9827416   3.2064612  40.3438147  33.1666533   3.3655603
  40.6238296  34.0280572   2.3360128  40.5724454  33.8684321   3.1018094
  57.5881125  24.3105231   1.2407046  58.2307034  24.3803336   1.8268961
  57.8404146  23.6434454   0.7386588  57.7203258  24.2231580   1.2534325
  45.3598338  27.5205794   5.8531620  44.6670135  27.0502774   6.0992352
  45.9758665  27.2944099   6.4273327  45.3482868  27.4172926   5.9740773
  52.3983109  41.2209838   3.9687224  51.5998355  40.9809338   4.2261093
  52.8469121  41.2724231   4.7154272  52.3457721  41.1932229   4.1172148
  60.8027989  33.9872323  -2.1102745  61.4644423  33.4262991  -2.2106836
  60.1619401  33.4924354  -1.7850053  60.8056856  33.8308732  -2.0770404
  41.0193145  34.7686195   0.4876357  40.8368718  34.7433081  -0.3651351
  41.7542814  35.2385133   0.5265265  41.1007209  34.8347558   0.3674275
  57.0892819  35.0037705  -2.3690756  57.3248409  35.1482904  -3.1963905
  57.2382383  35.7680113  -1.9759242  57.1458623  35.1376760  -2.4327152
  44.0838897  31.4871198   6.9958465  44.8078869  31.4724229   7.4823360
  44.1855033  32.1966554   6.4980433  44.2057106  31.5895901   6.9937252
  51.4583846  34.9670283  11.8607412  50.6656827  35.2813795  12.0460032
  51.5732773  35.1821751  11.0228197  51.3579257  35.0454120  11.7645747
  54.1315165  31.6904274  -3.8497572  54.2262020  32.4293568  -3.3957946
  53.5074009  31.2621750  -3.4163007  54.0524195  31.7365595  -3.7189424
  52.3867639  34.8690487   6.7992709  52.9606501  34.2317731   6.9541273
  52.3082443  34.8694569   5.9302367  52.4600874  34.7755598   6.6939120
  40.9864056  31.6479696   0.6375423  41.5637558  31.5116147   1.2767669
  40.2878117  31.1915480   0.8921008  40.9685077  31.5601962   0.7697713
  47.7431358  33.3013752  -1.1486094  47.4850602  32.4685487  -1.1754794
  47.7979841  33.5271365  -1.9893593  47.7131136  33.2111523  -1.2765957
  52.8232408  25.4042202  -1.0482001  52.1188735  24.9151388  -0.8898082
  52.8717382  25.4164677  -1.9193556  52.7262459  25.3331850  -1.1542661
  46.7166070  30.8551514  -0.6621199  46.1415661  31.0143683  -0.0257238
  46.3401746  30.2186923  -1.1252748  46.5768882  30.7849327  -0.6366640
  50.3839359  29.3274864   4.1971180  49.9953791  28.9029081   3.5423371
  49.7194057  29.5757013   4.7048206  50.2286286  29.3013585   4.1759048
  54.2065720  23.0249492   1.7095164  54.5876232  22.3427663   2.0963038
  53.4029004  22.7359094   1.5270828  54.1442182  22.8816541   1.7399220
  57.7087787  36.2399464   6.8077562  57.4726424  35.4087529   6.6889623
  58.3531016  36.1885071   7.3932406  57.7682458  36.1097152   6.8763456
  47.3586205  37.0294986  -2.4779701  47.9960152  36.7906733  -1.9327908
  47.7841277  37.2332144  -3.2126541  47.5162371  37.0245996  -2.5062544
  42.0498847  39.2683322   1.4054602  42.0902993  39.5398173   0.5774382
  42.6093372  39.7925230   1.8212390  42.1382193  39.3859077   1.3446491
  48.1657560  25.5303691  11.5757772  47.8511002  26.3003253  11.3127335
  47.8447493  24.9673947  10.9909999  48.0716480  25.5613959  11.4499122
  58.7324208  36.0243913   2.8705857  58.4270025  36.7571970   3.2319172
  58.0130423  35.6181843   2.5898643  58.5811550  36.0725646   2.8818994
  49.7407677  37.5067408  -0.7985915  49.8146685  37.3442580   0.0555935
  50.5577183  37.6957598  -1.0425433  49.8724036  37.5104151  -0.7087889
  64.4326000  32.6636914   2.1974201  64.3650500  32.6832873   1.3276788
  64.4181662  33.5067241   2.4229872  64.4204756  32.7910648   2.1026678
  43.5013434  37.8525271  -3.7691472  42.6751551  38.0987008  -3.8957193
  43.5625425  37.7737352  -2.9029414  43.3887601  37.8770220  -3.6602527
  54.8422346  24.0672071   5.5215290  55.5875938  23.8781882   5.1078716
  54.4259651  24.5930309   4.9629147  54.8907320  24.1174217   5.3779864
  62.2184617  31.4381300   0.4720795  62.7692539  30.8049369   0.7117887
  62.2028732  31.9696693   1.1636300  62.2969813  31.4230248   0.6099654
  48.8707008  35.2719897   5.0180689  48.3718702  35.9835665   5.0965577
  49.6807232  35.5920564   4.9798851  48.9163115  35.4246746   5.0237257
  46.2218178  42.4469534  -3.0012292  46.0018474  42.1566888  -2.2085625
  46.0012700  41.7884489  -3.5294380  46.1565772  42.3069242  -2.9623383
  45.1335126  34.5342850  -0.7356590  44.8448374  33.9080321  -0.2010863
  46.0018474  34.4763138  -0.6691910  45.2195377  34.4330394  -0.6465636
  55.9213023  29.6777634  -0.4174608  55.5777789  28.9567969  -0.0667359
  56.0206066  29.4691485  -1.2596250  55.8855066  29.5401837  -0.4902928
  45.3367399  36.1738101  -4.8114225  46.0913367  36.5551140  -4.5978763
  44.7438012  36.6249245  -4.3567529  45.3604112  36.2966929  -4.7131347
  47.7974066  28.1300942  10.3142987  46.9873842  28.4358721  10.2032829
  48.2748753  28.8506524  10.4295571  47.7477545  28.2815543  10.3150058
  46.6565625  37.3446663   0.5625890  46.1346379  37.4846954   1.2477755
  47.0439646  36.5857327   0.7528007  46.6369326  37.2532186   0.6926967
  48.0831951  34.3750682  -4.0392619  47.8874734  34.9825416  -4.6332316
  48.3066297  33.6818626  -4.5200945  48.0866592  34.3628207  -4.1976538
  46.4810481  31.2605420  -3.9211750  47.2033133  31.4246578  -4.3807944
  46.0018474  31.9815084  -4.0272411  46.5174212  31.3903649  -4.0046136
  54.4403989  27.5969218   1.4584934  53.6015089  27.6230497   1.2223198
  54.5108356  28.2439954   2.0390281  54.3272382  27.6965344   1.5094051
  44.1318098  33.6663492   5.1842389  44.6439195  33.9447745   4.5351149
  43.8454440  34.4052786   5.5505202  44.1652961  33.8165846   5.1432267
  58.3161513  32.8037205  -1.2553824  58.2295487  32.9592631  -0.4019045
  57.8611992  33.4475281  -1.6294419  58.2364769  32.9212960  -1.1846717
  47.6501823  25.7589881   5.2443431  47.4585020  25.7745015   6.0942854
  48.5000419  25.9553555   5.2210086  47.7477545  25.7904232   5.3666726
  42.0348736  28.2880862   3.2227247  41.8934228  27.4364803   3.3471755
  42.3189300  28.3309523   2.3989453  42.0556582  28.1680612   3.1194872
  52.1887329  30.1247952  -2.6328264  51.9422043  30.0443703  -1.7991475
  52.5172452  29.3401420  -2.8265737  52.2008572  29.9974218  -2.5380741
  56.0835377  36.8331312   1.1558517  55.9449737  37.5312357   1.6607259
  55.3035375  36.6779968   0.7994699  55.9478604  36.9131478   1.1784791
  54.4213463  33.1327687   7.4080899  54.4161501  32.2607503   7.4123325
  55.1274456  33.3315856   6.9350354  54.5258467  33.0331561   7.3387934
  48.1484356  32.8604671   6.7794719  48.2927732  33.4405879   6.1437829
  48.4960004  33.2380968   7.4844573  48.2211817  33.0025375   6.7893714
  50.3204273  32.0594839   4.5619850  49.5727587  32.2525854   4.1568128
  50.4745798  31.2340059   4.3243972  50.2326701  31.9659951   4.4665256
  47.2212111  41.0507443   3.6455746  47.3701675  40.4910358   2.9929150
  48.0012113  41.1299444   4.0288264  47.3586204  40.9793008   3.6052695
  49.7465411  41.2222085   4.9240236  49.6709083  40.5530896   5.4791025
  49.6755271  41.9239874   5.4380903  49.7246018  41.2266993   5.0817085
  50.5606050  25.9545390   5.4515254  51.0178664  26.6869364   5.5788046
  50.6362379  25.5311855   6.2102510  50.6397020  26.0002628   5.5816331
  42.8039041  26.2011210   6.5404698  42.2681231  25.5891568   6.8565465
  42.8656806  26.7759346   7.1938364  42.7334674  26.1958137   6.6840125
  48.4388428  27.9447494   2.2957078  47.6484503  27.7638954   2.6174414
  48.8349051  27.1674446   2.2787373  48.3805304  27.8034955   2.3409627
  53.8232114  35.5789924   0.0216524  53.1477116  35.3475156   0.5229911
  53.8324491  34.9711107  -0.6041371  53.7250619  35.4548849   0.0032676
  50.9526258  30.4207753   6.7780577  50.8885400  31.2817709   6.6500714
  51.0923446  30.1039746   5.9776128  50.9641728  30.5007920   6.6408790
  49.6345352  33.1139892   0.9196780  49.2107601  33.3144391   0.1835798
  49.4590208  32.2668740   1.0321080  49.5456233  33.0188674   0.8270470
  49.1357046  44.6290405   3.3818237  49.6252976  43.9301194   3.1993902
  48.5641278  44.3314275   3.9694295  49.1241576  44.4816629   3.4419278
  44.9227797  33.6091944  -3.6475248  45.0792416  33.5438747  -2.7919255
  45.2628390  34.3840496  -3.8596568  44.9961032  33.7141142  -3.5520653
  51.4606942  32.9849827  -4.7781884  52.0022487  32.4820208  -4.3143264
  51.7753501  32.9315022  -5.5892399  51.5871339  32.9029248  -4.8298072
  55.3324049  37.1952475  12.3345028  56.1458915  36.9237624  12.4950160
  55.1719016  36.8960015  11.5305224  55.4293998  37.1107401  12.2390434
  52.6096211  27.8786132   5.2740416  52.8238181  27.2397046   4.7203770
  51.9930110  28.3231956   4.8448278  52.5501541  27.8496275   5.1290847
  41.4962059  30.7926894  -3.3314480  41.8761024  31.2111439  -3.9954213
  40.9217424  31.3740350  -3.0245637  41.4673384  30.9404753  -3.3837739
  54.7735299  29.4875197   6.2123723  53.9611981  29.1801087   6.2936896
  55.2325234  29.0074197   6.7766435  54.7215684  29.3711689   6.3078317
  52.0010940  20.9886067   0.2627759  51.1304498  20.9624789   0.2161068
  52.2551281  20.8163260  -0.5546395  51.9104500  20.9596211   0.1347896
  51.8688807  30.8935268  10.9952426  52.3388438  31.5177385  11.3820300
  51.9150687  30.2252244  11.5545640  51.9456683  30.8869949  11.1352497
  49.0260080  22.9992296   1.7201229  48.5098569  22.3072487   1.8452808
  48.4654009  23.6663073   1.6663828  48.8666594  22.9955554   1.7307295
  51.0952314  23.5385256   3.5494082  50.7084067  23.5634287   4.3307612
  50.6085251  22.9726935   3.0968599  50.9664823  23.4581007   3.5981986
  55.3445293  38.2558765   7.6067868  55.9825014  37.7618961   7.2730325
  54.7019385  38.1836165   7.0220095  55.3439520  38.1717773   7.4710223
  50.7609456  20.4252241   5.8404342  51.3902574  20.9612541   5.5625412
  50.9295318  20.3329600   6.6917907  50.8787250  20.4913604   5.9252870
  50.5623370  25.2123436   8.1130753  51.3896800  24.9408585   8.1689368
  50.5831217  26.0084278   8.4694572  50.6876221  25.2903190   8.1745936
  55.3999550  38.9478573   4.2473225  56.1891928  38.5967638   4.3675307
  55.5743148  39.7614962   3.9849859  55.5419832  39.0164430   4.2261093
  45.1392860  32.3587299   1.3001014  44.2980867  32.2591173   1.5079908
  45.3482868  33.1282779   1.6515335  45.0457553  32.4579342   1.3828329
  42.6168427  29.9806836  -0.8714235  42.2225125  30.0549848  -1.6464126
  42.0608544  30.3664782  -0.3205874  42.4771240  30.0488610  -0.9046575
  54.2533374  22.9588130  -1.1910356  54.4582967  22.8910438  -0.3453359
  53.9259798  23.7646951  -1.2589179  54.2348622  23.0674070  -1.0750701
  48.9509525  30.2868698   0.5498612  48.6472663  29.7324686   1.1509019
  48.2488946  30.4660908   0.0626646  48.8025735  30.2313480   0.5668317
  47.0127876  37.5018419   5.2570709  46.9048231  37.5120481   6.1232767
  47.2223658  38.3273199   5.0675663  47.0277987  37.6259494   5.3574801
  45.0301668  34.7531061   2.7192647  44.4389601  35.3940559   2.6895662
  45.7922692  35.1768678   2.6923946  45.0549929  34.9106900   2.7107794
  45.4262291  25.9133059   3.3860665  45.8863773  25.9871988   4.1235788
  45.4718398  26.7114313   3.0360486  45.5012846  26.0427206   3.4433421
  47.0745641  26.5799754   7.9532692  46.6831206  25.9333101   8.3888469
  47.2431503  27.1711189   8.5726947  47.0416551  26.5714022   8.1095398
  61.1492090  34.5836831   3.7169925  61.2075213  35.0323480   4.4629902
  60.5158557  34.9935644   3.2800005  61.0643385  34.7110566   3.7622474
  54.7891184  40.2040373   0.1524671  54.5910873  40.6931187  -0.5419117
  54.1678895  40.4081614   0.7308805  54.6678749  40.3056911   0.1347895
  48.8499163  31.9725270  -5.5065084  49.5941208  32.3599546  -5.2682134
  48.9959859  31.1282695  -5.3424597  48.9809748  31.9055742  -5.4471115
  50.7678738  23.7675529  -0.4733223  49.9214783  23.9398336  -0.5991873
  50.7649871  22.9624872  -0.1367395  50.6425888  23.6736557  -0.4422096
  51.8377039  27.5450743   0.3928835  51.3636993  27.0192505   0.9034146
  52.2095174  26.9980216  -0.1756303  51.8226928  27.3866740   0.3843982
  42.2150069  29.5422250   5.7612381  43.0775682  29.4417959   5.6749711
  41.8841852  28.9616959   5.1997953  42.2935265  29.4413876   5.6657787
  58.1013769  32.6053119   1.8035616  57.8611992  31.7659534   1.8078042
  58.5805776  32.6853285   2.5276389  58.1365953  32.4934518   1.9110418
  60.1018956  29.3854576  -0.2435125  59.8628726  29.3450410  -1.0814341
  60.2652858  30.2325728  -0.1169404  60.0909260  29.5046661  -0.3481643
  56.7064986  33.7704525   5.6869920  57.4299185  33.3177052   5.5080940
  56.4414949  34.0509191   4.9042248  56.7746260  33.7455494   5.5448635
  45.5751855  28.3664699   2.4222799  44.9504925  28.3783091   1.8148752
  45.2397450  28.8424874   3.0714039  45.4337347  28.4383216   2.4279368
  42.2877530  36.4265159   3.8626563  41.7577455  35.7357598   3.9121538
  42.5602624  36.4175344   3.0339272  42.2502253  36.3232291   3.7473979
  52.4883776  33.8688403   3.8364935  51.8740769  33.3246454   4.1313570
  53.0051061  33.3552640   3.3570751  52.4739438  33.7124812   3.8089163
  44.8442600  29.9757846   4.6397667  45.0036087  29.2201171   5.0449389
  44.6635494  30.5248786   5.2938405  44.8407959  29.9451660   4.7960373
  52.7862903  22.1419082   5.1948457  52.2903464  22.3382756   4.5040024
  53.5431965  22.5411750   5.0237259  52.8249728  22.2296816   5.0668594
  50.0565783  25.8161428   1.7851767  50.0808270  25.2821540   1.0964547
  50.3077256  25.3078737   2.4477358  50.0975701  25.6622332   1.7816412
  37.5673373  33.0992923   1.2194912  37.4616822  33.0539767   0.3546996
  36.8173593  33.4446703   1.5009196  37.4408975  33.1433831   1.1332241
  46.3367105  24.5432246   1.1657512  46.3765477  25.0441453   1.8792219
  45.5116770  24.6342640   0.8963435  46.2206631  24.6314062   1.2308050
  48.5196718  34.1092986   9.2677806  47.6692348  34.2464700   9.4035451
  48.6824846  33.3756764   9.7125508  48.4180581  34.0207087   9.3533406
  47.7581468  31.0592756   3.4631411  46.9273398  31.2266574   3.2566659
  47.7032986  30.6828707   4.2480296  47.6270883  31.0282487   3.5479939
  45.5665252  24.5501649   9.0987822  46.1917955  24.0063782   9.3717254
  45.1115732  24.0696566   8.5295612  45.5913512  24.3991130   9.0549415
  59.1400300  32.7330936   4.1900470  59.7318141  33.3728187   4.2218668
  59.5759295  32.0353973   4.4792536  59.2918732  32.7249286   4.2381302
  50.9693690  37.1548308   4.8158363  50.4618781  37.7084155   5.2598994
  50.6720336  37.2156598   3.9977138  50.8498575  37.2454620   4.7606820
  53.1355872  25.5201628   3.6583026  53.5610944  25.0674154   3.0466553
  52.5212866  24.9661699   3.9347814  53.1084518  25.3715604   3.6088052
  56.1649442  29.9476155  -3.5096388  55.4940632  30.4905857  -3.6383322
  56.8589192  30.4171010  -3.7514693  56.1678309  30.0974426  -3.5640860
  50.2136175  42.0872867   1.7215370  49.9901830  41.3291696   2.0899397
  49.7246019  42.1170888   0.9995810  50.1079624  41.9795091   1.6692111
  56.3277569  26.4032038  -0.6006015  56.6805179  25.9761761   0.0739784
  55.4692371  26.3182882  -0.4704938  56.2527014  26.3276779  -0.4811004
  45.0261254  29.0339558  -2.5423168  44.3073243  29.4503690  -2.2750305
  45.3973616  29.5993797  -3.0931530  44.9753186  29.1788839  -2.5840361
  54.3260835  29.6667407   3.3478828  54.3058762  29.4850702   4.2013606
  54.3740036  30.5379425   3.3238411  54.3295476  29.7683945   3.4702122
  52.2707165  36.2554599   9.2727304  52.2303020  35.6104276   8.6872460
  53.0830483  36.1991216   9.5852716  52.3850318  36.1513566   9.2324253
  48.8614632  42.3073325  -0.8247545  48.4475031  41.6447455  -1.2143703
  49.5462007  42.4551183  -1.3451851  48.9013004  42.2313983  -0.9591048
  52.2279927  41.4663410  -0.0723928  51.8296210  41.5765680  -0.8403108
  51.6131146  41.6745476   0.5102631  52.0778816  41.5136978  -0.0992629
  53.6765645  28.0317062  -3.7748039  53.4479338  28.0549764  -4.6169680
  53.9363721  27.2074529  -3.6553028  53.6811833  27.9133142  -3.8822841
  47.9584874  29.8851535   5.8277062  47.4463777  29.2772718   6.1862093
  47.7864370  30.6008128   6.2951037  47.8574511  29.9014835   5.9493285
  42.8050588  28.3289111   8.4779423  42.6353179  28.9890485   7.9327630
  42.3616538  28.5395672   9.1991913  42.7149922  28.4575093   8.5041053
  46.7310408  26.5693609  -2.4793843  47.2067774  26.9310688  -3.1143662
  46.2299007  27.2250076  -2.1993700  46.7275767  26.7187797  -2.5317102
  51.8353944  27.8075780   8.2679317  52.3925374  27.5789589   7.6357783
  51.5115009  28.5681446   7.9914530  51.8700354  27.8859617   8.1335814
  39.7052653  31.2335976   3.7367913  39.1579372  30.5636622   3.8548782
  40.4945031  30.8665824   3.8011381  39.7404836  31.0800963   3.7636614
  49.5537061  30.8943433   9.2331324  50.3048388  31.2095110   9.5470879
  49.7459638  30.6922604   8.4065246  49.6928475  30.9110815   9.1574720
  38.4639622  30.4456784   0.8913936  38.2861383  29.9933393   1.6168852
  38.1758644  31.2482945   1.0752414  38.3952575  30.4979342   1.0257439
  54.1263203  31.7014501   0.1291327  54.6216869  30.9837496   0.0895347
  53.3162979  31.3985299   0.0145814  54.0807097  31.5512148   0.1065053
  40.2012092  32.9784508  -1.9964305  39.3357612  32.9670198  -2.1081533
  40.3010908  32.7914731  -1.1493165  40.0886259  32.9490569  -1.8875360
  56.1915022  34.4518189   2.8168455  56.6170094  33.9292611   2.2638880
  55.8271942  35.0499026   2.2957078  56.2001625  34.4628416   2.6577465
  45.8269102  42.7482406   1.5765801  46.1415661  43.5618795   1.5843583
  46.2362515  42.3632625   2.2447960  45.9337200  42.8111109   1.6769893
  52.7793622  38.1652453  -0.8530387  53.2504800  38.8792716  -0.6840402
  53.1153800  37.5651203  -0.3170518  52.8988737  38.1823917  -0.7498011
  54.8670606  39.7753767  11.3261685  54.9767572  38.9862327  11.6818432
  55.1961503  39.6859703  10.5236023  54.9323012  39.6459619  11.2604076
  49.6963117  22.9379924   6.1027708  49.8291022  22.1410917   6.4308683
  50.0808269  23.4646327   6.6825983  49.7719445  22.8979840   6.2371211
  53.4167568  37.9570387   5.9097306  52.8688514  37.3328271   5.6417371
  53.8780597  38.1464659   5.1941385  53.4034777  37.8929437   5.7647737
  52.7695472  19.8610250   2.7008801  51.9641436  19.7507979   3.0176639
  52.6402207  19.9622706   1.8438667  52.6315605  19.8593920   2.6216841
  56.2261432  26.0255742   3.2948498  55.6424421  26.5264948   2.8826065
  56.5465726  25.5185298   2.6612821  56.1874608  26.0247577   3.1407005
  47.3551563  22.9339099   4.3505601  47.8995976  22.5930226   4.9409943
  47.4088499  23.7924560   4.4926886  47.4440683  23.0094358   4.4587475
  43.1682122  36.6955515   1.2244409  43.7726980  36.6551349   0.5958230
  42.9609435  37.5426667   1.2548465  43.2271019  36.8143517   1.1360526
  52.9825894  38.9621460   2.4406647  53.8024268  38.8184426   2.7022942
  52.7019972  39.5867659   2.9823085  53.0622638  39.0331812   2.5594586
  38.4033404  35.6790132   1.0943332  38.3057682  34.8686404   1.4033389
  39.1862274  35.6581926   0.7089601  38.5049541  35.5557223   1.0830195
  54.1120257  43.4449090   0.7139099  53.4925289  42.8541737   0.5449114
  54.0104121  44.0360525   0.0803422  54.0057933  43.4453172   0.5944088
  53.8389390  46.9901372   2.9582668  53.7148087  47.5763817   3.5932487
  54.4907675  46.4961567   3.2594943  53.9163040  47.0040176   3.0968597
  57.2770598  46.9080793   8.3711692  57.4491102  46.7986688   9.2196974
  57.8139956  47.5535198   8.1342885  57.3815602  46.9872795   8.4616789
  63.2145300  54.8285044  10.3220768  63.9985716  54.9415892  10.6876511
  63.0141894  54.0026181  10.5179454  63.3011325  54.7231763  10.4055155
  51.5832315  49.5012724   3.2064612  51.3170730  48.6851841   3.3655603
  51.5970879  49.5465880   2.3360128  51.5457037  49.3869629   3.1018094
  56.3330922  43.0391102   5.8531620  55.6402718  42.5688082   6.0992352
  56.9491249  42.8129407   6.4273327  56.3215451  42.9358234   5.9740773
  55.0571480  47.0056506   6.9958465  55.7811453  46.9909537   7.4823360
  55.1587617  47.7151861   6.4980433  55.1789690  47.1081209   6.9937252
  62.4316430  50.4855591  11.8607412  61.6389411  50.7999103  12.0460032
  62.5465357  50.7007059  11.0228197  62.3311840  50.5639428  11.7645747
  61.3571942  44.8460171   4.1971180  60.9686375  44.4214389   3.5423371
  60.6926640  45.0942321   4.7048206  61.2018870  44.8198893   4.1759048
  65.1798304  38.5434800   1.7095164  65.5608815  37.8612971   2.0963038
  64.3761588  38.2544402   1.5270828  65.1174765  38.4001849   1.7399220
  59.1390144  41.0488998  11.5757772  58.8243585  41.8188561  11.3127335
  58.8180077  40.4859254  10.9909999  59.0449063  41.0799267  11.4499122
  65.8154930  39.5857379   5.5215290  66.5608522  39.3967190   5.1078716
  65.3992234  40.1115617   4.9629147  65.8639904  39.6359525   5.3779864
  58.7706649  43.6486250  10.3142987  57.9606425  43.9544029  10.2032829
  59.2481336  44.3691832  10.4295571  58.7210128  43.8000851  10.3150058
  55.1050681  49.1848800   5.1842389  55.6171778  49.4633053   4.5351149
  54.8187024  49.9238094   5.5505202  55.1385545  49.3351154   5.1432267
  58.6234407  41.2775188   5.2443431  58.4317604  41.2930323   6.0942854
  59.4733003  41.4738863   5.2210086  58.7210129  41.3089540   5.3666726
  53.0081320  43.8066170   3.2227247  52.8666812  42.9550111   3.3471755
  53.2921883  43.8494831   2.3989453  53.0289166  43.6865920   3.1194872
  59.1216939  48.3789979   6.7794719  59.2660315  48.9591187   6.1437829
  59.4692588  48.7566275   7.4844573  59.1944401  48.5210683   6.7893714
  61.5338634  41.4730698   5.4515254  61.9911248  42.2054672   5.5788046
  61.6094963  41.0497163   6.2102510  61.6129604  41.5187936   5.5816331
  53.7771625  41.7196518   6.5404698  53.2413815  41.1076876   6.8565465
  53.8389390  42.2944654   7.1938364  53.7067258  41.7143445   6.6840125
  59.4121012  43.4632802   2.2957078  58.6217086  43.2824262   2.6174414
  59.8081635  42.6859754   2.2787373  59.3537888  43.3220263   2.3409627
  61.9258842  45.9393061   6.7780577  61.8617983  46.8003017   6.6500714
  62.0656030  45.6225054   5.9776128  61.9374312  46.0193227   6.6408790
  66.3056633  52.7137783  12.3345028  67.1191498  52.4422931  12.4950160
  66.1451599  52.4145323  11.5305224  66.4026581  52.6292709  12.2390434
  63.5828795  43.3971440   5.2740416  63.7970764  42.7582354   4.7203770
  62.9662694  43.8417264   4.8448278  63.5234124  43.3681583   5.1290847
  65.7467883  45.0060505   6.2123723  64.9344565  44.6986395   6.2936896
  66.2057817  44.5259505   6.7766435  65.6948268  44.8896997   6.3078317
  62.9743524  36.5071375   0.2627759  62.1037081  36.4810096   0.2161068
  63.2283865  36.3348568  -0.5546395  62.8837084  36.4781519   0.1347896
  62.8421390  46.4120576  10.9952426  63.3121022  47.0362693  11.3820300
  62.8883271  45.7437552  11.5545640  62.9189266  46.4055257  11.1352497
  59.9992664  38.5177604   1.7201229  59.4831153  37.8257795   1.8452808
  59.4386593  39.1848381   1.6663828  59.8399177  38.5140861   1.7307295
  62.0684897  39.0570564   3.5494082  61.6816651  39.0819595   4.3307612
  61.5817835  38.4912242   3.0968599  61.9397406  38.9766315   3.5981986
  61.7342039  35.9437549   5.8404342  62.3635157  36.4797849   5.5625412
  61.9027902  35.8514908   6.6917907  61.8519834  36.0098912   5.9252870
  61.5355954  40.7308744   8.1130753  62.3629383  40.4593893   8.1689368
  61.5563800  41.5269586   8.4694572  61.6608804  40.8088498   8.1745936
  56.3994875  41.4318367   3.3860665  56.8596356  41.5057296   4.1235788
  56.4450981  42.2299621   3.0360486  56.4745430  41.5612514   3.4433421
  58.0478224  42.0985062   7.9532692  57.6563789  41.4518409   8.3888469
  58.2164087  42.6896497   8.5726947  58.0149135  42.0899330   8.1095398
  53.1882652  45.0607558   5.7612381  54.0508265  44.9603267   5.6749711
  52.8574435  44.4802267   5.1997953  53.2667849  44.9599184   5.6657787
  56.5484438  43.8850007   2.4222799  55.9237508  43.8968399   1.8148752
  56.2130033  44.3610182   3.0714039  56.4069930  43.9568524   2.4279368
  55.8175184  45.4943154   4.6397667  55.9768670  44.7386479   5.0449389
  55.6368077  46.0434094   5.2938405  55.8140543  45.4636968   4.7960373
  63.7595487  37.6604390   5.1948457  63.2636048  37.8568064   4.5040024
  64.5164549  38.0597058   5.0237259  63.7982311  37.7482124   5.0668594
  61.0298366  41.3346736   1.7851767  61.0540853  40.8006848   1.0964547
  61.2809840  40.8264045   2.4477358  61.0708285  41.1807640   1.7816412
  57.3099689  40.0617554   1.1657512  57.3498060  40.5626761   1.8792219
  56.4849353  40.1527948   0.8963435  57.1939214  40.1499370   1.2308050
  59.4929301  49.6278294   9.2677806  58.6424932  49.7650008   9.4035451
  59.6557429  48.8942072   9.7125508  59.3913165  49.5392395   9.3533406
  58.7314052  46.5778064   3.4631411  57.9005982  46.7451882   3.2566659
  58.6765569  46.2014015   4.2480296  58.6003467  46.5467795   3.5479939
  56.5397835  40.0686957   9.0987822  57.1650539  39.5249090   9.3717254
  56.0848315  39.5881874   8.5295612  56.5646096  39.9176438   9.0549415
  64.1088456  41.0386936   3.6583026  64.5343528  40.5859462   3.0466553
  63.4945449  40.4847007   3.9347814  64.0817101  40.8900912   3.6088052
  63.2439748  51.7739907   9.2727304  63.2035603  51.1289584   8.6872460
  64.0563067  51.7176524   9.5852716  63.3582902  51.6698874   9.2324253
  58.9317457  45.4036843   5.8277062  58.4196360  44.7958026   6.1862093
  58.7596953  46.1193436   6.2951037  58.8307094  45.4200143   5.9493285
  53.7783172  43.8474419   8.4779423  53.6085762  44.5075793   7.9327630
  53.3349122  44.0580980   9.1991913  53.6882505  43.9760401   8.5041053
  62.8086527  43.3261088   8.2679317  63.3657958  43.0974897   7.6357783
  62.4847592  44.0866754   7.9914530  62.8432938  43.4044925   8.1335814
  50.6785236  46.7521284   3.7367913  50.1311956  46.0821930   3.8548782
  51.4677615  46.3851132   3.8011381  50.7137420  46.5986271   3.7636614
  60.5269645  46.4128741   9.2331324  61.2780972  46.7280418   9.5470879
  60.7192221  46.2107912   8.4065246  60.6661059  46.4296123   9.1574720
  49.4372206  45.9642092   0.8913936  49.2593967  45.5118701   1.6168852
  49.1491228  46.7668253   1.0752414  49.3685159  46.0164650   1.0257439
  60.6695700  38.4565232   6.1027708  60.8023606  37.6596225   6.4308683
  61.0540853  38.9831635   6.6825983  60.7452029  38.4165148   6.2371211
  63.7428055  35.3795558   2.7008801  62.9374019  35.2693287   3.0176639
  63.6134791  35.4808013   1.8438667  63.6048188  35.3779228   2.6216841
  58.3284147  38.4524407   4.3505601  58.8728560  38.1115534   4.9409943
  58.3821083  39.3109868   4.4926886  58.4173266  38.5279666   4.4587475
   2.0508984  58.9002889  36.2987667   1.7362425  59.5906368  36.7308090
   1.5335926  58.8447671  35.5973168   1.9273455  58.9937778  36.2584616
   6.3423429  67.1224095  41.5808544   5.5051850  67.1926282  41.8156138
   6.3111660  67.1248590  40.7082846   6.2141712  67.1334322  41.4868092
   4.0231269  62.1866877  40.1652266   4.6657177  62.2564981  40.7514181
   4.2754290  61.5196100  39.6631808   4.1553401  62.0993225  40.1779545
   6.4612771  66.9611514  35.8964230   6.2049336  66.1491456  35.7062112
   7.3042085  66.9689081  35.6694417   6.5478797  66.8423511  35.8349047
   1.2772490  61.9433717  44.4460510   2.0226082  61.7543528  44.0323936
   0.8609794  62.4691955  43.8874367   1.3257464  61.9935863  44.3025084
   8.6534761  69.3142946  39.3966015   9.2042682  68.6811015  39.6363107
   8.6378876  69.8458339  40.0881520   8.7319957  69.2991894  39.5344874
   2.3563167  67.5539279  38.5070612   2.0127933  66.8329615  38.8577861
   2.4556209  67.3453131  37.6648970   2.3205210  67.4163483  38.4342292
   1.4683520  57.0096911  38.2454317   1.5867088  57.4673374  37.5121620
   1.2945695  56.2042172  37.9590535   1.4602691  56.9590683  38.0955251
   3.9417205  61.3881540  37.2137629   3.3291519  61.8751942  37.5991361
   4.0381380  60.7125031  37.7575280   3.8655103  61.3599849  37.3516487
   6.5369100  67.2616222  38.6810095   6.2978870  67.2212056  37.8430879
   6.7003001  68.1087374  38.8075816   6.5259403  67.3808307  38.5763577
   2.7627713  64.2793684  38.3239205   3.1155323  63.8523407  38.9985004
   1.9042514  64.1944528  38.4540282   2.6877157  64.2038425  38.4434216
   4.1951773  59.4012096  39.2523518   3.6882638  58.6941235  39.1844695
   4.9919207  59.0705285  39.3824594   4.2379012  59.2485247  39.2622513
   2.8372495  64.8978645  35.4000340   2.8366721  64.7427302  36.2584616
   2.6328675  65.7441632  35.3441725   2.8072273  64.9999266  35.5188279
   2.6611576  63.9017388  42.2193718   2.0774565  64.4026594  41.8071285
   2.9815870  63.3946944  41.5858041   2.6224751  63.9009223  42.0652225
   4.6107929  45.9140781  21.2634790   4.5801933  46.7685417  21.4353059
   5.2089277  45.6136073  21.8220934   4.6945087  45.9957277  21.3709592
   1.1201330  51.2702957  35.6248176   1.8268097  50.7754988  35.7535111
   1.3089265  51.7112039  34.8950834   1.2529236  51.2621308  35.5357222
   2.4324503  48.4893083  19.5353100   2.3164029  49.2400769  19.9645238
   3.2280390  48.2317036  19.7849187   2.5329093  48.5627930  19.6357191
   1.7459808  35.8381020  23.2327714   1.4313249  36.5284499  23.6648137
   1.2286750  35.7825803  22.5313215   1.6224279  35.9315909  23.1924663
   6.5420295  51.4131826  24.7198169   5.7117998  51.6242469  24.8831586
   6.4929547  50.5868880  24.4440453   6.4127030  51.3221432  24.7035535
   6.0374253  44.0602226  28.5148591   5.2002674  44.1304413  28.7496185
   6.0062484  44.0626721  27.6422893   5.9092536  44.0712453  28.4208139
   0.7604439  48.2557903  24.1060482   1.5161954  48.6889417  24.1449391
   0.8666763  47.6062673  24.6795118   0.8874609  48.2235387  24.1958508
   3.7984610  52.0831180  24.8562885   3.3619842  52.0867923  25.6121856
   3.4647525  52.7636679  24.4242462   3.6847230  52.1843636  24.9043718
   3.7182093  39.1245008  27.0992313   4.3608001  39.1943113  27.6854228
   3.9705114  38.4574231  26.5971855   3.8504225  39.0371357  27.1119592
   6.9328956  48.8012100  23.7482522   7.5945390  48.2402768  23.6478431
   6.2920368  48.3064131  24.0735213   6.9357824  48.6448509  23.7814862
   3.2193787  49.8177482  23.4894511   3.4549376  49.9622681  22.6621362
   3.3683351  50.5819890  23.8826025   3.2759590  49.9516537  23.4258115
   5.0484244  48.6579148  21.3264115   5.3792461  49.1906788  20.7204210
   5.6217332  48.7118036  21.9826066   5.1817923  48.7448717  21.3341897
   6.1563595  43.8989645  22.8304276   5.9000160  43.0869587  22.6402159
   6.9992909  43.9067212  22.6034464   6.2429621  43.7801643  22.7689094
   3.8388754  51.0539241  32.6662829   3.6027392  50.2227306  32.5474890
   4.4831983  51.0024848  33.2517673   3.8983425  50.9236929  32.7348723
   4.8625175  50.8383690  28.7291124   4.5570992  51.5711747  29.0904439
   4.1431391  50.4321620  28.4483910   4.7112517  50.8865423  28.7404261
  10.5626967  47.4776691  28.0559468  10.4951468  47.4972650  27.1862054
  10.5482630  48.3207018  28.2815138  10.5505724  47.6050425  27.9611945
   8.3485585  46.2521077  26.3306062   8.8993506  45.6189146  26.5703154
   8.3329700  46.7836470  27.0221566   8.4270781  46.2370025  26.4684920
   2.0513991  44.4917411  25.4410658   1.7078757  43.7707746  25.7917908
   2.1507033  44.2831262  24.5989017   2.0156034  44.3541614  25.3682338
   2.5127020  50.9543115  20.9834647   3.0785053  51.6136325  20.8993189
   1.8654923  51.2992813  21.4551049   2.5005776  51.1025056  21.0407403
   4.4462480  47.6176982  24.6031443   4.3596455  47.7732408  25.4566222
   3.9912960  48.2615058  24.2290848   4.3665737  47.7352737  24.6738550
   2.2136345  51.6471089  27.0143784   2.0750704  52.3452134  27.5192526
   1.4336343  51.4919745  26.6579966   2.0779572  51.7271255  27.0370058
   3.7089718  51.0049342  17.7760283   3.3296526  50.2186480  17.7689572
   3.0455963  51.5536199  17.6331927   3.5548193  50.9694166  17.7541080
   1.1634344  33.9475042  25.1794364   1.2817912  34.4051505  24.4461667
   0.9896519  33.1420303  24.8930581   1.1553515  33.8968814  25.0295298
   1.9549817  53.2494833  18.1111969   2.0369654  54.0561820  17.7873420
   2.4399559  53.2690793  18.8352742   2.0386974  53.3715496  18.1698867
   1.4625017  52.0092252  38.1930295   2.2759882  51.7377400  38.3535427
   1.3019983  51.7099792  37.3890491   1.5594965  51.9247178  38.0975701
   1.4746261  53.0698542  33.4653135   2.1125981  52.5758738  33.1315591
   0.8320352  52.9975942  32.8805362   1.4740487  52.9857550  33.3295490
   3.2003261  44.9187688  28.0319051   2.7730869  44.8314036  27.2767150
   2.5629314  45.0265463  28.6173895   3.0432868  44.9220348  28.0064492
   1.5300517  53.7618350  30.1058492   2.3192896  53.4107415  30.2260574
   1.7044115  54.5754739  29.8435126   1.6720799  53.8304207  30.0846360
   3.6368029  38.3259671  24.1477676   3.0242343  38.8130073  24.5331408
   3.7332204  37.6503162  24.6915327   3.5605927  38.2977980  24.2856534
   7.2793057  49.3976608  29.5755192   7.3376181  49.8463257  30.3215169
   6.6459525  49.8075421  29.1385272   7.1944352  49.5250343  29.6207740
   4.2314737  47.4192896  27.6620882   3.9912960  46.5799311  27.6663309
   4.7106744  47.4993062  28.3861656   4.2666920  47.3074295  27.7695685
   6.2319924  44.1994353  25.6150141   5.9929694  44.1590187  24.7770926
   6.3953825  45.0465505  25.7415863   6.2210227  44.3186438  25.5103623
   2.8365954  48.5844302  31.5455187   3.5600153  48.1316829  31.3666207
   2.5715916  48.8648968  30.7627514   2.9047227  48.5595271  31.4033902
   5.2701268  47.5470713  30.0485736   5.8619108  48.1867964  30.0803934
   5.7060262  46.8493750  30.3377803   5.4219699  47.5389063  30.0966569
   2.2950409  44.7615932  22.3488879   1.6241599  45.3045634  22.2201944
   2.9890159  45.2310787  22.1070574   2.2979277  44.9114203  22.2944407
   2.4578537  41.2171815  25.2579252   2.8106147  40.7901538  25.9325051
   1.5993338  41.1322659  25.3880328   2.3827981  41.1416556  25.3774263
   3.8902597  36.3390227  26.1863565   3.3833461  35.6319367  26.1184742
   4.6870031  36.0083416  26.3164641   3.9329836  36.1863378  26.1962560
   6.0922737  50.8555154  19.1704429   6.4756343  51.6046510  19.4002526
   5.2966850  51.1020973  18.9116418   6.0316519  51.0024847  19.1662003
   2.5323319  41.8356777  22.3340387   2.5317545  41.6805433  23.1924663
   2.3279499  42.6819764  22.2781772   2.5023097  41.9377397  22.4528326
   2.3215990  49.2657966  28.6753722   2.7471061  48.7432388  28.1224147
   1.9572910  49.8638803  28.1542345   2.3302592  49.2768193  28.5162732
   0.9971574  54.5893544  37.1846952   1.1068539  53.8002104  37.5403699
   1.3262470  54.4999480  36.3821290   1.0623980  54.4599396  37.1189343
   2.3562400  40.8395519  29.1533765   1.7725389  41.3404725  28.7411332
   2.6766694  40.3325075  28.5198088   2.3175575  40.8387354  28.9992272
  15.5840512  61.4326089  21.2634790  15.5534517  62.2870725  21.4353059
  16.1821861  61.1321381  21.8220934  15.6677670  61.5142585  21.3709592
   8.7840197  60.5201740  26.0187720   7.9278093  60.6810238  26.0696837
   8.8307851  59.6493804  26.0392781   8.6639308  60.4152542  26.0293786
  12.0933914  66.7888265  35.6248176  12.8000681  66.2940296  35.7535111
  12.2821849  67.2297347  34.8950834  12.2261819  66.7806616  35.5357222
  11.6292018  62.5793784  28.6619372  12.1747978  63.2578870  28.7213342
  11.5708894  62.4381244  27.8020954  11.7007932  62.6585785  28.5431433
  13.4057087  64.0078391  19.5353100  13.2896613  64.7586077  19.9645238
  14.2012973  63.7502344  19.7849187  13.5061676  64.0813238  19.6357191
   7.3389120  59.9988409  20.9056829   8.0369285  60.1776536  21.3978292
   7.6541453  59.4758748  20.2827218   7.4884457  59.9482181  20.8858839
   7.5277056  66.3858854  20.8936620   7.9670691  65.7775954  21.3391393
   7.3781719  66.0066227  20.1222085   7.5698521  66.2397325  20.8455788
   4.9948699  64.9802866  28.0955446   5.6397701  64.4875309  27.7766394
   5.2350476  65.1227652  28.9221524   5.1259284  64.9280308  28.1704979
   7.5334790  67.8257771  27.7462338   7.8158033  67.0309177  27.5249094
   8.2620950  68.3038359  27.7667399   7.6824354  67.7792368  27.7165354
   5.5115984  55.3680805  24.9878104   5.1819314  55.8191949  24.3181802
   4.8360986  55.2896969  25.5351110   5.3626420  55.4231941  24.9701327
  11.1286392  64.7386035  17.8467390  11.0437687  65.5947002  17.9916958
  11.6170775  64.4630359  18.5149549  11.1875290  64.8243356  17.9669471
  12.7192392  51.3566328  23.2327714  12.4045833  52.0469807  23.6648137
  12.2019333  51.3011110  22.5313215  12.5956862  51.4501217  23.1924663
  12.0604825  61.3570829  19.3465125  11.5316297  61.5730463  20.0062431
  12.5829845  62.0506968  19.2666094  12.0593278  61.4913966  19.4320724
  17.5152878  66.9317134  24.7198169  16.6850581  67.1427777  24.8831586
  17.4662131  66.1054188  24.4440453  17.3859614  66.8406740  24.7035535
   9.2326208  70.2115802  33.5162252   9.3209554  70.0241942  34.3640462
   9.6615920  69.5653231  33.1167099   9.3088310  70.0878810  33.5834003
   8.4081648  61.4999698  16.6241513   8.6477651  61.7077682  15.8116856
   8.7297489  60.6957207  16.7330458   8.4918806  61.4113799  16.5202066
   3.7171938  53.4293094  20.4701051   4.4717906  53.7971411  20.2318101
   3.5399473  53.8032648  21.2380231   3.8026416  53.5391282  20.5485940
  17.0106837  59.5787534  28.5148591  16.1735258  59.6489721  28.7496185
  16.9795068  59.5812029  27.6422893  16.8825119  59.5897761  28.4208139
   3.4071566  61.7220570  34.2296959   3.5792069  61.6126465  35.0782241
   3.9440923  62.3674975  33.9928151   3.5116570  61.8012572  34.3202056
   2.0729003  55.8363413  17.1679164   1.8904576  56.0535294  16.3420157
   2.9354616  55.9502425  17.2237779   2.1733592  55.8853311  17.0533651
   7.7528722  52.8389823  20.2028188   8.4814882  52.6605778  19.7566344
   7.8423615  53.6807903  20.4135366   7.8735384  52.9373702  20.1681706
  11.7337022  63.7743211  24.1060482  12.4894538  64.2074725  24.1449391
  11.8399347  63.1247981  24.6795118  11.8607193  63.7420695  24.1958508
  14.7717194  67.6016488  24.8562885  14.3352425  67.6053230  25.6121856
  14.4380109  68.2821987  24.4242462  14.6579814  67.7028944  24.9043718
   9.3446267  69.6424821  36.1806035  10.1286684  69.7555669  36.5461777
   9.1442862  68.8165958  36.3764721   9.4312293  69.5371540  36.2640421
  14.6914676  54.6430316  27.0992313  15.3340585  54.7128420  27.6854228
  14.9437697  53.9759539  26.5971855  14.8236809  54.5556665  27.1119592
   2.4631889  57.8530879  31.7116887   1.7703686  57.3827859  31.9577618
   3.0792216  57.6269184  32.2858594   2.4516419  57.7498011  31.8326039
  17.9061540  64.3197408  23.7482522  18.5677974  63.7588076  23.6478431
  17.2652952  63.8249439  24.0735213  17.9090407  64.1633817  23.7814862
  14.1926371  65.3362790  23.4894511  14.4281960  65.4807989  22.6621362
  14.3415934  66.1005198  23.8826025  14.2492174  65.4701845  23.4258115
   1.1872448  61.8196283  32.8543732   1.9112420  61.8049314  33.3408627
   1.2888585  62.5291638  32.3565700   1.3090657  61.9220986  32.8522519
  16.0216827  64.1764456  21.3264115  16.3525044  64.7092096  20.7204210
  16.5949915  64.2303344  21.9826066  16.1550506  64.2634025  21.3341897
   8.5617397  65.2995368  37.7192679   7.7690378  65.6138880  37.9045299
   8.6766325  65.5146836  36.8813464   8.4612808  65.3779205  37.6231014
  11.2348716  62.0229359  22.0087695  11.3295571  62.7618653  22.4627320
  10.6107560  61.5946834  22.4422259  11.1557746  62.0690680  22.1395842
   9.4901190  65.2015572  32.6577976  10.0640052  64.5642816  32.8126540
   9.4115994  65.2019654  31.7887633   9.5634425  65.1080683  32.5524387
  11.4871738  63.8678099  15.2424647  11.4051900  63.9380286  16.1079634
  12.1251458  64.4307843  15.0508388  11.5691575  63.9617070  15.3414596
   4.8464909  63.6338837  24.7099173   4.5884153  62.8010572  24.6830473
   4.9013392  63.8596450  23.8691674   4.8164687  63.5436608  24.5819310
   9.9265959  55.7367287  24.8103266   9.2222286  55.2476473  24.9687185
   9.9750933  55.7489762  23.9391710   9.8296011  55.6656935  24.7042606
   3.8199621  61.1876599  25.1964068   3.2449212  61.3468768  25.8328029
   3.4435297  60.5512008  24.7332519   3.6802433  61.1174412  25.2218626
   7.4872910  59.6599948  30.0556446   7.0987342  59.2354166  29.4008638
   6.8227608  59.9082098  30.5633473   7.3319837  59.6338670  30.0344314
  17.1296179  59.4174953  22.8304276  16.8732744  58.6054895  22.6402159
  17.9725493  59.4252520  22.6034464  17.2162204  59.2986951  22.7689094
  11.3099271  53.3574577  27.5680431  11.6909783  52.6752748  27.9548305
  10.5062555  53.0684179  27.3856095  11.2475733  53.2141626  27.5984487
   8.5911848  63.8898553  18.2533253   9.4052487  64.1813446  18.1416025
   8.5270989  63.2358415  17.6791546   8.7014587  63.8363748  18.1522091
  14.8121338  66.5724549  32.6662829  14.5759975  65.7412614  32.5474890
  15.4564567  66.5210156  33.2517673  14.8716009  66.4422237  32.7348723
   4.4619756  67.3620070  23.3805565   5.0993703  67.1231818  23.9257359
   4.8874828  67.5657229  22.6458726   4.6195922  67.3571081  23.3522723
   5.2691112  55.8628775  37.4343039   4.9544553  56.6328338  37.1712602
   4.9481044  55.2999031  36.8495266   5.1750031  55.8939044  37.3084389
  15.8357759  66.3568998  28.7291124  15.5303576  67.0897055  29.0904439
  15.1163974  65.9506927  28.4483910  15.6845101  66.4050731  28.7404261
   6.8441228  67.8392493  25.0599352   6.9180236  67.6767665  25.9141202
   7.6610734  68.0282683  24.8159833   6.9757587  67.8429235  25.1497377
  21.5359551  62.9961999  28.0559468  21.4684051  63.0157958  27.1862054
  21.5215213  63.8392326  28.2815138  21.5238307  63.1235733  27.9611945
   2.8223009  54.2519297  23.0489235   1.9545434  54.3241896  23.1146845
   3.1098213  55.0541376  23.2377210   2.7362757  54.3813444  23.0864002
  11.9455897  54.3997156  31.3800557  12.6909489  54.2106967  30.9663983
  11.5293202  54.9255394  30.8214414  11.9940872  54.4499302  31.2365130
  19.3218168  61.7706385  26.3306062  19.8726090  61.1374454  26.5703154
  19.3062284  62.3021778  27.0221566  19.4003365  61.7555333  26.4684920
   5.9740559  65.6044982  30.8765956   5.4752253  66.3160750  30.9550844
   6.7840783  65.9245649  30.8384118   6.0196666  65.7571831  30.8822524
   2.2368677  64.8667935  25.1228677   1.9481925  64.2405406  25.6574404
   3.1052025  64.8088223  25.1893357   2.3228929  64.7655479  25.2119631
  13.0246574  60.0102718  25.4410658  12.6811340  59.2893054  25.7917908
  13.1239617  59.8016570  24.5989017  12.9888617  59.8726922  25.3682338
  13.4859603  66.4728423  20.9834647  14.0517636  67.1321632  20.8993189
  12.8387507  66.8178121  21.4551049  13.4738360  66.6210364  21.0407403
   4.9007617  58.4626027  36.1728254   4.0907393  58.7683806  36.0618096
   5.3782304  59.1831609  36.2880838   4.8511096  58.6140628  36.1735325
   3.7599177  67.6771747  26.4211157   3.2379930  67.8172039  27.1063022
   4.1473197  66.9182412  26.6113274   3.7402877  67.5857271  26.5512233
   9.9566182  69.4167207  20.4071726   9.7152857  68.6835067  19.9998791
  10.1367514  69.9654064  19.7538059   9.9473806  69.3889598  20.2501949
   5.1865502  64.7075767  21.8192648   4.9908285  65.3150501  21.2252951
   5.4099848  64.0143711  21.3384322   5.1900143  64.6953292  21.6608729
   3.5844032  61.5930504  21.9373516   4.3066684  61.7571663  21.4777322
   3.1052025  62.3140169  21.8312856   3.6207763  61.7228734  21.8539130
  11.5437540  57.9294303  27.3170201  10.7048640  57.9555582  27.0808465
  11.6141907  58.5765039  27.8975548  11.4305933  58.0290429  27.3679318
   1.2351649  63.9988577  31.0427656   1.7472746  64.2772830  30.3936416
   0.9487992  64.7377871  31.4090469   1.2686512  64.1490931  31.0017534
   9.9906818  54.8279680  22.0497817  10.6933171  54.6287429  21.5717775
   9.7251007  54.0555623  22.3566661  10.0553450  54.6842646  22.0243259
  15.4195064  63.1362290  24.6031443  15.3329038  63.2917716  25.4566222
  14.9645544  63.7800366  24.2290848  15.3398320  63.2538045  24.6738550
   4.7535374  56.0914965  31.1028698   4.5618571  56.1070100  31.9528121
   5.6033970  56.2878640  31.0795353   4.8511096  56.1229317  31.2251993
   9.2920880  60.4573037  23.2257003   9.0455594  60.3768788  24.0593791
   9.6206003  59.6726505  23.0319530   9.3042123  60.3299302  23.3204526
  13.1868928  67.1656396  27.0143784  13.0483288  67.8637442  27.5192526
  12.4068926  67.0105053  26.6579966  13.0512155  67.2456563  27.0370058
  11.5247014  63.4652772  33.2666165  11.5195052  62.5932588  33.2708592
  12.2308007  63.6640941  32.7935621  11.6292018  63.3656646  33.1973201
   7.4237824  62.3919924  30.4205117   6.6761138  62.5850938  30.0153395
   7.5779350  61.5665144  30.1829239   7.3360252  62.2985035  30.3250523
  14.6822301  66.5234650  17.7760283  14.3029110  65.7371788  17.7689572
  14.0188547  67.0721507  17.6331927  14.5280776  66.4879474  17.7541080
   7.6639601  56.2870475  31.3100521   8.1212215  57.0194449  31.4373313
   7.7395930  55.8636940  32.0687777   7.7430571  56.3327713  31.4401597
  12.1366927  49.4660350  25.1794364  12.2550495  49.9236813  24.4461667
  11.9629103  48.6605611  24.8930581  12.1286098  49.4154122  25.0295298
   5.5421979  58.2772579  28.1542345   4.7518054  58.0964039  28.4759681
   5.9382602  57.4999531  28.1372639   5.4838855  58.1360040  28.1994893
  10.9265666  65.9115009  25.8801791  10.2510667  65.6800241  26.3815178
  10.9358042  65.3036192  25.2543896  10.8284170  65.7873934  25.8617943
   8.0559810  60.7532838  32.6365844   7.9918951  61.6142794  32.5085981
   8.1956997  60.4364831  31.8361395   8.0675280  60.8333004  32.4994057
  12.9282400  68.7680141  18.1111969  13.0102238  69.5747127  17.7873420
  13.4132142  68.7876100  18.8352742  13.0119558  68.8900804  18.1698867
   6.7378903  63.4464977  26.7782047   6.3141153  63.6469476  26.0421065
   6.5623759  62.5993825  26.8906347   6.6489784  63.3513759  26.6855737
   2.0261348  63.9417029  22.2110019   2.1825968  63.8763831  23.0666011
   2.3661942  64.7165581  21.9988699   2.0994583  64.0466227  22.3064613
   8.5640493  63.3174912  21.0803383   9.1056038  62.8145293  21.5442003
   8.8787052  63.2640107  20.2692868   8.6904890  63.2354333  21.0287195
  12.4357600  67.5277560  38.1930295  13.2492466  67.2562708  38.3535427
  12.2752567  67.2285100  37.3890491  12.5327549  67.4432486  38.0975701
   9.7129762  58.2111217  31.1325683   9.9271732  57.5722131  30.5789037
   9.0963662  58.6557041  30.7033545   9.6535092  58.1821360  30.9876114
  11.8768850  59.8200282  32.0708990  11.0645532  59.5126172  32.1522163
  12.3358785  59.3399282  32.6351702  11.8249235  59.7036774  32.1663584
  11.2874105  67.6979954  22.5185934  10.9288760  67.8694597  23.2949967
  10.8012816  68.1593160  21.9613933  11.1632802  67.7918925  22.5511204
   9.1044491  51.3211152  26.1213026   8.2338049  51.2949873  26.0746335
   9.3584832  51.1488345  25.3038871   9.0138051  51.2921296  25.9933163
   8.9722358  61.2260353  36.8537692   9.4421989  61.8502470  37.2405567
   9.0184238  60.5577329  37.4130907   9.0490234  61.2195034  36.9937764
   6.1293632  53.3317381  27.5786496   5.6132120  52.6397572  27.7038075
   5.5687560  53.9988158  27.5249095   5.9700145  53.3280638  27.5892562
   8.1985865  53.8710341  29.4079349   7.8117618  53.8959372  30.1892879
   7.7118802  53.3052019  28.9553865   8.0698374  53.7906092  29.4567252
  12.4478844  68.5883850  33.4653135  13.0858565  68.0944045  33.1315591
  11.8052936  68.5161250  32.8805362  12.4473071  68.5042858  33.3295490
  14.1735844  60.4372996  28.0319051  13.7463453  60.3499344  27.2767150
  13.5361897  60.5450771  28.6173895  14.0165452  60.4405656  28.0064492
   7.8643007  50.7577326  31.6989609   8.4936125  51.2937626  31.4210679
   8.0328869  50.6654685  32.5503174   7.9820801  50.8238689  31.7838137
   7.6656922  55.5448521  33.9716020   8.4930351  55.2733670  34.0274635
   7.6864768  56.3409363  34.3279838   7.7909772  55.6228275  34.0331203
  12.5033101  69.2803658  30.1058492  13.2925479  68.9292723  30.2260574
  12.6776699  70.0940047  29.8435126  12.6453383  69.3489515  30.0846360
   2.2426411  62.6912384  27.1586281   1.4014418  62.5916258  27.3665175
   2.4516419  63.4607864  27.5100602   2.1491104  62.7904427  27.2413596
  11.3566925  53.2913215  24.6674910  11.5616519  53.2235523  25.5131908
  11.0293349  54.0972036  24.5996088  11.3382173  53.3999155  24.7834566
   6.0543076  60.6193783  26.4083878   5.7506214  60.0649771  27.0094286
   5.3522497  60.7985993  25.9211913   5.9059286  60.5638565  26.4253584
   5.1109173  57.9294303  20.9728580   5.3868908  57.2113215  20.5606148
   5.7107843  58.5279223  20.7649686   5.2402438  57.9114674  20.8809341
  14.6100613  53.8444979  24.1477676  13.9974926  54.3315381  24.5331408
  14.7064788  53.1688470  24.6915327  14.5338511  53.8163288  24.2856534
   8.6119694  55.6007820  19.2475175   9.0663440  55.7718381  19.9723020
   9.0859740  54.9875931  18.8472951   8.7488014  55.5358705  19.2948937
   2.1335219  65.0856146  28.5777914   1.5423153  65.7265644  28.5480929
   2.8956243  65.5093763  28.5509213   2.1583480  65.2431985  28.5693061
   2.5295842  56.2458144  29.2445931   2.9897324  56.3197073  29.9821055
   2.5751949  57.0439398  28.8945753   2.6046397  56.3752291  29.3018688
   4.1779192  56.9124839  33.8117959   3.7864757  56.2658186  34.2473736
   4.3465055  57.5036274  34.4312214   4.1450102  56.9039107  33.9680664
  18.2525641  64.9161916  29.5755192  18.3108765  65.3648565  30.3215169
  17.6192108  65.3260729  29.1385272  18.1676936  65.0435650  29.6207740
  11.8924736  70.5365458  26.0109938  11.6944424  71.0256272  25.3166150
  11.2712447  70.7406699  26.5894072  11.7712300  70.6381996  25.9933162
   5.9532714  62.3050355  20.3520183   6.6974759  62.6924631  20.5903132
   6.0993410  61.4607780  20.5160670   6.0843299  62.2380827  20.4114152
   7.8712289  54.1000613  25.3852044   7.0248334  54.2723421  25.2593394
   7.8683422  53.2949957  25.7217872   7.7459439  54.0061642  25.4163171
   8.9410590  57.8775828  26.2514102   8.4670544  57.3517590  26.7619413
   9.3128726  57.3305301  25.6828963   8.9260479  57.7191824  26.2429249
  15.2047320  62.9378204  27.6620882  14.9645543  62.0984619  27.6663309
  15.6839327  63.0178370  28.3861656  15.2399504  62.8259603  27.7695685
  10.8694089  58.7712382  19.3139856  10.3417108  58.8541126  18.6245565
  11.3289798  59.5130254  19.3104500  10.8595940  58.8933045  19.2114551
  17.2052507  59.7179661  25.6150141  16.9662277  59.6775495  24.7770926
  17.3686409  60.5650813  25.7415863  17.1942811  59.8371746  25.5103623
  13.8098537  64.1029610  31.5455187  14.5332736  63.6502136  31.3666207
  13.5448500  64.3834276  30.7627514  13.8779811  64.0780579  31.4033902
   2.6785406  58.6989784  28.2808066   2.0538476  58.7108176  27.6734019
   2.3431001  59.1749959  28.9299306   2.5370898  58.7708301  28.2864634
  10.4231172  67.3415946  18.4449513  11.1465371  67.8074059  18.3014086
   9.9831763  67.4089556  17.6947110  10.4646864  67.4199783  18.3134294
   9.5917327  64.2013488  29.6950202   8.9774320  63.6571539  29.9898837
  10.1084612  63.6877725  29.2156018   9.5772989  64.0449897  29.6674430
   8.8313624  65.2717758  27.4294500   8.4041232  64.6467477  26.9959936
   8.8238569  64.9892680  28.2553508   8.7672765  65.1370539  27.4874328
   1.9476151  60.3082931  30.4982934   2.1069638  59.5526256  30.9034656
   1.7669045  60.8573871  31.1523672   1.9441510  60.2776745  30.6545640
   9.8896454  52.4744167  31.0533724   9.3937015  52.6707841  30.3625291
  10.6465516  52.8736835  30.8822525   9.9283279  52.5621901  30.9253861
   7.1599334  56.1486513  27.6437034   7.1841821  55.6146625  26.9549814
   7.4110807  55.6403822  28.3062625   7.2009253  55.9947417  27.6401679
   3.4400656  54.8757331  27.0242779   3.4799028  55.3766538  27.7377486
   2.6150321  54.9667725  26.7548702   3.3240182  54.9639147  27.0893317
   5.6230269  64.4418071  35.1263073   4.7725899  64.5789785  35.2620718
   5.7858397  63.7081849  35.5710775   5.5214132  64.3532172  35.2118672
   4.8615019  61.3917841  29.3216678   4.0306949  61.5591659  29.1151926
   4.8066537  61.0153792  30.1065563   4.7304434  61.3607572  29.4065206
   2.6698803  54.8826734  34.9573088   3.2951506  54.3388867  35.2302521
   2.2149283  54.4021651  34.3880879   2.6947063  54.7316215  34.9134682
   3.2351063  59.6673432  19.8506795   3.3754024  60.1645897  20.5535437
   3.7333596  58.9659727  19.9921009   3.3292144  59.6375411  19.9758374
  16.2433851  63.0656021  30.0485736  16.8351692  63.7053272  30.0803934
  16.6792846  62.3679058  30.3377803  16.3952283  63.0574371  30.0966569
   4.8430269  56.4654519  17.1544814   5.1646110  55.9857601  16.5004076
   5.1057212  57.2754165  16.9635626   4.9296294  56.5144417  17.0300306
   8.0727241  67.4873393  30.6743630   7.5652332  68.0409240  31.1184261
   7.7753887  67.5481683  29.8562405   7.9532126  67.5779704  30.6192087
  10.2389424  55.8526713  29.5168293  10.6644495  55.3999239  28.9051820
   9.6246417  55.2986784  29.7933081  10.2118069  55.7040689  29.4673319
   8.6783646  52.3241813  22.9258870   8.0351964  52.1739459  23.4944009
   8.3383053  52.0784158  22.1607975   8.5328724  52.2653935  22.8961885
  13.2682993  60.2801239  22.3488879  12.5974183  60.8230942  22.2201944
  13.9622743  60.7496095  22.1070574  13.2711860  60.4299511  22.2944407
  13.4311120  56.7357123  25.2579252  13.7838730  56.3086846  25.9325051
  12.5725922  56.6507967  25.3880328  13.3560565  56.6601864  25.3774263
   2.1294805  59.3664643  23.3162099   1.4106794  59.7828775  23.5834962
   2.5007168  59.9318882  22.7653737   2.0786737  59.5113924  23.2744906
  11.4294386  59.9992492  29.2064094  11.4092313  59.8175787  30.0598873
  11.4773587  60.8704510  29.1823678  11.4329027  60.1009030  29.3287389
   9.3740716  66.5879684  35.1312571   9.3336571  65.9429361  34.5457727
  10.1864034  66.5316301  35.4437983   9.4883869  66.4838651  35.0909520
   7.9041380  58.4062643  18.6535478   7.3106219  58.7279639  18.1020045
   7.9416657  57.5603738  18.4456584   7.8215769  58.3286971  18.5418249
  14.8635180  51.8575535  26.1863565  14.3566045  51.1504675  26.1184742
  15.6602614  51.5268724  26.3164641  14.9062420  51.7048686  26.1962560
  10.7799196  58.3642147  22.0837228  10.5512889  58.3874849  21.2415587
  11.0397272  57.5399614  22.2032239  10.7845384  58.2458227  21.9762426
   5.0618425  60.2176620  31.6862329   4.5497328  59.6097803  32.0447360
   4.8897921  60.9333213  32.1536304   4.9608062  60.2339920  31.8078552
   3.8343959  56.9018694  23.3791424   4.3101325  57.2635773  22.7441605
   3.3332558  57.5575161  23.6591567   3.8309318  57.0512882  23.3268165
  17.0655320  66.3740462  19.1704429  17.4488926  67.1231818  19.4002526
  16.2699434  66.6206281  18.9116418  17.0049103  66.5210155  19.1662003
   8.9387495  58.1400865  34.1264584   9.4958925  57.9114674  33.4943050
   8.6148560  58.9006531  33.8499796   8.9733905  58.2184702  33.9921081
   6.6570612  61.2268518  35.0916591   7.4081939  61.5420195  35.4056145
   6.8493189  61.0247689  34.2650513   6.7962026  61.2435900  35.0159987
   5.8770612  59.0459893  16.7464808   6.2569577  59.0639522  15.9615923
   5.1363208  59.4913882  16.6255655   5.8239450  59.1141668  16.6128376
  13.5055902  57.3542084  22.3340387  13.5050129  57.1990741  23.1924663
  13.3012082  58.2005072  22.2781772  13.4755680  57.4562705  22.4528326
  11.2296754  62.0339586  25.9876593  11.7250420  61.3162581  25.9480614
  10.4196530  61.7310384  25.8731080  11.1840648  61.8837233  25.9650319
  13.2948573  64.7843274  28.6753722  13.7203645  64.2617696  28.1224147
  12.9305493  65.3824111  28.1542345  13.3035176  64.7953501  28.5162732
   9.8827173  68.4977538  25.0054880  10.3538351  69.2117801  25.1744865
  10.2187351  67.8976288  25.5414749  10.0022288  68.5149002  25.1087256
  11.9704157  70.1078851  37.1846952  12.0801123  69.3187412  37.5403699
  12.2995054  70.0184788  36.3821290  12.0356563  69.9784704  37.1189343
   6.7996668  53.2705009  31.9612975   6.9324573  52.4736002  32.2893950
   7.1841820  53.7971412  32.5411250   6.8752997  53.2304925  32.0956477
  10.5201119  68.2895472  31.7682572   9.9722065  67.6653356  31.5002638
  10.9814148  68.4789744  31.0526652  10.5068329  68.2254522  31.6233003
   9.8729023  50.1935335  28.5594068   9.0674987  50.0833064  28.8761906
   9.7435758  50.2947790  27.7023934   9.7349156  50.1919005  28.4802108
  13.3294983  56.3580827  29.1533765  12.7457972  56.8590033  28.7411332
  13.6499278  55.8510383  28.5198088  13.2908159  56.3572662  28.9992272
   5.8689783  55.2721421  19.4292439   6.6905477  55.4419734  19.1874134
   5.4059433  55.4268682  18.7058737   5.9220945  55.3203154  19.2864084
   4.4585114  53.2664184  30.2090868   5.0029527  52.9255311  30.7995210
   4.5122050  54.1249645  30.3512153   4.5474234  53.3419443  30.3172742
  10.0859445  69.2946545  28.2991914  10.9057819  69.1509511  28.5608209
   9.8053523  69.9192744  28.8408351  10.1656189  69.3656897  28.4179853
  16.4848567  70.8866113  24.9878104  16.1551897  71.3377257  24.3181802
  15.8093569  70.8082277  25.5351110  16.3359004  70.9417248  24.9701327
  23.6924975  66.8751636  23.2327714  23.3778416  67.5655115  23.6648137
  23.1751917  66.8196418  22.5313215  23.5689446  66.9686525  23.1924663
  14.6904522  68.9478402  20.4701051  15.4450490  69.3156719  20.2318101
  14.5132056  69.3217956  21.2380231  14.7759000  69.0576590  20.5485940
  27.9839420  75.0972842  28.5148591  27.1467841  75.1675029  28.7496185
  27.9527651  75.0997337  27.6422893  27.8557703  75.1083069  28.4208139
  13.0461586  71.3548721  17.1679164  12.8637159  71.5720601  16.3420157
  13.9087199  71.4687733  17.2237779  13.1466176  71.4038619  17.0533651
  18.7261305  68.3575131  20.2028188  19.4547466  68.1791086  19.7566344
  18.8156198  69.1993211  20.4135366  18.8467967  68.4559010  20.1681706
  25.6647260  70.1615624  27.0992313  26.3073169  70.2313728  27.6854228
  25.9170281  69.4944847  26.5971855  25.7969392  70.0741972  27.1119592
  20.8998543  71.2552595  24.8103266  20.1954869  70.7661781  24.9687185
  20.9483517  71.2675070  23.9391710  20.8028594  71.1842243  24.7042606
  28.1028762  74.9360261  22.8304276  27.8465327  74.1240203  22.6402159
  28.9458076  74.9437828  22.6034464  28.1894788  74.8172259  22.7689094
  22.2831855  68.8759885  27.5680431  22.6642366  68.1938056  27.9548305
  21.4795139  68.5869487  27.3856095  22.2208316  68.7326934  27.5984487
  16.2423695  71.3814083  37.4343039  15.9277136  72.1513646  37.1712602
  15.9213628  70.8184339  36.8495266  16.1482614  71.4124352  37.3084389
  13.7955592  69.7704605  23.0489235  12.9278018  69.8427204  23.1146845
  14.0830796  70.5726684  23.2377210  13.7095340  69.8998752  23.0864002
  22.9188481  69.9182464  31.3800557  23.6642073  69.7292275  30.9663983
  22.5025785  70.4440702  30.8214414  22.9673455  69.9684610  31.2365130
  23.9979158  75.5288026  25.4410658  23.6543924  74.8078362  25.7917908
  24.0972200  75.3201878  24.5989017  23.9621201  75.3912230  25.3682338
  22.5170123  73.4479611  27.3170201  21.6781224  73.4740890  27.0808465
  22.5874491  74.0950347  27.8975548  22.4038517  73.5475737  27.3679318
  20.9639402  70.3464988  22.0497817  21.6665754  70.1472737  21.5717775
  20.6983590  69.5740931  22.3566661  21.0286034  70.2027954  22.0243259
  15.7267958  71.6100273  31.1028698  15.5351155  71.6255408  31.9528121
  16.5766554  71.8063948  31.0795353  15.8243680  71.6414625  31.2251993
  18.6372185  71.8055783  31.3100521  19.0944799  72.5379757  31.4373313
  18.7128514  71.3822248  32.0687777  18.7163155  71.8513021  31.4401597
  23.1099511  64.9845658  25.1794364  23.2283079  65.4422121  24.4461667
  22.9361687  64.1790919  24.8930581  23.1018682  64.9339430  25.0295298
  20.0777075  66.8396460  26.1213026  19.2070633  66.8135181  26.0746335
  20.3317416  66.6673652  25.3038871  19.9870635  66.8106604  25.9933163
  17.1026215  68.8502689  27.5786496  16.5864704  68.1582880  27.7038075
  16.5420144  69.5173466  27.5249095  16.9432728  68.8465946  27.5892562
  19.1718449  69.3895649  29.4079349  18.7850202  69.4144680  30.1892879
  18.6851386  68.8237327  28.9553865  19.0430957  69.3091400  29.4567252
  18.8375590  66.2762634  31.6989609  19.4668708  66.8122934  31.4210679
  19.0061453  66.1839993  32.5503174  18.9553385  66.3423997  31.7838137
  18.6389505  71.0633829  33.9716020  19.4662935  70.7918978  34.0274635
  18.6597351  71.8594671  34.3279838  18.7642355  71.1413583  34.0331203
  22.3299509  68.8098523  24.6674910  22.5349102  68.7420831  25.5131908
  22.0025933  69.6157344  24.5996088  22.3114757  68.9184463  24.7834566
  25.5833196  69.3630287  24.1477676  24.9707510  69.8500689  24.5331408
  25.6797371  68.6873778  24.6915327  25.5071094  69.3348596  24.2856534
  19.5852277  71.1193128  19.2475175  20.0396024  71.2903689  19.9723020
  20.0592323  70.5061239  18.8472951  19.7220598  71.0544013  19.2948937
  18.8444873  69.6185921  25.3852044  17.9980918  69.7908729  25.2593394
  18.8416005  68.8135265  25.7217872  18.7192023  69.5246950  25.4163171
  19.9143173  73.3961136  26.2514102  19.4403128  72.8702898  26.7619413
  20.2861309  72.8490609  25.6828963  19.8993062  73.2377132  26.2429249
  28.1785091  75.2364969  25.6150141  27.9394861  75.1960803  24.7770926
  28.3418992  76.0836121  25.7415863  28.1675394  75.3557054  25.5103623
  20.8629038  67.9929475  31.0533724  20.3669599  68.1893149  30.3625291
  21.6198100  68.3922143  30.8822525  20.9015862  68.0807209  30.9253861
  18.1331917  71.6671821  27.6437034  18.1574405  71.1331933  26.9549814
  18.3843391  71.1589130  28.3062625  18.1741836  71.5132725  27.6401679
  14.4133240  70.3942639  27.0242779  14.4531611  70.8951846  27.7377486
  13.5882904  70.4853033  26.7548702  14.2972766  70.4824455  27.0893317
  13.6431386  70.4012042  34.9573088  14.2684090  69.8574175  35.2302521
  13.1881866  69.9206959  34.3880879  13.6679647  70.2501523  34.9134682
  21.2122007  71.3712021  29.5168293  21.6377079  70.9184547  28.9051820
  20.5979000  70.8172091  29.7933081  21.1850652  71.2225997  29.4673319
  19.6516230  67.8427121  22.9258870  19.0084548  67.6924767  23.4944009
  19.3115637  67.5969466  22.1607975  19.5061307  67.7839243  22.8961885
  24.4043704  72.2542431  25.2579252  24.7571314  71.8272154  25.9325051
  23.5458505  72.1693275  25.3880328  24.3293149  72.1787172  25.3774263
  25.8367764  67.3760843  26.1863565  25.3298629  66.6689982  26.1184742
  26.6335198  67.0454032  26.3164641  25.8795003  67.2233994  26.1962560
  21.7531780  73.8827455  22.0837228  21.5245473  73.9060157  21.2415587
  22.0129856  73.0584922  22.2032239  21.7577968  73.7643535  21.9762426
  24.4788486  72.8727392  22.3340387  24.4782712  72.7176049  23.1924663
  24.2744666  73.7190379  22.2781772  24.4488264  72.9748013  22.4528326
  17.7729251  68.7890317  31.9612975  17.9057157  67.9921310  32.2893950
  18.1574404  69.3156720  32.5411250  17.8485580  68.7490233  32.0956477
  20.8461606  65.7120643  28.5594068  20.0407570  65.6018372  28.8761906
  20.7168342  65.8133098  27.7023934  20.7081739  65.7104313  28.4802108
  24.3027567  71.8766135  29.1533765  23.7190556  72.3775341  28.7411332
  24.6231861  71.3695691  28.5198088  24.2640742  71.8757970  28.9992272
  16.8422366  70.7906729  19.4292439  17.6638061  70.9605042  19.1874134
  16.3792017  70.9453990  18.7058737  16.8953528  70.8388462  19.2864084
  15.4317698  68.7849492  30.2090868  15.9762111  68.4440618  30.7995210
  15.4854634  69.6434953  30.3512153  15.5206817  68.8604751  30.3172742
   0.8152154  28.2081089  22.5588223   1.5218921  27.7133119  22.6875158
   1.0040089  28.6490170  21.8290881   0.9480060  28.1999439  22.4697269
   3.5339578  27.9917372  19.6002876   3.2978216  27.1605437  19.4814936
   4.1782807  27.9402980  20.1857720   3.5934249  27.8615060  19.6688769
   4.5575999  27.7761821  15.6631170   4.2521816  28.5089878  16.0244486
   3.8382215  27.3699751  15.3823956   4.4063341  27.8243554  15.6744307
  10.2577791  24.4154822  14.9899515  10.1902291  24.4350781  14.1202101
  10.2433454  25.2585149  15.2155185  10.2456548  24.5428557  14.8951991
   1.1575841  28.9470383  25.1270342   1.9710706  28.6755532  25.2875474
   0.9970807  28.6477923  24.3230537   1.2545789  28.8625309  25.0315747
   1.2251341  30.6996481  17.0398539   2.0143720  30.3485546  17.1600621
   1.3994939  31.5132870  16.7775173   1.3671623  30.7682338  17.0186407
   6.9743881  26.3354739  16.5095239   7.0327005  26.7841388  17.2555215
   6.3410349  26.7453552  16.0725319   6.8895176  26.4628474  16.5547787
   2.5316778  25.5222433  18.4795233   3.2550977  25.0694960  18.3006253
   2.2666740  25.8027099  17.6967561   2.5998051  25.4973402  18.3373949
   4.9652092  24.4848844  16.9825783   5.5569932  25.1246095  17.0143981
   5.4011086  23.7871881  17.2717850   5.1170523  24.4767194  17.0306616
   2.0166814  26.2036097  15.6093769   2.4421885  25.6810519  15.0564194
   1.6523734  26.8016934  15.0882392   2.0253416  26.2146324  15.4502779
   0.6922398  31.5271675  24.1186999   0.8019363  30.7380235  24.4743746
   1.0213294  31.4377611  23.3161337   0.7574804  31.3977528  24.0529389
  15.2791336  38.3704220   8.1974837  15.2485340  39.2248857   8.3693106
  15.8772685  38.0699512   8.7560980  15.3628494  38.4520716   8.3049639
   8.4791021  37.4579871  12.9527767   7.6228916  37.6188369  13.0036884
   8.5258675  36.5871935  12.9732828   8.3590132  37.3530673  12.9633833
  11.7884738  43.7266396  22.5588223  12.4951505  43.2318427  22.6875158
  11.9772673  44.1675478  21.8290881  11.9212643  43.7184747  22.4697269
   7.8561412  49.3682227  10.0861657   8.2400791  49.9369126   9.5466433
   7.7920553  48.6431737   9.6067473   7.9034839  49.3457690   9.9355520
  11.3242842  39.5171915  15.5959419  11.8698802  40.1957001  15.6553388
  11.2659718  39.3759376  14.7361000  11.3958756  39.5963916  15.4771479
   4.4416917  47.0060981  10.9827771   4.5427280  46.1961335  11.2924899
   3.8458662  46.9117927  10.3527450   4.3689456  46.8726009  10.9354010
  13.1007911  40.9456522   6.4693147  12.9847437  41.6964208   6.8985285
  13.8963797  40.6880475   6.7189234  13.2012500  41.0191369   6.5697238
   4.2817656  51.9238570  12.3842627   4.9255112  52.3651734  12.7738786
   4.6073912  51.1191996  12.2972886   4.4249485  51.8703765  12.4288105
   7.0339944  36.9366540   7.8396876   7.7320109  37.1154667   8.3318339
   7.3492277  36.4136879   7.2167265   7.1835281  36.8860312   7.8198886
   7.2227880  43.3236985   7.8276667   7.6621515  42.7154085   8.2731440
   7.0732542  42.9444358   7.0562132   7.2649345  43.1775456   7.7795835
   4.6899523  41.9180997  15.0295493   5.3348525  41.4253440  14.7106441
   4.9301300  42.0605783  15.8561571   4.8210108  41.8658439  15.1045026
   7.2285614  44.7635903  14.6802385   7.5108857  43.9687308  14.4589141
   7.9571774  45.2416490  14.7007446   7.3775178  44.7170499  14.6505400
   5.2066808  32.3058937  11.9218150   4.8770138  32.7570080  11.2521849
   4.5311810  32.2275100  12.4691157   5.0577244  32.3610072  11.9041374
  10.8237216  41.6764166   4.7807436  10.7388511  42.5325133   4.9257005
  11.3121599  41.4008490   5.4489596  10.8826113  41.7621488   4.9009518
  11.7555649  38.2948960   6.2805172  11.2267121  38.5108594   6.9402478
  12.2780669  38.9885099   6.2006141  11.7544102  38.4292097   6.3660771
  17.2103702  43.8695265  11.6538216  16.3801405  44.0805908  11.8171633
  17.1612955  43.0432319  11.3780500  17.0810438  43.7784871  11.6375581
   5.2713440  46.6999119  14.4886126   4.7540382  46.3406534  13.8847434
   5.9687831  46.1761293  14.4992192   5.2979021  46.5696807  14.4016384
   8.9277032  47.1493933  20.4502299   9.0160378  46.9620073  21.2980509
   9.3566744  46.5031363  20.0507145   9.0039134  47.0256941  20.5174050
   6.4947492  46.4325093  19.4319961   5.9318326  46.0197703  19.9559622
   7.2568515  46.3577999  19.8513104   6.5241940  46.3602494  19.5712961
   2.0543483  48.4223114  12.0356591   2.7564062  47.9075103  12.0929347
   1.9740966  48.7497265  12.8403466   2.1467244  48.3937340  12.1629383
  16.7057661  36.5165665  15.4488637  15.8686082  36.5867853  15.6836232
  16.6745892  36.5190160  14.5762940  16.5775943  36.5275892  15.3548185
   3.1022390  38.6598701  21.1637006   3.2742893  38.5504596  22.0122287
   3.6391747  39.3053107  20.9268198   3.2067394  38.7390703  21.2542103
   1.3794259  44.6129466  11.5442199   2.2183158  44.8452399  11.5915961
   1.4106028  43.7433778  11.4749234   1.5075976  44.5186413  11.5406844
   2.0046962  45.0330341  15.8455504   2.5445186  44.8901472  16.5158877
   1.3216908  45.4327092  16.2139531   1.9839115  45.0710012  15.9989926
  11.4287846  40.7121342  11.0400529  12.1845361  41.1452856  11.0789438
  11.5350171  40.0626112  11.6135165  11.5558017  40.6798826  11.1298554
  14.4668018  44.5394619  11.7902932  14.0303249  44.5431362  12.5461903
  14.1330933  45.2200118  11.3582509  14.3530637  44.6407075  11.8383764
   9.0397091  46.5802952  23.1146082   9.8237508  46.6933800  23.4801824
   8.8393686  45.7544089  23.3104768   9.1263117  46.4749671  23.1980468
  14.3865500  31.5808447  14.0332360  15.0291409  31.6506552  14.6194275
  14.6388521  30.9137670  13.5311902  14.5187633  31.4934796  14.0459639
   2.1582713  34.7909010  18.6456934   1.4654510  34.3205990  18.8917665
   2.7743040  34.5647315  19.2198641   2.1467243  34.6876142  18.7666086
   9.1967484  48.4913054  16.7612538   8.3982730  48.2512554  17.0186406
   9.6453496  48.5427447  17.5079585   9.1442096  48.4635445  16.9097462
  17.6012364  41.2575539  10.6822569  18.2628798  40.6966208  10.5818478
  16.9603776  40.7627570  11.0075260  17.6041231  41.1011948  10.7154909
  13.8877194  42.2740922  10.4234558  14.1232784  42.4186120   9.5961408
  14.0366758  43.0383330  10.8166071  13.9442998  42.4079976  10.3598162
   0.8823272  38.7574414  19.7883779   1.6063244  38.7427445  20.2748674
   0.9839408  39.4669770  19.2905747   1.0041481  38.8599118  19.7862566
  15.7167651  41.1142587   8.2604162  16.0475868  41.6470228   7.6544256
  16.2900739  41.1681475   8.9166113  15.8501330  41.2012156   8.2681943
   8.2568221  42.2373499  24.6532726   7.4641202  42.5517011  24.8385346
   8.3717148  42.4524967  23.8153511   8.1563632  42.3157336  24.5571061
  10.9299540  38.9607490   8.9427742  11.0246395  39.6996784   9.3967367
  10.3058384  38.5324966   9.3762306  10.8508570  39.0068811   9.0735889
   9.1852014  42.1393703  19.5918023   9.7590876  41.5020947  19.7466587
   9.1066818  42.1397785  18.7227680   9.2585249  42.0458814  19.4864434
   4.5415733  40.5716968  11.6439220   4.2834977  39.7388703  11.6170520
   4.5964216  40.7974581  10.8031720   4.5115511  40.4814739  11.5159357
   9.6216783  32.6745419  11.7443313   8.9173110  32.1854604  11.9027232
   9.6701757  32.6867893  10.8731757   9.5246834  32.6035067  11.6382653
   3.5150445  38.1254730  12.1304115   2.9400036  38.2846899  12.7668076
   3.1386121  37.4890139  11.6672565   3.3753257  38.0552543  12.1558673
   7.1823734  36.5978080  16.9896493   6.7938166  36.1732297  16.3348684
   6.5178432  36.8460229  17.4973520   7.0270661  36.5716801  16.9684361
  16.8247003  36.3553084   9.7644323  16.5683568  35.5433026   9.5742206
  17.6676317  36.3630651   9.5374511  16.9113028  36.2365082   9.7029140
  11.0050095  30.2952708  14.5020477  11.3860607  29.6130879  14.8888352
  10.2013379  30.0062310  14.3196142  10.9426557  30.1519757  14.5324533
   8.2862672  40.8276684   5.1873300   9.1003311  41.1191577   5.0756072
   8.2221813  40.1736547   4.6131593   8.3965411  40.7741879   5.0862138
  14.5072162  43.5102680  19.6002876  14.2710799  42.6790745  19.4814936
  15.1515391  43.4588288  20.1857720  14.5666833  43.3800368  19.6688769
   4.1570580  44.2998202  10.3145612   4.7944527  44.0609949  10.8597406
   4.5825652  44.5035361   9.5798773   4.3146746  44.2949212  10.2862770
   4.9641936  32.8006907  24.3683086   4.6495377  33.5706469  24.1052649
   4.6431868  32.2377163  23.7835313   4.8700855  32.8317175  24.2424436
  15.5308583  43.2947129  15.6631170  15.2254400  44.0275186  16.0244486
  14.8114798  42.8885059  15.3823956  15.3795925  43.3428862  15.6744307
   6.5392052  44.7770624  11.9939399   6.6131060  44.6145796  12.8481248
   7.3561558  44.9660814  11.7499880   6.6708411  44.7807367  12.0837424
  21.2310375  39.9340130  14.9899515  21.1634875  39.9536089  14.1202101
  21.2166037  40.7770457  15.2155185  21.2189131  40.0613864  14.8951991
  11.6406721  31.3375287  18.3140604  12.3860313  31.1485098  17.9004029
  11.2244026  31.8633525  17.7554460  11.6891695  31.3877433  18.1705177
  19.0168992  38.7084516  13.2646109  19.5676914  38.0752585  13.5043201
  19.0013107  39.2399909  13.9561613  19.0954188  38.6933464  13.4024967
   5.6691383  42.5423113  17.8106002   5.1703077  43.2538881  17.8890891
   6.4791607  42.8623780  17.7724165   5.7147490  42.6949962  17.8162571
   1.9319501  41.8046066  12.0568723   1.6432749  41.1783538  12.5914451
   2.8002849  41.7466354  12.1233404   2.0179752  41.7033611  12.1459678
  12.7197398  36.9480850  12.3750705  12.3762164  36.2271185  12.7257955
  12.8190441  36.7394701  11.5329063  12.6839441  36.8105053  12.3022385
  13.1810427  43.4106554   7.9174693  13.7468460  44.0699764   7.8333236
  12.5338331  43.7556252   8.3891095  13.1689184  43.5588495   7.9747450
   4.5958441  35.4004158  23.1068301   3.7858217  35.7061937  22.9958143
   5.0733128  36.1209740  23.2220885   4.5461920  35.5518759  23.1075372
   3.4550001  44.6149879  13.3551204   2.9330754  44.7550170  14.0403068
   3.8424021  43.8560543  13.5453321   3.4353701  44.5235403  13.4852280
   9.6517005  46.3545338   7.3411773   9.4103681  45.6213199   6.9338837
   9.8318338  46.9032195   6.6878106   9.6424629  46.3267729   7.1841995
   4.8816326  41.6453898   8.7532695   4.6859109  42.2528632   8.1592998
   5.1050672  40.9521842   8.2724369   4.8850967  41.6331423   8.5948776
   3.2794856  38.5308636   8.8713563   4.0017508  38.6949794   8.4117369
   2.8002849  39.2518300   8.7652903   3.3158587  38.6606865   8.7879177
  11.2388364  34.8672434  14.2510248  10.3999464  34.8933713  14.0148511
  11.3092731  35.5143170  14.8315595  11.1256757  34.9668560  14.3019365
   9.6857642  31.7657811   8.9837864  10.3883995  31.5665560   8.5057822
   9.4201831  30.9933754   9.2906707   9.7504274  31.6220777   8.9583306
  15.1145888  40.0740421  11.5371490  15.0279862  40.2295847  12.3906269
  14.6596367  40.7178497  11.1630895  15.0349144  40.1916176  11.6078597
   4.4486198  33.0293097  18.0368745   4.2569395  33.0448231  18.8868168
   5.2984794  33.2256771  18.0135399   4.5461920  33.0607448  18.1592039
   8.9871704  37.3951168  10.1597049   8.7406418  37.3146919  10.9933838
   9.3156827  36.6104636   9.9659577   8.9992947  37.2677434  10.2544572
  12.8819752  44.1034528  13.9483831  12.7434112  44.8015573  14.4532573
  12.1019750  43.9483184  13.5920012  12.7462979  44.1834694  13.9710105
  11.2197838  40.4030903  20.2006212  11.2145876  39.5310720  20.2048639
  11.9258831  40.6019072  19.7275668  11.3242842  40.3034777  20.1313248
   4.9468731  40.1307887  19.5720032   5.0912107  40.7109095  18.9363142
   5.2944379  40.5084184  20.2769887   5.0196192  40.2728591  19.5819027
   7.1188648  39.3298055  17.3545164   6.3711962  39.5229070  16.9493442
   7.2730173  38.5043275  17.1169285   7.0311076  39.2363167  17.2590570
   4.0196486  48.3210659  16.4381059   4.1686050  47.7613575  15.7854464
   4.7996488  48.4002660  16.8213578   4.1570580  48.2496224  16.3978008
  14.3773125  43.4612781   4.7100330  13.9979934  42.6749919   4.7029619
  13.7139371  44.0099638   4.5671974  14.2231600  43.4257605   4.6881127
   6.5449787  48.4925302  17.7165550   6.4693458  47.8234112  18.2716338
   6.4739646  49.1943090  18.2306216   6.5230393  48.4970209  17.8742398
   7.3590425  33.2248606  18.2440568   7.8163039  33.9572580  18.3713360
   7.4346754  32.8015071  19.0027824   7.4381395  33.2705844  18.3741644
  11.8317751  26.4038481  12.1134411  11.9501319  26.8614944  11.3801713
  11.6579927  25.5983742  11.8270628  11.8236922  26.3532253  11.9635344
   7.2020033  47.0126300   8.5489156   7.9669925  46.7435944   8.2271820
   7.0998123  46.5276311   9.2659219   7.3001529  46.9015865   8.6068984
   5.2372803  35.2150710  15.0882392   4.4468878  35.0342170  15.4099728
   5.6333426  34.4377662  15.0712686   5.1789679  35.0738171  15.1334940
  10.6216489  42.8493140  12.8141838   9.9461491  42.6178372  13.3155225
  10.6308866  42.2414323  12.1883943  10.5234994  42.7252065  12.7957990
   7.7510633  37.6910969  19.5705891   7.6869775  38.5520925  19.4426027
   7.8907821  37.3742962  18.7701442   7.7626104  37.7711136  19.4334104
  12.6233224  45.7058272   5.0452016  12.7053061  46.5125259   4.7213467
  13.1082966  45.7254232   5.7692789  12.7070382  45.8278935   5.1038914
   6.4329727  40.3843108  13.7122094   6.0091976  40.5847607  12.9761112
   6.2574583  39.5371956  13.8246393   6.3440608  40.2891890  13.6195784
   5.9341421  51.8993621  16.1743551   6.4237351  51.2004411  15.9919216
   5.3625653  51.6017491  16.7619608   5.9225951  51.7519845  16.2344592
   1.7212172  40.8795160   9.1450066   1.8776791  40.8141963  10.0006058
   2.0612765  41.6543712   8.9328746   1.7945407  40.9844358   9.2404660
   8.2591317  40.2553043   8.0143429   8.8006862  39.7523424   8.4782050
   8.5737876  40.2018238   7.2032915   8.3855714  40.1732464   7.9627241
  12.1308424  44.4655691  25.1270342  12.9443290  44.1940840  25.2875474
  11.9703391  44.1663231  24.3230537  12.2278373  44.3810617  25.0315747
   9.4080586  35.1489348  18.0665730   9.6222556  34.5100262  17.5129084
   8.7914486  35.5935172  17.6373592   9.3485916  35.1199492  17.9216161
  10.8185254  48.0708096   9.5119951  10.4265046  47.7674811   8.7942817
  10.9738326  48.9077186   9.3224904  10.7838844  48.1491933   9.3776448
  11.5719674  36.7578413  19.0049037  10.7596356  36.4504303  19.0862210
  12.0309609  36.2777413  19.5691749  11.5200059  36.6414905  19.1003631
  10.9824929  44.6358085   9.4525981  10.6239584  44.8072728  10.2290014
  10.4963640  45.0971291   8.8953980  10.8583626  44.7297056   9.4851250
   8.7995315  28.2589284  13.0553073   7.9288873  28.2328005  13.0086382
   9.0535656  28.0866476  12.2378918   8.7088875  28.2299427  12.9273209
   8.6673182  38.1638485  23.7877739   9.1372813  38.7880601  24.1745613
   8.7135062  37.4955460  24.3470954   8.7441058  38.1573165  23.9277811
   5.8244455  30.2695512  14.5126543   5.3082944  29.5775703  14.6378122
   5.2638384  30.9366289  14.4589142   5.6650969  30.2658770  14.5232609
   7.8936689  30.8088472  16.3419396   7.5068442  30.8337504  17.1232925
   7.4069626  30.2430151  15.8893912   7.7649198  30.7284223  16.3907299
  12.1429668  45.5261981  20.3993182  12.7809389  45.0322177  20.0655638
  11.5003760  45.4539381  19.8145409  12.1423895  45.4420990  20.2635537
  13.8686668  37.3751127  14.9659098  13.4414277  37.2877476  14.2107197
  13.2312721  37.4828902  15.5513942  13.7116276  37.3783787  14.9404539
   7.5593831  27.6955458  18.6329655   8.1886949  28.2315758  18.3550726
   7.7279693  27.6032816  19.4843221   7.6771625  27.7616820  18.7178184
   7.3607746  32.4826652  20.9056067   8.1881175  32.2111801  20.9614682
   7.3815592  33.2787494  21.2619885   7.4860596  32.5606406  20.9671250
  12.1983925  46.2181789  17.0398539  12.9876303  45.8670854  17.1600621
  12.3727523  47.0318178  16.7775173  12.3404207  46.2867646  17.0186407
   1.9377235  39.6290515  14.0926328   1.0965242  39.5294389  14.3005222
   2.1467243  40.3985995  14.4440648   1.8441928  39.7282558  14.1753643
  11.0517749  30.2291346  11.6014957  11.2567342  30.1613654  12.4471954
  10.7244173  31.0350167  11.5336135  11.0332997  30.3377286  11.7174612
   5.7493900  37.5571914  13.3423925   5.4457038  37.0027902  13.9434333
   5.0473321  37.7364124  12.8551959   5.6010110  37.5016697  13.3593631
   3.8112251  44.7721635  18.0496023   3.7032606  44.7823697  18.9158081
   4.0208033  45.5976415  17.8600977   3.8262362  44.8962710  18.1500115
  14.3051437  30.7823110  11.0817723  13.6925750  31.2693512  11.4671455
  14.4015612  30.1066601  11.6255374  14.2289334  30.7541419  11.2196581
   1.8286043  42.0234277  15.5117961   1.2373976  42.6643775  15.4820976
   2.5907067  42.4471895  15.4849260   1.8534304  42.1810116  15.5033108
   2.2246666  33.1836275  16.1785978   2.6848148  33.2575205  16.9161102
   2.2702773  33.9817529  15.8285800   2.2997221  33.3130422  16.2358735
   3.8730016  33.8502970  20.7458005   3.4815581  33.2036317  21.1813783
   4.0415879  34.4414405  21.3652261   3.8400926  33.8417238  20.9020711
  17.9476465  41.8540047  16.5095239  18.0059589  42.3026696  17.2555215
  17.3142932  42.2638860  16.0725319  17.8627760  41.9813782  16.5547787
  11.5875559  47.4743589  12.9449985  11.3895248  47.9634403  12.2506196
  10.9663271  47.6784830  13.5234118  11.4663124  47.5760127  12.9273208
   5.6483538  39.2428486   7.2860229   6.3925583  39.6302762   7.5243179
   5.7944234  38.3985911   7.4500717   5.7794123  39.1758959   7.3454199
   7.5663113  31.0378745  12.3192091   6.7199158  31.2101552  12.1933441
   7.5634246  30.2328088  12.6557919   7.4410263  30.9439774  12.3503218
   8.6361414  34.8153959  13.1854149   8.1621368  34.2895721  13.6959460
   9.0079549  34.2683432  12.6169010   8.6211303  34.6569956  13.1769296
  14.8998144  39.8756335  14.5960929  14.6596367  39.0362750  14.6003356
  15.3790151  39.9556501  15.3201703  14.9350328  39.7637734  14.7035732
  16.9003331  36.6557792  12.5490188  16.6613101  36.6153626  11.7110973
  17.0637233  37.5028944  12.6755909  16.8893635  36.7749877  12.4443670
   2.3736230  35.6367915  15.2148113   1.7489300  35.6486307  14.6074065
   2.0381825  36.1128090  15.8639353   2.2321722  35.7086432  15.2204681
  10.1181996  44.2794077   5.3789560  10.8416195  44.7452190   5.2354133
   9.6782587  44.3467687   4.6287157  10.1597688  44.3577914   5.2474341
   9.2868151  41.1391619  16.6290249   8.6725144  40.5949670  16.9238884
   9.8035436  40.6255856  16.1496065   9.2723813  40.9828028  16.6014477
   8.5264448  42.2095889  14.3634547   8.0992056  41.5845608  13.9299983
   8.5189392  41.9270811  15.1893554   8.4623589  42.0748670  14.4214375
   1.6426975  37.2461063  17.4322981   1.8020462  36.4904387  17.8374703
   1.4619869  37.7952002  18.0863719   1.6392334  37.2154876  17.5885687
   9.5847278  29.4122298  17.9873771   9.0887839  29.6085972  17.2965337
  10.3416340  29.8114966  17.8162572   9.6234103  29.5000032  17.8593907
   6.8550158  33.0864644  14.5777081   6.8792645  32.5524756  13.8889861
   7.1061631  32.5781953  15.2402672   6.8960076  32.9325548  14.5741726
   3.1351480  31.8135462  13.9582825   3.1749852  32.3144669  14.6717533
   2.3101145  31.9045856  13.6888749   3.0191006  31.9017279  14.0233364
   5.3181093  41.3796202  22.0603120   4.4676723  41.5167917  22.1960765
   5.4809221  40.6459980  22.5050822   5.2164956  41.2910303  22.1458719
   4.5565843  38.3295972  16.2556724   3.7257773  38.4969790  16.0491973
   4.5017361  37.9531923  17.0405610   4.4255258  38.2985703  16.3405253
   2.3649627  31.8204865  21.8913135   2.9902330  31.2766998  22.1642567
   1.9100107  31.3399783  21.3220926   2.3897887  31.6694346  21.8474729
  15.9384675  40.0034152  16.9825783  16.5302516  40.6431403  17.0143981
  16.3743670  39.3057189  17.2717850  16.0903107  39.9952502  17.0306616
   7.7678065  44.4251524  17.6083677   7.2603156  44.9787371  18.0524308
   7.4704711  44.4859814  16.7902452   7.6482950  44.5157836  17.5532134
   9.9340247  32.7904844  16.4508340  10.3595319  32.3377370  15.8391866
   9.3197241  32.2364915  16.7273128   9.9068893  32.6418820  16.4013365
  12.9633817  37.2179371   9.2828926  12.2925007  37.7609073   9.1541991
  13.6573567  37.6874226   9.0410621  12.9662684  37.3677642   9.2284453
   7.0120551  49.3576083  14.5140684   6.7886205  48.5994912  14.8824710
   6.5230394  49.3874104  13.7921124   6.9064000  49.2498307  14.4617425
  13.1261944  33.6735254  12.1919299  13.4789554  33.2464977  12.8665098
  12.2676746  33.5886098  12.3220375  13.0511389  33.5979995  12.3114309
   1.8245629  36.3042774  10.2502145   1.1057618  36.7206907  10.5175009
   2.1957992  36.8697013   9.6993784   1.7737561  36.4492055  10.2084952
  11.1245210  36.9370623  16.1404141  11.1043137  36.7553918  16.9938920
  11.1724411  37.8082641  16.1163725  11.1279851  37.0387161  16.2627436
   9.0691540  43.5257815  22.0652618   9.0287395  42.8807492  21.4797774
   9.8814858  43.4694432  22.3778030   9.1834693  43.4216782  22.0249567
   5.6599007  49.5776541  11.9677769   5.2459406  48.9150671  11.5781610
   6.3446382  49.7254400  11.4473463   5.6997379  49.5017199  11.8334266
   9.0264302  48.7366626  12.7201385   8.6280585  48.8468896  11.9522205
   8.4115521  48.9448692  13.3027945   8.8763191  48.7840194  12.6932685
  14.5586004  28.7953666  13.1203611  14.0516869  28.0882806  13.0524789
  15.3553438  28.4646855  13.2504688  14.6013244  28.6426817  13.1302606
  10.4750020  35.3020278   9.0177275  10.2463713  35.3252980   8.1755633
  10.7348096  34.4777745   9.1372286  10.4796208  35.1836358   8.9102473
   4.7569249  37.1554751  18.6202375   4.2448152  36.5475934  18.9787407
   4.5848745  37.8711344  19.0876351   4.6558886  37.1718051  18.7418599
   3.5294783  33.8396825  10.3131471   4.0052149  34.2013904   9.6781652
   3.0283382  34.4953292  10.5931614   3.5260142  33.9891013  10.2608212
  16.7606144  43.3118593   6.1044476  17.1439750  44.0609949   6.3342573
  15.9650258  43.5584412   5.8456465  16.6999926  43.4588287   6.1002049
   8.6338319  35.0778996  21.0604631   9.1909749  34.8492806  20.4283096
   8.3099384  35.8384662  20.7839843   8.6684729  35.1562833  20.9261128
   6.3521436  38.1646649  22.0256638   7.1032763  38.4798326  22.3396192
   6.5444013  37.9625820  21.1990560   6.4912850  38.1814031  21.9500034
  13.2006726  34.2920216   9.2680433  13.2000953  34.1368872  10.1264710
  12.9962906  35.1383203   9.2121819  13.1706504  34.3940836   9.3868373
  10.9247578  38.9717717  12.9216640  11.4201244  38.2540713  12.8820661
  10.1147354  38.6688515  12.8071127  10.8791472  38.8215364  12.8990366
  12.9899397  41.7221405  15.6093769  13.4154469  41.1995827  15.0564194
  12.6256317  42.3202242  15.0882392  12.9986000  41.7331632  15.4502779
   2.6253477  50.0185622  14.3691115   2.9400036  50.8322011  14.3768896
   3.0346890  49.6335841  15.0373274   2.7321575  50.0814325  14.4695206
   9.5777997  45.4355669  11.9394927  10.0489175  46.1495932  12.1084912
   9.9138175  44.8354419  12.4754796   9.6973112  45.4527134  12.0427302
  11.6654981  47.0456983  24.1186999  11.7751947  46.2565543  24.4743746
  11.9945878  46.9562919  23.3161337  11.7307387  46.9162836  24.0529389
   6.4947492  30.2083140  18.8953021   6.6275397  29.4114133  19.2233997
   6.8792644  30.7349543  19.4751297   6.5703821  30.1683057  19.0296524
  10.2151943  45.2273603  18.7022619   9.6672889  44.6031487  18.4342684
  10.6764972  45.4167875  17.9866699  10.2019152  45.1632654  18.5573050
   9.5679847  27.1313466  15.4934115   8.7625811  27.0211196  15.8101953
   9.4386582  27.2325922  14.6363980   9.4299980  27.1297136  15.4142155
  13.0245807  33.2958958  16.0873811  12.4408796  33.7968164  15.6751379
  13.3450101  32.7888514  15.4538135  12.9858983  33.2950793  15.9332319
   4.1535938  30.2042315  17.1430915   4.6980351  29.8633442  17.7335257
   4.2072874  31.0627776  17.2852200   4.2425058  30.2797574  17.2512788
   9.7810269  46.2324676  15.2331960  10.6008643  46.0887642  15.4948256
   9.5004347  46.8570875  15.7748398   9.8607013  46.3035028  15.3519900
  26.2523920  53.8889528   8.1974837  26.2217924  54.7434164   8.3693106
  26.8505268  53.5884820   8.7560980  26.3361078  53.9706024   8.3049639
  19.4523605  52.9765179  12.9527767  18.5961500  53.1373677  13.0036884
  19.4991258  52.1057243  12.9732828  19.3322716  52.8715981  12.9633833
  22.7617321  59.2451704  22.5588223  23.4684088  58.7503735  22.6875158
  22.9505257  59.6860786  21.8290881  22.8945227  59.2370055  22.4697269
  18.8293995  64.8867535  10.0861657  19.2133375  65.4554433   9.5466433
  18.7653137  64.1617045   9.6067473  18.8767423  64.8642998   9.9355520
  22.2975426  55.0357223  15.5959419  22.8431386  55.7142309  15.6553388
  22.2392302  54.8944684  14.7361000  22.3691340  55.1149224  15.4771479
  15.4149500  62.5246289  10.9827771  15.5159863  61.7146643  11.2924899
  14.8191246  62.4303235  10.3527450  15.3422039  62.3911317  10.9354010
  24.0740494  56.4641830   6.4693147  23.9580020  57.2149516   6.8985285
  24.8696381  56.2065783   6.7189234  24.1745084  56.5376677   6.5697238
  15.2550240  67.4423878  12.3842627  15.8987696  67.8837042  12.7738786
  15.5806496  66.6377304  12.2972886  15.3982069  67.3889073  12.4288105
  10.9104632  50.7152306  13.5064413  10.2909664  50.1244953  13.3374427
  10.8088496  51.3063741  12.8728736  10.8042308  50.7156388  13.3869402
  18.0072528  52.4551848   7.8396876  18.7052693  52.6339975   8.3318339
  18.3224860  51.9322187   7.2167265  18.1567865  52.4045620   7.8198886
  10.6373765  54.2604588  15.7507982  10.5132462  54.8467033  16.3857800
  11.2892050  53.7664783  16.0520257  10.7147415  54.2743392  15.8893911
  18.1960463  58.8422293   7.8276667  18.6354099  58.2339393   8.2731440
  18.0465126  58.4629666   7.0562132  18.2381929  58.6960764   7.7795835
  15.6632106  57.4366305  15.0295493  16.3081109  56.9438748  14.7106441
  15.9033883  57.5791091  15.8561571  15.7942691  57.3843747  15.1045026
  18.2018198  60.2821210  14.6802385  18.4841440  59.4872616  14.4589141
  18.9304358  60.7601798  14.7007446  18.3507761  60.2355807  14.6505400
  16.1799391  47.8244244  11.9218150  15.8502721  48.2755388  11.2521849
  15.5044393  47.7460408  12.4691157  16.0309828  47.8795380  11.9041374
  21.7969800  57.1949474   4.7807436  21.7121095  58.0510441   4.9257005
  22.2854183  56.9193798   5.4489596  21.8558697  57.2806795   4.9009518
  23.3875799  43.8129767  10.1667761  23.0729240  44.5033246  10.5988183
  22.8702741  43.7574550   9.4653262  23.2640270  43.9064656  10.1264710
  22.7288233  53.8134268   6.2805172  22.1999704  54.0293902   6.9402478
  23.2513253  54.5070407   6.2006141  22.7276686  53.9477405   6.3660771
  28.1836286  59.3880573  11.6538216  27.3533989  59.5991216  11.8171633
  28.1345538  58.5617627  11.3780500  28.0543021  59.2970179  11.6375581
  16.2446023  62.2184427  14.4886126  15.7272965  61.8591842  13.8847434
  16.9420415  61.6946601  14.4992192  16.2711605  62.0882115  14.4016384
  19.9009615  62.6679241  20.4502299  19.9892961  62.4805381  21.2980509
  20.3299328  62.0216670  20.0507145  19.9771718  62.5442249  20.5174050
  17.4680075  61.9510401  19.4319961  16.9050910  61.5383011  19.9559622
  18.2301099  61.8763307  19.8513104  17.4974524  61.8787801  19.5712961
  19.0765055  53.9563137   3.5581560  19.3161059  54.1641121   2.7456903
  19.3980896  53.1520646   3.6670505  19.1602213  53.8677238   3.4542113
  14.3855345  45.8856533   7.4041098  15.1401314  46.2534850   7.1658148
  14.2082880  46.2596087   8.1720278  14.4709824  45.9954721   7.4825987
  13.0276067  63.9408422  12.0356591  13.7296646  63.4260411  12.0929347
  12.9473550  64.2682573  12.8403466  13.1199827  63.9122648  12.1629383
  27.6790244  52.0350973  15.4488637  26.8418665  52.1053160  15.6836232
  27.6478475  52.0375468  14.5762940  27.5508527  52.0461200  15.3548185
  14.0754973  54.1784009  21.1637006  14.2475477  54.0689904  22.0122287
  14.6124331  54.8238414  20.9268198  14.1799977  54.2576011  21.2542103
  12.7412410  48.2926852   4.1019211  12.5587983  48.5098733   3.2760204
  13.6038023  48.4065865   4.1577825  12.8417000  48.3416750   3.9873698
  12.3526842  60.1314774  11.5442199  13.1915742  60.3637707  11.5915961
  12.3838611  59.2619085  11.4749234  12.4808560  60.0371721  11.5406844
  12.9779545  60.5515649  15.8455504  13.5177770  60.4086780  16.5158877
  12.2949491  60.9512400  16.2139531  12.9571699  60.5895320  15.9989926
  18.4212129  45.2953263   7.1368235  19.1498290  45.1169217   6.6906391
  18.5107022  46.1371342   7.3475413  18.5418791  45.3937141   7.1021753
  22.4020430  56.2306650  11.0400529  23.1577945  56.6638164  11.0789438
  22.5082754  55.5811420  11.6135165  22.5290601  56.1984134  11.1298554
  25.4400601  60.0579927  11.7902932  25.0035833  60.0616670  12.5461903
  25.1063517  60.7385426  11.3582509  25.3263221  60.1592383  11.8383764
  20.0129675  62.0988260  23.1146082  20.7970091  62.2119108  23.4801824
  19.8126269  61.2729397  23.3104768  20.0995700  61.9934979  23.1980468
   8.3816690  56.7715940  15.9989926   8.1155105  55.9555057  16.1580916
   8.3955254  56.8169096  15.1285442   8.3441412  56.6572845  15.8943408
  25.3598084  47.0993755  14.0332360  26.0023992  47.1691860  14.6194275
  25.6121105  46.4322978  13.5311902  25.4920216  47.0120104  14.0459639
  13.1315297  50.3094318  18.6456934  12.4387093  49.8391298  18.8917665
  13.7475624  50.0832623  19.2198641  13.1199826  50.2061450  18.7666086
  20.1700068  64.0098362  16.7612538  19.3715314  63.7697862  17.0186406
  20.6186080  64.0612755  17.5079585  20.1174679  63.9820753  16.9097462
  28.5744947  56.7760847  10.6822569  29.2361381  56.2151515  10.5818478
  27.9336359  56.2812878  11.0075260  28.5773815  56.6197256  10.7154909
   8.7910104  57.5574719  13.2801670   8.6085677  57.5321605  12.4273962
   9.5259773  58.0273657  13.3190579   8.8724168  57.6236082  13.1599589
  24.8609778  57.7926229  10.4234558  25.0965367  57.9371428   9.5961408
  25.0099342  58.5568637  10.8166071  24.9175581  57.9265284  10.3598162
  11.8555856  54.2759722  19.7883779  12.5795828  54.2612753  20.2748674
  11.9571992  54.9855078  19.2905747  11.9774065  54.3784426  19.7862566
  26.6900235  56.6327895   8.2604162  27.0208452  57.1655536   7.6544256
  27.2633323  56.6866783   8.9166113  26.8233914  56.7197464   8.2681943
  19.2300805  57.7558807  24.6532726  18.4373786  58.0702319  24.8385346
  19.3449732  57.9710275  23.8153511  19.1296215  57.8342644  24.5571061
  21.9032124  54.4792798   8.9427742  21.9978978  55.2182092   9.3967367
  21.2790967  54.0510274   9.3762306  21.8241154  54.5254119   9.0735889
  20.1584598  57.6579011  19.5918023  20.7323459  57.0206255  19.7466587
  20.0799401  57.6583093  18.7227680  20.2317833  57.5644122  19.4864434
   8.7581014  54.4368220  13.4300737   9.3354517  54.3004671  14.0692982
   8.0595076  53.9804004  13.6846321   8.7402036  54.3490486  13.5623027
  22.1555145  56.3241538   2.1764694  22.0735308  56.3943725   3.0419681
  22.7934866  56.8871282   1.9848434  22.2374983  56.4180509   2.2754643
  15.5148316  56.0902276  11.6439220  15.2567561  55.2574011  11.6170520
  15.5696799  56.3159889  10.8031720  15.4848094  56.0000047  11.5159357
  20.5949367  48.1930726  11.7443313  19.8905693  47.7039912  11.9027232
  20.6434341  48.2053201  10.8731757  20.4979418  48.1220374  11.6382653
  14.4883029  53.6440038  12.1304115  13.9132620  53.8032207  12.7668076
  14.1118705  53.0075447  11.6672565  14.3485841  53.5737851  12.1558673
  18.1556317  52.1163388  16.9896493  17.7670750  51.6917605  16.3348684
  17.4911015  52.3645537  17.4973520  18.0003245  52.0902109  16.9684361
  27.7979586  51.8738392   9.7644323  27.5416151  51.0618334   9.5742206
  28.6408900  51.8815959   9.5374511  27.8845612  51.7550390   9.7029140
  21.9782679  45.8138016  14.5020477  22.3593190  45.1316187  14.8888352
  21.1745963  45.5247618  14.3196142  21.9159140  45.6705065  14.5324533
  19.2595255  56.3461992   5.1873300  20.0735894  56.6376885   5.0756072
  19.1954397  55.6921854   4.6131593  19.3697994  56.2927187   5.0862138
  25.4804746  59.0287988  19.6002876  25.2443383  58.1976053  19.4814936
  26.1247974  58.9773595  20.1857720  25.5399416  58.8985676  19.6688769
  15.1303164  59.8183510  10.3145612  15.7677111  59.5795257  10.8597406
  15.5558235  60.0220669   9.5798773  15.2879330  59.8134520  10.2862770
   9.8215806  62.0571846  14.1979916   9.8619951  62.3286697  13.3699696
  10.3810330  62.5813754  14.6137704   9.9099152  62.1747601  14.1371804
  15.9374519  48.3192215  24.3683086  15.6227960  49.0891777  24.1052649
  15.6164452  47.7562471  23.7835313  15.8433438  48.3502483  24.2424436
  26.5041166  58.8132437  15.6631170  26.1986983  59.5460494  16.0244486
  25.7847382  58.4070367  15.3823956  26.3528508  58.8614170  15.6744307
  17.5124636  60.2955932  11.9939399  17.5863644  60.1331104  12.8481248
  18.3294142  60.4846122  11.7499880  17.6440994  60.2992675  12.0837424
  32.2042958  55.4525438  14.9899515  32.1367459  55.4721397  14.1202101
  32.1898621  56.2955765  15.2155185  32.1921715  55.5799172  14.8951991
  13.4906416  46.7082736   9.9829282  12.6228842  46.7805336  10.0486891
  13.7781620  47.5104815  10.1717257  13.4046164  46.8376883  10.0204049
  22.6139305  46.8560595  18.3140604  23.3592897  46.6670406  17.9004029
  22.1976609  47.3818833  17.7554460  22.6624279  46.9062741  18.1705177
  29.9901576  54.2269824  13.2646109  30.5409497  53.5937893  13.5043201
  29.9745691  54.7585217  13.9561613  30.0686772  54.2118772  13.4024967
  16.6423967  58.0608421  17.8106002  16.1435660  58.7724189  17.8890891
  17.4524191  58.3809088  17.7724165  16.6880073  58.2135270  17.8162571
  12.9052084  57.3231374  12.0568723  12.6165333  56.6968845  12.5914451
  13.7735432  57.2651662  12.1233404  12.9912336  57.2218918  12.1459678
  23.6929982  52.4666158  12.3750705  23.3494748  51.7456493  12.7257955
  23.7923024  52.2580009  11.5329063  23.6572025  52.3290361  12.3022385
  24.1543011  58.9291862   7.9174693  24.7201044  59.5885072   7.8333236
  23.5070914  59.2741560   8.3891095  24.1421767  59.0773803   7.9747450
  15.5691025  50.9189466  23.1068301  14.7590800  51.2247245  22.9958143
  16.0465711  51.6395048  23.2220885  15.5194503  51.0704067  23.1075372
  14.4282584  60.1335187  13.3551204  13.9063338  60.2735478  14.0403068
  14.8156604  59.3745851  13.5453321  14.4086285  60.0420710  13.4852280
  11.4173768  50.1840995   7.4246158  11.1298564  49.8142266   6.6878106
  12.1044236  50.6535851   7.1629863  11.4762665  50.1987965   7.2761234
  20.6249589  61.8730646   7.3411773  20.3836265  61.1398507   6.9338837
  20.8050922  62.4217503   6.6878106  20.6157213  61.8453037   7.1841995
  15.8548910  57.1639206   8.7532695  15.6591692  57.7713940   8.1592998
  16.0783255  56.4707150   8.2724369  15.8583551  57.1516731   8.5948776
  14.2527440  54.0493944   8.8713563  14.9750092  54.2135102   8.4117369
  13.7735432  54.7703608   8.7652903  14.2891170  54.1792173   8.7879177
  22.2120947  50.3857742  14.2510248  21.3732048  50.4119021  14.0148511
  22.2825315  51.0328478  14.8315595  22.0989341  50.4853868  14.3019365
  11.9035056  56.4552016  17.9767703  12.4156153  56.7336269  17.3276463
  11.6171399  57.1941310  18.3430516  11.9369920  56.6054370  17.9357581
  20.6590226  47.2843119   8.9837864  21.3616578  47.0850868   8.5057822
  20.3934414  46.5119062   9.2906707  20.7236858  47.1406085   8.9583306
  26.0878471  55.5925729  11.5371490  26.0012446  55.7481155  12.3906269
  25.6328951  56.2363805  11.1630895  26.0081728  55.7101484  11.6078597
   8.9901963  50.9622208   8.2731440   9.0918099  51.7648369   8.6012415
   9.7857849  50.7609544   7.9754520   9.1229868  51.0508107   8.2766795
  15.4218782  48.5478405  18.0368745  15.2301979  48.5633539  18.8868168
  16.2717378  48.7442079  18.0135399  15.5194504  48.5792756  18.1592039
   9.8065695  51.0769386  16.0152561   9.6651187  50.2253327  16.1397069
  10.0906258  51.1198047  15.1914767   9.8273541  50.9569136  15.9120185
  19.9604287  52.9136476  10.1597049  19.7139001  52.8332227  10.9933838
  20.2889410  52.1289944   9.9659577  19.9725531  52.7862742  10.2544572
  23.8552336  59.6219836  13.9483831  23.7166695  60.3200881  14.4532573
  23.0752334  59.4668492  13.5920012  23.7195563  59.7020002  13.9710105
  22.1930421  55.9216211  20.2006212  22.1878460  55.0496027  20.2048639
  22.8991415  56.1204380  19.7275668  22.2975425  55.8220085  20.1313248
  15.9201314  55.6493195  19.5720032  16.0644690  56.2294403  18.9363142
  16.2676963  56.0269492  20.2769887  15.9928776  55.7913899  19.5819027
  18.0921232  54.8483363  17.3545164  17.3444546  55.0414378  16.9493442
  18.2462757  54.0228583  17.1169285  18.0043659  54.7548475  17.2590570
  14.9929069  63.8395967  16.4381059  15.1418633  63.2798883  15.7854464
  15.7729072  63.9187968  16.8213578  15.1303163  63.7681532  16.3978008
  25.3505709  58.9798089   4.7100330  24.9712518  58.1935227   4.7029619
  24.6871954  59.5284946   4.5671974  25.1964184  58.9442913   4.6881127
  17.5182370  64.0110610  17.7165550  17.4426041  63.3419420  18.2716338
  17.4472229  64.7128398  18.2306216  17.4962977  64.0155517  17.8742398
  18.3323009  48.7433914  18.2440568  18.7895623  49.4757888  18.3713360
  18.4079338  48.3200379  19.0027824  18.4113979  48.7891152  18.3741644
  10.5756000  48.9899734  19.3330011  10.0398190  48.3780092  19.6490779
  10.6373765  49.5647870  19.9863678  10.5051633  48.9846661  19.4765438
  22.8050335  41.9223789  12.1134411  22.9233903  42.3800252  11.3801713
  22.6312510  41.1169050  11.8270628  22.7969506  41.8717561  11.9635344
  18.1752617  62.5311608   8.5489156  18.9402508  62.2621252   8.2271820
  18.0730707  62.0461619   9.2659219  18.2734112  62.4201173   8.6068984
  16.2105387  50.7336018  15.0882392  15.4201462  50.5527478  15.4099728
  16.6066010  49.9562970  15.0712686  16.1522263  50.5923479  15.1334940
  21.5949073  58.3678448  12.8141838  20.9194075  58.1363680  13.3155225
  21.6041449  57.7599631  12.1883943  21.4967578  58.2437373  12.7957990
  18.7243217  53.2096277  19.5705891  18.6602358  54.0706233  19.4426027
  18.8640405  52.8928270  18.7701442  18.7358687  53.2896444  19.4334104
  23.5965808  61.2243580   5.0452016  23.6785645  62.0310567   4.7213467
  24.0815550  61.2439540   5.7692789  23.6802966  61.3464243   5.1038914
  17.4062311  55.9028416  13.7122094  16.9824560  56.1032915  12.9761112
  17.2307166  55.0557264  13.8246393  17.3173192  55.8077198  13.6195784
  16.9074004  67.4178929  16.1743551  17.3969935  66.7189719  15.9919216
  16.3358237  67.1202799  16.7619608  16.8958534  67.2705153  16.2344592
  12.6944756  56.3980468   9.1450066  12.8509375  56.3327271  10.0006058
  13.0345349  57.1729020   8.9328746  12.7677991  56.5029666   9.2404660
  19.2323901  55.7738351   8.0143429  19.7739446  55.2708732   8.4782050
  19.5470460  55.7203546   7.2032915  19.3588298  55.6917772   7.9627241
  23.1041008  59.9840999  25.1270342  23.9175873  59.7126148  25.2875474
  22.9435974  59.6848539  24.3230537  23.2010956  59.8995925  25.0315747
  20.3813170  50.6674656  18.0665730  20.5955139  50.0285570  17.5129084
  19.7647069  51.1120480  17.6373592  20.3218499  50.6384800  17.9216161
  21.7917838  63.5893404   9.5119951  21.3997630  63.2860119   8.7942817
  21.9470910  64.4262494   9.3224904  21.7571428  63.6677241   9.3776448
   9.2679017  53.5815418   9.4610833   9.6477982  53.9999963   8.7971101
   8.6934382  54.1628874   9.7679677   9.2390342  53.7293277   9.4087574
  22.5452258  52.2763721  19.0049037  21.7328940  51.9689611  19.0862210
  23.0042193  51.7962721  19.5691749  22.4932643  52.1600213  19.1003631
  21.9557513  60.1543393   9.4525981  21.5972167  60.3258036  10.2290014
  21.4696223  60.6156599   8.8953980  21.8316209  60.2482364   9.4851250
  19.7727899  43.7774591  13.0553073  18.9021456  43.7513313  13.0086382
  20.0268240  43.6051784  12.2378918  19.6821459  43.7484735  12.9273209
  19.6405765  53.6823792  23.7877739  20.1105397  54.3065909  24.1745613
  19.6867646  53.0140768  24.3470954  19.7173641  53.6758473  23.9277811
  16.7977039  45.7880820  14.5126543  16.2815528  45.0961011  14.6378122
  16.2370968  46.4551597  14.4589142  16.6383552  45.7844078  14.5232609
  18.8669273  46.3273780  16.3419396  18.4801026  46.3522811  17.1232925
  18.3802210  45.7615459  15.8893912  18.7381781  46.2469531  16.3907299
  23.1162252  61.0447289  20.3993182  23.7541972  60.5507485  20.0655638
  22.4736344  60.9724689  19.8145409  23.1156478  60.9606297  20.2635537
  24.8419252  52.8936435  14.9659098  24.4146860  52.8062783  14.2107197
  24.2045305  53.0014210  15.5513942  24.6848859  52.8969095  14.9404539
  18.3340329  48.0011960  20.9056067  19.1613758  47.7297109  20.9614682
  18.3548175  48.7972802  21.2619885  18.4593179  48.0791714  20.9671250
  23.1716509  61.7367097  17.0398539  23.9608887  61.3856162  17.1600621
  23.3460106  62.5503486  16.7775173  23.3136790  61.8052954  17.0186407
  12.9109819  55.1475823  14.0926328  12.0697826  55.0479697  14.3005222
  13.1199827  55.9171303  14.4440648  12.8174512  55.2467866  14.1753643
  10.3885386  52.7695360  11.9211078   9.9942084  52.8438372  11.1461188
   9.8325503  53.1553306  12.4719440  10.2488198  52.8377135  11.8878738
  22.0250333  45.7476654  11.6014957  22.2299926  45.6798962  12.4471954
  21.6976757  46.5535475  11.5336135  22.0065581  45.8562594  11.7174612
  16.7226484  53.0757222  13.3423925  16.4189621  52.5213210  13.9434333
  16.0205905  53.2549432  12.8551959  16.5742694  53.0202004  13.3593631
  15.7792581  50.3857742   7.9068627  16.0552315  49.6676654   7.4946195
  16.3791250  50.9842662   7.6989733  15.9085846  50.3678113   7.8149388
  14.7844835  60.2906943  18.0496023  14.6765190  60.3009005  18.9158081
  14.9940616  61.1161723  17.8600977  14.7994946  60.4148018  18.1500115
  25.2784020  46.3008418  11.0817723  24.6658334  46.7878820  11.4671455
  25.3748195  45.6251909  11.6255374  25.2021918  46.2726727  11.2196581
  19.2803101  48.0571259   6.1815222  19.7346848  48.2281820   6.9063067
  19.7543147  47.4439370   5.7812998  19.4171422  47.9922145   6.2288984
  12.8018627  57.5419585  15.5117961  12.2106560  58.1829083  15.4820976
  13.5639650  57.9657203  15.4849260  12.8266887  57.6995424  15.5033108
  13.1979250  48.7021583  16.1785978  13.6580731  48.7760512  16.9161102
  13.2435356  49.5002837  15.8285800  13.2729805  48.8315730  16.2358735
  14.8462599  49.3688278  20.7458005  14.4548164  48.7221625  21.1813783
  15.0148462  49.9599713  21.3652261  14.8133510  49.3602546  20.9020711
  28.9209048  57.3725355  16.5095239  28.9792172  57.8212004  17.2555215
  28.2875516  57.7824168  16.0725319  28.8360343  57.4999090  16.5547787
  22.5608143  62.9928897  12.9449985  22.3627832  63.4819711  12.2506196
  21.9395854  63.1970138  13.5234118  22.4395707  63.0945435  12.9273208
  16.6216121  54.7613794   7.2860229  17.3658166  55.1488070   7.5243179
  16.7676818  53.9171219   7.4500717  16.7526707  54.6944266   7.3454199
  18.5395697  46.5564053  12.3192091  17.6931742  46.7286860  12.1933441
  18.5366829  45.7513396  12.6557919  18.4142847  46.4625082  12.3503218
  19.6093997  50.3339267  13.1854149  19.1353952  49.8081029  13.6959460
  19.9812133  49.7868740  12.6169010  19.5943886  50.1755264  13.1769296
   9.9867027  52.3310774  18.5537694  10.8492640  52.2306483  18.4675024
   9.6558810  51.7505483  17.9923267  10.0652224  52.2302400  18.4583100
  25.8730728  55.3941643  14.5960929  25.6328951  54.5548058  14.6003356
  26.3522735  55.4741809  15.3201703  25.9082912  55.2823042  14.7035732
  21.5377497  51.2275822   6.2479902  21.0100516  51.3104566   5.5585611
  21.9973205  51.9693693   6.2444547  21.5279347  51.3496484   6.1454598
  27.8735915  52.1743100  12.5490188  27.6345685  52.1338934  11.7110973
  28.0369816  53.0214252  12.6755909  27.8626218  52.2935185  12.4443670
  24.4781945  56.5593049  18.4795233  25.2016144  56.1065576  18.3006253
  24.2131907  56.8397715  17.6967561  24.5463218  56.5344018  18.3373949
  13.3468813  51.1553223  15.2148113  12.7221884  51.1671615  14.6074065
  13.0114408  51.6313398  15.8639353  13.2054305  51.2271740  15.2204681
  10.0594489  59.2153683  16.6551877   9.5294413  58.5246122  16.7046852
  10.3319582  59.2063868  15.8264585  10.0219211  59.1120815  16.5399293
  21.0914579  59.7979385   5.3789560  21.8148778  60.2637498   5.2354133
  20.6515170  59.8652995   4.6287157  21.1330272  59.8763222   5.2474341
  20.2600734  56.6576927  16.6290249  19.6457728  56.1134978  16.9238884
  20.7768019  56.1441164  16.1496065  20.2456397  56.5013336  16.6014477
  19.4997032  57.7281197  14.3634547  19.0724640  57.1030916  13.9299983
  19.4921976  57.4456119  15.1893554  19.4356173  57.5933978  14.4214375
  12.6159559  52.7646370  17.4322981  12.7753045  52.0089695  17.8374703
  12.4352452  53.3137310  18.0863719  12.6124918  52.7340184  17.5885687
  20.5579862  44.9307606  17.9873771  20.0620423  45.1271280  17.2965337
  21.3148924  45.3300274  17.8162572  20.5966686  45.0185340  17.8593907
  17.8282741  48.6049952  14.5777081  17.8525229  48.0710064  13.8889861
  18.0794215  48.0967261  15.2402672  17.8692660  48.4510856  14.5741726
  14.1084064  47.3320770  13.9582825  14.1482435  47.8329977  14.6717533
  13.2833728  47.4231164  13.6888749  13.9923590  47.4202587  14.0233364
  16.2913676  56.8981510  22.0603120  15.4409307  57.0353224  22.1960765
  16.4541804  56.1645288  22.5050822  16.1897540  56.8095611  22.1458719
  15.5298427  53.8481280  16.2556724  14.6990357  54.0155098  16.0491973
  15.4749944  53.4717231  17.0405610  15.3987842  53.8171011  16.3405253
  13.3382210  47.3390173  21.8913135  13.9634914  46.7952306  22.1642567
  12.8832690  46.8585091  21.3220926  13.3630471  47.1879654  21.8474729
  13.9034471  52.1236872   6.7846842  14.0437432  52.6209336   7.4875484
  14.4017004  51.4223166   6.9261056  13.9975552  52.0938850   6.9098421
  26.9117259  55.5219460  16.9825783  27.5035099  56.1616711  17.0143981
  27.3476253  54.8242497  17.2717850  27.0635690  55.5137810  17.0306616
  15.5113676  48.9217958   4.0884861  15.8329517  48.4421041   3.4344123
  15.7740620  49.7317604   3.8975673  15.5979701  48.9707856   3.9640353
  18.7410649  59.9436832  17.6083677  18.2335740  60.4972679  18.0524308
  18.4437295  60.0045122  16.7902452  18.6215534  60.0343144  17.5532134
  20.9072831  48.3090152  16.4508340  21.3327903  47.8562678  15.8391866
  20.2929824  47.7550223  16.7273128  20.8801476  48.1604128  16.4013365
  19.3467054  44.7805252   9.8598917  18.7035372  44.6302898  10.4284056
  19.0066461  44.5347597   9.0948022  19.2012131  44.7217374   9.8301932
  23.9366400  52.7364679   9.2828926  23.2657590  53.2794381   9.1541991
  24.6306151  53.2059534   9.0410621  23.9395268  52.8862950   9.2284453
  17.9853134  64.8761391  14.5140684  17.7618789  64.1180220  14.8824710
  17.4962977  64.9059412  13.7921124  17.8796583  64.7683615  14.4617425
  24.0994528  49.1920562  12.1919299  24.4522138  48.7650285  12.8665098
  23.2409329  49.1071406  12.3220375  24.0243972  49.1165303  12.3114309
  12.7978213  51.8228082  10.2502145  12.0790202  52.2392214  10.5175009
  13.1690575  52.3882321   9.6993784  12.7470145  51.9677363  10.2084952
  22.0977794  52.4555931  16.1404141  22.0775721  52.2739226  16.9938920
  22.1456994  53.3267949  16.1163725  22.1012435  52.5572469  16.2627436
  20.0424123  59.0443123  22.0652618  20.0019978  58.3992800  21.4797774
  20.8547442  58.9879740  22.3778030  20.1567277  58.9402090  22.0249567
  16.6331591  65.0961849  11.9677769  16.2191990  64.4335979  11.5781610
  17.3178965  65.2439707  11.4473463  16.6729963  65.0202507  11.8334266
  19.9996885  64.2551934  12.7201385  19.6013168  64.3654204  11.9522205
  19.3848105  64.4634000  13.3027945  19.8495774  64.3025502  12.6932685
  18.5724787  50.8626082   5.5875525  17.9789626  51.1843078   5.0360092
  18.6100065  50.0167177   5.3796631  18.4899176  50.7850410   5.4758296
  25.5318588  44.3138974  13.1203611  25.0249453  43.6068114  13.0524789
  26.3286022  43.9832163  13.2504688  25.5745827  44.1612125  13.1302606
  21.4482604  50.8205586   9.0177275  21.2196297  50.8438288   8.1755633
  21.7080680  49.9963053   9.1372286  21.4528792  50.7021666   8.9102473
  15.7301832  52.6740059  18.6202375  15.2180735  52.0661242  18.9787407
  15.5581328  53.3896652  19.0876351  15.6291469  52.6903359  18.7418599
  10.5767547  51.1177635  21.2704737  10.4070137  51.7779009  20.7252944
  10.1333497  51.3284196  21.9917226  10.4866880  51.2463617  21.2966367
  14.5027366  49.3582133  10.3131471  14.9784733  49.7199212   9.6781652
  14.0015966  50.0138600  10.5931614  14.4992725  49.5076321  10.2608212
  27.7338728  58.8303901   6.1044476  28.1172334  59.5795257   6.3342573
  26.9382841  59.0769720   5.8456465  27.6732510  58.9773595   6.1002049
  19.6070903  50.5964304  21.0604631  20.1642333  50.3678114  20.4283096
  19.2831968  51.3569970  20.7839843  19.6417313  50.6748141  20.9261128
   7.4769611  54.0224500  16.5293227   6.9296331  53.3525146  16.6474095
   8.2661990  53.6554348  16.5936694   7.5121795  53.8689487  16.5561928
  17.3254020  53.6831957  22.0256638  18.0765347  53.9983634  22.3396192
  17.5176596  53.4811128  21.1990560  17.4645434  53.6999339  21.9500034
  16.5454019  51.5023332   3.6804855  16.9252984  51.5202962   2.8955970
  15.8046615  51.9477321   3.5595702  16.4922857  51.5705107   3.5468423
  24.1739310  49.8105524   9.2680433  24.1733536  49.6554180  10.1264710
  23.9695490  50.6568511   9.2121819  24.1439088  49.9126144   9.3868373
   6.2356581  53.2345308  13.6839250   6.0578342  52.7821917  14.4094166
   5.9475603  54.0371469  13.8677728   6.1669534  53.2867866  13.8182753
  21.8980162  54.4903025  12.9216640  22.3933827  53.7726020  12.8820661
  21.0879938  54.1873823  12.8071127  21.8524055  54.3400672  12.8990366
  23.9631981  57.2406713  15.6093769  24.3887052  56.7181135  15.0564194
  23.5988901  57.8387550  15.0882392  23.9718583  57.2516940  15.4502779
  13.5986061  65.5370930  14.3691115  13.9132620  66.3507319  14.3768896
  14.0079474  65.1521149  15.0373274  13.7054159  65.5999633  14.4695206
  20.5510580  60.9540977  11.9394927  21.0221758  61.6681240  12.1084912
  20.8870759  60.3539727  12.4754796  20.6705695  60.9712441  12.0427302
  22.6387565  62.5642291  24.1186999  22.7484530  61.7750851  24.4743746
  22.9678461  62.4748227  23.3161337  22.7039971  62.4348143  24.0529389
  17.4680075  45.7268448  18.8953021  17.6007981  44.9299441  19.2233997
  17.8525228  46.2534851  19.4751297  17.5436404  45.6868364  19.0296524
  21.1884527  60.7458911  18.7022619  20.6405473  60.1216795  18.4342684
  21.6497555  60.9353183  17.9866699  21.1751736  60.6817961  18.5573050
  20.5412430  42.6498774  15.4934115  19.7358394  42.5396504  15.8101953
  20.4119166  42.7511230  14.6363980  20.4032563  42.6482444  15.4142155
  23.9978391  48.8144266  16.0873811  23.4141380  49.3153472  15.6751379
  24.3182685  48.3073822  15.4538135  23.9591566  48.8136101  15.9332319
  16.5373190  47.7284861   6.3632486  17.3588884  47.8983173   6.1214181
  16.0742841  47.8832122   5.6398784  16.5904352  47.7766594   6.2204131
  15.1268522  45.7227623  17.1430915  15.6712935  45.3818750  17.7335257
  15.1805458  46.5813084  17.2852200  15.2157641  45.7982882  17.2512788
  10.9399081  59.4844039  14.0169723  11.5443938  59.4439873  13.3883544
  10.7326393  60.3315191  14.0473779  10.9987978  59.6032041  13.9285840
  20.7542853  61.7509984  15.2331960  21.5741227  61.6072950  15.4948256
  20.4736931  62.3756183  15.7748398  20.8339596  61.8220336  15.3519900
  37.2256503  69.4074836   8.1974837  37.1950508  70.2619472   8.3693106
  37.8237852  69.1070128   8.7560980  37.3093661  69.4891332   8.3049639
  30.4256188  68.4950487  12.9527767  29.5694084  68.6558985  13.0036884
  30.4723842  67.6242551  12.9732828  30.3055300  68.3901289  12.9633833
  33.7349905  74.7637012  22.5588223  34.4416672  74.2689043  22.6875158
  33.9237840  75.2046094  21.8290881  33.8677810  74.7555363  22.4697269
  33.2708009  70.5542531  15.5959419  33.8163969  71.2327617  15.6553388
  33.2124885  70.4129992  14.7361000  33.3423924  70.6334532  15.4771479
  21.8837216  66.2337614  13.5064413  21.2642247  65.6430261  13.3374427
  21.7821079  66.8249049  12.8728736  21.7774891  66.2341696  13.3869402
  28.9805111  67.9737156   7.8396876  29.6785276  68.1525283   8.3318339
  29.2957444  67.4507495   7.2167265  29.1300449  67.9230928   7.8198886
  21.6106349  69.7789896  15.7507982  21.4865046  70.3652341  16.3857800
  22.2624633  69.2850091  16.0520257  21.6879998  69.7928700  15.8893911
  26.6364690  72.9551613  15.0295493  27.2813692  72.4624056  14.7106441
  26.8766467  73.0976399  15.8561571  26.7675275  72.9029055  15.1045026
  29.1750781  75.8006518  14.6802385  29.4574024  75.0057924  14.4589141
  29.9036942  76.2787106  14.7007446  29.3240345  75.7541115  14.6505400
  27.1531975  63.3429552  11.9218150  26.8235305  63.7940696  11.2521849
  26.4776977  63.2645716  12.4691157  27.0042411  63.3980688  11.9041374
  34.3608383  59.3315075  10.1667761  34.0461824  60.0218554  10.5988183
  33.8435324  59.2759858   9.4653262  34.2372853  59.4249964  10.1264710
  25.3587929  61.4041841   7.4041098  26.1133897  61.7720158   7.1658148
  25.1815464  61.7781395   8.1720278  25.4442407  61.5140029   7.4825987
  38.6522828  67.5536281  15.4488637  37.8151249  67.6238468  15.6836232
  38.6211059  67.5560776  14.5762940  38.5241110  67.5646508  15.3548185
  25.0487557  69.6969317  21.1637006  25.2208061  69.5875212  22.0122287
  25.5856914  70.3423722  20.9268198  25.1532561  69.7761319  21.2542103
  23.7144994  63.8112160   4.1019211  23.5320567  64.0284041   3.2760204
  24.5770607  63.9251172   4.1577825  23.8149583  63.8602058   3.9873698
  29.3944713  60.8138570   7.1368235  30.1230873  60.6354525   6.6906391
  29.4839606  61.6556650   7.3475413  29.5151375  60.9122449   7.1021753
  33.3753014  71.7491958  11.0400529  34.1310529  72.1823472  11.0789438
  33.4815338  71.0996728  11.6135165  33.5023184  71.7169442  11.1298554
  36.4133185  75.5765235  11.7902932  35.9768417  75.5801977  12.5461903
  36.0796100  76.2570734  11.3582509  36.2995805  75.6777691  11.8383764
  30.9862258  77.6173568  23.1146082  31.7702675  77.7304416  23.4801824
  30.7858853  76.7914705  23.3104768  31.0728284  77.5120287  23.1980468
  19.3549274  72.2901248  15.9989926  19.0887689  71.4740365  16.1580916
  19.3687838  72.3354404  15.1285442  19.3173996  72.1758153  15.8943408
  36.3330668  62.6179063  14.0332360  36.9756576  62.6877167  14.6194275
  36.5853688  61.9508286  13.5311902  36.4652800  62.5305412  14.0459639
  24.1047880  65.8279626  18.6456934  23.4119677  65.3576606  18.8917665
  24.7208207  65.6017931  19.2198641  24.0932410  65.7246758  18.7666086
  39.5477531  72.2946155  10.6822569  40.2093965  71.7336823  10.5818478
  38.9068943  71.7998186  11.0075260  39.5506398  72.1382564  10.7154909
  19.7642687  73.0760027  13.2801670  19.5818261  73.0506913  12.4273962
  20.4992356  73.5458965  13.3190579  19.8456751  73.1421390  13.1599589
  22.8288439  69.7945030  19.7883779  23.5528411  69.7798061  20.2748674
  22.9304576  70.5040385  19.2905747  22.9506648  69.8969733  19.7862566
  30.2033388  73.2744115  24.6532726  29.4106369  73.5887627  24.8385346
  30.3182316  73.4895583  23.8153511  30.1028799  73.3527952  24.5571061
  32.8764707  69.9978106   8.9427742  32.9711562  70.7367400   9.3967367
  32.2523551  69.5695581   9.3762306  32.7973738  70.0439427   9.0735889
  31.1317181  73.1764319  19.5918023  31.7056043  72.5391563  19.7466587
  31.0531985  73.1768401  18.7227680  31.2050416  73.0829430  19.4864434
  19.7313598  69.9553528  13.4300737  20.3087100  69.8189979  14.0692982
  19.0327659  69.4989312  13.6846321  19.7134619  69.8675794  13.5623027
  26.4880900  71.6087584  11.6439220  26.2300144  70.7759319  11.6170520
  26.5429383  71.8345197  10.8031720  26.4580678  71.5185355  11.5159357
  31.5681950  63.7116034  11.7443313  30.8638277  63.2225220  11.9027232
  31.6166924  63.7238509  10.8731757  31.4712002  63.6405682  11.6382653
  25.4615612  69.1625346  12.1304115  24.8865203  69.3217515  12.7668076
  25.0851288  68.5260755  11.6672565  25.3218424  69.0923159  12.1558673
  29.1288901  67.6348695  16.9896493  28.7403333  67.2102913  16.3348684
  28.4643599  67.8830845  17.4973520  28.9735828  67.6087417  16.9684361
  38.7712170  67.3923700   9.7644323  38.5148735  66.5803642   9.5742206
  39.6141484  67.4001267   9.5374511  38.8578195  67.2735698   9.7029140
  32.9515262  61.3323324  14.5020477  33.3325774  60.6501495  14.8888352
  32.1478547  61.0432926  14.3196142  32.8891724  61.1890373  14.5324533
  36.4537329  74.5473296  19.6002876  36.2175967  73.7161361  19.4814936
  37.0980558  74.4958903  20.1857720  36.5132000  74.4170984  19.6688769
  26.1035747  75.3368818  10.3145612  26.7409694  75.0980565  10.8597406
  26.5290819  75.5405976   9.5798773  26.2611913  75.3319828  10.2862770
  26.9107103  63.8377522  24.3683086  26.5960544  64.6077085  24.1052649
  26.5897035  63.2747779  23.7835313  26.8166022  63.8687791  24.2424436
  37.4773750  74.3317745  15.6631170  37.1719567  75.0645802  16.0244486
  36.7579965  73.9255674  15.3823956  37.3261092  74.3799478  15.6744307
  28.4857219  75.8141240  11.9939399  28.5596227  75.6516412  12.8481248
  29.3026726  76.0031430  11.7499880  28.6173578  75.8177983  12.0837424
  43.1775542  70.9710746  14.9899515  43.1100042  70.9906705  14.1202101
  43.1631204  71.8141073  15.2155185  43.1654298  71.0984480  14.8951991
  24.4639000  62.2268044   9.9829282  23.5961425  62.2990643  10.0486891
  24.7514204  63.0290123  10.1717257  24.3778748  62.3562191  10.0204049
  33.5871888  62.3745903  18.3140604  34.3325480  62.1855714  17.9004029
  33.1709193  62.9004141  17.7554460  33.6356863  62.4248049  18.1705177
  40.9634159  69.7455132  13.2646109  41.5142081  69.1123201  13.5043201
  40.9478275  70.2770525  13.9561613  41.0419356  69.7304080  13.4024967
  27.6156550  73.5793729  17.8106002  27.1168244  74.2909497  17.8890891
  28.4256774  73.8994396  17.7724165  27.6612657  73.7320578  17.8162571
  23.8784668  72.8416682  12.0568723  23.5897916  72.2154153  12.5914451
  24.7468016  72.7836970  12.1233404  23.9644920  72.7404226  12.1459678
  34.6662565  67.9851466  12.3750705  34.3227331  67.2641801  12.7257955
  34.7655608  67.7765317  11.5329063  34.6304608  67.8475669  12.3022385
  26.5423608  66.4374774  23.1068301  25.7323384  66.7432553  22.9958143
  27.0198295  67.1580356  23.2220885  26.4927087  66.5889375  23.1075372
  25.4015168  75.6520495  13.3551204  24.8795921  75.7920786  14.0403068
  25.7889188  74.8931159  13.5453321  25.3818869  75.5606018  13.4852280
  22.3906352  65.7026303   7.4246158  22.1031147  65.3327574   6.6878106
  23.0776820  66.1721159   7.1629863  22.4495249  65.7173273   7.2761234
  26.8281493  72.6824514   8.7532695  26.6324276  73.2899248   8.1592998
  27.0515839  71.9892458   8.2724369  26.8316134  72.6702039   8.5948776
  25.2260023  69.5679252   8.8713563  25.9482675  69.7320410   8.4117369
  24.7468016  70.2888916   8.7652903  25.2623754  69.6977481   8.7879177
  33.1853531  65.9043050  14.2510248  32.3464631  65.9304329  14.0148511
  33.2557898  66.5513786  14.8315595  33.0721924  66.0039176  14.3019365
  22.8767640  71.9737324  17.9767703  23.3888737  72.2521577  17.3276463
  22.5903983  72.7126618  18.3430516  22.9102503  72.1239678  17.9357581
  31.6322809  62.8028427   8.9837864  32.3349162  62.6036176   8.5057822
  31.3666998  62.0304370   9.2906707  31.6969441  62.6591393   8.9583306
  37.0611055  71.1111037  11.5371490  36.9745029  71.2666463  12.3906269
  36.6061535  71.7549113  11.1630895  36.9814311  71.2286792  11.6078597
  19.9634546  66.4807516   8.2731440  20.0650683  67.2833677   8.6012415
  20.7590433  66.2794852   7.9754520  20.0962452  66.5693415   8.2766795
  26.3951365  64.0663712  18.0368745  26.2034562  64.0818847  18.8868168
  27.2449961  64.2627387  18.0135399  26.4927087  64.0978064  18.1592039
  20.7798278  66.5954694  16.0152561  20.6383770  65.7438635  16.1397069
  21.0638842  66.6383355  15.1914767  20.8006124  66.4754444  15.9120185
  30.9336871  68.4321784  10.1597049  30.6871585  68.3517535  10.9933838
  31.2621994  67.6475252   9.9659577  30.9458114  68.3048049  10.2544572
  34.8284920  75.1405143  13.9483831  34.6899279  75.8386189  14.4532573
  34.0484917  74.9853800  13.5920012  34.6928146  75.2205310  13.9710105
  33.1663005  71.4401519  20.2006212  33.1611043  70.5681335  20.2048639
  33.8723999  71.6389688  19.7275668  33.2708009  71.3405393  20.1313248
  26.8933898  71.1678503  19.5720032  27.0377274  71.7479711  18.9363142
  27.2409547  71.5454799  20.2769887  26.9661359  71.3099207  19.5819027
  29.0653815  70.3668671  17.3545164  28.3177129  70.5599686  16.9493442
  29.2195341  69.5413891  17.1169285  28.9776243  70.2733783  17.2590570
  29.3055592  64.2619222  18.2440568  29.7628207  64.9943196  18.3713360
  29.3811921  63.8385687  19.0027824  29.3846562  64.3076460  18.3741644
  21.5488584  64.5085042  19.3330011  21.0130773  63.8965400  19.6490779
  21.6106348  65.0833178  19.9863678  21.4784216  64.5031969  19.4765438
  33.7782918  57.4409097  12.1134411  33.8966486  57.8985560  11.3801713
  33.6045094  56.6354358  11.8270628  33.7702089  57.3902869  11.9635344
  27.1837970  66.2521326  15.0882392  26.3934045  66.0712786  15.4099728
  27.5798593  65.4748278  15.0712686  27.1254847  66.1108787  15.1334940
  32.5681657  73.8863756  12.8141838  31.8926658  73.6548988  13.3155225
  32.5774033  73.2784939  12.1883943  32.4700161  73.7622681  12.7957990
  29.6975801  68.7281585  19.5705891  29.6334942  69.5891541  19.4426027
  29.8372988  68.4113578  18.7701442  29.7091271  68.8081752  19.4334104
  28.3794895  71.4213724  13.7122094  27.9557144  71.6218223  12.9761112
  28.2039750  70.5742572  13.8246393  28.2905775  71.3262506  13.6195784
  23.6677339  71.9165776   9.1450066  23.8241959  71.8512578  10.0006058
  24.0077933  72.6914328   8.9328746  23.7410574  72.0214974   9.2404660
  30.2056484  71.2923659   8.0143429  30.7472030  70.7894040   8.4782050
  30.5203043  71.2388854   7.2032915  30.3320881  71.2103080   7.9627241
  34.0773592  75.5026307  25.1270342  34.8908457  75.2311455  25.2875474
  33.9168558  75.2033847  24.3230537  34.1743540  75.4181233  25.0315747
  31.3545753  66.1859964  18.0665730  31.5687723  65.5470878  17.5129084
  30.7379653  66.6305788  17.6373592  31.2951083  66.1570107  17.9216161
  20.2411601  69.1000726   9.4610833  20.6210566  69.5185271   8.7971101
  19.6666966  69.6814182   9.7679677  20.2122926  69.2478585   9.4087574
  33.5184841  67.7949029  19.0049037  32.7061523  67.4874919  19.0862210
  33.9774776  67.3148029  19.5691749  33.4665226  67.6785521  19.1003631
  30.7460482  59.2959899  13.0553073  29.8754040  59.2698621  13.0086382
  31.0000823  59.1237092  12.2378918  30.6554042  59.2670043  12.9273209
  30.6138349  69.2009100  23.7877739  31.0837980  69.8251217  24.1745613
  30.6600229  68.5326076  24.3470954  30.6906225  69.1943781  23.9277811
  27.7709623  61.3066128  14.5126543  27.2548111  60.6146319  14.6378122
  27.2103552  61.9736905  14.4589142  27.6116136  61.3029385  14.5232609
  29.8401856  61.8459088  16.3419396  29.4533609  61.8708119  17.1232925
  29.3534793  61.2800767  15.8893912  29.7114365  61.7654839  16.3907299
  34.0894836  76.5632597  20.3993182  34.7274556  76.0692793  20.0655638
  33.4468927  76.4909997  19.8145409  34.0889062  76.4791605  20.2635537
  35.8151836  68.4121743  14.9659098  35.3879444  68.3248091  14.2107197
  35.1777889  68.5199518  15.5513942  35.6581443  68.4154403  14.9404539
  29.5058998  58.7326073  18.6329655  30.1352116  59.2686373  18.3550726
  29.6744861  58.6403432  19.4843221  29.6236792  58.7987436  18.7178184
  29.3072913  63.5197268  20.9056067  30.1346342  63.2482417  20.9614682
  29.3280759  64.3158110  21.2619885  29.4325763  63.5977022  20.9671250
  34.1449092  77.2552405  17.0398539  34.9341470  76.9041470  17.1600621
  34.3192690  78.0688794  16.7775173  34.2869374  77.3238262  17.0186407
  23.8842403  70.6661131  14.0926328  23.0430409  70.5665005  14.3005222
  24.0932410  71.4356611  14.4440648  23.7907095  70.7653174  14.1753643
  21.3617969  68.2880668  11.9211078  20.9674667  68.3623680  11.1461188
  20.8058086  68.6738614  12.4719440  21.2220782  68.3562442  11.8878738
  32.9982916  61.2661962  11.6014957  33.2032510  61.1984270  12.4471954
  32.6709340  62.0720783  11.5336135  32.9798164  61.3747902  11.7174612
  27.6959067  68.5942530  13.3423925  27.3922205  68.0398518  13.9434333
  26.9938488  68.7734740  12.8551959  27.5475277  68.5387312  13.3593631
  26.7525164  65.9043050   7.9068627  27.0284899  65.1861962   7.4946195
  27.3523834  66.5027970   7.6989733  26.8818429  65.8863421   7.8149388
  36.2516604  61.8193726  11.0817723  35.6390918  62.3064128  11.4671455
  36.3480779  61.1437217  11.6255374  36.1754502  61.7912035  11.2196581
  30.2535685  63.5756567   6.1815222  30.7079432  63.7467128   6.9063067
  30.7275731  62.9624678   5.7812998  30.3904005  63.5107452   6.2288984
  23.7751210  73.0604893  15.5117961  23.1839144  73.7014391  15.4820976
  24.5372234  73.4842510  15.4849260  23.7999471  73.2180732  15.5033108
  24.1711833  64.2206891  16.1785978  24.6313315  64.2945820  16.9161102
  24.2167940  65.0188145  15.8285800  24.2462389  64.3501038  16.2358735
  25.8195183  64.8873586  20.7458005  25.4280748  64.2406933  21.1813783
  25.9881046  65.4785021  21.3652261  25.7866093  64.8787854  20.9020711
  39.8941632  72.8910663  16.5095239  39.9524756  73.3397312  17.2555215
  39.2608100  73.3009476  16.0725319  39.8092927  73.0184398  16.5547787
  27.5948705  70.2799102   7.2860229  28.3390750  70.6673378   7.5243179
  27.7409401  69.4356527   7.4500717  27.7259290  70.2129574   7.3454199
  29.5128280  62.0749361  12.3192091  28.6664326  62.2472168  12.1933441
  29.5099413  61.2698704  12.6557919  29.3875430  61.9810389  12.3503218
  30.5826581  65.8524575  13.1854149  30.1086535  65.3266337  13.6959460
  30.9544717  65.3054048  12.6169010  30.5676470  65.6940572  13.1769296
  20.9599611  67.8496082  18.5537694  21.8225224  67.7491791  18.4675024
  20.6291394  67.2690791  17.9923267  21.0384807  67.7487708  18.4583100
  36.8463311  70.9126951  14.5960929  36.6061534  70.0733366  14.6003356
  37.3255319  70.9927117  15.3201703  36.8815495  70.8008350  14.7035732
  32.5110081  66.7461129   6.2479902  31.9833099  66.8289873   5.5585611
  32.9705789  67.4879001   6.2444547  32.5011931  66.8681792   6.1454598
  38.8468498  67.6928408  12.5490188  38.6078268  67.6524242  11.7110973
  39.0102400  68.5399560  12.6755909  38.8358802  67.8120493  12.4443670
  35.4514529  72.0778357  18.4795233  36.1748727  71.6250883  18.3006253
  35.1864491  72.3583023  17.6967561  35.5195802  72.0529326  18.3373949
  24.3201397  66.6738531  15.2148113  23.6954467  66.6856923  14.6074065
  23.9846992  67.1498706  15.8639353  24.1786889  66.7457048  15.2204681
  31.2333318  72.1762235  16.6290249  30.6190311  71.6320286  16.9238884
  31.7500603  71.6626472  16.1496065  31.2188980  72.0198644  16.6014477
  30.4729615  73.2466505  14.3634547  30.0457223  72.6216224  13.9299983
  30.4654560  72.9641427  15.1893554  30.4088756  73.1119286  14.4214375
  23.5892142  68.2831678  17.4322981  23.7485629  67.5275003  17.8374703
  23.4085036  68.8322618  18.0863719  23.5857501  68.2525492  17.5885687
  31.5312445  60.4492914  17.9873771  31.0353007  60.6456588  17.2965337
  32.2881507  60.8485582  17.8162572  31.5699270  60.5370648  17.8593907
  28.8015325  64.1235260  14.5777081  28.8257812  63.5895372  13.8889861
  29.0526799  63.6152569  15.2402672  28.8425244  63.9696164  14.5741726
  25.0816647  62.8506078  13.9582825  25.1215019  63.3515285  14.6717533
  24.2566312  62.9416472  13.6888749  24.9656173  62.9387894  14.0233364
  27.2646260  72.4166818  22.0603120  26.4141891  72.5538532  22.1960765
  27.4274388  71.6830596  22.5050822  27.1630124  72.3280919  22.1458719
  26.5031011  69.3666588  16.2556724  25.6722940  69.5340406  16.0491973
  26.4482528  68.9902539  17.0405610  26.3720425  69.3356319  16.3405253
  24.3114794  62.8575481  21.8913135  24.9367497  62.3137614  22.1642567
  23.8565274  62.3770398  21.3220926  24.3363054  62.7064962  21.8474729
  24.8767054  67.6422180   6.7846842  25.0170015  68.1394644   7.4875484
  25.3749587  66.9408474   6.9261056  24.9708135  67.6124158   6.9098421
  37.8849843  71.0404768  16.9825783  38.4767683  71.6802019  17.0143981
  38.3208837  70.3427805  17.2717850  38.0368274  71.0323118  17.0306616
  26.4846260  64.4403266   4.0884861  26.8062101  63.9606348   3.4344123
  26.7473203  65.2502912   3.8975673  26.5712285  64.4893164   3.9640353
  29.7143232  75.4622140  17.6083677  29.2068323  76.0157987  18.0524308
  29.4169879  75.5230430  16.7902452  29.5948117  75.5528451  17.5532134
  31.8805415  63.8275460  16.4508340  32.3060486  63.3747986  15.8391866
  31.2662408  63.2735531  16.7273128  31.8534060  63.6789436  16.4013365
  30.3199637  60.2990560   9.8598917  29.6767955  60.1488206  10.4284056
  29.9799044  60.0532905   9.0948022  30.1744715  60.2402682   9.8301932
  34.9098984  68.2549987   9.2828926  34.2390174  68.7979689   9.1541991
  35.6038734  68.7244842   9.0410621  34.9127851  68.4048258   9.2284453
  35.0727111  64.7105870  12.1919299  35.4254721  64.2835593  12.8665098
  34.2141913  64.6256714  12.3220375  34.9976556  64.6350611  12.3114309
  23.7710796  67.3413390  10.2502145  23.0522785  67.7577522  10.5175009
  24.1423159  67.9067629   9.6993784  23.7202728  67.4862671  10.2084952
  33.0710377  67.9741239  16.1404141  33.0508305  67.7924534  16.9938920
  33.1189578  68.8453257  16.1163725  33.0745018  68.0757777  16.2627436
  31.0156707  74.5628431  22.0652618  30.9752562  73.9178108  21.4797774
  31.8280025  74.5065048  22.3778030  31.1299861  74.4587398  22.0249567
  29.5457371  66.3811390   5.5875525  28.9522210  66.7028386   5.0360092
  29.5832648  65.5352485   5.3796631  29.4631760  66.3035718   5.4758296
  36.5051171  59.8324282  13.1203611  35.9982036  59.1253422  13.0524789
  37.3018605  59.5017471  13.2504688  36.5478411  59.6797433  13.1302606
  32.4215187  66.3390894   9.0177275  32.1928880  66.3623596   8.1755633
  32.6813264  65.5148361   9.1372286  32.4261375  66.2206974   8.9102473
  26.7034416  68.1925367  18.6202375  26.1913319  67.5846550  18.9787407
  26.5313912  68.9081960  19.0876351  26.6024053  68.2088667  18.7418599
  21.5500130  66.6362943  21.2704737  21.3802721  67.2964317  20.7252944
  21.1066080  66.8469504  21.9917226  21.4599464  66.7648925  21.2966367
  25.4759950  64.8767441  10.3131471  25.9517316  65.2384520   9.6781652
  24.9748549  65.5323908  10.5931614  25.4725309  65.0261629  10.2608212
  30.5803486  66.1149612  21.0604631  31.1374916  65.8863421  20.4283096
  30.2564551  66.8755278  20.7839843  30.6149896  66.1933449  20.9261128
  18.4502195  69.5409808  16.5293227  17.9028914  68.8710454  16.6474095
  19.2394573  69.1739656  16.5936694  18.4854379  69.3874795  16.5561928
  28.2986603  69.2017265  22.0256638  29.0497930  69.5168942  22.3396192
  28.4909180  68.9996436  21.1990560  28.4378018  69.2184647  21.9500034
  27.5186603  67.0208640   3.6804855  27.8985568  67.0388270   2.8955970
  26.7779199  67.4662629   3.5595702  27.4655441  67.0890415   3.5468423
  35.1471894  65.3290832   9.2680433  35.1466120  65.1739488  10.1264710
  34.9428074  66.1753819   9.2121819  35.1171671  65.4311452   9.3868373
  17.2089164  68.7530616  13.6839250  17.0310926  68.3007225  14.4094166
  16.9208187  69.5556777  13.8677728  17.1402118  68.8053174  13.8182753
  32.8712746  70.0088333  12.9216640  33.3666411  69.2911328  12.8820661
  32.0612521  69.7059131  12.8071127  32.8256639  69.8585980  12.8990366
  34.9364564  72.7592021  15.6093769  35.3619636  72.2366443  15.0564194
  34.5721484  73.3572858  15.0882392  34.9451167  72.7702248  15.4502779
  31.5243164  76.4726285  11.9394927  31.9954342  77.1866548  12.1084912
  31.8603342  75.8725035  12.4754796  31.6438279  76.4897749  12.0427302
  33.6120148  78.0827598  24.1186999  33.7217114  77.2936159  24.4743746
  33.9411045  77.9933535  23.3161337  33.6772554  77.9533451  24.0529389
  28.4412659  61.2453756  18.8953021  28.5740564  60.4484749  19.2233997
  28.8257812  61.7720159  19.4751297  28.5168988  61.2053672  19.0296524
  32.1617110  76.2644219  18.7022619  31.6138056  75.6402103  18.4342684
  32.6230139  76.4538491  17.9866699  32.1484320  76.2003269  18.5573050
  31.5145014  58.1684082  15.4934115  30.7090978  58.0581811  15.8101953
  31.3851749  58.2696538  14.6363980  31.3765147  58.1667752  15.4142155
  34.9710975  64.3329574  16.0873811  34.3873963  64.8338780  15.6751379
  35.2915269  63.8259130  15.4538135  34.9324150  64.3321409  15.9332319
  27.5105774  63.2470169   6.3632486  28.3321468  63.4168481   6.1214181
  27.0475425  63.4017429   5.6398784  27.5636936  63.2951901   6.2204131
  26.1001106  61.2412931  17.1430915  26.6445519  60.9004058  17.7335257
  26.1538041  62.0998392  17.2852200  26.1890225  61.3168190  17.2512788
  31.7275436  77.2695292  15.2331960  32.5473810  77.1258258  15.4948256
  31.4469514  77.8941491  15.7748398  31.8072180  77.3405644  15.3519900
  37.8839686  79.3562830  24.3683086  37.5693127  80.1262393  24.1052649
  37.5629619  78.7933086  23.7835313  37.7898605  79.3873099  24.2424436
  44.5604472  77.8931211  18.3140604  45.3058064  77.7041022  17.9004029
  44.1441777  78.4189449  17.7554460  44.6089446  77.9433357  18.1705177
  37.3683949  79.5849020  18.0368745  37.1767146  79.6004155  18.8868168
  38.2182545  79.7812695  18.0135399  37.4659671  79.6163372  18.1592039
  40.2788176  79.7804530  18.2440568  40.7360790  80.5128504  18.3713360
  40.3544505  79.3570995  19.0027824  40.3579146  79.8261768  18.3741644
  38.7442206  76.8251436  14.5126543  38.2280695  76.1331627  14.6378122
  38.1836135  77.4922213  14.4589142  38.5848719  76.8214693  14.5232609
  40.8134440  77.3644396  16.3419396  40.4266193  77.3893427  17.1232925
  40.3267377  76.7986074  15.8893912  40.6846949  77.2840147  16.3907299
  40.4791581  74.2511381  18.6329655  41.1084699  74.7871681  18.3550726
  40.6477444  74.1588740  19.4843221  40.5969376  74.3172744  18.7178184
  40.2805496  79.0382576  20.9056067  41.1078926  78.7667725  20.9614682
  40.3013342  79.8343418  21.2619885  40.4058346  79.1162330  20.9671250
  42.5045029  75.9678222  17.9873771  42.0085590  76.1641896  17.2965337
  43.2614091  76.3670890  17.8162572  42.5431854  76.0555956  17.8593907
  36.0549231  78.3691386  13.9582825  36.0947602  78.8700593  14.6717533
  35.2298895  78.4601780  13.6888749  35.9388757  78.4573202  14.0233364
  35.2847377  78.3760789  21.8913135  35.9100081  77.8322922  22.1642567
  34.8297857  77.8955706  21.3220926  35.3095638  78.2250270  21.8474729
  42.8537998  79.3460768  16.4508340  43.2793070  78.8933294  15.8391866
  42.2394991  78.7920839  16.7273128  42.8266644  79.1974744  16.4013365
  39.4145242  76.7639064  18.8953021  39.5473148  75.9670057  19.2233997
  39.7990395  77.2905467  19.4751297  39.4901571  76.7238980  19.0296524
  42.4877598  73.6869390  15.4934115  41.6823561  73.5767119  15.8101953
  42.3584333  73.7881845  14.6363980  42.3497730  73.6853060  15.4142155
  37.0733689  76.7598239  17.1430915  37.6178102  76.4189365  17.7335257
  37.1270625  77.6183700  17.2852200  37.1622809  76.8353498  17.2512788
  22.4568145  36.1829836   9.4928270  23.1634912  35.6881866   9.6215205
  22.6456080  36.6238917   8.7630928  22.5896051  36.1748186   9.4037316
  19.5960439  39.6057372   7.3842345  19.6843785  39.4183513   8.2320556
  20.0250152  38.9594802   6.9847192  19.6722542  39.4820380   7.4514097
  17.1630899  38.8888532   6.3660008  16.6001734  38.4761142   6.8899669
  17.9251923  38.8141438   6.7853151  17.1925348  38.8165933   6.5053008
  13.7705797  31.1162140   8.0977053  13.9426301  31.0068035   8.9462334
  14.3075155  31.7616546   7.8608245  13.8750801  31.1954142   8.1882150
  19.7080499  39.0366391  10.0486129  20.4920915  39.1497239  10.4141871
  19.5077093  38.2107528  10.2444815  19.7946524  38.9313111  10.1320515
  19.8650892  40.9476493   3.6952585  19.0666138  40.7075993   3.9526453
  20.3136904  40.9990886   4.4419632  19.8125503  40.9198884   3.8437509
  18.9251629  34.6936938  11.5872773  18.1324610  35.0080450  11.7725392
  19.0400556  34.9088407  10.7493557  18.8247039  34.7720775  11.4911107
  19.8535422  34.5957142   6.5258069  20.4274283  33.9584386   6.6806633
  19.7750225  34.5961224   5.6567727  19.9268657  34.5022253   6.4204480
  25.1755569  35.9666119   6.5342923  24.9394207  35.1354184   6.4154983
  25.8198798  35.9151727   7.1197767  25.2350240  35.8363807   6.6028816
  15.6325343  25.2570346  11.3023133  15.3178784  26.0269908  11.0392695
  15.3115276  24.6940602  10.7175360  15.5384262  25.2880614  11.1764483
  26.1991990  35.7510568   2.5971217  25.8937807  36.4838625   2.9584533
  25.4798206  35.3448498   2.3164003  26.0479332  35.7992301   2.6084354
  31.8993782  32.3903569   1.9239561  31.8318283  32.4099528   1.0542148
  31.8849445  33.2333896   2.1495232  31.8872539  32.5177304   1.8292038
  16.3374790  34.9986552   4.7446049  15.8386484  35.7102320   4.8230938
  17.1475015  35.3187219   4.7064212  16.3830897  35.1513401   4.7502618
  15.2641848  27.8567597  10.0408348  14.4541624  28.1625376   9.9298190
  15.7416535  28.5773179  10.1560932  15.2145327  28.0082198  10.0415419
  23.5503160  36.5597967   0.8823877  23.4117519  37.2579013   1.3872620
  22.7703158  36.4046623   0.5260059  23.4146387  36.6398133   0.9050152
  21.8881245  32.8594342   7.1346259  21.8829284  31.9874159   7.1388686
  22.5942239  33.0582511   6.6615715  21.9926249  32.7598216   7.0653294
  15.6152138  32.5871326   6.5060079  15.7595514  33.1672534   5.8703189
  15.9627787  32.9647623   7.2109934  15.6879600  32.7292030   6.5159074
  14.6879893  40.7774098   3.3721106  14.8369457  40.2177014   2.7194511
  15.4679895  40.8566100   3.7553625  14.8253987  40.7059663   3.3318055
  17.2133194  40.9488741   4.6505597  17.1376865  40.2797551   5.2056385
  17.1423053  41.6506529   5.1646263  17.1913801  40.9533648   4.8082445
  16.6024828  44.3557060   3.1083598  17.0920759  43.6567850   2.9259262
  16.0309061  44.0580930   3.6959655  16.5909358  44.2083284   3.1684638
  22.7991832  36.9219130  12.0610388  23.6126697  36.6504279  12.2215521
  22.6386798  36.6226670  11.2570584  22.8961780  36.8374056  11.9655794
  22.2403082  29.2141852   5.9389084  21.4279764  28.9067743   6.0202256
  22.6993016  28.7340852   6.5031796  22.1883467  29.0978345   6.0343678
  19.3356589  30.6201924  10.7217786  19.8056221  31.2444040  11.1085660
  19.3818470  29.9518899  11.2811001  19.4124465  30.6136604  10.8617857
  22.8113076  37.9825420   7.3333229  23.4492796  37.4885616   6.9995685
  22.1687167  37.9102821   6.7485456  22.8107302  37.8984429   7.1975584
  22.8667332  38.6745228   3.9738586  23.6559711  38.3234293   4.0940667
  23.0410930  39.4881617   3.7115220  23.0087614  38.7431086   3.9526454
  14.4795659  37.2285074   4.9836070  14.3716014  37.2387136   5.8498128
  14.6891440  38.0539854   4.7941024  14.4945770  37.3526149   5.0840161
  28.6159872  34.3103486   3.4435286  28.6742996  34.7590135   4.1895262
  27.9826340  34.7202299   3.0065366  28.5311167  34.4377221   3.4887834
  22.2558967  39.9307028  -0.1209968  22.0578656  40.4197842  -0.8153757
  21.6346678  40.1348270   0.4574165  22.1346531  40.0323566  -0.1386745
  24.1732769  33.4971180   5.4135280  24.8966968  33.0443707   5.2346300
  23.9082731  33.7775846   4.6307608  24.2414042  33.4722149   5.2713996
  15.9864500  33.8359641   8.9943167  15.1360131  33.9731356   9.1300812
  16.1492628  33.1023420   9.4390869  15.8848364  33.7473743   9.0798766
  26.6068083  32.4597591   3.9165830  27.1985923  33.0994842   3.9484028
  27.0427077  31.7620628   4.2057897  26.7586514  32.4515941   3.9646663
  18.4361473  36.8814964   4.5423724  17.9286564  37.4350810   4.9864354
  18.1388119  36.9423253   3.7242498  18.3166358  36.9721275   4.4872181
  17.6803958  41.8139522   1.4480731  17.4569612  41.0558351   1.8164757
  17.1913801  41.8437543   0.7261170  17.5747407  41.7061746   1.3957472
  19.7374947  35.9821254   8.9992665  19.6970802  35.3370931   8.4137820
  20.5498266  35.9257871   9.3118077  19.8518101  35.8780221   8.9589614
  19.3021726  27.5342435   7.9944678  19.8593157  27.3056245   7.3623143
  18.9782791  28.2948101   7.7179890  19.3368137  27.6126272   7.8601175
  17.0204844  30.6210088   8.9596685  17.7716171  30.9361765   9.2736239
  17.2127420  30.4189259   8.1330607  17.1596258  30.6377470   8.8840081
  23.6582805  34.1784844   2.5433816  24.0837876  33.6559266   1.9904241
  23.2939725  34.7765681   2.0222439  23.6669407  34.1895071   2.3842826
  13.2936885  42.4749062   1.3031161  13.6083444  43.2885450   1.3108943
  13.7030298  42.0899280   1.9713321  13.4004983  42.5377764   1.4035253
  22.3338389  39.5020422  11.0527045  22.4435354  38.7128982  11.4083793
  22.6629285  39.4126358  10.2501384  22.3990795  39.3726275  10.9869436
  20.8835351  37.6837042   5.6362666  20.3356297  37.0594926   5.3682731
  21.3448379  37.8731315   4.9206745  20.8702560  37.6196093   5.4913097
  20.4493677  38.6888115   2.1672007  21.2692051  38.5451081   2.4288302
  20.1687755  39.3134314   2.7088445  20.5290420  38.7598467   2.2859947
  36.9207327  46.3452967  -4.8685116  36.8901332  47.1997604  -4.6966847
  37.5188676  46.0448259  -4.3098973  37.0044485  46.4269463  -4.7610314
  30.1207012  45.4328618  -0.1132186  29.2644908  45.5937116  -0.0623069
  30.1674666  44.5620682  -0.0927125  30.0006124  45.3279420  -0.1026120
  33.4300729  51.7015144   9.4928270  34.1367496  51.2067174   9.6215205
  33.6188664  52.1424225   8.7630928  33.5628634  51.6933494   9.4037316
  32.9658833  47.4920662   2.5299466  33.5114793  48.1705748   2.5893435
  32.9075709  47.3508123   1.6701047  33.0374747  47.5712664   2.4111526
  26.0832908  54.9809728  -2.0832182  26.1843271  54.1710082  -1.7735054
  25.4874653  54.8866674  -2.7132503  26.0105447  54.8474756  -2.1305944
  25.9233648  59.8987317  -0.6817326  26.5671103  60.3400481  -0.2921168
  26.2489903  59.0940743  -0.7687067  26.0665476  59.8452512  -0.6371849
  21.5788040  43.1715745   0.4404459  20.9593071  42.5808392   0.2714474
  21.4771903  43.7627180  -0.1931217  21.4725715  43.1719828   0.3209449
  28.6755935  44.9115287  -5.2263077  29.3736100  45.0903414  -4.7341614
  28.9908268  44.3885626  -5.8492688  28.8251273  44.8609059  -5.2461067
  21.3057173  46.7168027   2.6848028  21.1815870  47.3030472   3.3197847
  21.9575457  46.2228223   2.9860303  21.3830822  46.7306831   2.8233958
  28.8643871  51.2985732  -5.2383286  29.3037506  50.6902832  -4.7928513
  28.7148534  50.9193105  -6.0097821  28.9065336  51.1524203  -5.2864119
  26.3315514  49.8929744   1.9635539  26.9764516  49.4002187   1.6446488
  26.5717291  50.0354530   2.7901618  26.4626099  49.8407186   2.0385073
  28.8701605  52.7384650   1.6142432  29.1524848  51.9436055   1.3929188
  29.5987765  53.2165237   1.6347493  29.0191169  52.6919247   1.5845447
  26.8482799  40.2807684  -1.1441803  26.5186129  40.7318827  -1.8138104
  26.1727801  40.2023847  -0.5968796  26.6993235  40.3358819  -1.1618580
  34.0559207  36.2693206  -2.8992192  33.7412648  36.9596685  -2.4671770
  33.5386148  36.2137989  -3.6006692  33.9323677  36.3628095  -2.9395243
  38.8519693  51.8444012  -1.4121737  38.0217397  52.0554655  -1.2488321
  38.8028946  51.0181066  -1.6879454  38.7226429  51.7533618  -1.4284372
  26.9129431  54.6747866   1.4226172  26.3956373  54.3155281   0.8187480
  27.6103822  54.1510040   1.4332238  26.9395012  54.5445554   1.3356431
  30.5693023  55.1242680   7.3842345  30.6576369  54.9368820   8.2320556
  30.9982736  54.4780110   6.9847192  30.6455125  55.0005688   7.4514097
  23.6959474  56.3971861  -1.0303362  24.3980053  55.8823850  -0.9730606
  23.6156957  56.7246013  -0.2256487  23.7883235  56.3686087  -0.9030570
  38.3473652  44.4914412   2.3828684  37.5102073  44.5616600   2.6176279
  38.3161883  44.4938907   1.5102987  38.2191934  44.5024639   2.2888232
  24.7438381  46.6347448   8.0977053  24.9158884  46.5253343   8.9462334
  25.2807738  47.2801854   7.8608245  24.8483385  46.7139450   8.1882150
  23.0210250  52.5878213  -1.5217754  23.8599149  52.8201146  -1.4743993
  23.0522019  51.7182525  -1.5910719  23.1491967  52.4935160  -1.5253110
  23.6462953  53.0079088   2.7795551  24.1861178  52.8650219   3.4498924
  22.9632899  53.4075839   3.1479578  23.6255107  53.0458759   2.9329973
  33.0703838  48.6870089  -2.0259424  33.8261353  49.1201603  -1.9870516
  33.1766162  48.0374859  -1.4524788  33.1974008  48.6547573  -1.9361399
  36.1084009  52.5143366  -1.2757021  35.6719241  52.5180109  -0.5198050
  35.7746924  53.1948865  -1.7077444  35.9946629  52.6155822  -1.2276189
  30.6813082  54.5551699  10.0486129  31.4653499  54.6682547  10.4141871
  30.4809677  53.7292836  10.2444815  30.7679108  54.4498418  10.1320515
  19.0500098  49.2279379   2.9329973  18.7838513  48.4118496   3.0920963
  19.0638662  49.2732535   2.0625488  19.0124820  49.1136284   2.8283455
  36.0281492  39.5557194   0.9672407  36.6707400  39.6255299   1.5534322
  36.2804512  38.8886417   0.4651948  36.1603624  39.4683543   0.9799686
  23.7998704  42.7657757   5.5796981  23.1070501  42.2954737   5.8257712
  24.4159031  42.5396062   6.1538688  23.7883234  42.6624889   5.7006133
  30.8383476  56.4661801   3.6952585  30.0398721  56.2261301   3.9526453
  31.2869487  56.5176194   4.4419632  30.7858087  56.4384192   3.8437509
  39.2428355  49.2324286  -2.3837384  39.9044789  48.6714955  -2.4841476
  38.6019767  48.7376317  -2.0584693  39.2457222  49.0760695  -2.3505044
  19.4593511  50.0138159   0.2141717  19.2769085  49.9885045  -0.6385991
  20.1943180  50.4837096   0.2530626  19.5407575  50.0799521   0.0939636
  35.5293186  50.2489669  -2.6425395  35.7648775  50.3934867  -3.4698545
  35.6782749  51.0132077  -2.2493882  35.5858989  50.3828723  -2.7061792
  22.5239263  46.7323161   6.7223826  23.2479235  46.7176192   7.2088720
  22.6255400  47.4418517   6.2245794  22.6457472  46.8347865   6.7202613
  29.8984212  50.2122246  11.5872773  29.1057193  50.5265758  11.7725392
  30.0133140  50.4273714  10.7493557  29.7979623  50.2906083  11.4911107
  32.5715531  46.9356237  -4.1232211  32.6662386  47.6745531  -3.6692586
  31.9474375  46.5073713  -3.6897647  32.4924562  46.9817558  -3.9924064
  30.8268005  50.1142450   6.5258069  31.4006867  49.4769694   6.6806633
  30.7482809  50.1146532   5.6567727  30.9001240  50.0207561   6.4204480
  19.4264422  46.8931659   0.3640784  20.0037924  46.7568110   1.0033029
  18.7278483  46.4367443   0.6186368  19.4085443  46.8053925   0.4963073
  26.1831724  48.5465715  -1.4220733  25.9250968  47.7137450  -1.4489434
  26.2380207  48.7723328  -2.2628233  26.1531502  48.4563486  -1.5500596
  31.2632774  40.6494166  -1.3216640  30.5589101  40.1603351  -1.1632721
  31.3117748  40.6616640  -2.1928196  31.1662826  40.5783814  -1.4277301
  25.1566436  46.1003477  -0.9355838  24.5816027  46.2595646  -0.2991877
  24.7802112  45.4638886  -1.3987388  25.0169248  46.0301290  -0.9101280
  28.8239725  44.5726827   3.9236540  28.4354157  44.1481044   3.2688731
  28.1594423  44.8208976   4.4313567  28.6686652  44.5465548   3.9024408
  38.4662994  44.3301831  -3.3015630  38.2099559  43.5181773  -3.4917747
  39.3092308  44.3379398  -3.5285443  38.5529019  44.2113829  -3.3630813
  32.6466086  38.2701455   1.4360524  33.0276598  37.5879627   1.8228398
  31.8429370  37.9811058   1.2536189  32.5842548  38.1268504   1.4664580
  36.1488153  51.4851427   6.5342923  35.9126790  50.6539492   6.4154983
  36.7931382  51.4337035   7.1197767  36.2082824  51.3549115   6.6028816
  25.7986571  52.2746949  -2.7514341  26.4360518  52.0358696  -2.2062548
  26.2241643  52.4784108  -3.4861180  25.9562737  52.2697959  -2.7797184
  20.4899214  54.5135285   1.1319963  20.5303359  54.7850136   0.3039742
  21.0493738  55.0377193   1.5477751  20.5782559  54.6311040   1.0711851
  26.6057927  40.7755654  11.3023133  26.2911368  41.5455216  11.0392695
  26.2847859  40.2125910  10.7175360  26.5116846  40.8065922  11.1764483
  37.1724574  51.2695876   2.5971217  36.8670391  52.0023933   2.9584533
  36.4530789  50.8633806   2.3164003  37.0211916  51.3177609   2.6084354
  28.1808043  52.7519371  -1.0720555  28.2547051  52.5894543  -0.2178705
  28.9977549  52.9409561  -1.3160073  28.3124402  52.7556114  -0.9822529
  42.8726366  47.9088877   1.9239561  42.8050866  47.9284836   1.0542148
  42.8582028  48.7519204   2.1495232  42.8605122  48.0362611   1.8292038
  33.2822712  39.3124035   5.2480651  34.0276304  39.1233845   4.8344076
  32.8660017  39.8382272   4.6894507  33.3307687  39.3626180   5.1045224
  40.6584983  46.6833263   0.1986156  41.2092905  46.0501332   0.4383248
  40.6429099  47.2148656   0.8901660  40.7370180  46.6682211   0.3365014
  27.3107374  50.5171860   4.7446049  26.8119068  51.2287628   4.8230938
  28.1207598  50.8372527   4.7064212  27.3563481  50.6698709   4.7502618
  23.5735492  49.7794813  -1.0091230  23.2848740  49.1532285  -0.4745503
  24.4418840  49.7215101  -0.9426549  23.6595744  49.6782358  -0.9200275
  34.3613389  44.9229597  -0.6909248  34.0178155  44.2019932  -0.3401998
  34.4606432  44.7143448  -1.5330890  34.3255432  44.7853800  -0.7637568
  26.2374432  43.3752905  10.0408348  25.4274208  43.6810684   9.9298190
  26.7149119  44.0958487  10.1560932  26.1877911  43.5267506  10.0415419
  25.0965992  52.5898626   0.2891251  24.5746745  52.7298917   0.9743115
  25.4840012  51.8309290   0.4793368  25.0769693  52.4984150   0.4192327
  26.5232317  49.6202645  -4.3127258  26.3275100  50.2277379  -4.9066955
  26.7466663  48.9270589  -4.7935584  26.5266958  49.6080170  -4.4711178
  24.9210847  46.5057383  -4.1946390  25.6433499  46.6698541  -4.6542584
  24.4418840  47.2267047  -4.3007050  24.9574578  46.6355612  -4.2780776
  32.8804355  42.8421181   1.1850295  32.0415455  42.8682460   0.9488558
  32.9508722  43.4891917   1.7655642  32.7672748  42.9417307   1.2359412
  22.5718464  48.9115455   4.9107750  23.0839561  49.1899708   4.2616510
  22.2854807  49.6504749   5.2770563  22.6053327  49.0617809   4.8697628
  31.3273633  39.7406558  -4.0822089  32.0299986  39.5414307  -4.5602131
  31.0617822  38.9682501  -3.7753246  31.3920265  39.5969524  -4.1076648
  36.7561879  48.0489168  -1.5288463  36.6695853  48.2044594  -0.6753684
  36.3012359  48.6927244  -1.9029058  36.6765135  48.1664923  -1.4581357
  26.0902189  41.0041844   4.9708791  25.8985386  41.0196978   5.8208215
  26.9400785  41.2005518   4.9475446  26.1877911  41.0356195   5.0932086
  20.4749102  43.5332825   2.9492608  20.3334594  42.6816766   3.0737116
  20.7589666  43.5761486   2.1254814  20.4956948  43.4132575   2.8460232
  30.6287695  45.3699915  -2.9062904  30.3822409  45.2895666  -2.0726115
  30.9572818  44.5853383  -3.1000376  30.6408938  45.2426181  -2.8115381
  34.5235744  52.0783275   0.8823877  34.3850103  52.7764320   1.3872620
  33.7435741  51.9231931   0.5260059  34.3878970  52.1583441   0.9050152
  32.8613829  48.3779650   7.1346259  32.8561867  47.5059467   7.1388686
  33.5674823  48.5767819   6.6615715  32.9658833  48.2783524   7.0653294
  26.5884722  48.1056634   6.5060079  26.7328098  48.6857842   5.8703189
  26.9360371  48.4832931   7.2109934  26.6612183  48.2477338   6.5159074
  28.7604639  47.3046802   4.2885211  28.0127953  47.4977817   3.8833489
  28.9146165  46.4792022   4.0509332  28.6727067  47.2111914   4.1930617
  25.6612477  56.2959406   3.3721106  25.8102041  55.7362322   2.7194511
  26.4412479  56.3751407   3.7553625  25.7986571  56.2244971   3.3318055
  28.1865778  56.4674049   4.6505597  28.1109449  55.7982859   5.2056385
  28.1155637  57.1691837   5.1646263  28.1646384  56.4718956   4.8082445
  29.0006416  41.1997353   5.1780615  29.4579030  41.9321327   5.3053407
  29.0762745  40.7763818   5.9367870  29.0797386  41.2454591   5.3081691
  21.2439408  41.4463173   6.2670058  20.7081597  40.8343531   6.5830826
  21.3057172  42.0211309   6.9203725  21.1735040  41.4410100   6.4105485
  33.4733742  34.3787228  -0.9525542  33.5917310  34.8363691  -1.6858240
  33.2995918  33.5732489  -1.2389325  33.4652913  34.3281000  -1.1024609
  26.8788794  43.1899457   2.0222439  26.0884869  43.0090917   2.3439774
  27.2749417  42.4126409   2.0052733  26.8205670  43.0486918   2.0674987
  32.2632481  50.8241887  -0.2518115  31.5877482  50.5927119   0.2495272
  32.2724857  50.2163070  -0.8776010  32.1650985  50.7000812  -0.2701963
  29.3926625  45.6659716   6.5045938  29.3285766  46.5269672   6.3766074
  29.5323812  45.3491709   5.7041489  29.4042095  45.7459883   6.3674150
  28.0745718  48.3591855   0.6462140  27.6507968  48.5596354  -0.0898841
  27.8990574  47.5120703   0.7586440  27.9856599  48.2640637   0.5535831
  27.5757412  59.8742368   3.1083598  28.0653342  59.1753158   2.9259262
  27.0041644  59.5766238   3.6959655  27.5641942  59.7268592   3.1684638
  23.3628163  48.8543907  -3.9209887  23.5192783  48.7890710  -3.0653895
  23.7028757  49.6292459  -4.1331207  23.4361398  48.9593105  -3.8255293
  29.9007308  48.2301790  -5.0516524  30.4422854  47.7272172  -4.5877903
  30.2153867  48.1766985  -5.8627039  30.0271705  48.1481211  -5.1032712
  33.7724415  52.4404438  12.0610388  34.5859281  52.1689587  12.2215521
  33.6119382  52.1411978  11.2570584  33.8694364  52.3559364  11.9655794
  31.0496577  43.1238095   5.0005777  31.2638547  42.4849009   4.4469131
  30.4330477  43.5683919   4.5713638  30.9901907  43.0948239   4.8556208
  19.9362425  46.0378857  -3.6049120  20.3161390  46.4563402  -4.2688853
  19.3617790  46.6192313  -3.2980277  19.9073750  46.1856716  -3.6572379
  33.2135665  44.7327160   5.9389084  32.4012347  44.4253050   6.0202256
  33.6725600  44.2526160   6.5031796  33.1616050  44.6163652   6.0343678
  30.4411306  36.2338031  -0.0106881  29.5704864  36.2076752  -0.0573571
  30.6951647  36.0615223  -0.8281035  30.3504866  36.2048174  -0.1386744
  30.3089173  46.1387232  10.7217786  30.7788804  46.7629348  11.1085660
  30.3551053  45.4704207  11.2811001  30.3857049  46.1321912  10.8617857
  27.4660447  38.2444259   1.4466590  26.9498935  37.5524450   1.5718169
  26.9054375  38.9115036   1.3929189  27.3066960  38.2407517   1.4572656
  29.5352680  38.7837219   3.2759442  29.1484433  38.8086251   4.0572972
  29.0485617  38.2178898   2.8233959  29.4065189  38.7032970   3.3247346
  33.7845659  53.5010728   7.3333229  34.4225380  53.0070924   6.9995685
  33.1419751  53.4288129   6.7485456  33.7839886  53.4169737   7.1975584
  35.5102660  45.3499874   1.8999145  35.0830268  45.2626223   1.1447244
  34.8728712  45.4577650   2.4853989  35.3532267  45.3532534   1.8744586
  29.2009822  35.6704205   5.5669702  29.8302940  36.2064505   5.2890773
  29.3695684  35.5781563   6.4183268  29.3187616  35.7365567   5.6518230
  29.0023737  40.4575399   7.8396114  29.8297166  40.1860548   7.8954728
  29.0231583  41.2536241   8.1959932  29.1276587  40.5355153   7.9011297
  33.8399916  54.1930536   3.9738586  34.6292294  53.8419601   4.0940667
  34.0143514  55.0066925   3.7115220  33.9820198  54.2616393   3.9526454
  23.5793226  47.6039262   1.0266375  22.7381233  47.5043136   1.2345268
  23.7883234  48.3734742   1.3780695  23.4857919  47.7031305   1.1093689
  21.0568793  45.2258799  -1.1448875  20.6625491  45.3001811  -1.9198765
  20.5008910  45.6116745  -0.5940513  20.9171606  45.2940574  -1.1781215
  32.6933740  38.2040093  -1.4644996  32.8983334  38.1362401  -0.6187999
  32.3660164  39.0098914  -1.5323818  32.6748988  38.3126033  -1.3485341
  27.3909891  45.5320661   0.2763972  27.0873029  44.9776650   0.8774380
  26.6889312  45.7112871  -0.2107994  27.2426101  45.4765444   0.2933678
  25.4528242  52.7470382   4.9836070  25.3448597  52.7572444   5.8498128
  25.6624024  53.5725162   4.7941024  25.4678353  52.8711457   5.0840161
  35.9467428  38.7571857  -1.9842230  35.3341742  39.2442259  -1.5988499
  36.0431603  38.0815348  -1.4404579  35.8705326  38.7290166  -1.8463372
  23.4702034  49.9983024   2.4458007  22.8789968  50.6392523   2.4161023
  24.2323058  50.4220642   2.4189307  23.4950295  50.1558863   2.4373155
  23.8662657  41.1585022   3.1126025  24.3264139  41.2323952   3.8501149
  23.9118764  41.9566276   2.7625846  23.9413212  41.2879169   3.1698782
  25.5146007  41.8251717   7.6798052  25.1231572  41.1785064   8.1153830
  25.6831870  42.4163152   8.2992308  25.4816917  41.8165985   7.8360758
  39.5892456  49.8288794   3.4435286  39.6475580  50.2775443   4.1895262
  38.9558923  50.2387607   3.0065366  39.5043751  49.9562529   3.4887834
  33.2291551  55.4492336  -0.1209968  33.0311239  55.9383150  -0.8153757
  32.6079262  55.6533577   0.4574165  33.1079115  55.5508874  -0.1386745
  27.2899529  47.2177233  -5.7799724  28.0341574  47.6051509  -5.5416774
  27.4360225  46.3734658  -5.6159236  27.4210114  47.1507706  -5.7205754
  29.2079104  39.0127492  -0.7467862  28.3615149  39.1850299  -0.8726513
  29.2050237  38.2076835  -0.4102034  29.0826254  38.9188521  -0.7156735
  30.2777405  42.7902706   0.1194195  29.8037359  42.2644468   0.6299506
  30.6495541  42.2432179  -0.4490943  30.2627294  42.6318703   0.1109343
  20.6550435  44.7874213   5.4877741  21.5176048  44.6869922   5.4015071
  20.3242218  44.2068922   4.9263313  20.7335631  44.6865839   5.3923147
  36.5414135  47.8505082   1.5300976  36.3012358  47.0111497   1.5343402
  37.0206143  47.9305248   2.2541749  36.5766319  47.7386481   1.6375778
  38.5419322  44.6306539  -0.5169765  38.3029092  44.5902373  -1.3548980
  38.7053224  45.4777691  -0.3904044  38.5309626  44.7498624  -0.6216283
  35.1465352  49.0156488   5.4135280  35.8699551  48.5629015   5.2346300
  34.8815315  49.2961154   4.6307608  35.2146626  48.9907457   5.2713996
  24.0152221  43.6116662   2.1488159  23.3905291  43.6235054   1.5414112
  23.6797816  44.0876837   2.7979400  23.8737713  43.6835179   2.1544728
  20.7277896  51.6717122   3.5891924  20.1977821  50.9809561   3.6386898
  21.0002990  51.6627307   2.7604632  20.6902619  51.5684254   3.4739340
  30.9284142  49.1140366   3.5630295  30.3141135  48.5698417   3.8578931
  31.4451427  48.6004603   3.0836111  30.9139804  48.9576776   3.5354524
  30.1680439  50.1844636   1.2974594  29.7408047  49.5594355   0.8640029
  30.1605384  49.9019558   2.1233601  30.1039580  50.0497417   1.3554422
  23.2842966  45.2209810   4.3663028  23.4436453  44.4653134   4.7714750
  23.1035860  45.7700749   5.0203766  23.2808325  45.1903623   4.5225734
  31.2263269  37.3871045   4.9213817  30.7303831  37.5834719   4.2305384
  31.9832331  37.7863713   4.7502619  31.2650094  37.4748779   4.7933954
  28.4966149  41.0613391   1.5117128  28.5208636  40.5273503   0.8229908
  28.7477622  40.5530700   2.1742719  28.5376068  40.9074295   1.5081773
  24.7767471  39.7884209   0.8922872  24.8165843  40.2893416   1.6057580
  23.9517136  39.8794603   0.6228795  24.6606997  39.8766026   0.9573411
  26.9597084  49.3544949   8.9943167  26.1092715  49.4916664   9.1300812
  27.1225212  48.6208728   9.4390869  26.8580948  49.2659050   9.0798766
  26.1981834  46.3044719   3.1896771  25.3673764  46.4718537   2.9832019
  26.1433352  45.9280670   3.9745657  26.0671249  46.2734450   3.2745299
  24.0065618  39.7953612   8.8253182  24.6318321  39.2515745   9.0982614
  23.5516098  39.3148530   8.2560972  24.0313878  39.6443093   8.7814776
  37.5800666  47.9782899   3.9165830  38.1718507  48.6180150   3.9484028
  38.0159661  47.2805936   4.2057897  37.7319098  47.9701249   3.9646663
  29.4094056  52.4000271   4.5423724  28.9019147  52.9536118   4.9864354
  29.1120703  52.4608561   3.7242498  29.2898941  52.4906583   4.4872181
  31.5756239  40.7653591   3.3848387  32.0011310  40.3126117   2.7731913
  30.9613232  40.2113662   3.6613174  31.5484884  40.6167567   3.3353412
  34.6049808  45.1928118  -3.7831028  33.9340998  45.7357820  -3.9117962
  35.2989558  45.6622973  -4.0249333  34.6078675  45.3426389  -3.8375500
  28.6536542  57.3324830   1.4480731  28.4302196  56.5743659   1.8164757
  28.1646385  57.3622851   0.7261170  28.5479991  57.2247054   1.3957472
  34.7677935  41.6484001  -0.8740654  35.1205545  41.2213724  -0.1994856
  33.9092737  41.5634845  -0.7439578  34.6927380  41.5728742  -0.7545644
  23.4661620  44.2791521  -2.8157808  22.7473609  44.6955654  -2.5484944
  23.8373983  44.8445760  -3.3666170  23.4153552  44.4240802  -2.8575001
  32.7661201  44.9119370   3.0744188  32.7459128  44.7302665   3.9278967
  32.8140402  45.7831388   3.0503772  32.7695842  45.0135908   3.1967483
  30.7107531  51.5006562   8.9992665  30.6703386  50.8556239   8.4137820
  31.5230849  51.4443179   9.3118077  30.8250685  51.3965529   8.9589614
  27.3014999  57.5525288  -1.0982185  26.8875397  56.8899418  -1.4878343
  27.9862373  57.7003147  -1.6186490  27.3413370  57.4765946  -1.2325687
  30.6680293  56.7115373  -0.3458568  30.2696576  56.8217643  -1.1137748
  30.0531512  56.9197439   0.2367992  30.5179182  56.7588941  -0.3727269
  36.2001995  36.7702413   0.0543658  35.6932860  36.0631553  -0.0135164
  36.9969429  36.4395602   0.1844735  36.2429235  36.6175565   0.0642653
  32.1166011  43.2769025  -4.0482678  31.8879704  43.3001727  -4.8904320
  32.3764087  42.4526492  -3.9287668  32.1212199  43.1585105  -4.1557480
  26.3985240  45.1303498   5.5542422  25.8864143  44.5224681   5.9127454
  26.2264736  45.8460091   6.0216398  26.2974877  45.1466798   5.6758646
  21.2450954  43.5741074   8.2044784  21.0753545  44.2342449   7.6592991
  20.8016904  43.7847635   8.9257273  21.1550288  43.7027056   8.2306413
  25.1710774  41.8145572  -2.7528482  25.6468140  42.1762652  -3.3878301
  24.6699373  42.4702039  -2.4728340  25.1676133  41.9639760  -2.8051741
  30.2754310  43.0527743   7.9944678  30.8325740  42.8241553   7.3623143
  29.9515375  43.8133409   7.7179890  30.3100720  43.1311580   7.8601175
  18.1453019  46.4787939   3.4633274  17.5979738  45.8088585   3.5814142
  18.9345397  46.1117787   3.5276741  18.1805203  46.3252926   3.4901974
  27.9937427  46.1395396   8.9596685  28.7448754  46.4547073   9.2736239
  28.1860004  45.9374567   8.1330607  28.1328841  46.1562778   8.8840081
  34.8422717  42.2668963  -3.7979520  34.8416944  42.1117619  -2.9395243
  34.6378898  43.1131950  -3.8538134  34.8122495  42.3689583  -3.6791580
  16.9039988  45.6908747   0.6179297  16.7261749  45.2385356   1.3434212
  16.6159011  46.4934909   0.8017774  16.8352942  45.7431305   0.7522800
  32.5663569  46.9466464  -0.1443313  33.0617235  46.2289460  -0.1839293
  31.7563345  46.6437262  -0.2588826  32.5207463  46.7964111  -0.1669587
  34.6315388  49.6970152   2.5433816  35.0570460  49.1744574   1.9904241
  34.2672308  50.2950989   2.0222439  34.6401991  49.7080379   2.3842826
  24.2669468  57.9934369   1.3031161  24.5816027  58.8070758   1.3108943
  24.6762882  57.6084588   1.9713321  24.3737566  58.0563072   1.4035253
  31.2193988  53.4104416  -1.1265027  31.6905166  54.1244679  -0.9575041
  31.5554166  52.8103166  -0.5905157  31.3389103  53.4275881  -1.0232651
  33.3070972  55.0205730  11.0527045  33.4167938  54.2314290  11.4083793
  33.6361869  54.9311666  10.2501384  33.3723378  54.8911583  10.9869436
  28.1363483  38.1831887   5.8293068  28.2691388  37.3862880   6.1574044
  28.5208636  38.7098290   6.4091344  28.2119812  38.1431804   5.9636571
  31.8567934  53.2022350   5.6362666  31.3088880  52.5780234   5.3682731
  32.3180963  53.3916622   4.9206745  31.8435144  53.1381401   5.4913097
  31.2095838  35.1062213   2.4274161  30.4041802  34.9959943   2.7442000
  31.0802573  35.2074669   1.5704027  31.0715971  35.1045883   2.3482202
  34.6661798  41.2707705   3.0213858  34.0824787  41.7716911   2.6091426
  34.9866093  40.7637261   2.3878182  34.6274974  41.2699540   2.8672366
  25.7951930  38.1791062   4.0770962  26.3396343  37.8382189   4.6675304
  25.8488865  39.0376523   4.2192246  25.8841049  38.2546321   4.1852835
  21.6082488  51.9407478   0.9509770  22.2127346  51.9003312   0.3223591
  21.4009801  52.7878630   0.9813826  21.6671386  52.0595480   0.8625886
  31.4226260  54.2073423   2.1672007  32.2424634  54.0636389   2.4288302
  31.1420338  54.8319622   2.7088445  31.5023004  54.2783775   2.2859947
  32.2789756  62.2353335   2.6848028  32.1548453  62.8215780   3.3197847
  32.9308041  61.7413530   2.9860303  32.3563406  62.2492139   2.8233958
  35.7170964  62.1532756   8.0977053  35.8891468  62.0438651   8.9462334
  36.2540322  62.7987161   7.8608245  35.8215968  62.2324758   8.1882150
  41.6545666  70.0737007  10.0486129  42.4386082  70.1867855  10.4141871
  41.4542260  69.2478144  10.2444815  41.7411691  69.9683726  10.1320515
  34.7731288  58.2843065   5.5796981  34.0803084  57.8140045   5.8257712
  35.3891615  58.0581370   6.1538688  34.7615818  58.1810197   5.7006133
  33.4971847  62.2508469   6.7223826  34.2211819  62.2361500   7.2088720
  33.5987983  62.9603825   6.2245794  33.6190056  62.3533173   6.7202613
  40.8716796  65.7307554  11.5872773  40.0789777  66.0451066  11.7725392
  40.9865723  65.9459022  10.7493557  40.7712207  65.8091391  11.4911107
  39.7972308  60.0912135   3.9236540  39.4086741  59.6666352   3.2688731
  39.1327007  60.3394284   4.4313567  39.6419236  60.0650856   3.9024408
  43.6198670  53.7886763   1.4360524  44.0009182  53.1064934   1.8228398
  42.8161954  53.4996365   1.2536189  43.5575131  53.6453812   1.4664580
  37.5790510  56.2940962  11.3023133  37.2643951  57.0640524  11.0392695
  37.2580443  55.7311218  10.7175360  37.4849429  56.3251230  11.1764483
  44.2555296  54.8309342   5.2480651  45.0008888  54.6419153   4.8344076
  43.8392601  55.3567580   4.6894507  44.3040270  54.8811488   5.1045224
  37.2107016  58.8938213  10.0408348  36.4006791  59.1995992   9.9298190
  37.6881702  59.6143795  10.1560932  37.1610494  59.0452814  10.0415419
  33.5451047  64.4300763   4.9107750  34.0572144  64.7085016   4.2616510
  33.2587390  65.1690057   5.2770563  33.5785911  64.5803117   4.8697628
  31.4481686  59.0518133   2.9492608  31.3067178  58.2002074   3.0737116
  31.7322249  59.0946794   2.1254814  31.4689532  58.9317883   2.8460232
  37.5617306  63.6241942   6.5060079  37.7060681  64.2043150   5.8703189
  37.9092954  64.0018239   7.2109934  37.6344767  63.7662646   6.5159074
  39.9739000  56.7182661   5.1780615  40.4311614  57.4506635   5.3053407
  40.0495329  56.2949126   5.9367870  40.0529970  56.7639899   5.3081691
  32.2171991  56.9648481   6.2670058  31.6814181  56.3528839   6.5830826
  32.2789756  57.5396617   6.9203725  32.1467624  56.9595408   6.4105485
  37.8521378  58.7084765   2.0222439  37.0617453  58.5276225   2.3439774
  38.2482001  57.9311717   2.0052733  37.7938254  58.5672226   2.0674987
  40.3659208  61.1845024   6.5045938  40.3018349  62.0454980   6.3766074
  40.5056396  60.8677017   5.7041489  40.3774678  61.2645191   6.3674150
  44.7456999  67.9589746  12.0610388  45.5591864  67.6874895  12.2215521
  44.5851965  67.6597286  11.2570584  44.8426947  67.8744672  11.9655794
  42.0229161  58.6423403   5.0005777  42.2371131  58.0034317   4.4469131
  41.4063060  59.0869227   4.5713638  41.9634490  58.6133547   4.8556208
  44.1868249  60.2512468   5.9389084  43.3744931  59.9438358   6.0202256
  44.6458184  59.7711468   6.5031796  44.1348634  60.1348960   6.0343678
  41.2821757  61.6572539  10.7217786  41.7521388  62.2814656  11.1085660
  41.3283637  60.9889515  11.2811001  41.3589632  61.6507220  10.8617857
  38.4393030  53.7629567   1.4466590  37.9231519  53.0709758   1.5718169
  37.8786959  54.4300344   1.3929189  38.2799543  53.7592825   1.4572656
  40.5085264  54.3022527   3.2759442  40.1217017  54.3271558   4.0572972
  40.0218201  53.7364206   2.8233959  40.3797773  54.2218278   3.3247346
  40.1742405  51.1889512   5.5669702  40.8035523  51.7249813   5.2890773
  40.3428268  51.0966871   6.4183268  40.2920200  51.2550875   5.6518230
  39.9756320  55.9760707   7.8396114  40.8029750  55.7045856   7.8954728
  39.9964166  56.7721549   8.1959932  40.1009170  56.0540461   7.9011297
  34.8395241  56.6770330   3.1126025  35.2996722  56.7509259   3.8501149
  34.8851347  57.4751584   2.7625846  34.9145796  56.8064477   3.1698782
  36.4878590  57.3437025   7.6798052  36.0964156  56.6970372   8.1153830
  36.6564453  57.9348460   8.2992308  36.4549501  57.3351293   7.8360758
  31.6283018  60.3059521   5.4877741  32.4908632  60.2055230   5.4015071
  31.2974802  59.7254230   4.9263313  31.7068215  60.2051147   5.3923147
  34.9884804  59.1301970   2.1488159  34.3637875  59.1420362   1.5414112
  34.6530399  59.6062145   2.7979400  34.8470296  59.2020487   2.1544728
  34.2575550  60.7395117   4.3663028  34.4169037  59.9838442   4.7714750
  34.0768443  61.2886057   5.0203766  34.2540909  60.7088931   4.5225734
  42.1995853  52.9056353   4.9213817  41.7036414  53.1020027   4.2305384
  42.9564915  53.3049021   4.7502619  42.2382678  52.9934087   4.7933954
  35.7500055  55.3069517   0.8922872  35.7898426  55.8078724   1.6057580
  34.9249719  55.3979911   0.6228795  35.6339581  55.3951334   0.9573411
  37.9329668  64.8730257   8.9943167  37.0825298  65.0101971   9.1300812
  38.0957795  64.1394035   9.4390869  37.8313531  64.7844358   9.0798766
  34.9798201  55.3138920   8.8253182  35.6050905  54.7701053   9.0982614
  34.5248681  54.8333838   8.2560972  35.0046462  55.1628401   8.7814776
  42.5488822  56.2838899   3.3848387  42.9743894  55.8311425   2.7731913
  41.9345815  55.7298970   3.6613174  42.5217467  56.1352875   3.3353412
  41.6840115  67.0191870   8.9992665  41.6435969  66.3741547   8.4137820
  42.4963433  66.9628487   9.3118077  41.7983268  66.9150837   8.9589614
  37.3717823  60.6488806   5.5542422  36.8596726  60.0409989   5.9127454
  37.1997319  61.3645399   6.0216398  37.2707460  60.6652106   5.6758646
  32.2183538  59.0926382   8.2044784  32.0486128  59.7527757   7.6592991
  31.7749488  59.3032943   8.9257273  32.1282872  59.2212364   8.2306413
  41.2486894  58.5713051   7.9944678  41.8058324  58.3426861   7.3623143
  40.9247959  59.3318717   7.7179890  41.2833304  58.6496888   7.8601175
  29.1185602  61.9973247   3.4633274  28.5712322  61.3273893   3.5814142
  29.9077981  61.6303095   3.5276741  29.1537786  61.8438234   3.4901974
  38.9670011  61.6580704   8.9596685  39.7181338  61.9732381   9.2736239
  39.1592587  61.4559875   8.1330607  39.1061425  61.6748086   8.8840081
  27.8772572  61.2094055   0.6179297  27.6994333  60.7570664   1.3434212
  27.5891594  62.0120216   0.8017774  27.8085525  61.2616613   0.7522800
  39.1096066  53.7017195   5.8293068  39.2423972  52.9048188   6.1574044
  39.4941219  54.2283598   6.4091344  39.1852395  53.6617111   5.9636571
  42.1828421  50.6247521   2.4274161  41.3774385  50.5145251   2.7442000
  42.0535157  50.7259977   1.5704027  42.0448554  50.6231191   2.3482202
  36.7684513  53.6976370   4.0770962  37.3128926  53.3567497   4.6675304
  36.8221449  54.5561831   4.2192246  36.8573633  53.7731629   4.1852835
  35.4121788  39.0910887  -4.9682900  35.5842292  38.9816782  -4.1197619
  35.9491146  39.7365293  -5.2051708  35.5166792  39.1702889  -4.8777804
  41.3496490  47.0115138  -3.0173824  42.1336906  47.1245986  -2.6518082
  41.1493084  46.1856275  -2.8215138  41.4362515  46.9061858  -2.9339438
  40.5667620  42.6685685  -1.4787180  39.7740601  42.9829197  -1.2934561
  40.6816547  42.8837154  -2.3166396  40.4663030  42.7469522  -1.5748846
  37.2741334  33.2319093  -1.7636820  36.9594775  34.0018656  -2.0267258
  36.9531267  32.6689349  -2.3484594  37.1800253  33.2629361  -1.8895471
  36.9057840  35.8316344  -3.0251606  36.0957615  36.1374124  -3.1361763
  37.3832526  36.5521926  -2.9099022  36.8561318  35.9830945  -3.0244535
  37.2568130  40.5620073  -6.5599874  37.4011505  41.1421281  -7.1956764
  37.6043778  40.9396370  -5.8550019  37.3295591  40.7040777  -6.5500879
  40.0610032  38.1223155  -6.5614016  39.9969173  38.9833112  -6.6893879
  40.2007220  37.8055148  -7.3618464  40.0725502  38.2023322  -6.6985803
  44.4407823  44.8967877  -1.0049565  45.2542688  44.6253026  -0.8444432
  44.2802789  44.5975417  -1.8089369  44.5377771  44.8122803  -1.1004159
  43.8819073  37.1890599  -7.1270869  43.0695755  36.8816490  -7.0457697
  44.3409008  36.7089599  -6.5628157  43.8299458  37.0727092  -7.0316275
  40.9772580  38.5950671  -2.3442167  41.4472212  39.2192787  -1.9574293
  41.0234461  37.9267646  -1.7848952  41.0540456  38.5885351  -2.2042096
  37.6280492  41.8108388  -4.0716786  36.7776122  41.9480103  -3.9359141
  37.7908619  41.0772167  -3.6269085  37.5264355  41.7222490  -3.9861187
  41.3790938  43.9570001  -4.0667289  41.3386793  43.3119678  -4.6522133
  42.1914257  43.9006618  -3.7541877  41.4934092  43.8528968  -4.1070340
  40.9437718  35.5091182  -5.0715276  41.5009148  35.2804992  -5.7036810
  40.6198783  36.2696848  -5.3480063  40.9784128  35.5875019  -5.2058778
  38.6620835  38.5958835  -4.1063268  39.4132162  38.9110512  -3.7923714
  38.8543411  38.3938006  -4.9329347  38.8012249  38.6126217  -4.1819873
  79.1693453  79.1693453  79.1693453 109.4712190 109.4712190 109.4712190
