default_name
 44002
  38.4332970  30.1793094  23.9499411  38.9234483  30.6228602  24.7135611
  38.1501517  30.8894121  23.2898780  38.9719350  29.3844856  23.6365346
  37.1410116  29.5987709  24.4931708  36.2994442  30.0607245  23.9769709
  37.0638605  28.0830032  24.2952386  36.9794264  27.9055442  23.2231013
  38.0028441  27.6659259  24.6591841  35.8827805  27.4043910  25.0237002
  36.1484878  27.3843522  26.0806293  35.0211373  28.0559970  24.8785017
  35.4462186  25.6769363  24.4679546  34.5279855  26.0265557  22.9604234
  35.1692818  26.5607878  22.2593997  34.1984814  25.0904022  22.5097079
  33.6591903  26.6405580  23.1976939  37.0090443  29.8916102  26.0113927
  35.9051160  30.1060677  26.5159461  37.8177432  32.3641426  27.5388869
  38.6016750  31.9707523  28.0396807  37.5004960  33.7850593  27.7456666
  37.6540336  34.0561986  28.7901803  38.4310553  34.6667258  26.8605448
  38.4654809  34.2598797  25.8499062  38.0453825  35.6857106  26.8285063
  39.7007898  34.6730783  27.3963684  40.2752339  35.2161629  26.8516915
  36.0842567  34.1386188  27.3456728  35.6656603  35.2973491  27.4399287
  35.3591811  33.1576622  26.7937393  35.6967424  32.2060937  26.8196067
  34.0584556  33.4159415  26.1741386  33.8958882  34.4903940  26.0891524
  34.0020210  32.7929806  24.7565421  34.7495301  33.3334244  24.1758099
  34.3206458  31.7585314  24.8849680  32.6397379  32.8262225  24.0064849
  32.7379850  32.1946240  23.1235740  31.8911223  32.4012379  24.6751117
  32.2106848  34.2150703  23.5873484  32.9961635  35.1636196  23.7712708
  31.0797200  34.3245554  23.0744512  32.9757187  32.7449039  27.0499647
  32.8843219  31.4827761  27.1160020  32.2062084  33.5460285  27.7671030
  32.4051697  34.5330064  27.8470311  31.0359264  32.9953444  28.5187119
  31.3818755  32.2831987  29.2678894  30.2653391  34.1281992  29.2330418
  29.9654470  34.8240460  28.4494850  29.3769950  33.7050151  29.7019341
  31.0991039  34.8767272  30.2935700  31.9615348  35.3394375  29.8137650
  30.2240270  35.9832872  30.9725658  29.3615882  35.5212609  31.4530133
  30.8178028  36.5086814  31.7205578  29.8825982  36.6913972  30.2175114
  31.6323179  33.9160992  31.3476823  32.2652125  33.1675819  30.8709584
  32.2162630  34.4700625  32.0826884  30.7977415  33.4219743  31.8450974
  30.0609428  32.2321712  27.6169249  29.7710856  32.6695469  26.5002539
  29.5655413  31.0973537  28.1336797  29.9951857  30.6938739  28.9538681
  28.4287204  30.3794021  27.5109495  28.5525277  30.3501111  26.4284002
  28.2899191  28.9207019  28.0352717  27.5011447  28.4196437  27.4741336
  29.6271210  28.1382834  27.8629107  30.4163214  28.6385189  28.4241830
  29.5046240  27.1216942  28.2365952  29.8967683  28.1067654  26.8072604
  27.9104523  28.9187832  29.4169042  27.8290326  28.0132578  29.7251167
  27.1274553  31.1272279  27.7608727  27.0675417  31.9977248  28.6527249
  26.0874555  30.8540604  26.9465914  26.0117159  30.0940909  25.6785039
  25.8463693  29.0372541  25.8879236  26.9394036  30.2121905  25.1185511
  24.8201370  30.7472049  24.9770341  24.3625366  30.0607795  24.2646289
  25.1233472  31.6576798  24.4601199  23.8728500  31.0657138  26.1318819
  23.3035836  30.1924754  26.4504558  23.1863417  31.8726766  25.8757237
  24.8161154  31.5173390  27.2634270  24.9738400  32.5921377  27.1738216
  24.2942754  31.1903108  28.6812625  23.7916879  32.1019770  29.3398363
  24.5060355  29.9695107  29.1903143  24.9155425  29.2418710  28.6220327
  24.1090313  29.6380799  30.5704448  23.0671225  29.9241237  30.7143343
  24.2532344  28.1517014  30.8784539  25.2135833  27.8215790  30.4824130
  24.2480607  28.0345348  31.9621260  23.1279287  27.3026775  30.2663735
  22.1943063  27.5383809  30.7771513  23.0589979  27.6119108  29.2234341
  23.3797910  25.7971223  30.3352931  24.2217331  25.3490209  31.1483735
  22.6904207  25.0462393  29.5821501  24.9233637  30.4208461  31.6049131
  24.3918382  30.8805669  32.6303138  26.2234769  30.5531312  31.3530673
  26.6730063  30.1256266  30.5560337  27.0450265  31.3104631  32.2838871
  26.8709524  30.9527084  33.2986821  28.5385672  31.1505402  31.9560062
  28.6499537  31.3217726  30.8853187  29.0703958  31.9276462  32.5049731
  29.1220226  29.7797160  32.3173409  29.2412254  29.7172289  33.3990002
  28.4170183  29.0175618  31.9853936  30.4809736  29.5501364  31.6386331
  30.8599366  30.3259363  30.7228565  31.1836772  28.6146249  32.0145533
  26.6240396  32.7887474  32.2083973  26.5161858  33.4371787  33.2400980
  26.3616211  33.3344165  31.0150408  26.3658024  32.7976803  30.1594731
  26.0308368  34.7590592  30.9393035  26.8484427  35.3116271  31.4022165
  25.8156306  35.3018438  29.5092538  25.0158254  34.7136450  29.0593282
  25.4939223  36.3389432  29.6042719  27.0128103  35.2360779  28.6550778
  27.7993816  35.8526694  29.0900737  27.3542453  34.2027835  28.5932171
  26.6789170  35.7515285  27.2425839  25.7897564  35.2638702  26.8429820
  26.5326712  36.8316683  27.2394918  27.8156479  35.4304929  26.3821399
  27.7937938  34.5423142  25.9017648  28.8660361  36.2283237  26.1956788
  28.9301036  37.4509470  26.7917884  28.1730106  37.7608629  27.3841248
  29.7344273  38.0423805  26.6389176  29.8583262  35.7963050  25.4054174
  29.7942065  34.8867803  24.9709596  30.6658012  36.3821897  25.2478675
  24.7528237  35.0485384  31.6612212  24.6365595  36.0866340  32.3056947
  23.7796249  34.1341602  31.5587576  23.8787637  33.3320761  30.9530086
  22.5143298  34.3216048  32.2544421  22.1036129  35.3038365  32.0207079
  21.5078763  33.2543762  31.8185885  21.2750638  33.3673687  30.7597541
  21.9148737  32.2589630  31.9963684  20.3290364  33.4242974  32.5808119
  19.6828373  32.7630320  32.3224429  22.6683566  34.3205206  33.7764633
  22.1076895  35.1752083  34.4774308  23.4057798  33.3445901  34.2693230
  23.7229088  32.6203243  33.6408586  23.7401718  33.2326363  35.6606488
  22.8340373  33.1703491  36.2632596  24.5483372  31.9924374  35.8825257
  23.8965775  31.1475874  35.6599568  25.3677868  32.0175980  35.1642156
  25.1025001  31.8442542  37.2670553  25.9651132  31.1808971  37.2041521
  25.4286978  32.8344184  37.5852835  24.1135349  31.2917907  38.2719901
  22.9388558  30.9730820  37.9080125  24.5467068  31.1772386  39.4434959
  24.5136270  34.4414280  36.2106850  24.3158293  34.7664873  37.3757749
  25.3895292  35.0465067  35.3958328  25.5038085  34.6852985  34.4595806
  26.2642934  36.1453066  35.8306114  26.3306014  36.1463959  36.9185918
  27.6948904  35.9924632  35.2464573  27.4752384  35.9270297  34.1808257
  28.3439429  36.8484377  35.4312235  28.4070442  34.6957290  35.7072475
  27.6998567  33.8694603  35.6346765  29.6336943  34.3928834  34.8476266
  30.3415921  35.2185547  34.9200589  30.1076269  33.4766844  35.1998596
  29.3280372  34.2670948  33.8089489  28.7084617  34.6953362  37.2088358
  27.7763627  34.7828926  37.7670695  29.2074573  33.7648385  37.4795358
  29.3563888  35.5379981  37.4501042  25.7691100  37.5637194  35.5324778
  26.4430677  38.5322505  35.9331415  24.6019971  37.6799828  34.8933531
  24.0575253  36.8500091  34.7068233  24.0630866  38.9718969  34.4711831
  24.6551305  39.3930847  33.6586660  22.6321363  38.7558504  33.9726673
  22.5866055  37.7793314  33.4905503  21.9685993  38.7648451  34.8373856
  22.2002950  39.8141429  33.0001346  22.0290126  40.7604550  33.5132200
  22.9532353  39.9531540  32.2243390  20.8994336  39.3382064  32.3654275
  21.1067270  38.9748842  31.3588862  20.4863036  38.5276751  32.9658126
  19.8870791  40.4895027  32.2949712  18.9893965  40.1227983  31.7971817
  19.6405986  40.7882273  33.3138481  20.4250722  41.6660400  31.5477768
  20.6531268  41.3895509  30.6035074  19.7291303  42.3976634  31.5255949
  21.2566477  42.0062541  32.0091179  24.0226065  39.9563159  35.6416572
  24.4973337  41.0922782  35.5479252  23.4612083  39.4831230  36.7737007
  22.9546255  38.6094042  36.7831084  23.3636570  40.3574695  37.9502503
  23.0647698  41.3522993  37.6199788  22.3366988  39.8530426  38.9922530
  22.5637512  38.8192483  39.2526677  22.4164137  40.4772794  39.8822383
  20.9079260  39.9217106  38.4770385  20.6023795  40.6498149  37.5285542
  20.0009989  39.1350193  39.1038925  19.0371678  39.1415178  38.8020859
  20.2926013  38.5454112  39.8703330  24.6891598  40.7326343  38.5658823
  24.8605817  41.8906363  38.9521035  25.6257211  39.7832521  38.6696865
  25.4016008  38.8203006  38.4633033  26.9658878  40.0929995  39.1472622
  26.9003600  40.5669480  40.1266386  27.8209162  38.8249699  39.2723800
  27.9376515  38.3601333  38.2934014  28.8023614  39.0792921  39.6726121
  27.1716856  37.9186015  40.1520281  27.6996389  37.1213023  40.2367587
  27.6972542  41.0970221  38.2738082  28.4541182  41.9053520  38.7585440
  27.4795533  41.0138789  36.9639340  26.9225895  40.2662835  36.5753575
  28.1317682  41.9337062  36.0488605  29.1915801  42.0441084  36.2784454
  27.9689090  41.4271220  34.5932602  26.9527387  41.0531768  34.4681070
  28.2385012  42.5862908  33.5439163  29.2547043  42.9604518  33.6681562
  28.1160406  42.1976271  32.5329541  27.5302282  43.3982535  33.7087351
  28.9310882  40.2398688  34.3682025  29.9432500  40.6443007  34.3601987
  28.8156520  39.5677619  35.2185238  28.6789735  39.4643398  33.0642999
  28.7946943  40.1357283  32.2134497  29.3961873  38.6476602  32.9822148
  27.6670948  39.0591912  33.0717741  27.5929953  43.3658856  36.2502061
  28.3769715  44.3397445  36.2879944  26.2801925  43.4710414  36.4400857
  25.6926254  42.6560947  36.3365188  25.6330959  44.7718360  36.6964044
  25.9547734  45.4893112  35.9415188  24.0874019  44.6156399  36.6072879
  23.7491194  43.9070125  37.3632722  23.6135639  45.5822643  36.7782118
  23.8152850  44.2480773  35.6178692  26.1016861  45.3310952  38.0436168
  26.3814548  46.5362023  38.1889457  26.2784643  44.4423591  39.0256589
  26.2094371  43.4474663  38.8659001  26.5637872  44.9041709  40.3689912
  25.9169641  45.7420853  40.6290267  26.3047635  43.7472898  41.3722475
  25.2568541  43.4610178  41.2826178  26.9363250  42.9086147  41.0792387
  26.6085488  44.1328952  42.8335024  27.6523351  44.4414549  42.8918281
  25.9659879  44.9785218  43.0787175  26.3543546  42.9858723  43.8360555
  26.1819119  41.8026883  43.4083394  26.3424611  43.2775726  45.0636660
  28.0314499  45.3714621  40.4893321  28.2865139  46.4320329  41.0738944
  28.9781916  44.5455091  39.9886137  28.6911440  43.7573435  39.4260321
  30.4272805  44.7203950  40.2692952  30.5745158  45.4876493  41.0293884
  31.0110609  43.4067214  40.7827571  30.6816560  42.5658246  40.1724423
  32.0998287  43.4576054  40.7729819  30.6112165  43.0983390  42.1849264
  31.1053118  43.8694859  43.2519405  31.7892911  44.6933858  43.0483201
  30.7266733  43.5867721  44.5608927  31.1117468  44.1937646  45.3802699
  29.8611036  42.5350736  44.8240438  29.5691198  42.3174697  45.8514161
  29.3649105  41.7573722  43.7787238  28.6952578  40.9209007  43.9786761
  29.7366921  42.0611783  42.4538626  29.3341112  41.4760497  41.6270294
  31.2555098  45.1760960  39.0934657  32.3425126  45.7342304  39.2723428
  30.7338776  44.9912514  37.8967931  29.7816624  44.6759807  37.7785145
  31.5808230  45.1510792  36.6820571  32.5497921  45.5789309  36.9392361
  31.8066349  43.7600187  36.0582016  30.8770699  43.2968200  35.7273616
  32.4823004  43.8642076  35.2092489  32.4577771  42.7882874  37.0114394
  33.7714072  42.9076097  37.4002903  34.0705174  41.9291756  38.2579532
  35.0503623  41.8939109  38.7341458  33.0205583  41.1258061  38.3668635
  32.9723470  40.2696891  38.9005667  31.9820093  41.6555638  37.6198737
  31.0115784  41.1593799  37.6069610  31.0237426  46.1128432  35.6733662
  31.4565892  46.0997188  34.4773308  30.1587614  47.0159116  36.1272504
  29.8554564  47.0118716  37.0906242  29.6071583  48.0745129  35.2096997
  30.0674502  47.9265808  34.2327930  28.0647004  47.9270382  35.0602884
  27.5987350  48.1583932  36.0181252  27.5033719  48.8983567  33.9558443
  27.9685644  48.6672875  32.9975633  26.4237425  48.7720869  33.8748780
  27.7286044  49.9291764  34.2293066  27.7985475  46.5970376  34.6227588
  26.8514685  46.4769267  34.5216889  29.9403807  49.4102205  35.8238252
  29.9223854  49.5358870  37.0269096  30.2034623  50.4250581  35.0002247
  30.0003893  50.3700829  34.0123794  30.7843935  51.6695928  35.5240515
  30.7097105  51.6890250  36.6113160  32.2749077  51.7610488  35.1300386
  32.4268489  51.7499682  34.0507378  32.6047969  52.7185700  35.5330602
  33.0749822  50.6463975  35.7623450  33.5315083  50.7697081  37.0642115
  33.3359908  51.7020391  37.5939579  34.2191175  49.7485515  37.6930093
  34.6119941  49.8718664  38.7022384  34.4543500  48.5524170  36.9868004
  35.1230076  47.5446932  37.6396272  35.3650138  47.7764968  38.5392381
  33.9844682  48.3821493  35.7056860  34.1545703  47.4482265  35.1700052
  33.2772593  49.4298276  35.0865554  32.8833399  49.3003949  34.0785004
  30.1035000  52.8839415  34.9705443  29.7562018  52.9149845  33.7812356
  29.9519818  53.8785408  35.8339681  30.0409073  53.7354188  36.8298133
  29.6530306  55.2274830  35.3507297  28.9655366  55.1729918  34.5066432
  29.0087776  56.0565004  36.4488728  28.1902042  55.4669620  36.8617666
  29.7638770  56.2177011  37.2182487  28.4732348  57.4065193  35.9699094
  28.0711515  57.3105960  34.9613319  27.6786576  57.7146357  36.6494780
  29.5435604  58.4727951  35.9635588  30.3806629  58.5410502  36.8746525
  29.5434704  59.3019952  34.9223499  30.2360041  60.0348843  34.8642797
  28.8508705  59.1944966  34.1951286  30.9926607  55.7985619  34.9531297
  31.9297233  55.8418048  35.7848357  31.1190037  56.1857216  33.6871076
  30.3552232  56.0828541  33.0343007  32.3930145  56.7127842  33.1887819
  33.1311114  56.6755694  33.9899855  32.9206778  55.9075662  32.0004034
  32.1176053  56.0227807  31.2724616  33.8223914  56.3918040  31.6255349
  33.1983564  54.4098998  32.2249807  32.3543039  53.9812923  32.7653248
  33.3853922  53.6749884  30.9200394  34.2296167  54.1027605  30.3793039
  33.5792401  52.6212498  31.1204359  32.4825878  53.7694512  30.3166147
  34.3992010  54.2090337  33.1384292  34.2045037  54.6767713  34.1035271
  34.5737427  53.1425519  33.2807422  35.2805281  54.6637298  32.6860876
  32.2565058  58.1735938  32.7984259  31.3684059  58.5629412  32.0463327
  33.1608294  58.9591289  33.3477840  33.6076046  58.6726413  34.2070954
  33.4375045  60.2727335  32.8426464  32.5174962  60.7719028  32.5384854
  34.0969092  61.0966117  33.9611218  35.0000516  60.5787739  34.2840414
  34.3647185  62.0676285  33.5445831  33.1591026  61.2968684  35.1700763
  31.9101416  61.2715427  35.0001673  33.6702016  61.4734215  36.3047303
  34.2626574  60.2673871  31.5247328  34.8978621  59.2470015  31.1501797
  34.2263607  61.4071586  30.7804557  33.2879204  62.5425722  30.9452214
  33.6062846  63.1505231  31.7920628  32.2864197  62.1553537  31.1327236
  33.3819218  63.2763049  29.6427276  33.2288754  64.3433336  29.8043617
  32.6282799  62.9025796  28.9495792  34.7771188  62.9893884  29.1301574
  35.5425519  63.6200529  29.5823448  34.8242416  63.0830353  28.0452107
  34.9982367  61.5220530  29.5408284  34.5339495  60.8409710  28.8276223
  36.5027806  61.1990690  29.6547847  37.0895581  60.7530041  28.6954577
  37.1534357  61.3997183  30.7844925  36.7664466  61.7720861  31.6398760
  38.5881794  61.0335796  30.7640218  38.9537128  61.3215217  29.7783373
  39.0636581  61.6548035  31.5230344  38.9529453  59.5566796  31.0231614
  40.1254622  59.2509455  31.1976200  37.9779323  58.6506097  31.0446320
  37.0104329  58.8985435  30.8943888  38.2864091  57.2823358  31.5085690
  39.3361945  57.0609494  31.3161168  38.0242391  57.1374081  33.0021073
  38.2412298  56.1121385  33.3018347  38.6784772  57.8201048  33.5443229
  36.6872787  57.4375905  33.2985421  36.5393954  57.3414753  34.2422011
  37.6411809  56.1802172  30.6810013  36.8409529  56.4400623  29.7834548
  38.0489286  54.9306457  30.9353099  38.6877763  54.7346475  31.6926458
  37.5930692  53.8234847  30.1160488  36.5813921  54.0320997  29.7680714
  38.5021285  53.5985675  28.8858470  38.0969373  52.7916912  28.2752162
  38.5487017  54.5129342  28.2943534  40.2468945  53.1365823  29.2499092
  40.6351552  53.0487898  27.9808764  37.5944971  52.5700014  31.0034300
  38.2199828  52.5707824  32.0721611  36.8806110  51.5548597  30.5567969
  36.3527471  51.6379137  29.6997315  36.7588583  50.3049453  31.3364989
  37.6672519  50.1569303  31.9204611  35.5531169  50.3485315  32.3016107
  35.5688024  49.4446444  32.9105782  35.6608091  51.2215702  32.9452766
  34.3050611  50.4269857  31.5933144  33.5808361  50.4521914  32.2229673
  36.6686791  49.1096290  30.4247843  36.3234321  49.2270972  29.2154139
  36.9679888  47.9356110  30.9893023  37.2336201  47.8964136  31.9629568
  36.8258301  46.6600244  30.2477636  36.0782948  46.7752264  29.4628950
  38.1547375  46.2501327  29.6022958  38.9382487  46.4669851  30.3283705
  38.1046648  45.1745400  29.4329052  38.4504565  46.9134567  28.3696208
  39.2940769  46.6024092  28.0332374  36.5009103  45.5941429  31.2778114
  36.8949353  45.7319210  32.4470947  35.8002549  44.5619806  30.8128413
  35.4479226  44.6221851  29.8682056  35.4781312  43.3885481  31.5900988
  35.9052969  43.4714724  32.5894747  33.9446111  43.2501228  31.7185530
  33.7462721  43.9981506  32.4861566  33.4628359  43.5490086  30.7876072
  33.3877100  41.8960700  32.1695300  33.7369594  41.1187252  31.4899266
  33.8795790  41.5739964  33.6335995  33.5302993  42.3507151  34.3139013
  33.4798925  40.6098469  33.9478721  34.9688496  41.5385987  33.6519534
  31.8508561  41.8123805  32.0199269  31.5786534  41.9569192  30.9744061
  31.5056579  40.8335121  32.3527273  31.3834338  42.5876365  32.6270459
  36.0934910  42.1381179  30.9202378  35.9478632  41.9546782  29.6961837
  36.7439673  41.2813107  31.7208944  36.9115215  41.5107104  32.6901213
  37.2634115  39.9920748  31.2035369  36.9410180  39.8455642  30.1726653
  38.7976066  39.9921655  31.2422565  39.0875237  40.2054230  32.2711241
  39.2691168  39.0647211  30.9172564  39.3761288  41.0848978  30.3991709
  39.4296103  40.9927363  29.0292239  39.8862385  42.1377766  28.5373914
  39.9760856  42.2817679  27.4606867  40.1644512  42.9439233  29.5452898
  40.5544350  43.8730729  29.4767808  39.8352091  42.3111555  30.7215422
  39.9712967  42.8247260  31.6732915  36.7549149  38.7870851  31.9947701
  36.5850291  38.9085205  33.1818426  36.4682492  37.6747931  31.2843537
  36.5644975  37.6839410  30.2789921  36.0229955  36.4281965  31.9323206
  35.8441099  36.5565963  32.9998470  34.7319083  35.9221142  31.2763135
  34.8978822  35.7799889  30.2084403  34.4420472  34.9733374  31.7278703
  33.9371369  36.6529187  31.4258543  37.1004598  35.3995247  31.7656780
  37.8405170  35.3756876  30.7588751  37.1860347  34.4910073  32.7328322
  36.6450005  34.5346665  33.5845805  38.1044627  33.4046630  32.5667594
  38.2726696  33.2043213  31.5086154  39.4675003  33.7866919  33.2249710
  39.8999572  34.5925947  32.6320116  39.2523356  34.1506387  34.2296335
  40.4890639  32.5894724  33.3078876  41.2806359  32.8613941  34.0061520
  39.9670553  31.7066865  33.6770733  41.1107745  32.2597065  31.9833275
  41.6379643  33.1485767  31.2702352  41.0641720  30.9623933  31.6048837
  41.4672295  30.6822330  30.7221853  40.6265180  30.2794032  32.2066185
  37.5186702  32.1583733  33.2251066  37.3017874  32.1625463  34.4278890
  37.3258821  31.0871728  32.4371243  37.5086671  31.1692355  31.4471976
  36.8381506  29.7856021  32.9569722  36.0818700  29.9511682  33.7242575
  36.2051917  28.9523140  31.8071427  35.5851901  29.6220225  31.2111664
  37.0157546  28.5636272  31.1906929  35.3186006  27.7436461  32.3405986
  35.9882872  26.9942564  32.7625416  34.6626780  28.1256566  33.1228617
  34.4673851  27.1020855  31.2234890  35.1229454  26.6995270  30.4512932
  33.8631694  26.2972955  31.6422204  33.5792220  28.0853651  30.6160802
  32.7172692  28.2885836  31.1017128  33.8064643  28.6824456  29.4506194
  34.9080775  28.3897856  28.7524917  35.5663295  27.7141079  29.1134128
  35.0772025  28.8456596  27.8672373  32.9590569  29.6034102  29.0288388
  32.1550488  29.8412974  29.5919380  33.1189194  30.0655791  28.1451292
  38.0258578  29.0506588  33.5583472  39.1383898  29.0468349  32.9784119
  37.8148166  28.4420229  34.7328079  36.9071737  28.5007464  35.1719381
  38.8604424  27.6939216  35.4097193  39.6782684  27.5045085  34.7144622
  39.4039614  28.4673445  36.6546889  38.5965430  28.5926225  37.3761328
  40.5496135  27.6929349  37.3027628  41.3576572  27.5676552  36.5820194
  40.9175816  28.2440323  38.1682060  40.1924662  26.7136017  37.6212775
  39.8858218  29.8672911  36.1767182  40.5720282  29.7271392  35.3415062
  39.0166876  30.4330891  35.8411918  40.6204932  30.6647711  37.3368114
  41.4900621  30.0997725  37.6725588  40.9417105  31.6370089  36.9630838
  39.9347217  30.8057204  38.1722458  38.2645276  26.3627234  35.8562693
  37.2107425  26.3205558  36.5177373  38.9656799  25.2806504  35.4964672
  39.8141384  25.3963974  34.9609112  38.4824983  23.9083501  35.7556436
  37.3977692  23.9084235  35.8627042  38.8620363  22.9832372  34.5796377
  39.9186770  23.1960553  34.4174092  38.7218197  21.9083624  34.6940212
  38.1451596  23.3787125  33.3188530  36.7936274  23.1852432  33.1703658
  36.3875260  23.7148001  32.0243020  35.3446669  23.6528445  31.7133270
  37.4360008  24.2633223  31.4368526  37.4360829  24.7370163  30.5448246
  38.5409713  24.0877528  32.2370305  39.5039861  24.4989040  31.9342789
  39.0439222  23.4818488  37.1094272  39.9170935  22.6310825  37.1976236
  38.5490992  24.1527703  38.1409269  37.8705761  24.8753973  37.9472365
  38.9692041  23.9483701  39.5302642  39.1004046  22.8855023  39.7332361
  40.2711580  24.6609511  39.8238376  40.1529073  25.7277555  39.6339816
  40.5432335  24.5062190  40.8679320  41.0566509  24.2629843  39.1814027
  37.8501718  24.4364605  40.4366695  36.9935159  25.1971621  39.9927701
  37.8151766  23.9609423  41.7128085  38.7694644  23.0197001  42.3511588
  39.6021467  23.5659575  42.7942653  39.1507924  22.3100394  41.6169452
  37.8976374  22.3644268  43.3805638  38.4942668  21.9364691  44.1861596
  37.2798166  21.5856255  42.9334986  37.0195044  23.5477831  43.8893274
  37.6485869  24.1134982  44.5765833  36.0768014  23.3026884  44.3785505
  36.7529152  24.3766094  42.6223664  35.7846595  24.2188828  42.1472859
  36.9191713  25.8550477  42.9573052  38.0654710  26.3224239  43.0802463
  35.7926523  26.5588950  43.1451989  34.3976037  26.1562385  42.8667962
  34.2033504  25.1844615  43.3206855  34.2476461  26.0898542  41.7892041
  33.6039510  27.2347481  43.4785368  33.4196740  27.0114586  44.5293854
  32.6522639  27.3382247  42.9573021  34.4542216  28.4937849  43.3164685
  34.2553124  29.1582443  44.1573179  34.2661964  29.0238640  42.3827863
  35.9062537  28.0176191  43.3626097  36.4953730  28.4415563  42.5493976
  36.5762791  28.3395632  44.6975183  37.2325554  29.3770603  44.8058892
  36.4490122  27.4510630  45.7065136  35.8040293  26.6743513  45.6779594
  37.1560851  27.7152028  46.9505148  36.9529553  28.7375376  47.2693708
  36.7060188  26.7378344  48.0874869  37.2692428  26.9929340  48.9851518
  35.6437751  26.9048157  48.2659683  36.9434159  25.2403078  47.7344168
  37.8404491  25.2149016  47.1157191  37.1322154  24.7121552  48.6690338
  35.7763974  24.5538367  46.9801302  34.9706244  25.2347933  46.2995798
  35.6644375  23.2928735  47.0933459  38.6595745  27.7199116  46.7207687
  39.3881984  28.5200084  47.3441036  39.1622039  26.8411423  45.8566887
  38.5969783  26.1132868  45.4433538  40.5910843  26.8684741  45.5482934
  41.1701904  26.9048507  46.4710134  40.9873757  25.6121684  44.7719031
  40.7028813  24.8089438  45.4516034  40.3257381  25.6058762  43.9057067
  42.4180469  25.4048325  44.3159854  42.5818959  26.0322871  43.4398832
  43.4532440  25.7608638  45.4043059  43.2903103  25.1334542  46.2806099
  44.4588368  25.5920312  45.0191055  43.3425994  26.8088659  45.6827835
  42.5669588  23.9378484  43.9227465  41.8729037  23.7054009  43.1150615
  43.5877699  23.7525637  43.5885075  42.3467152  23.3062844  44.7833966
  41.0115457  28.1384405  44.7632929  42.0232677  28.7927578  45.0838444
  40.2511992  28.4781935  43.7325504  39.4936500  27.8955895  43.4057613
  40.5480445  29.7317407  42.9889925  41.5402996  29.7105394  42.5383490
  39.5039683  29.9739142  41.8740436  38.5044863  29.9004202  42.3026852
  39.6940836  31.3746529  41.2479307  40.6932453  31.4487490  40.8186446
  38.9507698  31.5273779  40.4654602  39.5724644  32.1368000  42.0176334
  39.5886516  28.8770217  40.7742575  39.4004269  27.9000694  41.2194966
  38.8424302  29.0749100  40.0047814  40.5825223  28.8864003  40.3267826
  40.5817986  30.9276728  43.9584031  41.5084249  31.7696069  43.9156880
  39.5629377  31.0143105  44.8053826  38.7777121  30.3897924  44.6892049
  39.4497595  32.1100716  45.8016759  39.5137733  33.0717084  45.2925039
  38.0928906  32.0399026  46.5644458  37.2352467  32.1591966  45.9023920
  38.0269093  31.0786241  47.0740439  37.9677048  33.1022759  47.6288205
  37.9078715  32.9004481  48.9790717  37.9207249  31.8613745  49.3081016
  37.8422773  34.0924871  49.6509866  37.8014218  34.2043433  50.6539415
  37.8480018  35.1162937  48.7328406  37.7905781  36.4876926  48.9476633
  37.7339631  36.8522706  49.9733222  37.8094488  37.3201704  47.8195305
  37.7702665  38.4021530  47.9455395  37.8796163  36.7766992  46.4944288
  37.8861515  37.4213191  45.6154965  37.9426111  35.3795785  46.2928858
  37.9709990  34.9969458  45.2726471  37.9337349  34.5347324  47.4371473
  40.6810460  32.1991655  46.7556150  41.2024335  33.2703960  47.0504478
  41.1246128  31.0336265  47.2536725  40.6203485  30.1806643  47.0580395
  42.3047670  30.9605930  48.1248276  42.1280193  31.4925734  49.0596304
  42.5879696  29.4754353  48.4475222  43.1026722  29.4062491  49.4058508
  41.6447444  28.9318954  48.5022085  43.4096561  28.9036808  47.4219540
  43.5824062  27.9819061  47.6271093  43.5413561  31.6126595  47.4893609
  44.4178429  32.1044691  48.1880390  43.6190096  31.6485620  46.1509940
  42.8994795  31.2220582  45.5848932  44.7367631  32.2782284  45.4803515
  45.6540876  32.2612523  46.0688468  44.9974397  31.6081044  44.0876970
  44.0690295  31.6224783  43.5167782  46.0974315  32.3555282  43.3005524
  47.0263335  32.3411747  43.8706714  46.2539225  31.8654820  42.3395809
  45.7889959  33.3878551  43.1354228  45.3182348  30.1157869  44.2851935
  46.3744691  30.0532568  44.5470326  44.7151051  29.7731741  45.1259971
  45.0374841  29.2180186  43.0462258  45.6406461  29.5597567  42.2050894
  45.2935209  28.1846639  43.2801540  43.9812818  29.2796760  42.7840523
  44.4866404  33.7794117  45.2596858  45.3580419  34.6335434  45.5533788
  43.3259384  34.0701702  44.6733946  42.7196116  33.3100478  44.4001163
  42.8963652  35.4693155  44.3580835  43.5783075  36.0150214  43.7059646
  41.5089416  35.4490054  43.7085257  40.9355936  34.6515375  44.1811949
  40.7363776  36.8065900  43.8566139  41.3089296  37.6045130  43.3837461
  39.7618168  36.7250172  43.3752850  40.6009221  37.0346997  44.9138364
  41.6673103  35.0315233  42.2610790  42.1155089  34.0389741  42.2156253
  40.6897436  35.0105888  41.7793893  42.3108047  35.7441631  41.7451718
  42.8738032  36.3551504  45.6233947  43.1507304  37.5664187  45.5554141
  42.5490565  35.7673635  46.7699736  42.2762539  34.7951473  46.7917430
  42.4090600  36.5677342  48.0172834  41.9646574  37.5362307  47.7878927
  41.5059364  35.8393157  49.0207789  41.1869238  36.5430472  49.7896040
  40.6314078  35.4522243  48.4978448  42.2713844  34.6697467  49.6792398
  42.5587156  33.9543307  48.9087065  43.1662859  35.0590833  50.1646987
  41.3757276  33.9620881  50.7349490  40.4709811  33.5809867  50.2613516
  41.9205185  33.1367631  51.1933602  40.9930715  34.9104785  51.7821200
  40.1094118  35.3821494  51.6526162  41.7100127  35.1948269  52.8609691
  42.8930874  34.5941924  53.0607900  43.2362356  33.9246223  52.3869760
  43.4350911  34.8143778  53.8841065  41.2384846  36.0720062  53.7400219
  40.3435119  36.5117736  53.5796204  41.7771044  36.2951605  54.5647580
  43.7193568  37.0217012  48.6704651  43.7202015  37.9067561  49.5366367
  44.8218819  36.3946268  48.2663326  44.7218499  35.6577248  47.5829086
  46.1469888  36.6513275  48.8169100  46.0926629  36.7725274  49.8987873
  47.0598764  35.4666028  48.5034955  47.0183498  35.2765588  47.4309946
  48.0780803  35.7348631  48.7852704  46.6411042  34.2199606  49.2530681
  45.5757753  34.0427950  49.1054622  47.2057356  33.3630664  48.8856095
  46.9207409  34.4130481  50.7292800  46.4639187  35.3374877  51.0825843
  46.5278860  33.5724967  51.3013270  48.3671646  34.4921820  50.9448196
  48.9607554  34.2664489  50.1594574  48.9386769  34.8433142  52.0905372
  48.1777254  35.1676040  53.1357142  47.1715936  35.1444692  53.0504870
  48.6107350  35.4349841  54.0081304  50.2687265  34.8637581  52.1928755
  50.8373174  34.6116338  51.3971131  50.7009486  35.1312637  53.0656433
  46.7225399  37.9837848  48.2879663  47.6180429  38.0149589  47.4376413
  46.2305139  39.0658960  48.8687009  45.4835597  38.9693071  49.5416268
  46.6665174  40.4181902  48.5027631  46.5103610  40.5951597  47.4386221
  45.8470607  41.4362888  49.2920583  44.7857559  41.3281458  49.0683698
  46.0103285  41.2840638  50.3589563  46.2050707  42.8718235  49.0013937
  45.7411495  43.4861291  47.8328905  45.1215932  42.9240738  47.1340746
  46.0747887  44.8351455  47.5570128  45.7072483  45.3040522  46.6442470
  46.8653464  45.5603190  48.4413317  47.1285145  46.5952564  48.2228209
  47.3214438  44.9579616  49.6112594  47.9368320  45.5155522  50.3172978
  46.9775765  43.6015192  49.8820145  47.3258134  43.1233121  50.7975193
  48.1750802  40.6238743  48.7092602  48.8143294  41.3182193  47.9343567
  48.7683418  39.9489580  49.7044475  48.2171556  39.4057889  50.3534934
  50.2095938  40.0470810  49.9316776  50.5334096  41.0767021  49.7796155
  50.5746918  39.6213892  51.3762439  51.6637286  39.6260305  51.4218128
  50.1783613  40.3369199  52.0966868  50.0618425  38.2354816  51.7073555
  48.9242026  37.8571510  51.2838186  50.7720418  37.5314511  52.4433249
  51.0885933  39.2671608  48.9753354  52.3041392  39.4636275  48.9941279
  50.5097097  38.3962518  48.1558642  49.5041354  38.3019131  48.1514116
  51.2888048  37.5692678  47.2316017  52.3124479  37.9371969  47.1617288
  51.3209923  36.1245988  47.7518060  50.2890306  35.8049372  47.8966188
  51.7868931  35.5090711  46.9822852  52.0780115  35.9721036  49.0413001
  51.9410505  36.8617759  49.6559754  51.7131168  35.0983704  49.5812486
  53.5694644  35.7926504  48.7267689  53.8586071  36.5034504  47.9526508
  54.1496846  35.9834682  49.6295604  53.8442616  34.3505787  48.2319068
  54.1404531  33.7648461  49.1021301  52.9049948  33.9636582  47.8367237
  54.9122662  34.2524977  47.1737687  55.7827999  34.6105791  47.5398951
  55.0321146  33.2863315  46.9049577  54.6378064  34.7948357  46.3671459
  50.7141371  37.5153657  45.8211856  50.4418135  36.4381566  45.3199975
  50.5094583  38.6804999  45.1819141  51.0109251  40.0021538  45.5898011
  52.0265795  39.9059666  45.9735906  50.3670085  40.4143043  46.3667196
  50.9481518  40.7998505  44.3049791  51.9333123  40.7885791  43.8386843
  50.6718537  41.8266803  44.5445230  49.9540515  40.1826821  43.4543989
  50.2264539  40.3202567  42.4079911  48.9533185  40.5799865  43.6240526
  49.9928479  38.6782229  43.8146049  49.0074772  38.2130124  43.8414733
  50.8844940  37.9286385  42.8157797  50.3832248  37.3967077  41.8334841
  52.1802182  37.8651451  43.0728057  52.5623941  38.3739221  43.8571442
  53.1116648  37.2382832  42.1309027  52.9095298  37.5935246  41.1204354
  54.5749686  37.5927515  42.4969018  55.2047188  37.2886814  41.6608066
  54.6296638  38.6746640  42.6176235  55.0639564  36.9111131  43.7781657
  54.5409290  35.9584092  43.8612230  56.1349301  36.7302610  43.6864606
  54.8137162  37.7144518  45.0437378  53.7950408  38.3901790  45.2040627
  55.7724940  37.6492661  45.9564728  55.6753193  38.1577243  46.8237263
  56.5958892  37.0914320  45.7805670  52.8444158  35.7190564  41.9540611
  53.3125164  35.1058663  40.9781222  52.0342474  35.1199865  42.8296337
  51.6438155  35.5984044  43.6288700  51.6947490  33.6944606  42.6311551
  52.6175933  33.1147652  42.6108848  50.7839538  33.1119254  43.6774317
  50.5259483  32.0944976  43.3835369  51.4432116  33.0911619  45.0330430
  51.7011055  34.1083573  45.3278377  50.7572887  32.6642356  45.7647142
  52.3485795  32.4858599  44.9881089  49.5827286  33.8993892  43.7238289
  48.9899385  33.5399493  44.3879096  50.9931415  33.5083538  41.2828372
  51.0912802  32.4311990  40.6958428  50.3350628  34.5475051  40.7649859
  50.0898041  35.3440386  41.3354961  49.7966565  34.4785035  39.3862417
  50.3351860  33.7180269  38.8207680  48.3211559  34.1196927  39.3989594
  48.0448519  33.7431502  38.4140883  48.2313687  33.3181454  40.1321444
  47.4132025  35.2402068  39.7747169  46.7663965  35.9735803  38.7933046
  46.9514238  35.7347437  37.7460121  45.9109022  36.9791264  39.1206845
  45.3865124  37.5336947  38.3425000  45.6963753  37.2930158  40.4722157
  44.8675371  38.3288210  40.7967955  44.4925734  38.7643279  40.0278120
  46.3155217  36.5826763  41.4756595  46.1511939  36.8284904  42.5247888
  47.1497602  35.5519351  41.1368603  47.6237500  34.9556326  41.9165122
  50.0163988  35.6786920  38.4259674  49.7821632  35.5798163  37.1986588
  50.4562223  36.7956346  38.9536515  50.5271587  36.9262551  39.9526538
  50.7832402  37.9101860  38.0913172  50.2664477  37.8227258  37.1356104
  50.3328805  39.2093442  38.7757222  51.0158318  39.3848479  39.6069113
  50.4400808  40.0091522  38.0429773  48.8993441  39.1835833  39.2931841
  48.2003120  39.0225705  38.4724955  48.7756680  38.3947406  40.0351636
  48.6184999  40.5504989  39.9457707  49.1368294  40.5456329  40.9046293
  49.0676329  41.3001873  39.2943520  47.1905730  40.8746025  40.1590018
  46.6039857  40.5670671  39.2933010  46.8200399  40.3644371  41.0481225
  47.0597165  42.4338180  40.3551560  47.4026092  42.9067253  39.5312124
  46.0898896  42.6743846  40.5023410  47.6028453  42.7189330  41.1575398
  52.2730487  37.9376025  37.7560192  53.1334004  38.3846575  38.6052817
  52.5904556  37.6184885  36.4945847  51.8784606  37.5453350  35.7819761
  53.9918388  37.2899486  36.1264383  54.4938273  36.8433197  36.9847094
  54.0511100  36.2876174  34.9391401  53.2381788  36.3890204  34.2201410
  54.9986118  36.5128652  34.4496467  54.1024378  34.8366087  35.3284151
  54.9049351  34.3543904  36.3436987  54.7787527  33.0403617  36.4230503
  55.3186501  32.4750699  37.1826916  53.9454761  32.6443765  35.4759522
  53.6508824  31.6943746  35.3004223  53.5350509  33.7461923  34.7544176
  52.8724398  33.6209337  33.8980543  54.8831312  38.5028252  35.7639244
  56.1119644  38.3159680  35.4702998  54.2734730  39.6996078  35.7876364
  53.2788194  39.7424759  35.9577122  54.9995748  40.9536931  35.6063956
  55.8167156  40.8186225  34.8977799  54.0482506  42.0195207  35.0583375
  53.1127716  42.1179811  35.6090495  54.5883091  42.9658460  35.0884262
  53.6725829  41.7775426  33.5995539  54.6810279  41.8042454  32.6018447
  55.7101807  42.0225370  32.8869644  54.3621443  41.5518077  31.2527479
  55.1288828  41.6129850  30.4804331  53.0570825  41.2225781  30.9109665
  52.8167005  41.0142129  29.8684213  52.0370581  41.1554297  31.9049238
  51.0143130  40.8953156  31.6320994  52.3597189  41.4284324  33.2482918
  51.5891162  41.3686810  34.0168628  55.5405659  41.4515993  36.9448380
  56.1334341  42.5032602  36.9912024  55.2577321  40.7340783  38.0380652
  54.6717963  39.9127721  37.9907927  55.7439669  41.1713728  39.3609206
  56.0668845  42.2123688  39.3731993  54.6526060  40.9557072  40.4436065
  54.3041240  39.9247275  40.3824381  55.2226078  41.2416485  41.9193451
  55.5708773  42.2726455  41.9814279  54.4319282  41.0810274  42.6522348
  56.0520401  40.5654232  42.1263731  53.4438792  41.8230748  40.0867617
  53.7819799  42.8590220  40.1113003  53.1569142  41.5590968  39.0688883
  52.2256962  41.6563083  41.0251907  52.5117856  41.9205695  42.0432372
  51.4189029  42.3100214  40.6937652  51.8867213  40.6206431  41.0008269
  57.0239102  40.4531486  39.7607243  57.0706959  39.2034912  39.8570284
  58.0443456  41.2308562  40.0776824  57.9720495  42.2338184  39.9831337
  59.2939588  40.6755144  40.5375479  59.4965777  39.7272172  40.0397757
  60.4152027  41.6426679  40.2122693  60.3798608  41.8575710  39.1442492
  60.2450435  42.5616945  40.7731043  61.8149829  41.0619069  40.5791792
  61.8618559  41.0229181  41.6674731  61.8481548  40.0489314  40.1780777
  63.0097146  41.8627835  40.0444572  63.9099714  41.3397740  40.3670991
  62.9453482  41.8370733  38.9566634  63.0667729  43.2901247  40.5086938
  62.2637595  43.8315872  40.0086056  62.8918008  43.2939112  41.5845514
  64.3928575  43.9636550  40.2100191  64.5549790  43.9606351  39.2131203
  64.3693886  44.9163987  40.5444271  65.1370341  43.4623278  40.6736692
  59.2506336  40.4080823  42.0541859  59.6674776  39.3448537  42.5217071
  58.7481505  41.3680373  42.8102389  58.4828629  42.2564514  42.4096864
  58.6093796  41.1877067  44.2795225  58.3711159  40.1493516  44.5100617
  59.9430791  41.5579889  44.9811311  59.8941387  41.2528045  46.0263901
  60.7633366  41.0356975  44.4886989  60.1646106  42.9742441  44.9063921
  60.9913495  43.1922741  45.3429303  57.4610002  42.0446678  44.7900248
  56.9868336  42.9797967  44.1238844  56.9747566  41.7278308  45.9865324
  57.3406484  40.9649979  46.5381740  55.8833858  42.5040952  46.5294702
  55.8930633  43.5127642  46.1164420  54.5545932  41.8376415  46.1621002
  54.3949355  41.8526525  45.0839614  54.5218164  40.8083984  46.5194297
  53.1218690  42.6688888  46.8934435  52.2085797  41.8504138  46.3787595
  56.0626999  42.5352171  48.0409883  56.3604675  41.5028164  48.6391097
  55.9709565  43.6980564  48.6344838  55.9663115  44.5859499  48.1531076
  56.0512666  43.7014704  50.0929784  55.9278773  42.6881657  50.4751926
  57.3961547  44.2247994  50.5382795  57.5806306  43.9175095  51.5676681
  58.1742280  43.8170627  49.8929480  57.4097939  45.6257247  50.4590881
  58.2661300  45.9539392  50.7429253  54.8775390  44.4251888  50.7443702
  54.2941397  45.3791538  50.1893802  54.5210580  43.9304563  51.9308840
  54.9953348  43.1076775  52.2746803  53.4850802  44.5110252  52.7445170
  53.1430500  45.4427112  52.2938777  52.2958163  43.5415718  52.8306179
  52.6436419  42.5653706  53.1684756  51.3258351  44.0584607  53.7693561
  50.9771787  45.0345074  53.4319061  50.4804354  43.3733955  53.8332741
  51.7873876  44.1578223  54.7518011  51.6066051  43.3891187  51.4618608
  52.3211360  43.0011353  50.7359018  50.7686951  42.6977503  51.5513946
  51.2414891  44.3604176  51.1281400  54.0691388  44.7720329  54.1492717
  55.1586975  44.3202235  54.4678480  53.3209245  45.4795814  54.9735967
  52.5461735  45.9940650  54.5796844  53.6014792  45.6303108  56.4254375
  54.4905254  46.2380995  56.5936305  52.4027078  46.3330995  57.0593720
  51.5002507  45.8595397  56.6728340  52.4609646  46.1778327  58.1366827
  52.3581722  47.8362131  56.7617699  52.9988567  48.0556944  55.9076902
  51.3264055  48.0867404  56.5152083  52.8063499  48.6583320  57.9535536
  52.1076701  49.6525374  58.2987553  53.8488803  48.2851639  58.5567593
  53.9243272  44.3344521  57.1998168  53.2248605  43.3193511  57.0419484
  50.7687517  42.2183593  59.8716545  51.0661331  41.4538034  60.4608216
  49.3445767  42.5778701  59.8632570  48.9502077  42.4854256  60.8751989
  49.1102785  44.0256142  59.3718242  49.5871514  44.1516879  58.3998176
  48.0433902  44.2299115  59.2817570  49.6835386  45.1004657  60.2799344
  49.9493678  44.8449899  61.6357415  49.7403883  43.8571600  62.0463747
  50.4845704  45.8587706  62.4672816  50.6941908  45.6462277  63.5156067
  50.7464423  47.1415373  61.9415311  51.1577444  47.9214606  62.5823510
  50.4764928  47.4126921  60.5909385  50.6752005  48.3987742  60.1711081
  49.9400036  46.3883048  59.7710964  49.7171467  46.5894778  58.7232586
  48.5527875  41.6104741  58.9834906  49.0636039  41.1524935  57.9526029
  47.3167972  41.2960774  59.3880899  47.0024659  41.5279119  60.3195125
  46.4112633  40.5386835  58.5167060  46.9576366  39.7494651  58.0002666
  45.2578610  39.8991999  59.3125835  45.6640126  39.2004704  60.0439639
  44.6958139  40.6779999  59.8280188  44.3420039  39.1607151  58.3660392
  43.9350761  39.8589267  57.6345946  44.9032733  38.3813962  57.8505414
  43.1986013  38.5267785  59.1550147  42.1576535  39.2180930  59.3166106
  43.3770256  37.3572553  59.5885819  45.9025529  41.5054590  57.4283770
  45.6215311  42.6755033  57.7031770  45.8064914  41.0352706  56.1909312
  46.1192262  40.1089937  55.9373422  45.4335834  41.9544972  55.1240929
  45.9149126  42.9176590  55.2936235  45.8696073  41.4206184  53.7370556
  45.5298342  40.3868904  53.6733373  45.3510055  42.0197742  52.9886142
  47.4404426  41.4807865  53.4702851  47.8888129  40.8630988  54.2484412
  47.5865090  41.0052380  52.5004293  48.2549045  43.1313008  53.4636424
  49.0838730  43.2445893  55.0882041  49.8084077  42.4359228  55.1841569
  49.5969503  44.2028955  55.1688371  48.3414341  43.1626211  55.8820347
  43.9456990  42.3264612  55.2580367  43.0600202  41.4576712  55.3135604
  43.6987283  43.6288638  55.3938122  44.4774412  44.2698811  55.3408737
  42.3648718  44.1776784  55.6092195  41.5646649  43.4549917  55.4495573
  42.2632479  44.7139070  57.0476484  42.3730136  43.8892957  57.7519686
  43.0526006  45.4456059  57.2198081  40.9042363  45.3760107  57.2484733
  40.7939212  46.2010699  56.5447626  40.1143334  44.6447604  57.0769259
  40.8035033  45.9075401  58.6742903  40.9132708  45.0829300  59.3786114
  41.5928552  46.6392399  58.8464482  39.4947436  46.5584190  58.9064667
  38.8300765  46.5888270  58.1466033  39.1538986  47.1051181  60.0700153
  39.9748295  47.1044580  61.1164246  40.8875460  46.6791205  61.0380874
  39.6817539  47.5292952  61.9845949  37.9511118  47.6640943  60.1687596
  37.3301250  47.6628869  59.3722208  37.6642314  48.0872203  61.0398295
  42.1625702  45.3274174  54.5912327  43.1382326  45.8989488  54.1163974
  40.9112791  45.6498367  54.2646649  40.1644148  44.9942002  54.4447590
  40.6046804  46.8617655  53.4776078  41.0025650  46.7900901  52.4653580
  39.0601801  47.1488990  53.3915483  38.6620316  47.1358985  54.4061457
  38.7417002  48.4945241  52.7362035  39.1391609  48.5081060  51.7213432
  37.6615533  48.6373344  52.7047651  39.1972095  49.2979999  53.3150295
  38.3468497  46.0263039  52.6382827  38.5021335  45.0820325  53.1601451
  37.2796026  46.2422512  52.5887832  38.7494205  45.9529712  51.6280056
  41.4162767  48.0577076  53.9658205  41.4434431  48.3913297  55.1876098
  42.0968733  48.6912415  53.0077411  42.0901662  48.2869302  52.0822213
  42.8472045  49.9290438  53.2183150  42.7187206  50.5883999  52.3599207
  42.4875401  50.4295697  54.1173226  44.3245711  49.6157845  53.3843464
  45.1351994  50.5345283  53.3273930  44.7082468  48.3457106  53.6039969
  44.0399607  47.5986310  53.7279526  46.1540853  48.0064799  53.6174359
  46.6550357  48.6221041  54.3645334  46.3959269  46.5558329  53.9478946
  45.7687410  45.9056119  53.3380178  47.4430750  46.2905162  53.8023336
  46.0054664  46.1476070  55.6943155  46.3248401  44.8592346  55.6106785
  46.7437454  48.2336514  52.2239736  46.0152186  48.1607702  51.2158238
  48.0445456  48.4683565  52.1740600  48.5967652  48.5723973  53.0133028
  48.7033969  48.7028076  50.8643927  48.0229732  48.4911592  50.0395729
  49.2237959  50.1762191  50.7197082  49.7859521  50.2495647  49.7887404
  48.0570185  51.2071086  50.7036372  47.4946475  51.1346723  51.6345461
  48.4623415  52.2138283  50.6020108  47.3961028  50.9955225  49.8630884
  50.1316395  50.4567373  51.7959927  50.4552132  51.3569509  51.7152716
  49.8359133  47.6990766  50.6006716  50.4177053  47.0916744  51.5548554
  50.1710736  47.4867960  49.3177790  49.6391095  47.8877370  48.5585953
  51.3207657  46.6360342  48.9885413  51.8555586  46.3705312  49.9004645
  50.8608580  45.3542291  48.3026707  51.7487832  44.7370234  48.1657572
  50.1773276  44.8586897  48.9921103  50.1654743  45.5560551  46.9505624
  49.3424872  46.2611089  47.0675760  50.8815482  45.9506401  46.2296997
  49.6091904  44.1857195  46.4365143  50.4333501  43.5325057  46.1498583
  49.0204529  43.7053715  47.2180214  48.7500024  44.4007564  45.2652363
  48.8517729  45.2757664  44.7711719  47.8372366  43.5240277  44.8299899
  47.6599597  42.3535569  45.4646410  48.2191968  42.1328882  46.2762192
  46.9682311  41.6994381  45.1273877  47.0958004  43.8080602  43.7253312
  47.2369239  44.6807391  43.2368480  46.4075409  43.1449817  43.3986439
  52.2733235  47.3953932  48.0714516  51.8016490  48.2568242  47.2965343
  53.5762138  47.1369643  48.1832922  53.9308274  46.5479772  48.9231859
  54.5270709  47.7605790  47.2869773  54.0122971  48.5230462  46.7023827
  55.6934598  48.4222335  48.0388678  56.1156615  47.6161947  48.6389897
  56.4449704  48.7840438  47.3371377  55.2609316  49.5638357  48.9535513
  54.3701272  50.3710722  48.6288718  55.9012534  49.6938773  50.0122043
  55.0434340  46.7448111  46.3002769  55.8009120  45.8632112  46.6434819
  54.6869609  46.9366121  45.0305524  54.1709199  47.7628785  44.7639352
  55.0476287  45.9707380  43.9811815  55.3324540  44.9887923  44.3590126
  53.8454071  45.7986838  43.0024066  53.4662804  46.7907519  42.7571248
  54.2440518  45.0625603  41.7003215  54.6228680  44.0701693  41.9447788
  53.3716034  44.9687456  41.0536895  55.0187910  45.6296896  41.1843319
  52.6353593  45.0731756  43.6808019  52.2956337  45.6555312  44.5372776
  51.8210763  44.9748872  42.9629006  52.9456598  44.0832450  44.0152443
  56.2491636  46.5432642  43.2313577  56.2949431  47.7787769  42.9709299
  57.2182684  45.6869460  42.9207310  57.2054476  44.7571607  43.3149823
  58.3251990  46.0499637  42.0368765  58.2434582  47.0876476  41.7134113
  59.7186598  45.8140976  42.6633198  59.7635378  44.7975983  43.0542362
  60.8508845  46.0124225  41.5854768  60.8069329  47.0289041  41.1944089
  61.8245280  45.8422559  42.0450008  60.7055017  45.3034919  40.7703815
  59.9348574  46.7250834  43.8987944  60.0974642  47.7338017  43.5191271
  59.0087808  46.6984615  44.4730529  61.1346916  46.3146652  44.8226773
  62.0612435  46.3415046  44.2491958  61.2050199  47.0107891  45.6584791
  60.9725609  45.3061628  45.2031199  58.1468599  45.1771896  40.7779799
  57.9766942  43.9696034  40.8728385  58.1200113  45.8040647  39.6048334
  58.1536274  46.8065919  39.4868995  57.8510489  44.9744569  38.4268261
  57.3874843  44.0306698  38.7140072  56.9605318  45.6594992  37.3694007
  56.8542762  45.0140413  36.4975102  55.5378329  45.9232735  38.0057655
  55.6432320  46.5690820  38.8775013  54.8947290  46.4076737  37.2710041
  55.0930926  44.9752123  38.3082349  57.5934975  46.9033065  36.8779502
  58.5572200  46.6673819  36.4266404  56.9486935  47.3700551  36.1333207
  57.7415418  47.5900797  37.7113327  59.1365187  44.4234421  37.7970253
  60.2326473  44.8872160  38.0923232  58.9666638  43.4552772  36.9187173
  58.0451522  43.0814336  36.7422046  60.0883462  42.8894280  36.1947059
  60.9149684  42.6685522  36.8699902  59.6968945  41.5893148  35.4037659
  60.5656489  41.2197831  34.8589608  59.2113151  40.5035512  36.3998256
  58.3422380  40.8722048  36.9447111  58.9397905  39.6017226  35.8511177
  60.0102636  40.2727872  37.1044734  58.6241024  41.8665493  34.3171918
  57.7285805  42.2500172  34.8061639  59.0136137  42.6191096  33.6316020
  58.2509877  40.5109521  33.4830050  57.8609479  39.7580391  34.1679069
  57.4969151  40.7425840  32.7307947  59.1459823  40.1271301  32.9933467
  60.6306161  43.9005287  35.2054012  59.9369824  44.8761664  34.8726739
  61.8423707  43.6572545  34.7330830  62.3802352  42.8657102  35.0559742
  62.4579505  44.5657652  33.7390931  62.4393186  45.5909400  34.1089154
  63.9137351  44.1621889  33.4890103  64.3542436  44.8690595  32.7858848
  64.4538930  44.2067948  34.4347056  64.0009593  42.8414510  32.9532524
  64.9224956  42.6157290  32.8068961  61.7402616  44.5951816  32.3964411
  61.0391324  43.6380933  32.0250481  61.9711317  45.6764610  31.6431324
  62.4599252  46.4819247  32.0070121  61.5123631  45.7126884  30.2558047
  62.2680314  46.2409520  29.6744252  61.4410604  44.6824043  29.9071932
  60.1754102  46.3926655  30.0588533  59.7248731  46.5675868  28.9047836
  59.5305186  46.7892746  31.1629624  59.9460352  46.6576613  32.0740734
  58.2049300  47.4029608  31.0874414  57.7312389  47.1713111  30.1334738
  57.3207671  46.8422929  32.2278538  57.9042479  46.9598904  33.1409914
  56.4701926  47.5235480  32.2505363  56.8160566  45.3986523  32.1268524
  57.6491060  44.7320253  31.9038321  56.1726818  44.9892613  33.4893827
  55.3392061  45.6551963  33.7128721  55.8105322  43.9630752  33.4270085
  56.9185389  45.0633173  34.2807823  55.7815253  45.2586313  31.0906768
  56.1935768  45.5473914  30.1237587  55.4475143  44.2219564  31.0477469
  54.9357577  45.9026370  31.3315770  58.2932975  48.9302169  31.2105993
  59.3247142  49.4478827  31.6875812  57.2144832  49.6445407  30.8333987
  56.0545299  49.1494604  30.0661269  55.5706758  48.3403928  30.6132969
  56.3863328  48.7828687  29.0947278  55.1394574  50.4331261  29.9455047
  54.4320071  50.4798060  30.7734142  54.5938613  50.4282628  29.0018932
  56.1178595  51.5745238  29.9940792  55.5780835  52.4451408  30.3665938
  56.6029449  51.8247304  29.0505812  57.1582895  51.1372241  31.0120616
  58.1444365  51.5602110  30.8205037  56.7253440  51.4773026  32.4493976
  55.8500606  52.3318274  32.6838316  57.4145745  50.8334212  33.3996761
  58.1700529  50.2158677  33.1389476  57.0813558  50.9617568  34.8202947
  57.0162755  52.0106375  35.1096268  55.7638068  50.2929991  35.1307324
  55.8164467  49.2397963  34.8548828  55.5545682  50.3787573  36.1970180
  54.9678582  50.7769512  34.5647330  58.1981827  50.3473090  35.6229725
  58.9148037  49.4744267  35.1379108  58.3495118  50.8421852  36.8522943
  57.8509668  51.6800974  37.1158381  59.2611957  50.2496071  37.8183339
  59.7459934  49.3842633  37.3663931  60.3619598  51.2559333  38.2742231
  59.9092367  52.1088548  38.7798573  61.0013617  50.7171256  38.9734737
  61.2265704  51.7736871  37.1189082  61.5352534  52.9735138  37.0517399
  61.6511981  50.8896463  36.2581386  62.2241536  51.1821013  35.4794912
  61.4049193  49.9170777  36.3745772  58.5603137  49.7170769  39.0519469
  58.9401500  48.6731235  39.5511681  57.5742181  50.4575807  39.5477961
  57.2002241  51.2282565  39.0127385  56.9602142  50.1494434  40.8534579
  57.1481814  49.1043231  41.0994072  57.5401282  51.0330339  41.9786924
  57.0180819  50.7897458  42.9040997  59.0532928  50.8128714  42.1698135
  59.5760920  51.0564171  41.2448994  59.4160920  51.4558085  42.9717535
  59.2395317  49.7704366  42.4281650  57.3252404  52.4144389  41.6504783
  57.6842358  52.9685086  42.3474211  55.4877402  50.4562724  40.7773637
  55.0466442  51.2797383  39.9489898  54.7212194  49.8873705  41.6887662
  55.1018585  49.1639616  42.2819717  53.3365695  50.2346760  41.8418827
  53.1839113  51.2671461  41.5275576  52.4302398  49.3149947  40.9808986
  52.6711798  49.4668046  39.9287575  52.6227123  48.2766868  41.2510303
  51.0210136  49.6230063  41.2064720  50.4767797  49.0452258  40.6664915
  52.9455287  50.1301002  43.3232125  53.3698942  49.1874250  44.0079785
  52.1774344  51.1085398  43.8111274  51.9088963  51.8879866  43.2276470
  51.6390174  51.0439907  45.1841422  52.1253343  50.2268687  45.7169712
  51.8837212  52.3613300  45.9666959  51.3136433  53.1670869  45.5042382
  51.4280115  52.1870412  47.4529305  51.9980151  51.3817093  47.9162189
  51.6019533  53.1147941  47.9980156  50.3660705  51.9429988  47.4816537
  53.2796552  52.6539357  45.9185377  53.4528198  53.4673512  46.3980890
  50.1669851  50.8835708  45.0710028  49.5003074  51.6835458  44.3962097
  49.6392437  49.8585825  45.7349876  50.2109912  49.3335350  46.3811527
  48.2602853  49.4527914  45.5515970  47.7113639  50.2008797  44.9796280
  48.2368552  48.1378428  44.7821275  48.7580907  47.3637037  45.3452629
  47.2079900  47.8256598  44.6030238  48.9569719  48.3611638  43.4172181
  48.3389580  49.0742890  42.8716796  49.9159601  48.8207251  43.6564758
  49.1882488  47.1194628  42.5512906  48.9554254  45.9542193  42.9886417
  49.6235862  47.3759045  41.3985434  47.5346737  49.2676677  46.8937739
  48.1222014  48.7645184  47.8684867  46.2849183  49.6874840  46.9064958
  45.9055241  50.0751619  46.0545186  45.4090653  49.6357668  48.1100754
  45.9994614  49.4174316  48.9999414  44.7236790  50.9944659  48.2979985
  45.5188844  51.7023117  48.5318831  44.2861895  51.2464489  47.3319718
  43.6294085  51.0655921  49.3951435  42.9258839  50.2498954  49.2284318
  44.1101335  50.9375774  50.3649981  42.8616463  52.4299459  49.3696111
  43.5692215  53.2581565  49.3308371  42.2034964  52.4741097  48.5018625
  42.0416041  52.5639645  50.5938639  42.4741393  53.0728720  51.3515089
  40.8064969  52.0948385  50.7665428  40.1812939  51.4034171  49.8172343
  40.6459525  51.2236518  48.9386691  39.2448936  51.0614784  49.9795062
  40.1757107  52.3094394  51.9415748  40.6432384  52.8212906  52.6760993
  39.2393940  51.9570751  52.0803164  44.3495991  48.5448249  47.9575403
  43.6500128  48.4533401  46.9470753  44.2539138  47.6740502  48.9541098
  44.9551221  47.6443160  49.6804171  43.1795814  46.6929108  48.9916495
  43.0760428  46.1870326  48.0317191  43.5385433  45.6351149  50.0750124
  44.4605839  45.1526525  49.7507128  43.7164874  46.1664113  51.0099777
  42.4505084  44.5687980  50.2905241  41.5296017  45.0748773  50.5802058
  42.2020369  43.7420614  49.0289832  43.1224406  43.2352820  48.7389306
  41.4267752  43.0016269  49.2260284  41.8794694  44.3989281  48.2211610
  42.9695596  43.6595549  51.4501068  43.1160086  44.2616264  52.3468576
  42.2386756  42.8770000  51.6538656  43.9166474  43.2047658  51.1597786
  41.7983455  47.3454019  49.2671264  41.6348155  47.9814571  50.3018272
  40.8604427  47.2822524  48.3183733  41.0361578  46.6961856  47.5147881
  39.5749565  48.0089920  48.3881510  39.6932259  48.8986937  49.0066512
  39.1048428  48.4437160  46.9832221  39.1994204  47.5484270  46.3687207
  38.0639146  48.7668417  46.9957986  39.9717639  49.5502484  46.4030388
  40.5410194  50.3595755  47.2017746  40.0397485  49.6839364  45.1432945
  38.4626800  47.1476922  48.9748652  37.5626427  47.6377228  49.6988769
  38.5333714  45.8563755  48.6996454  39.2486416  45.4852167  48.0907702
  37.4948107  44.9023640  49.2522933  37.2345872  45.1472819  50.2820496
  36.1944797  44.8891705  48.3734273  35.7192538  45.8664552  48.4581354
  36.4880769  44.5957707  46.9178669  36.9629238  43.6183760  46.8323068
  35.5568839  44.5975809  46.3513184  37.1561572  45.3597628  46.5202693
  35.1673080  43.9010684  48.9018034  35.5879326  42.9050282  48.7636744
  35.0546971  44.1028289  49.9670315  33.8641205  43.9716928  48.2540314
  33.9758685  43.7695692  47.1887811  33.1975522  43.2310501  48.6958847
  33.4426339  44.9673714  48.3921365  38.0910001  43.5312143  49.3352851
  38.8570102  43.1650514  48.4332411  37.7897300  42.7809664  50.4346805
  37.2870588  43.1828839  51.2130656  38.2233062  41.3975978  50.5350404
  38.3887943  41.0036677  49.5322782  39.5456638  41.2554343  51.3511206
  40.2231834  41.9952936  50.9248876  39.3055517  41.5322041  52.3776900
  40.2201314  39.8768978  51.3377176  39.5005155  39.1416560  51.6978195
  40.6996833  39.4778639  49.9144566  41.4197235  40.2124400  49.5538475
  41.1709243  38.4956864  49.9513353  39.8452483  39.4451767  49.2384589
  41.4448661  39.8700498  52.2896010  41.1182286  40.0970927  53.3044206
  41.9145670  38.8866169  52.2711081  42.1636464  40.6216214  51.9631135
  37.0754982  40.6302811  51.1927173  37.0661461  40.4197463  52.4362500
  36.0866403  40.2600311  50.3897272  36.1845005  40.3650080  49.3899760
  34.8459985  39.7100859  50.9059387  34.7117430  40.0275522  51.9400034
  33.6439994  40.1870473  50.0880572  33.7531732  41.2708102  50.0475821
  33.6874262  39.7800414  49.0778294  32.2974046  39.8338624  50.7222913
  32.1858562  38.7316120  51.3142136  31.3195249  40.6346788  50.5671160
  34.9627710  38.1969988  50.8316975  34.6699360  37.6070661  49.7993918
  35.3474204  37.5749084  51.9439036  35.6881587  38.0863805  52.7453978
  35.4450407  36.1093038  51.9601037  35.9711765  35.7756343  51.0657072
  36.2133998  35.5982342  53.2067985  35.8121194  36.1247632  54.0727318
  36.0291675  34.5293453  53.3146644  37.6935021  35.8443010  53.1127075
  38.2920307  35.6224497  52.0354348  38.2967707  36.2523793  54.1243741
  34.1237294  35.3601562  51.7974279  34.1335611  34.1478005  51.4361427
  32.9907804  36.0170470  52.0209410  32.9718320  36.9871090  52.3015117
  31.7334123  35.3128977  51.9029353  31.8730887  34.2704775  52.1892039
  30.6677327  35.9290224  52.8076869  31.0408068  35.8336877  53.8274056
  30.6118855  36.9838898  52.5389196  29.2753354  35.3054793  52.7145761
  28.6115757  35.8487961  53.3871315  28.9448178  35.4474925  51.6856497
  29.2414543  33.7927949  53.0647161  30.1397685  33.2983537  53.8158223
  28.3009264  33.1445418  52.5971251  31.2426808  35.3180584  50.4805901
  30.7802442  34.2858301  49.9570464  31.3624497  36.4505653  49.8260501
  31.7400860  37.2755989  50.2696826  30.8651147  36.5662713  48.4461917
  30.1014194  35.8129418  48.2528957  30.2561501  37.9306468  48.2501650
  31.0542825  38.6649182  48.3593869  29.8622501  37.9712781  47.2346395
  29.1151044  38.2496344  49.2627477  28.4569273  37.3831019  49.3261909
  29.5618678  38.4381452  50.2389486  28.3153988  39.4593658  48.8325222
  27.6893910  39.7756258  49.6669039  29.0090896  40.2599099  48.5755754
  27.4510883  39.1915339  47.6684941  27.0019100  38.2884478  47.6158279
  27.2195942  40.0782586  46.6920311  27.8268991  41.2569971  46.7205667
  28.4587456  41.4779274  47.4769131  27.6547276  41.9282684  45.9858209
  26.3935246  39.8010881  45.6668426  25.9311800  38.9041899  45.6231271
  26.2395084  40.4911774  44.9456252  31.9639252  36.2932192  47.3779483
  31.6311639  36.1234412  46.1992972  33.2143194  36.2082126  47.8212868
  33.3553077  36.3858842  48.8054893  34.4008970  35.9356910  46.9807354
  35.2878198  35.9304781  47.6143283  34.3061658  34.5752055  46.2521503
  33.3696680  34.5489161  45.6950327  35.1433423  34.4986161  45.5583423
  34.3480480  33.4152422  47.2224498  35.2973813  33.4270998  47.7579184
  33.5285326  33.5111115  47.9347037  34.2109847  32.1126488  46.4700635
  33.2647589  32.1049563  45.9290493  35.0343026  32.0149840  45.7624558
  34.2387736  30.9667356  47.3841049  34.9131201  30.9683668  48.1360048
  33.4437572  29.9057472  47.2449876  32.5168895  29.8606653  46.2769009
  32.4161610  30.6394877  45.6417714  31.9237580  29.0480958  46.1873159
  33.5446499  28.9026102  48.1000816  34.2206092  28.9476550  48.8491811
  32.9453083  28.0958039  48.0003218  34.5337320  37.0742903  46.0021612
  34.4761110  36.8812131  44.7596436  34.6983901  38.2625739  46.5844393
  34.7361534  38.3229623  47.5919245  34.8950110  39.5032579  45.7984478
  35.0520077  39.3231241  44.7349615  33.7190333  40.4659828  45.9624211
  33.5962491  40.7098622  47.0176680  33.9916100  41.7763361  45.1531509
  34.1140525  41.5332984  44.0976692  33.1507927  42.4595407  45.2729771
  34.9002195  42.2506679  45.5240144  32.4006462  39.7927802  45.5733213
  32.2330894  38.9249649  46.2112268  31.5802861  40.4993752  45.6991489
  32.4483546  39.4739017  44.5321003  36.1273585  40.1824457  46.3731152
  36.2648427  40.3674552  47.6101776  37.0546537  40.5796593  45.4815306
  37.0320576  40.2349295  44.5324520  38.1825507  41.3698757  45.8927729
  37.8978022  41.9092170  46.7961712  39.4924876  40.5327082  46.1948686
  39.2260303  39.6878110  46.8298879  40.1397661  40.0125932  44.8902211
  40.4069358  40.8569977  44.2548464  41.0365990  39.4419472  45.1313708
  39.4326306  39.3717230  44.3635854  40.4595375  41.3351260  46.8713226
  41.2448385  40.8110877  47.0453531  38.4254836  42.4927090  44.8691000
  37.7669985  42.5470049  43.8324872  39.2936844  43.4232679  45.2096825
  39.8312013  43.3720389  46.0632342  39.4988390  44.5923656  44.3177497
  39.8225470  44.2657917  43.3294876  38.5778963  45.1681630  44.2259828
  40.5649862  45.4668688  44.9177025  40.7992130  45.4400501  46.1476438
  41.2726383  46.2150812  44.0764941  41.1160661  46.1438579  43.0812495
  42.3031055  47.1240966  44.5483187  42.0614544  47.4587718  45.5571281
  43.6937086  46.4216214  44.5764729  44.4297969  47.0280446  45.1042267
  43.5873554  45.4606179  45.0797236  44.2709262  46.1327342  43.2108236
  45.2067109  47.0119246  42.6454526  45.4996126  47.8969063  43.2103560
  45.7671940  46.7696211  41.3714053  46.4965718  47.4501411  40.9320862
  45.3612123  45.6111556  40.6618212  45.7645866  45.4187305  39.6676574
  44.4305182  44.7003014  41.2420413  44.1234085  43.7984784  40.7124198
  43.9043385  44.9810677  42.5243888  43.2007508  44.2896833  42.9881258
  42.3845295  48.3504457  43.6689559  41.8554386  48.3557108  42.5264651
  43.0530142  49.3719186  44.2167800  43.4319952  49.2965530  45.1499428
  43.2703292  50.6147232  43.4789264  42.8444556  50.5501988  42.4776435
  42.5748264  51.7574452  44.2357647  42.7576445  51.6336633  45.3031704
  42.9961467  52.7060952  43.9031199  41.1669696  51.7494568  43.9898127
  40.7539253  52.4699562  44.4713465  44.7620989  50.8770264  43.4110127
  45.4740897  50.7042534  44.4098589  45.2431440  51.3802136  42.2627914
  44.6545619  51.4976886  41.4504675  46.6236713  51.7301822  42.1550165
  47.1527995  51.0517477  42.8242318  47.1230353  51.5113317  40.6904346
  46.5089992  52.1001142  40.0089691  48.5547711  51.9402931  40.5698998
  49.1695365  51.3515938  41.2507797  48.8962160  51.7849551  39.5464809
  48.6408071  52.9965961  40.8246958  47.0986935  50.0026715  40.3845641
  47.8105523  49.5005231  41.0397014  46.0960049  49.6217076  40.5784239
  47.5038523  49.7122268  38.8023061  48.5066686  50.0925252  38.6078001
  47.4793544  48.6393383  38.6114942  46.7921220  50.2137120  38.1465223
  46.7405988  53.1829090  42.5814081  46.1694441  54.0693171  41.8986365
  47.3984074  53.4194666  43.7033428  47.8345935  52.6615087  44.2086555
  47.4182363  54.7739406  44.3110415  46.6724779  55.4079056  43.8314249
  47.1415908  54.7104392  45.8185165  47.1031441  55.7184146  46.2315635
  45.7702596  54.0038860  46.0445742  45.8080891  52.9956225  45.6321735
  45.5597595  53.9513054  47.1127623  44.9828536  54.5700670  45.5470502
  48.2261857  53.9733554  46.5847589  48.1973770  52.9259234  46.2844976
  49.1874930  54.4045610  46.3053854  48.0320887  54.0805707  48.1954936
  47.0711349  53.6491158  48.4756977  48.8335751  53.5368223  48.6955500
  48.0612487  55.1277543  48.4965851  48.6923463  55.5626029  44.0564157
  48.7595760  56.7394562  44.4037320  49.7106475  54.8852126  43.5302929
  49.6204423  53.8906491  43.3792769  50.9459578  55.5200494  43.1650085
  50.7285368  56.3207703  42.4581328  51.3979599  55.9415237  44.0628687
  51.9248944  54.5506988  42.5275546  51.5723871  53.4206230  42.1438302
  53.1506410  55.0289421  42.3814323  53.3570610  55.9784153  42.6570962
  54.2404284  54.2118179  41.8222165  55.0412712  54.1346452  42.5576038
  53.8589340  53.2162643  41.5954249  54.7926783  54.8275126  40.5559361
  54.2277195  55.7905949  40.0264572  55.8884357  54.2449385  40.0607875
  56.3216795  53.4715464  40.5447957  56.5268850  54.7446415  38.8284128
  56.3057812  55.8039941  38.6980888  58.0330449  54.5698559  38.9107366
  58.2356280  53.5117903  39.0767384  58.4551522  54.8741741  37.9529706
  58.6787383  55.4048128  40.0491184  58.5438997  56.4598002  39.8105372
  58.1137314  55.1612156  40.9488555  60.1625932  55.1220225  40.2872577
  60.8637650  54.5381414  39.4343949  60.6531897  55.5275923  41.3645270
  55.9610082  54.0126929  37.6259405  56.4506948  52.9534464  37.2814425
  54.9054762  54.5686430  37.0328192  54.5690895  55.4475176  37.3995927
  54.2212011  53.9928779  35.8756740  54.9635613  53.7480409  35.1160325
  53.4339834  52.7108446  36.2280486  52.8977155  52.2777883  35.3836682
  54.1561949  51.9883798  36.6082525  52.4372268  52.9177223  37.3012862
  51.1888337  53.4720682  37.0776145  50.5573078  53.5761824  38.2444536
  49.5365564  53.9559880  38.2881959  51.3705822  53.1596301  39.2019805
  51.1739864  53.1672213  40.1926330  52.5348592  52.7109151  38.6350211
  53.3180281  52.2855089  39.2625378  53.2388404  55.0515033  35.3832384
  53.0579404  56.1049352  36.0277548  52.5728303  54.7795082  34.2699014
  52.7506651  53.9275186  33.7574682  51.7067325  55.7898084  33.6581318
  51.9418684  56.7748166  34.0613304  51.9229741  55.8193180  32.1054136
  51.5390425  54.8890373  31.6867568  51.3628170  56.6599117  31.6958697
  53.3516380  55.9632834  31.7568243  53.7669631  56.8111211  32.3015968
  53.8807745  55.0541328  32.0424144  53.5144874  56.1985590  30.2334085
  54.5794940  56.3154693  30.0329295  53.1449820  55.3085352  29.7240729
  52.8073422  57.3671992  29.7078044  53.0203459  58.2477433  30.1543140
  51.9229272  57.3562705  28.7208147  51.5438098  56.2185967  28.1402345
  51.9340129  55.3411052  28.4530447  50.8679502  56.2388705  27.3899663
  51.3965865  58.5198786  28.2799477  51.6795807  59.3915391  28.7044738
  50.7225025  58.5128190  27.5278443  50.2076510  55.7785053  33.9821439
  49.4598747  56.6652005  33.5210156  49.7345477  54.8177931  34.7819678
  50.3757069  54.1439556  35.1756139  48.3031794  54.6537871  35.0500273
  47.7459054  54.9803466  34.1720161  47.9147136  53.1977382  35.3658438
  48.4705818  53.0202950  36.2865086  46.8460752  53.1227127  35.5670481
  48.3158079  52.1404661  34.3096847  49.3763371  52.2505756  34.0832902
  48.0445177  50.6940781  34.8489773  46.9840421  50.5830534  35.0751716
  48.3325948  49.9638219  34.0927775  48.6279769  50.5280272  35.7545726
  47.6411009  52.3927531  32.9708114  47.9301738  53.3750189  32.5970598
  47.9497743  51.6280794  32.2580028  46.5589414  52.3562939  33.0961135
  47.8026509  55.5322888  36.1679842  48.3743626  55.5704127  37.2501271
  46.7217158  56.2287276  35.9123058  46.3344995  56.2894142  34.9814567
  46.1314727  57.0492117  36.9602681  46.6385713  56.8151821  37.8963131
  46.2543284  58.6407003  36.6891433  45.8052482  59.1687391  37.5303343
  47.6983214  59.0714650  36.5358594  48.1479689  58.5441549  35.6945147
  47.7403779  60.1455646  36.3551925  48.2472478  58.8351088  37.4474054
  45.5672144  58.9485687  35.5053016  45.6326230  59.8907377  35.3331397
  44.6971902  56.6407279  37.2053467  43.9168729  56.3500224  36.2690882
  44.3575921  56.5854271  38.4850045  45.0755965  56.7254894  39.1813891
  43.0255070  56.1789564  38.9340357  43.0299856  55.9861124  40.0068313
  42.0085513  57.3201641  38.6379069  42.0794966  57.5376430  37.5721823
  40.9832650  57.0442788  38.8844332  42.3748101  58.5760151  39.4160340
  42.7739063  59.6236687  38.8290602  42.3210530  58.4777600  40.7269944
  42.5525717  59.2765201  41.3001271  42.0485169  57.6040324  41.1541068
  42.5609144  54.8391004  38.3990661  41.3574497  54.6329086  38.1477045
  43.5200849  53.9192907  38.2891385  44.4877149  54.1699660  38.4338911
  43.2011544  52.5150886  37.9833461  42.5273836  52.4548708  37.1286497
  44.5104304  51.7593695  37.6365336  45.0187719  52.3069430  36.8429019
  45.1387272  51.7446367  38.5271100  44.2477186  50.3403100  37.1814638
  44.1323477  50.0277100  35.8064424  44.2471682  50.8242444  35.0712904
  43.8694999  48.6918605  35.3764539  43.8026703  48.4523852  34.3151871
  43.7467544  47.6750029  36.3335073  43.4838129  46.3482708  35.9297268
  43.4076969  46.2541170  34.9773923  43.8356986  47.9784582  37.7116919
  43.6883025  47.1887531  38.4484012  44.1120216  49.2877932  38.1327139
  44.2246273  49.5065011  39.1945929  42.5596782  51.8208694  39.2040904
  43.0776152  51.8859011  40.3225823  41.4385949  51.1465391  38.9597073
  41.0278555  51.1615450  38.0371200  40.7548231  50.3789121  40.0170032
  41.4680785  50.1022743  40.7934293  39.6255862  51.2301080  40.6606457
  40.0847233  52.1512739  41.0194572  38.9120074  51.4641881  39.8706383
  38.9112798  50.5517492  41.7955227  38.5496577  49.5866729  41.4406170
  39.6270476  50.3964555  42.6027787  37.6995604  51.4023267  42.3261818
  38.0174826  52.4366532  42.4573043  36.8875038  51.3616161  41.6002299
  37.1956826  50.8234234  43.7166256  38.0945757  50.6673479  44.3130585
  36.5959265  51.6156085  44.1647712  36.3842496  49.5344613  43.6746911
  36.9399691  48.8001674  43.2598561  36.1238816  49.2698597  44.6139965
  35.5510560  49.6789930  43.1224248  40.1907646  49.1404144  39.3765538
  39.5478150  49.2312104  38.3255052  40.3951261  47.9739172  40.0016463
  41.0034796  47.8917885  40.8036813  39.8168510  46.7529350  39.4422777
  39.0791028  47.0337494  38.6906328  40.8771637  45.8189927  38.7764656
  40.3636788  44.9897114  38.2899215  41.4334950  46.3882858  38.0318174
  41.7692138  45.3154728  39.7455267  42.4135919  44.7442532  39.3211627
  39.0150182  45.9990034  40.4993479  39.2541370  46.1549804  41.7245137
  38.0878913  45.1746094  40.0208135  37.8936034  45.1321560  39.0305866
  37.3231557  44.3158269  40.9108146  37.7640846  44.2437676  41.9050422
  35.8768299  44.8638461  41.0479914  35.5280860  45.1086016  40.0447110
  34.8819370  43.8650143  41.7144869  35.2297938  43.6201298  42.7180446
  33.8937581  44.3211200  41.7742416  34.8258480  42.9546212  41.1177121
  35.8905986  46.1545211  41.8360203  36.5068254  46.8900096  41.3188905
  34.8733316  46.5347355  41.9293180  36.3015806  45.9704112  42.8286421
  37.3339028  42.9188302  40.2668125  37.1150738  42.7759654  39.0732914
  37.5592310  41.8986726  41.0993878  37.6213746  42.0855411  42.0900026
  37.6474283  40.5219285  40.6526375  37.4895654  40.4472028  39.5767218
  39.0338260  39.9704192  40.9821945  39.2226577  40.0977354  42.0481370
  39.1204115  38.4174090  40.6073658  38.9321347  38.2893389  39.5414158
  40.1141587  38.0398374  40.8482083  38.3740108  37.8635232  41.1767490
  39.9869848  40.7147987  40.2417917  40.8683693  40.3857230  40.4327651
  36.5985667  39.6873596  41.4708534  36.6010694  39.7344344  42.7254663
  35.7368787  38.9591841  40.7840578  35.7481968  39.0120261  39.7755049
  34.7021531  38.1583549  41.4214787  34.8710123  38.1681198  42.4982750
  33.3003665  38.6787655  41.1446953  32.5811906  38.0330356  41.6485993
  33.1387866  40.1160374  41.6515903  33.8573694  40.7624874  41.1477641
  32.1275967  40.4644721  41.4413825  33.3163138  40.1448221  42.7266513
  33.0240676  38.6738621  39.7314247  32.1362446  39.0051802  39.5778051
  34.8289773  36.7124916  41.0147846  35.1526190  36.4255458  39.8617629
  34.5929512  35.8034167  41.9724754  34.3472285  36.0969469  42.9071196
  34.7650307  34.3388991  41.7103669  35.0998278  34.1538440  40.6896982
  35.8054022  33.7451733  42.6866137  35.4506599  33.9114163  43.7037766
  36.0166454  32.2603633  42.4616188  36.3718565  32.0933600  41.4447432
  36.7558159  31.8865363  43.1701249  35.0743064  31.7324822  42.6080442
  37.1438204  34.4795559  42.5265351  37.0063532  35.5384025  42.7457353
  37.8748730  34.0581367  43.2165116  37.5019780  34.3643477  41.5035244
  33.4134049  33.6194940  41.8147837  32.6846136  33.8123667  42.8170039
  33.0538706  32.8445330  40.7936473  33.7085267  32.6940237  40.0394115
  31.7343960  32.2301561  40.6970358  31.1513103  32.4192853  41.5983351
  30.9987577  32.8493317  39.4969075  31.5643282  32.5804139  38.6047682
  29.9620820  32.5342870  39.3779526  30.9871626  34.3370957  39.5616372
  30.0221419  35.0291315  40.2793212  29.2447894  34.6076402  40.7673457
  30.2923288  36.3281101  40.2157547  29.6476723  37.0504611  40.7164800
  31.3949734  36.4980095  39.4876659  31.8601168  35.2710085  39.0816290
  32.7724021  35.2028401  38.4890162  31.7685070  30.7320451  40.5394892
  32.5115508  30.1956290  39.6981939  30.9543741  30.0484087  41.3612865
  30.4819064  30.5554738  42.0959691  30.7145577  28.5762853  41.2482080
  31.6415868  28.0547114  41.0101388  30.1879383  28.0521630  42.5905909
  30.8797263  28.3843099  43.3646754  29.2112283  28.5062564  42.7577339
  30.0598540  26.5571420  42.6423172  29.2891026  26.2255132  41.9465690
  31.0103103  26.0930129  42.3790320  29.6778719  26.1578465  44.0402724
  30.3456111  26.6443860  44.7512595  28.6511297  26.4661656  44.2373493
  29.7748661  24.7156172  44.2206133  30.6429554  24.3602933  44.5951332
  28.8099911  23.8539815  43.9348823  27.6527340  24.2767865  43.4315962
  27.5077425  25.2624601  43.2656892  26.9248168  23.6100316  43.2178812
  29.0093926  22.5559662  44.1497062  29.8910172  22.2393096  44.5272861
  28.2781996  21.8933892  43.9341898  29.7072572  28.1829696  40.1814665
  28.6251203  28.8162265  40.0258311  30.0661907  27.1458822  39.4131199
  31.0192828  26.8134859  39.4481554  29.1398199  26.4975457  38.4869337
  28.1280661  26.8569972  38.6746786  29.5040625  26.8024594  37.0390646
  30.5706929  26.6962594  36.8412762  28.9462840  26.1215613  36.3961331
  29.1255313  28.1966216  36.6204729  27.8957983  28.4340238  36.0436065
  27.2150356  27.5996537  35.8748208  27.5187596  29.7291576  35.6761827
  26.5579095  29.9218256  35.1989544  28.4074535  30.7984186  35.9332919
  28.1063835  31.8166907  35.6871647  29.6587879  30.5589828  36.4963291
  30.3690291  31.3722640  36.6454313  29.9947233  29.2730509  36.8668914
  30.9476174  29.0791090  37.3593134  29.1473111  24.9849922  38.7234325
  30.1828675  24.4196571  39.0321265  27.9857917  24.3659989  38.5888890
  27.1488976  24.8968147  38.3941014  27.8686167  22.9102430  38.7327252
  28.8174989  22.4447641  38.4661712  27.5153895  22.5136171  40.1693461
  28.3505257  22.8311872  40.7936825  26.6247464  23.0814518  40.4384530
  27.2460982  20.9761818  40.3944725  26.2819222  20.7277552  39.9509076
  28.0344907  20.4267280  39.8800437  27.2399168  20.5884328  41.8887681
  27.0243139  21.4837943  42.7468037  27.4408461  19.3810638  42.2102265
  26.7958124  22.4339590  37.7950400  25.7229320  23.0474671  37.7133863
  27.0952016  21.3597738  37.0789162  27.9981405  20.9290217  37.2176724
  26.1969357  20.7821101  36.0765430  25.1708264  20.7903541  36.4441446
  26.2609070  21.6060710  34.7789540  26.0303109  22.6310712  35.0692976
  27.2965606  21.5481078  34.4440483  25.3384973  21.1803966  33.6481854
  25.5885956  20.1664569  33.3359708  24.3042068  21.2097657  33.9909430
  25.5105009  22.1344296  32.4657973  25.1772204  23.1222494  32.7839722
  26.5716944  22.1714129  32.2196267  24.7206801  21.7039366  31.2394989
  25.1376684  20.7745926  30.8515025  23.6794834  21.5451120  31.5201829
  24.7967726  22.7640101  30.1839118  25.7614514  22.9110290  29.9233737
  24.2701298  22.4705978  29.3735683  24.4100409  23.6251297  30.5430922
  26.6870352  19.3470921  35.8865040  27.8469267  19.1302868  35.5271974
  25.8032055  18.3737882  36.1605121  24.8348950  18.6474111  36.2477166
  26.1483011  16.9483156  36.3470894  25.2253007  16.3694256  36.3145989
  27.1106025  16.3976457  35.2844687  28.0176465  16.9990882  35.3447793
  27.3364395  15.3707199  35.5717335  26.5794919  16.4203108  33.8529518
  25.5607911  16.0328722  33.8684669  26.5688577  17.4553111  33.5112493
  27.4348388  15.5738305  32.8960617  28.6927017  15.5299786  33.0731268
  26.8374675  14.9584430  31.9666088  26.7969839  16.8219590  37.6998291
  26.3593408  17.4408698  38.6736196  27.8462029  16.0206543  37.7749578
  28.0773325  15.3551111  37.0512654  28.6440911  16.0283890  38.9776067
  28.0990837  16.5485288  39.7653382  28.9448677  14.5928135  39.4519943
  28.0084262  14.0715223  39.6505694  29.4983534  14.0620834  38.6773465
  29.7772295  14.5999061  40.7262038  30.1203613  15.6617285  41.2412132
  30.1018790  13.4090264  41.2347628  30.6532650  13.3573475  42.0793944
  29.7946207  12.5651911  40.7725561  29.9268915  16.8379588  38.7245145
  30.9461881  16.6147195  39.3957095  29.8681145  17.7953114  37.7841558
  29.0703391  17.8578120  37.1679193  31.0763367  18.5767227  37.4474921
  31.9009000  18.2478342  38.0799688  31.4838145  18.3988236  35.9785616
  32.5676181  18.5148686  35.9769745  31.2292749  17.3650212  35.7449763
  30.8740680  19.3196056  34.9323907  29.8863937  18.9596435  34.6442456
  30.7904734  20.3326929  35.3257965  31.8110439  19.3222659  33.6841299
  31.8599596  18.3285906  33.2388035  31.4574031  20.0362093  32.9402733
  33.1635877  19.7154270  34.1091892  33.6419471  19.0823603  34.7340877
  33.7887733  20.8361984  33.7351083  33.1907932  21.6617667  32.8698430
  32.2761216  21.4327899  32.5078411  33.6565035  22.5105763  32.5822049
  35.0111394  21.1210583  34.2251184  35.4520630  20.4857098  34.8747481
  35.4809599  21.9686466  33.9405809  31.0341648  20.0435546  37.9473918
  30.0784342  20.7573502  37.7269494  32.0695269  20.4379332  38.6756479
  32.8692406  19.8301293  38.7811545  32.1031493  21.7464855  39.3258898
  31.1712638  22.3054503  39.2407603  32.4569747  21.5661493  40.8064354
  33.3575836  20.9568976  40.8826992  32.7012871  22.9232443  41.4724030
  31.8009020  23.5329270  41.3969428  32.9510122  22.7733966  42.5227762
  33.5260973  23.4307778  40.9722060  31.3507689  20.7353777  41.5144187
  30.4626026  21.3628635  41.5887343  31.1331418  19.8714786  40.8863929
  31.7712648  20.2449875  42.9571940  31.9886145  21.1084073  43.5859749
  30.9563834  19.6709135  43.3982229  32.6591557  19.6170238  42.8836335
  33.1855796  22.5780921  38.6284438  34.2934994  22.1054628  38.4825663
  32.8800039  23.7979459  38.1813898  31.9351517  24.1488374  38.1163610
  33.9775295  24.6369497  37.6529362  34.9280231  24.2875237  38.0561268
  34.0399911  24.5684278  36.1171744  34.9559640  25.0229145  35.7396367
  34.0225208  23.5117613  35.8502462  32.8941144  25.2218540  35.3741691
  32.8928363  26.4783747  34.7920873  33.7977531  27.0723418  34.9202608
  31.6959202  26.7147970  34.1495545  31.4478086  27.5618199  33.6585429
  30.8910036  25.6233906  34.3038732  29.5818832  25.4034800  33.8484217
  29.0882220  26.1881608  33.2751213  28.9978655  24.1913938  34.1608195
  27.9826514  23.9800172  33.8250217  29.6859770  23.2176708  34.9062827
  29.2098086  22.2676298  35.1487395  30.9898644  23.4313183  35.3574460
  31.4866980  22.6274636  35.9006537  31.6088376  24.6585425  35.0735604
  33.7994264  26.0708412  38.1795683  32.8388135  26.3698594  38.9283761
  34.7522451  26.9268790  37.8261426  35.4963085  26.6217856  37.2150886
  34.7463976  28.3157495  38.2675566  33.8594356  28.5236669  38.8660280
  35.9934006  28.5883273  39.1257843  36.8758887  28.3577648  38.5289962
  36.0572388  30.0028709  39.5780519  35.1752471  30.2340560  40.1753322
  36.9529928  30.1520344  40.1809401  36.0903527  30.6612653  38.7099961
  35.9986161  27.7442244  40.3033004  36.7828626  27.9282935  40.8254846
  34.7942439  29.2593516  37.0376063  35.4357501  28.9575040  36.0242595
  34.1129492  30.3981028  37.1707649  33.4155359  30.4843041  37.8962188
  34.3114417  31.5346933  36.2537541  35.0812250  31.2713589  35.5283660
  33.0286599  31.9099372  35.4943597  32.2238603  32.0548900  36.2150437
  33.2338691  33.2323232  34.6641413  34.0382591  33.0879826  33.9428761
  32.3123859  33.4769322  34.1358083  33.4931999  34.0486352  35.3382955
  32.6465210  30.7637583  34.5206288  32.4776403  29.8472278  35.0859190
  31.7368761  31.0312282  33.9829434  33.4562396  30.6065537  33.8080677
  34.8072335  32.6826867  37.1162253  34.2437854  32.9970275  38.1937661
  35.9109987  33.2721603  36.6848271  36.4445795  32.8929754  35.9156655
  36.3693537  34.4890715  37.2978392  35.8860529  34.6357246  38.2637649
  37.8807946  34.4527685  37.5091269  38.3602803  34.2316717  36.5555500
  38.4154640  35.8364947  38.0596099  37.9367405  36.0580651  39.0134607
  39.4948932  35.7796287  38.1999644  38.1836040  36.6263713  37.3451608
  38.2548862  33.3304422  38.5127345  37.9265614  32.3677272  38.1209632
  39.3354561  33.3148381  38.6549486  37.7658480  33.5190922  39.4684299
  36.0234196  35.6638649  36.3485764  36.2517305  35.5632636  35.1110811
  35.5209144  36.7537227  36.9261208  35.3066862  36.7448043  37.9130991
  35.3026763  38.0172973  36.1673144  35.5215484  37.8484932  35.1129428
  33.8704148  38.4961025  36.2939740  33.7577649  38.6331682  37.3694378
  33.7588708  39.4572264  35.7920788  32.8031611  37.5345068  35.7908595
  32.9466555  36.5649525  36.2678025  31.3816824  38.0722555  36.1267903
  31.2372679  39.0416386  35.6497791  30.6315384  37.3718569  35.7596029
  31.2793651  38.1803923  37.2065764  32.9955444  37.2806148  34.2665539
  33.9805720  36.8480953  34.0912057  32.2285619  36.5916314  33.9128012
  32.9123519  38.2241510  33.7271863  36.2013514  39.0637326  36.7788193
  36.2511271  39.1782293  37.9992336  36.9293877  39.8174590  35.9373299
  36.9590630  39.6015973  34.9511136  37.7395045  40.9237010  36.4263702
  37.4228150  41.1754976  37.4384993  39.2440897  40.5741421  36.4524642
  39.3919747  39.7347188  37.1318741  39.5490406  40.2849729  35.4467375
  40.0757737  41.7453451  36.9124198  40.1042740  42.4983334  36.1248303
  39.5765935  42.1566898  37.7897532  41.5059928  41.3394836  37.2824291
  41.6589712  40.2811815  37.8725988  42.4638013  42.0503190  36.9612579
  37.4651005  42.1145897  35.5370105  37.5107453  41.9877807  34.3030198
  37.1064796  43.2524341  36.1414915  36.8765757  43.2971236  37.1239610
  36.9737736  44.4806975  35.3357129  37.3229712  44.3046268  34.3182851
  35.4963108  44.9030427  35.2819145  35.4090001  45.7741347  34.6325496
  34.9162357  44.0799041  34.8647147  35.0045182  45.2216721  36.5633084
  34.0825219  45.4807296  36.4968865  37.8534081  45.5810873  35.9201002
  38.2557007  45.5023147  37.0767975  38.1329004  46.6225194  35.1397713
  37.8418370  46.6411036  34.1727986  38.8461168  47.7781889  35.6690389
  38.7365948  47.7816145  36.7535169  40.3754296  47.7801750  35.3196444
  40.7838789  48.6978756  35.7428393  40.8519765  46.9201641  35.7901594
  40.6437493  47.7502382  33.8088548  40.6597259  48.9409618  33.0485652
  40.5150631  49.8925095  33.5601599  40.8524114  48.9147192  31.6930039
  40.8227637  49.8438881  31.1239098  41.0365371  47.7189866  31.0453094
  41.2504684  47.7442885  29.6836827  41.2474907  48.6327105  29.3199561
  41.0534588  46.5176682  31.7564415  41.2292247  45.5696452  31.2480527
  40.8427197  46.5409368  33.1283499  40.8301075  45.6090928  33.6936885
  38.2457153  49.0389727  35.0579225  37.5567630  48.9692501  34.0145891
  38.5502829  50.1530960  35.7221310  38.8730471  50.0829922  36.6765984
  38.3689368  51.4878537  35.1466438  38.2018063  51.4453893  34.0703709
  37.1692364  52.2489149  35.8104020  36.2494021  51.6922477  35.6311655
  37.4003838  52.3836472  37.3286431  38.3198629  52.9406433  37.5086834
  36.5610493  52.9136768  37.7788507  37.4839043  51.3920165  37.7733840
  36.9697477  53.6524257  35.1398472  36.7615539  53.5220119  34.0778916
  36.1330344  54.1661949  35.6131880  37.8758038  54.2459830  35.2617199
  39.6811550  52.2078341  35.3229061  40.4009978  51.9811476  36.3067295
  40.0491273  53.0629676  34.3587727  39.4783583  53.2252182  33.5414620
  41.3190550  53.7875177  34.4750298  41.5304153  54.1758590  35.4713315
  42.5211190  52.8698058  34.0262227  42.5521469  51.9952439  34.6760518
  42.3610551  52.4141664  32.5560001  42.3304114  53.2882269  31.9054772
  43.2049540  51.7833812  32.2766342  41.4348944  51.8495010  32.4488510
  43.8542281  53.5235141  34.2644574  43.9700166  53.7371272  35.3270319
  44.6509026  52.8540626  33.9400442  43.9094481  54.4538732  33.6992287
  41.2252962  55.0209701  33.5714699  40.4577905  55.0189098  32.6200832
  41.9946544  56.0432615  33.8977588  42.5297707  56.0151717  34.7538901
  42.1346107  57.2120176  33.0310857  41.1519208  57.5801877  32.7363473
  42.8698672  58.3253250  33.7762901  43.8617809  57.9457973  34.0215762
  42.9632590  59.1713486  33.0953921  42.1694538  58.7752049  35.0510760
  40.9529149  58.5388134  35.1981450  42.8894187  59.3832492  35.9004172
  42.9724930  56.8994962  31.7761991  43.8964287  56.0860911  31.7996490
  42.7061090  57.5770473  30.6553092  41.9072777  58.1890057  30.5688527
  43.6092815  57.4528477  29.5153531  43.9179745  56.4130139  29.4078661
  42.9144690  57.9050298  28.1956573  42.4275446  58.8569071  28.4076322
  43.7051857  58.0576335  27.4610967  41.8823813  56.9160046  27.6376886
  41.8101314  57.1343578  26.5722297  42.3169477  55.9260644  27.7765141
  40.2247320  56.9456200  28.3650145  39.5671505  58.4937386  27.6250797
  39.5694188  58.4072480  26.5385194  38.5477700  58.6592646  27.9737415
  40.1936448  59.3343263  27.9234394  44.7868632  58.3658218  29.8044357
  44.5578761  59.5712829  30.0827065  46.0351630  57.8379497  29.7472638
  46.4648753  56.4325221  29.6042546  46.0327331  56.0097286  28.6972822
  46.1285879  55.8588690  30.4679281  47.9683392  56.5392427  29.5345323
  48.2642963  56.4004852  28.4946982  48.3882935  55.7371027  30.1414187
  48.3874242  57.8563924  30.0416006  49.1588119  58.2231356  29.3644304
  48.7769013  57.8383151  31.0594810  47.1610245  58.7613497  29.9695007
  46.9697378  59.3311113  30.8788298  47.3304423  59.7293352  28.7843482
  46.7734265  59.4962893  27.7084838  48.1033571  60.7811612  29.0158212
  48.5928733  60.8305212  29.8978851  48.2656065  61.9083196  28.0532750
  47.2997349  62.3571028  27.8213594  49.1671582  62.9827111  28.6924959
  48.7354558  63.1892333  29.6718227  50.1439282  62.5154619  28.8177898
  49.3284272  64.3255923  27.8990229  49.2292758  64.1236054  26.8325000
  48.5242175  64.9880741  28.2191224  50.6939871  65.0032341  28.1709048
  51.0872590  65.1820716  29.3545949  51.3902336  65.3399894  27.1899431
  48.8709857  61.3619346  26.7879891  49.8428193  60.6138215  26.8483815
  48.2783759  61.6895134  25.6293357  47.4594953  62.2803535  25.6083131
  48.8051543  61.1979899  24.3686458  48.5930572  61.9529717  23.6116012
  49.8839087  61.0945684  24.4856601  48.2298880  59.8740371  23.9179877
  48.4997704  59.4432018  22.8103283  47.4196815  59.2209244  24.7552411
  47.2062281  59.5987047  25.6672822  46.8734636  57.9193598  24.4027053
  47.2186862  57.6242244  23.4118392  47.3359099  56.8692507  25.4143195
  47.1200133  57.2552313  26.4105659  46.8026135  55.9303334  25.2655605
  48.7845567  56.6097289  25.3130432  49.5327508  57.0244282  26.1813266
  49.2175060  55.9467868  24.2201678  50.2017066  55.7480971  24.1107540
  48.5553600  55.6523369  23.5166320  45.3601596  57.9080110  24.3169239
  44.6513079  58.5670949  25.1061663  44.8644224  57.1263406  23.3726883
  45.4995761  56.6350515  22.7600594  43.4579330  56.9642619  23.1631000
  42.9348791  57.9085152  23.3144263  43.2278330  56.5055211  21.7329690
  42.1555192  56.4825027  21.5387721  43.7042025  57.2137452  21.0550377
  43.7816890  55.1932080  21.5223724  43.6261546  54.9221447  20.6146645
  42.8264689  55.9492509  24.1249439  43.5674746  55.2119576  24.8450843
  41.4852842  55.8987878  24.1311085  40.9343947  56.6165624  23.6823104
  40.7729672  54.7931163  24.8224261  41.0309984  54.8456867  25.8801385
  39.2496594  54.8264623  24.6887041  38.9984280  54.8726592  23.6290590
  38.8466737  53.9089243  25.1174542  38.6574546  56.0099986  25.3946631
  39.0327961  55.9984463  26.4179354  39.0360037  56.8927230  24.8793015
  37.1419163  56.0470388  25.4130332  36.4882883  54.9644080  25.4296140
  36.6158540  57.1945805  25.4243739  41.2337012  53.4517716  24.2905159
  41.5203807  52.5467994  25.0758752  41.3222420  53.3259076  22.9661867
  41.0071257  54.0512449  22.3379456  41.7933357  52.0681196  22.3912422
  41.1640664  51.2440247  22.7273777  41.7325080  52.1385025  20.8510931
  42.1058052  53.1255484  20.5781665  42.3851457  51.3743056  20.4289946
  40.2905166  51.9561650  20.2913989  39.3690707  51.4324573  20.9970425
  40.0906588  52.3183602  19.0858573  43.2011930  51.6783052  22.8667761
  43.4518314  50.4772644  23.2102108  44.1204767  52.6441745  22.8870702
  43.8773705  53.6019998  22.6783374  45.5021001  52.3510563  23.3249795
  45.9515258  51.6388695  22.6329493  46.3587674  53.5947651  23.3617180
  45.7655412  54.3420730  23.8887027  47.2647992  53.3841260  23.9299058
  46.7416365  54.1337574  21.9615274  46.6488106  53.3908681  20.9421292
  47.1760138  55.3200986  21.9684475  45.4581961  51.8641750  24.7745673
  46.1806542  50.9049030  25.1564202  44.6260389  52.5450866  25.5704660
  44.0208140  53.2597886  25.1923084  44.6188008  52.3184694  27.0538798
  45.6522803  52.3368386  27.3998305  43.8495838  53.4657892  27.7386481
  42.7990668  53.4250750  27.4507999  43.9700084  53.3142304  29.2796247
  45.0202843  53.3553157  29.5682978  43.4274892  54.1235155  29.7683269
  43.5468905  52.3573387  29.5852879  44.4996796  54.7130893  27.3555136
  44.0436052  55.4510569  27.7666100  44.0243713  50.9875373  27.3820966
  44.6351718  50.1854272  28.1750683  42.8696434  50.7119315  26.7738772
  42.3116291  51.4248719  26.3261771  42.3031631  49.3651554  26.9041047
  42.2483395  49.1069384  27.9616573  40.8952255  49.2617808  26.3001590
  40.9463115  49.6036208  25.2664110  40.5957934  48.2139313  26.3214157
  39.8550746  50.1120337  27.0745601  39.7747050  49.6908950  28.0766997
  40.2490804  51.1263623  27.1377971  38.4586795  50.1427471  26.4159960
  37.8432554  50.9032191  26.8966565  38.5584699  50.3737986  25.3554506
  37.8011027  48.8602413  26.5513936  38.2345948  48.1919676  27.1723559
  36.6843794  48.5088300  25.9207652  36.0923506  49.3472458  25.0702825
  36.4943049  50.2584111  24.9020253  35.2445200  49.0675192  24.5980157
  36.1547725  47.3112634  26.1448588  36.6026702  46.6772889  26.7910507
  35.3066708  47.0402772  25.6680059  43.2291151  48.2746371  26.3727923
  43.3227885  47.2052075  26.9727644  43.9228851  48.5004441  25.2628371
  43.8452599  49.3552724  24.7305382  44.8164102  47.4498731  24.7645203
  44.2430646  46.5343682  24.6188328  45.4733281  47.8389497  23.4235284
  45.8459861  48.8583952  23.5233083  46.3107773  47.1610460  23.2585268
  44.5160830  47.7616450  22.2387509  43.9379536  46.8377121  22.2534218
  43.8371749  48.6141667  22.2189350  45.5548893  47.7917014  20.7513562
  47.2232913  48.1006944  21.4234365  47.4945008  47.2968277  22.1077921
  47.9433360  48.1397232  20.6060547  47.2299080  49.0503437  21.9584353
  45.9286724  47.1141347  25.7442608  46.2820850  45.9472193  25.9138365
  46.5474222  48.1579706  26.3009927  46.2968231  49.0886492  25.9991041
  47.6085565  48.0140027  27.3099904  48.4382588  47.4448314  26.8907803
  48.1406663  49.4157147  27.7608393  48.5756135  49.8940939  26.8833010
  47.3664293  50.0592647  28.1785719  49.2442235  49.3314533  28.8017967
  50.5623409  49.1957233  28.4117598  50.7925880  49.1900619  27.3463706
  51.6051116  49.0655486  29.3628565  52.6396947  48.9704986  29.0331534
  51.3079332  49.0594198  30.7059545  52.1096398  48.9805647  31.4402218
  49.9735512  49.1546061  31.1312145  49.7377923  49.1093279  32.1944491
  48.9393068  49.3085061  30.1858980  47.9065811  49.4096860  30.5195747
  47.0714027  47.2293777  28.5415339  47.6004647  46.1533753  28.8739811
  46.0101331  47.7369453  29.1876314  45.5954238  48.6138288  28.9062228
  45.4822660  47.0665581  30.4021315  46.3176328  46.9474062  31.0921057
  44.3863641  47.9395765  31.0914528  43.5392884  48.0602297  30.4161710
  44.0537813  47.4501129  32.0068294  44.7999499  48.9186560  31.3332159
  44.9467396  45.6508493  30.0871296  45.1759113  44.6856237  30.8956485
  44.2648738  45.4989124  28.9481480  44.0653777  46.2923954  28.3559611
  43.7417418  44.1583980  28.5380452  43.0754793  43.7741967  29.3104330
  42.9537424  44.2554235  27.2080994  43.5716226  44.7993768  26.4936498
  42.8074300  43.2338406  26.8572989  41.6000861  44.9465708  27.3388936
  41.1315250  45.3103750  28.4518015  41.0138282  45.1282207  26.2401102
  44.8512097  43.1104093  28.3673243  44.7134806  41.9281537  28.8139857
  45.9881657  43.5162673  27.7797604  46.0783331  44.4495904  27.4044243
  47.1064944  42.6030474  27.6294566  46.8219770  41.7459726  27.0190699
  48.2910012  43.3247961  26.9462111  48.5404488  44.2074812  27.5350600
  49.5307547  42.4127266  26.8368059  49.2821933  41.5299900  26.2476599
  50.3409369  42.9566919  26.3512077  49.8461640  42.1062762  27.8341552
  47.8482822  43.7124595  25.6442134  48.5596894  44.1660476  25.1862199
  47.5287393  42.0581273  28.9867368  47.7264288  40.8161345  29.1589045
  47.6497703  42.9569616  29.9699185  47.5132522  43.9440936  29.8055025
  48.0895201  42.5207732  31.3249587  48.9489394  41.8560395  31.2376283
  48.4857354  43.7384247  32.2454494  47.6633821  44.4538505  32.2459884
  48.7776779  43.2719179  33.7246339  49.6002795  42.5567763  33.7249540
  49.0477100  44.1357942  34.3320061  47.8869578  42.8005328  34.1399836
  49.7174585  44.4118649  31.6728515  49.5021007  44.7684488  30.6655924
  49.9977007  45.2551371  32.3040852  50.5393879  43.6968684  31.6366162
  47.0124296  41.6615817  32.0037082  47.3176688  40.5589876  32.5422556
  45.7828337  42.1794383  32.0503515  45.5869399  43.0866630  31.6520196
  44.6962862  41.4830290  32.7817936  45.0454893  41.2926609  33.7966415
  43.3826812  42.3396789  32.8556513  43.0753091  42.6169845  31.8473244
  42.2556106  41.5152829  33.5310461  42.5620861  41.2379862  34.5396492
  41.3461444  42.1140999  33.5799339  42.0654784  40.6136296  32.9488325
  43.6250571  43.6055407  33.7083024  44.4173446  44.2023817  33.2564580
  42.7087938  44.1941303  33.7543835  43.9202358  43.3142345  34.7163258
  44.4211054  40.1101360  32.1644426  44.2693412  39.0943738  32.8778041
  44.4314564  40.0269214  30.8412898  44.5863270  40.8115719  30.2244933
  44.1118276  38.7254398  30.2443049  43.2097278  38.3301027  30.7112352
  43.8708732  38.8355332  28.7120574  44.7222437  39.3730424  28.2945033
  43.8554876  37.8189312  28.3191406  42.5676376  39.5561759  28.3212879
  41.7420595  38.9879073  28.7497649  42.5980005  40.5480337  28.7722847
  42.3572988  39.6942016  26.7537916  42.0626186  38.7200457  26.3635574
  41.5555689  40.4120658  26.5805875  43.6156112  40.1618785  26.0474758
  43.7350910  41.2276966  26.2420446  44.4610172  39.6189157  26.4700622
  43.5602659  39.9250427  24.5526766  42.7772153  40.4284256  24.1608385
  44.4166889  40.2513203  24.1281974  43.4499847  38.9374442  24.3721599
  45.1971489  37.6767281  30.5247928  44.8753547  36.5026867  30.7340041
  46.4723017  38.0832301  30.4872901  46.7188419  39.0313082  30.2413935
  47.5341763  37.1580524  30.7899277  47.4634301  36.2760594  30.1533882
  48.8871574  37.8402943  30.5350215  48.7746120  38.2251612  29.5214584
  49.0355583  38.6715055  31.2243437  50.1134228  36.8947699  30.5949440
  50.1452994  36.4379597  31.5840896  50.0403133  35.8010956  29.5316691
  50.0088713  36.2571556  28.5421644  50.9186246  35.1601253  29.6080038
  49.1411848  35.2042602  29.6848220  51.4052015  37.7075847  30.4945241
  51.4560892  38.4137772  31.3232593  52.2622531  37.0354809  30.5374218
  51.4191442  38.2535646  29.5512264  47.4243961  36.7273033  32.2668375
  47.6477867  35.5430614  32.6145566  47.1322007  37.6829625  33.1398332
  46.9610163  38.6359685  32.8524751  47.0641051  37.3580343  34.6032394
  48.0088358  36.9258670  34.9331097  46.7997135  38.6224378  35.4092586
  46.0000067  39.1648207  34.9048885  46.4810682  38.3620970  36.4186088
  48.0444700  39.5483364  35.5046778  49.1346639  39.1473397  35.2116794
  47.8330662  40.7755112  35.9578438  48.6061862  41.4201222  36.0406815
  46.8997926  41.0605703  36.2183096  45.9363886  36.3446963  34.8338708
  46.1009227  35.4006845  35.6366486  44.7829222  36.5587414  34.1817259
  44.6039325  37.3934886  33.6420416  43.6728416  35.5885576  34.3676841
  43.5582708  35.4147595  35.4376219  42.3182358  36.0508202  33.7959757
  42.5104737  36.2814396  32.7481405  41.5885052  35.2438212  33.8618985
  41.7618456  37.3087992  34.5073770  42.5171276  38.0936277  34.5485385
  40.5707201  37.7933718  33.6916942  39.8147660  37.0091953  33.6504706
  40.1466696  38.6818820  34.1594888  40.8969217  38.0363810  32.6804379
  41.3838247  36.9924517  35.9733686  42.2675060  36.6485342  36.5108884
  40.9956844  37.8919386  36.4512511  40.6214942  36.2136183  35.9925962
  44.0511646  34.2187500  33.8079120  43.6833437  33.1537129  34.3972674
  44.7835941  34.2053369  32.6872224  45.0098661  35.0558777  32.1917623
  45.2229578  32.9169257  32.1064108  44.3609250  32.2591056  31.9956344
  45.8690382  33.1120771  30.7326073  46.4180068  34.0537212  30.7388662
  46.5618682  32.2893633  30.5558913  44.8435298  33.1410900  29.6465503
  44.6702386  32.0975427  29.3837196  43.9068172  33.5936615  29.9718970
  45.3400983  33.8843987  28.4003509  46.5400598  34.2058978  28.2830624
  44.4077392  34.2343510  27.5186809  44.6720892  34.7265072  26.6772519
  43.4396808  34.0063239  27.6946580  46.1847421  32.2265153  33.0646536
  46.0987731  30.9859139  33.2635598  47.0688225  32.9968460  33.7012645
  47.1736212  33.9768602  33.4806091  48.0195996  32.3865918  34.6652367
  48.4031500  31.4572051  34.2442512  49.2184355  33.3217227  34.9771740
  49.7894361  33.4727796  34.0610739  48.8313338  34.2792913  35.3254763
  50.1441963  32.7070013  36.0707774  49.5034552  32.3989432  36.8970049
  50.6185659  31.8288884  35.6326069  51.2344061  33.6744543  36.5960890
  51.9326201  33.8504882  35.7777931  50.7388454  34.6093882  36.8576571
  52.0197865  33.1288245  37.8477706  51.3138634  33.0721445  38.6763600
  52.3708680  32.1268398  37.6010567  53.2211240  34.0089623  38.2549312
  52.8959668  34.9373487  38.4839969  53.6776852  33.6040164  39.0597111
  53.8755737  34.0612640  37.4874293  47.2897249  31.9419018  35.9428215
  47.5774574  30.8677270  36.4950384  46.2914697  32.6969122  36.3821843
  46.1048744  33.6087878  35.9900561  45.4483542  32.2303238  37.5064981
  46.0644411  32.1107101  38.3976932  44.3322634  33.2344989  37.8138884
  44.8874950  34.1158973  38.1347528  43.7683182  33.4696682  36.9112472
  43.3584238  32.8055875  38.9312291  42.8363623  31.9033776  38.6125287
  44.1312980  32.5181413  40.2779147  44.6532666  33.4200870  40.5975108
  43.4209089  32.2178602  41.0481610  44.8539718  31.7177785  40.1189730
  42.2587077  33.8492822  39.1058826  41.7049664  33.9539972  38.1728741
  41.5793569  33.5330515  39.8974519  42.7052558  34.8072742  39.3722376
  44.8472183  30.8532331  37.1685172  44.8370882  29.9540199  38.0268965
  44.3063013  30.7140054  35.9697953  44.2393496  31.4848135  35.3205868
  43.7067344  29.4321914  35.5903187  42.9205866  29.2147614  36.3133644
  43.0854867  29.5101408  34.2067074  43.8618409  29.7183244  33.4704780
  42.6055807  28.5606981  33.9693279  42.3425194  30.3074261  34.1858492
  44.7319882  28.2723493  35.6565826  44.4184274  27.1820873  36.1995426
  45.9348581  28.5165780  35.1201785  46.0917309  29.3909308  34.6395567
  47.0190387  27.5007880  35.1063199  46.6826156  26.5865419  34.6173693
  48.2381565  28.0618284  34.3247641  48.4927557  29.0331316  34.7488510
  49.4858527  27.1138510  34.4036261  49.2321431  26.1424325  33.9792712
  50.3110633  27.5510063  33.8414678  49.7823945  26.9885884  35.4450064
  47.8219500  28.2029863  32.9558771  48.5497322  28.5491176  32.4342197
  47.3801299  27.0557065  36.5132035  47.4136239  25.8354748  36.8098834
  47.6125891  28.0408055  37.3862256  47.5482097  28.9992452  37.0742192
  48.0244295  27.7905089  38.7451785  48.8656458  27.1057263  38.8525433
  48.3661644  29.1152007  39.4795046  47.5698930  29.8304632  39.2734689
  48.5047421  28.9190956  41.0326089  49.3011900  28.2042636  41.2394594
  48.7440821  29.8742562  41.5000328  47.5652043  28.5425565  41.4370698
  49.5916314  29.7660121  38.8524476  49.3917522  29.9825597  37.8030395
  49.8196104  30.6937209  39.3773110  50.4420286  29.0882979  38.9274735
  46.9394538  27.0180813  39.4868553  47.2442367  25.9600524  40.1194438
  45.6855050  27.4872986  39.4138861  45.4914185  28.3550107  38.9348188
  44.5840364  26.8231877  40.1273233  44.9166657  26.7376283  41.1617974
  43.2968282  27.6545887  40.0939118  42.9463832  27.7414606  39.0654461
  42.5322070  27.1658090  40.6976908  43.4951922  28.6485894  40.4948029
  44.3248209  25.3831824  39.6073995  44.0807165  24.4530363  40.4019102
  44.3972668  25.2156750  38.2912423  44.5105886  26.0196225  37.6904712
  44.1778193  23.8995620  37.6638002  43.2639775  23.4559786  38.0590549
  44.0413653  24.0289516  36.1442148  44.8136983  24.6985663  35.7657745
  44.1550759  23.0472894  35.6843134  42.6597166  24.5969951  35.8003377
  41.9188823  23.8319420  36.0326287  42.5224094  25.4490259  36.4661375
  42.4933938  25.0316633  34.4104782  43.4646479  24.8770633  33.6376048
  41.3898121  25.5082803  34.0489957  45.2901374  22.9091709  38.0969048
  45.0126878  21.7546739  38.4580522  46.5263171  23.3703803  38.1277995
  46.7628592  24.2764171  37.7493229  47.6043631  22.5280633  38.6280493
  47.5660675  21.5842625  38.0841075  48.9314180  23.1722353  38.3752674
  48.9884122  24.1142192  38.9207194  49.7279555  22.5089641  38.7124613
  49.0457527  23.3633399  37.3082595  47.4198214  22.1950542  40.1226969
  47.6264121  21.0423796  40.5401890  47.0469597  23.1869403  40.9367474
  47.0281758  24.1431388  40.6120461  46.7479750  22.9268716  42.3437223
  47.6050893  22.4333742  42.8018865  46.4527232  24.2040420  43.1153517
  45.7320685  24.7892636  42.5441497  46.0171192  23.9296027  44.0760974
  47.6859024  25.0167491  43.3419488  48.3653687  24.4584007  43.9859002
  48.1678634  25.2051168  42.3826088  47.2875721  26.5913822  44.1243871
  46.8106233  26.1200883  45.8005214  47.6443921  25.6142778  46.2874344
  46.5461677  27.0123294  46.3680333  45.9529235  25.4486909  45.7595610
  45.6035744  21.9457950  42.5238082  45.6693836  21.1081579  43.4302144
  44.5961878  22.0216393  41.6499266  44.5997798  22.7683900  40.9698900
  43.4367026  21.1351508  41.6986103  43.0443211  21.2052521  42.7131160
  42.3472594  21.5851849  40.7202076  42.7221845  21.5119098  39.6993442
  41.4713985  20.9460332  40.8318007  42.0719118  22.6182838  40.9323149
  43.8126593  19.6558400  41.4518389  43.2333575  18.7665952  42.0819240
  44.7502437  19.4084951  40.5411622  45.1044886  20.1696024  39.9796236
  45.2517799  18.0294906  40.2621194  44.3851597  17.3736976  40.1784291
  46.0186079  18.0018879  38.9312885  45.3703507  18.3574471  38.1303892
  46.8943941  18.6468850  39.0025429  46.4622584  16.5743390  38.6297878
  47.1109672  16.2182322  39.4300787  45.5869249  15.9287939  38.5579222
  47.2234994  16.5469370  37.3086571  46.5752439  16.9024978  36.5077575
  48.0992862  17.1919328  37.3799134  47.6707612  15.1743296  36.9826096
  47.4447770  14.4284555  37.6250287  48.3566819  14.8781590  35.8822932
  48.6914975  15.8053851  34.9895162  48.4227274  16.7672733  35.1399616
  49.2129853  15.5433701  34.1651994  48.7085497  13.6103243  35.6881666
  48.4527045  12.9086541  36.3680947  49.2299870  13.3550285  34.8617128
  46.1435637  17.4810743  41.4020174  46.2357487  16.2581857  41.6123010
  46.8040834  18.3889297  42.1283033  46.6655236  19.3616147  41.8942426
  47.8380980  18.0499176  43.1220290  48.3656616  17.1435558  42.8249025
  48.8613598  19.2092789  43.2185817  49.7568950  18.9278681  42.6645745
  48.4142092  20.0919035  42.7612743  49.2646123  19.5545169  44.6619549
  49.6818185  18.6876570  45.4289509  49.1419202  20.8434904  45.0264409
  49.3926144  21.1263114  45.9630648  48.7996598  21.5226531  44.3618383
  47.2930453  17.6170445  44.4907519  46.1951605  18.0184813  44.9034944
  47.9019765  16.7963546  45.1734748  49.9497250  46.4057318  35.3157676
  48.7761383  46.7368384  34.6221404  48.6809032  47.2267869  33.3492921
  47.3656967  47.4072286  33.0734902  46.5942551  47.0422795  34.1496138
  47.4946343  46.6070691  35.1593866  47.3461766  46.1175782  36.4714983
  48.4915554  45.7750742  37.2012697  48.3877381  45.2649989  38.5612617
  49.4950832  44.9475944  39.2380572  50.8420233  45.0917213  38.6617857
  51.8346969  44.7919987  39.3137055  50.9139259  45.5761339  37.3656285
  49.7545276  45.9227745  36.6217382  51.2578150  46.4970499  34.8742955
  51.7476530  47.8045291  34.5769103  51.1569068  49.3592540  37.2558417
  52.4942012  48.8371864  36.8075850  53.6227102  49.1258605  37.7631167
  52.7227347  48.1639199  35.6620923  47.1446472  47.7938643  32.0878112
  45.5159435  47.0842155  34.2018774  46.3535788  46.0111093  36.9005949
  47.4081946  45.1482876  39.0103753  49.4566472  44.5651179  40.2505138
  50.9475555  48.5461853  34.4777491  52.2686040  47.7628889  33.6146665
  50.3571283  49.1675168  36.5366857  50.8685740  48.8898275  38.2028363
  51.2067620  50.4420404  37.4079900  53.4184091  48.6692965  38.7380261
  54.5812460  48.7339201  37.4067451  53.7355865  50.2061712  37.9009743
  53.7326154  47.8054197  35.4658971  38.9503692  61.7111838  35.3175757
  44.1905190  15.4012729  46.2513476  32.5354304  58.7432187  26.7983531
  53.3048965  48.8806911  52.4013573  63.2626380  59.6224378  39.6866784
  19.7913628  73.9604176  63.3713723  76.4553496  41.2475212  55.4867591
  12.7246091  48.3457986  30.4598283  62.5297370  16.4558867  27.2689135
  77.2482041  46.8179613  43.9446890  47.1152425  23.1449074   4.3030127
  63.5932162  24.0762493  28.0368314  29.8393375  52.1373723  83.7111888
  63.4965835  33.4146728  70.0715435  17.8932779  71.8781796  27.5961560
   8.0627911  49.2634520  62.8495275  55.4723743  44.3528942  16.1795442
  59.4611346  55.8839752  46.6961176   5.5555117  36.0369158  30.0383927
  45.5376930  51.9913719  63.2870403  37.7683805  63.5194234  59.2693697
  32.0833447   4.4371601  52.7850142  71.9827072  49.4009924  50.6530873
  33.1212883  68.5114835  48.7207507  25.2960916  18.4897154  63.3499728
   7.4086533  46.9078593  61.3122774  35.3538393  65.2243124  62.0314051
  59.9826345  38.5708738  28.0780301  60.0492251  22.4805589  66.6526822
  51.4641934  53.3781914  72.6074148  43.5130917  40.8874223  20.4265378
  51.4627533  71.6122818  37.4274720  69.2850411  54.0240849  30.7084673
  51.0175537  82.2308640  47.5250332   6.9357268  13.7696964  47.5370540
  58.8825529  19.9484950  34.8116978  32.0569393   9.8165398  23.0773709
  13.5471173  14.3660392  28.2578216  57.0214050  55.2955815  22.2818757
  23.3104022  36.7707942   0.8348403  43.0117088  28.2241403  61.2413041
  19.0251559  21.7714517  23.1518036  15.8073534   4.5044573  41.7196103
  77.7899114  37.9756036   9.7822731  39.8335625  72.7462430  54.2114349
   4.8855560  21.7680969  47.4536154  41.7830023  58.8533378   4.9530303
   9.3378859  45.6465645  11.8919453  61.3302325  39.2615857  17.0287032
  60.7002184  59.7145051  38.2851927  37.3506646  46.0826418  74.3003047
  21.5916169  51.9938612  27.3088842  45.0094935  29.0870692  23.8155904
  55.7192507  22.3273578  44.3371332  45.7034827  67.4920875  53.6457495
  30.3273512  45.3280910  52.6501432  20.1247027  40.9303516  78.8229596
  28.5045037  48.0965307  79.8150304   7.1554116  31.0133765  29.8212346
  23.5352072  73.2714868  15.4642487  40.2662130  56.2516352  11.0220175
  44.7187185  38.3055756  85.7227975  44.1898657  38.5215390  86.3825281
  45.2412205  38.9991895  85.6428944  44.7175638  38.4398893  85.8083574
  36.6086793  42.2018973  84.5235443  36.0244008  42.7069005  84.9301307
  36.2056888  41.9761360  83.7832035  36.4626097  42.2427221  84.4740468
  41.0664007  38.4484625  83.0004363  41.3060011  38.6562609  82.1879706
  41.3879848  37.6442134  83.1093308  41.1501165  38.3598726  82.8964916
  34.2773389  36.0622513  82.0564487  33.5631567  35.7760692  82.4686920
  34.7617358  36.4019138  82.6970875  34.2432753  36.0704162  82.2120122
  41.4520707  44.5652467  82.4326296  41.8671856  44.2337490  81.7410791
  40.6212637  44.3321369  82.3046432  41.3908716  44.4823723  82.3117143
  44.1454097  40.8163026  81.6187497  44.0634260  40.8865213  82.4842484
  44.7833818  41.3792770  81.4271238  44.2273935  40.9101997  81.7177446
  41.2494208  40.8383480  84.6296103  42.0634846  41.1298373  84.5178875
  41.1853349  40.1843343  84.0554396  41.3596947  40.7848675  84.5284941
  37.7604931  39.5307288  84.0943305  38.1450084  39.3114994  84.8459850
  37.5116551  40.3570233  84.2244381  37.7807004  39.6205434  84.2244381
  42.6870230  44.0545280  79.9711909  43.4543215  44.1145405  79.5617760
  42.2401539  43.4825722  79.4868227  42.7343657  43.9781856  79.8389619
  38.7344830  40.3264047  81.4349019  39.0237355  41.1028929  81.7092593
  38.8216629  39.8152778  82.1363518  38.7899087  40.3655965  81.5791517
  43.5276449  35.7197310  85.6902706  42.9999468  35.8026054  85.0008415
  43.9872157  36.4615181  85.6867350  43.5178300  35.8417972  85.5877401
  35.5209514  33.9899829  80.7143601  35.1722319  34.6419555  81.1775150
  35.0405960  33.9756942  79.9867472  35.3979758  34.0842883  80.6754692
  35.9233645  37.4825471  83.5562222  36.5578725  38.0785896  83.4911684
  36.0059256  37.1828928  84.3708092  36.0290196  37.5266379  83.6665309
  40.5623739  35.3547570  85.0298328  39.9688579  35.6764566  84.4782895
  40.5999017  34.5088665  84.8219434  40.4798129  35.2771898  84.9181099
  38.5352972  35.9944821  83.1227658  38.9151937  36.0124450  82.3378773
  37.7945568  36.4398809  83.0018505  38.4821809  36.0626595  82.9891226
  39.3337726  42.8322327  84.5136448  38.5249048  42.5089000  84.4669758
  39.8412635  42.1255549  84.4464697  39.2887393  42.6803643  84.4966742
  47.9373696  15.3189147  74.5737687  47.9067700  16.1733784  74.7455956
  48.5355045  15.0184440  75.1323830  48.0210854  15.4005644  74.6812489
  35.5214520  23.9427516  75.0927849  34.7697420  23.5643054  74.8643894
  35.9700532  23.9745950  74.3446659  35.4764187  23.8913123  74.9485351
  40.9739480  24.3652885  70.5213396  40.6390849  25.0429807  70.0857618
  41.4866351  23.9758197  69.9330268  41.0005061  24.4077464  70.3700187
  40.5143772  26.3167154  76.4624507  40.8983151  26.8854053  75.9229283
  40.4502913  25.5916664  75.9830324  40.5617199  26.2942618  76.3118370
  45.7590270  17.8941449  72.8455997  45.6429796  18.6449135  73.2748135
  46.5546157  17.6365402  73.0952084  45.8594860  17.9676296  72.9460088
  36.9400016  28.8723497  78.7605477  37.5837472  29.3136661  79.1501636
  37.2656272  28.0676923  78.6735736  37.0831845  28.8188692  78.8050955
  37.6420596  21.8835472  74.1325339  37.9636437  22.4240679  73.5286647
  38.2892692  21.3132244  74.2647629  37.7846651  21.8794647  74.0632374
  39.8810239  20.2721912  74.2039517  40.3203875  19.6639013  74.6494290
  39.7314902  19.8929285  73.4324982  39.9231705  20.1260383  74.1558685
  43.4819576  18.6249093  71.1570286  43.3970871  19.4810060  71.3019855
  43.9703959  18.3493417  71.8252446  43.5408473  18.7106415  71.2772368
  44.4138009  15.2433888  72.6568022  43.8849481  15.4593521  73.3165328
  44.9363029  15.9370026  72.5768991  44.4126462  15.3777024  72.7423621
  49.8686062  20.8180192  78.0301066  49.0383765  21.0290836  78.1934483
  49.8195314  19.9917247  77.7543350  49.7392798  20.7269798  78.0138431
  36.3037617  19.1397104  71.4575490  35.7194832  19.6447136  71.8641353
  35.9007712  18.9139491  70.7172082  36.1576921  19.1805353  71.4080515
  40.7614831  15.3862756  69.9344410  41.0010835  15.5940740  69.1219753
  41.0830672  14.5820265  70.0433355  40.8451989  15.2976858  69.8304963
  47.1250377  21.4879546  78.1665782  46.6885609  21.4916289  78.9224753
  46.7913293  22.1685045  77.7345359  47.0112997  21.5892002  78.2146614
  50.2594724  18.2060466  77.0585419  50.9211158  17.6451135  76.9581328
  49.6186136  17.7112497  77.3838110  50.2623591  18.0496875  77.0917759
  41.1471531  21.5030598  69.3666342  41.5622680  21.1715622  68.6750838
  40.3163461  21.2699500  69.2386479  41.0859540  21.4201854  69.2457190
  46.5459554  19.2225849  76.7997408  46.7815143  19.3671048  75.9724259
  46.6949118  19.9868257  77.1928922  46.6025358  19.3564903  76.7361012
  48.3750011  18.0627515  74.6367012  48.7058228  18.5955155  74.0307107
  48.9483099  18.1166402  75.2928963  48.5083690  18.1497084  74.6444793
  43.8404921  17.7541157  68.5527544  43.7585084  17.8243344  69.4182531
  44.4784642  18.3170901  68.3611284  43.9224759  17.8480128  68.6517493
  40.9445032  17.7761611  71.5636150  41.7585670  18.0676504  71.4518922
  40.8804173  17.1221474  70.9894443  41.0547771  17.7226806  71.4624988
  37.4555755  16.4685419  71.0283352  37.8400908  16.2493125  71.7799897
  37.2067375  17.2948364  71.1584428  37.4757827  16.5583565  71.1584428
  37.7378998  24.6890295  73.1015722  38.0277296  24.2979276  72.3774949
  38.4682478  24.8707000  73.5420997  37.8885882  24.6584108  73.0598529
  35.6784913  26.6657677  76.1675872  35.4585209  26.3755032  76.9602539
  35.4579435  26.0072632  75.6393784  35.6132507  26.5257385  76.2064780
  37.8452869  28.0387067  74.9506564  38.4976927  27.5063509  75.1797590
  37.1478478  27.6855719  75.3374438  37.8383587  27.9076590  75.0418732
  45.8392787  20.3591481  74.2937543  46.4050820  21.0184691  74.2096086
  45.1920691  20.7041179  74.7653946  45.8271544  20.5073422  74.3510300
  42.3099365  23.3030265  73.7174623  42.0686041  22.5698126  73.3101688
  42.4900698  23.8517122  73.0640956  42.3006989  23.2752656  73.5604846
  47.0355485  20.4097709  71.0863180  46.6562294  19.6234847  71.0792469
  46.3721730  20.9584566  70.9434824  46.8813960  20.3742533  71.0643977
  39.8602393  23.9611228  74.9252006  40.6252284  23.6920871  74.6034670
  39.7580483  23.4761238  75.6422069  39.9583889  23.8500792  74.9831834
  42.3821054  20.9923411  66.9051955  43.1494039  21.0523536  66.4957807
  41.9352363  20.4203853  66.4208274  42.4294481  20.9159987  66.7729666
  45.2815584  22.6543200  71.4214866  45.3635421  23.4610186  71.0976317
  45.7665326  22.6739159  72.1455639  45.3652742  22.7763862  71.4801764
  40.9173677  17.2037971  74.3906279  41.4589222  16.7008352  74.8544900
  41.2320236  17.1503165  73.5795765  41.0438074  17.1217392  74.3390091
  39.0860126  22.5955322  71.6746307  39.1552947  21.7369861  71.8139308
  39.8648582  22.8127203  71.3465332  39.2112977  22.5008186  71.6463465
  43.4767614  25.0193023  75.8882801  43.0847406  24.7159739  75.1705667
  43.6320686  25.8562113  75.6987755  43.4421204  25.0976860  75.7539298
  43.6407289  21.5843012  75.8288831  43.2821944  21.7557655  76.6052864
  43.1546000  22.0456218  75.2716830  43.5165986  21.6781983  75.8614100
  38.4295654  17.2642178  68.3689066  38.7188179  18.0407060  68.6432640
  38.5167453  16.7530909  69.0703565  38.4849910  17.3034096  68.5131564
  44.2457919  24.4228516  79.3212835  44.0477608  24.9119331  78.6269046
  43.6245630  24.6269758  79.8996969  44.1245484  24.5245054  79.3036058
  43.2227273  12.6575441  72.6242753  42.6950292  12.7404185  71.9348461
  43.6822981  13.3993312  72.6207397  43.2129124  12.7796103  72.5217448
  35.2160338  10.9277960  67.6483648  34.8673143  11.5797686  68.1115197
  34.7356784  10.9135074  66.9207519  35.0930582  11.0221014  67.6094739
  42.7764356  21.2279004  71.7552410  43.4998555  21.6937117  71.6116983
  42.3364947  21.2952614  71.0050007  42.8180048  21.3062841  71.6237191
  43.0368205  25.2899709  71.9150471  42.3197515  25.1160572  71.4497708
  43.6874943  25.0552282  71.3825957  43.0270056  25.2295502  71.7679689
  38.3181367  26.5261468  78.3440619  37.9041766  25.8635598  77.9544460
  39.0028741  26.6739327  77.8236313  38.3579739  26.4502126  78.2097116
  41.6846661  25.6851553  79.0964235  41.2862945  25.7953824  78.3285056
  41.0697881  25.8933620  79.6790795  41.5345551  25.7325121  79.0695535
  49.4188504  20.2603520  72.4807326  49.8022110  21.0094876  72.7105423
  48.6232617  20.5069340  72.2219315  49.3582286  20.4073214  72.4764899
  38.2303796  12.9322952  70.0567705  38.6102760  12.9502581  69.2718820
  37.4896392  13.3776941  69.9358552  38.1772633  13.0004726  69.9231273
  39.0288550  19.7700458  71.4476495  38.2199872  19.4467132  71.4009804
  39.5363459  19.0633680  71.3804743  38.9838216  19.6181774  71.4306789
  58.9106280  30.8374455  74.5737687  58.8800284  31.6919092  74.7455956
  59.5087628  30.5369748  75.1323830  58.9943437  30.9190952  74.6812489
  52.1105964  29.9250106  79.3290617  51.2543860  30.0858604  79.3799734
  52.1573618  29.0542170  79.3495678  51.9905076  29.8200908  79.3396683
  46.4947104  39.4612824  75.0927849  45.7430004  39.0828362  74.8643894
  46.9433116  39.4931258  74.3446659  46.4496771  39.4098431  74.9485351
  51.9472064  39.8838193  70.5213396  51.6123432  40.5615115  70.0857618
  52.4598934  39.4943505  69.9330268  51.9737645  39.9262772  70.3700187
  51.4876355  41.8352462  76.4624507  51.8715735  42.4039361  75.9229283
  51.4235496  41.1101972  75.9830324  51.5349782  41.8127926  76.3118370
  54.9557785  31.9842150  81.9722269  55.5013745  32.6627237  82.0316239
  54.8974662  31.8429611  81.1123850  55.0273700  32.0634152  81.8534329
  48.0731860  39.4731216  77.3590621  48.1742223  38.6631570  77.6687749
  47.4773606  39.3788162  76.7290300  48.0004399  39.3396244  77.3116860
  56.7322854  33.4126757  72.8455997  56.6162380  34.1634443  73.2748135
  57.5278741  33.1550710  73.0952084  56.8327443  33.4861604  72.9460088
  47.9132600  44.3908805  78.7605477  48.5570055  44.8321969  79.1501636
  48.2388855  43.5862231  78.6735736  48.0564429  44.3374000  78.8050955
  41.2696905  35.4951503  76.9842955  41.0347089  34.6619155  76.8775224
  41.4082545  35.7756168  76.1704156  41.2552567  35.4135006  76.8485310
  43.5686992  27.6637233  79.8827263  42.9492024  27.0729880  79.7137277
  43.4670856  28.2548668  79.2491586  43.4624667  27.6641316  79.7632252
  48.6153180  37.4020780  74.1325339  48.9369021  37.9425987  73.5286647
  49.2625276  36.8317551  74.2647629  48.7579235  37.3979955  74.0632374
  50.6654888  29.4036775  74.2159726  51.3635052  29.5824903  74.7081189
  50.9807220  28.8807114  73.5930115  50.8150225  29.3530547  74.1961736
  43.2956125  31.2089515  82.1270832  43.1714822  31.7951960  82.7620650
  43.9474410  30.7149711  82.4283107  43.3729774  31.2228319  82.2656761
  50.8542823  35.7907220  74.2039517  51.2936458  35.1824321  74.6494290
  50.7047486  35.4114593  73.4324982  50.8964289  35.6445691  74.1558685
  48.3214466  34.3851232  81.4058343  48.9663469  33.8923675  81.0869291
  48.5616243  34.5276018  82.2324421  48.4525051  34.3328674  81.4807876
  50.8600557  37.2306138  81.0565235  51.1423800  36.4357543  80.8351991
  51.5886718  37.7086725  81.0770296  51.0090121  37.1840735  81.0268250
  48.8381751  24.7729172  78.2981000  48.5085081  25.2240315  77.6284699
  48.1626753  24.6945335  78.8454007  48.6892188  24.8280307  78.2804224
  54.4552160  34.1434401  71.1570286  54.3703455  34.9995368  71.3019855
  54.9436543  33.8678725  71.8252446  54.5141057  34.2291723  71.2772368
  56.0458159  20.7614695  76.5430611  55.7311600  21.4518173  76.9751033
  55.5285101  20.7059477  75.8416112  55.9222629  20.8549583  76.5027560
  55.3870593  30.7619196  72.6568022  54.8582064  30.9778829  73.3165328
  55.9095613  31.4555334  72.5768991  55.3859046  30.8962332  72.7423621
  60.8418646  36.3365500  78.0301066  60.0116349  36.5476144  78.1934483
  60.7927898  35.5102555  77.7543350  60.7125381  36.2455106  78.0138431
  47.2770201  34.6582412  71.4575490  46.6927416  35.1632444  71.8641353
  46.8740296  34.4324799  70.7172082  47.1309504  34.6990661  71.4080515
  42.8314229  40.3737173  78.2599161  42.3481807  41.0987663  78.2358745
  43.6437547  40.6713303  78.3709319  42.8804977  40.5239527  78.2726440
  48.9028383  39.1669354  80.8648976  48.3855325  38.8076769  80.2610284
  49.6002775  38.6431529  80.8755042  48.9293964  39.0367042  80.7779234
  51.7347415  30.9048064  69.9344410  51.9743419  31.1126048  69.1219753
  52.0563256  30.1005573  70.0433355  51.8184573  30.8162166  69.8304963
  47.0437705  22.8341460  73.7803948  47.7983673  23.2019777  73.5420998
  46.8665240  23.2081014  74.5483128  47.1292184  22.9439648  73.8588837
  45.6858426  40.8893349  78.4119441  46.3879006  40.3745338  78.4692198
  45.6055910  41.2167501  79.2166316  45.7782187  40.8607576  78.5392233
  45.3994770  25.2411779  70.4782061  45.2170343  25.4583660  69.6523054
  46.2620383  25.3550792  70.5340676  45.4999359  25.2901677  70.3636548
  45.0109202  37.0799701  77.9205049  45.8498101  37.3122634  77.9678811
  45.0420971  36.2104013  77.8512084  45.1390919  36.9856648  77.9169694
  45.6361905  37.5000577  82.2218355  46.1760130  37.3571708  82.8921727
  44.9531851  37.8997327  82.5902381  45.6154059  37.5380247  82.3752776
  51.0794489  22.2438190  73.5131085  51.8080650  22.0654145  73.0669241
  51.1689382  23.0856270  73.7238263  51.2001151  22.3422068  73.4784603
  55.0602790  33.1791577  77.4163379  55.8160305  33.6123091  77.4552288
  55.1665114  32.5296347  77.9898015  55.1872960  33.1469061  77.5061404
  58.0982961  37.0064854  78.1665782  57.6618193  37.0101597  78.9224753
  57.7645876  37.6870353  77.7345359  57.9845581  37.1077310  78.2146614
  41.0399050  33.7200867  82.3752776  40.7737465  32.9039984  82.5343766
  41.0537614  33.7654023  81.5048292  41.0023772  33.6057772  82.2706258
  44.9456797  28.5185952  68.9904534  44.2314974  28.2324131  69.4026967
  45.4300766  28.8582578  69.6310922  44.9116160  28.5267601  69.1460169
  61.2327307  33.7245774  77.0585419  61.8943741  33.1636443  76.9581328
  60.5918719  33.2297805  77.3838110  61.2356175  33.5682183  77.0917759
  52.1204115  37.0215906  69.3666342  52.5355263  36.6900930  68.6750838
  51.2896044  36.7884808  69.2386479  52.0592124  36.9387162  69.2457190
  41.4492464  34.5059647  79.6564520  41.2668037  34.4806533  78.8036813
  42.1842133  34.9758585  79.6953429  41.5306528  34.5721009  79.5362439
  57.5192138  34.7411157  76.7997408  57.7547727  34.8856356  75.9724259
  57.6681701  35.5053565  77.1928922  57.5757941  34.8750211  76.7361012
  59.3482595  33.5812823  74.6367012  59.6790812  34.1140463  74.0307107
  59.9215683  33.6351710  75.2928963  59.4816274  33.6682391  74.6444793
  54.5614484  31.4277725  75.3190592  54.6561338  32.1667019  75.7730217
  53.9373327  30.9995201  75.7525156  54.4823514  31.4739046  75.4498739
  41.4163374  31.3853147  79.8063587  41.9936877  31.2489598  80.4455832
  40.7177436  30.9288932  80.0609171  41.3984395  31.2975414  79.9385877
  54.8137505  33.2726465  68.5527544  54.7317668  33.3428652  69.4182531
  55.4517225  33.8356209  68.3611284  54.8957342  33.3665436  68.6517493
  48.1730676  33.0387203  78.0202070  47.9149920  32.2058938  77.9933370
  48.2279159  33.2644816  77.1794570  48.1430454  32.9484974  77.8922207
  53.2531726  25.1415654  78.1206163  52.5488053  24.6524839  78.2790082
  53.3016701  25.1538128  77.2494607  53.1561778  25.0705302  78.0145503
  47.1465388  30.5924966  78.5066965  46.5714980  30.7517134  79.1430926
  46.7701065  29.9560375  78.0435415  47.0068201  30.5222778  78.5321523
  50.8138677  29.0648315  83.3659343  50.4253110  28.6402533  82.7111535
  50.1493375  29.3130464  83.8736370  50.6585605  29.0387036  83.3447211
  60.4561946  28.8223319  76.1407173  60.1998511  28.0103261  75.9505056
  61.2991260  28.8300887  75.9137361  60.5427971  28.7035317  76.0791990
  36.8922207  30.2365040  76.5211405  36.9782459  29.8596909  77.3024935
  37.5198005  29.8625486  76.0431364  36.9978758  30.1250522  76.5656883
  51.9177615  33.2946919  71.5636150  52.7318254  33.5861812  71.4518922
  51.8536756  32.6406782  70.9894443  52.0280354  33.2412114  71.4624988
  47.7885523  36.7668437  76.6908462  48.4259470  36.5280184  77.2360256
  48.2140595  36.9705596  75.9561623  47.9461690  36.7619447  76.6625620
  42.4798166  39.0056773  80.5742766  42.5202311  39.2771624  79.7462546
  43.0392690  39.5298681  80.9900554  42.5681512  39.1232528  80.5134654
  48.4288338  31.9870727  71.0283352  48.8133491  31.7678433  71.7799897
  48.1799959  32.8133672  71.1584428  48.4490411  32.0768873  71.1584428
  50.1706995  37.2440859  78.3702249  50.2446004  37.0816031  79.2244099
  50.9876502  37.4331049  78.1262730  50.3023354  37.2477602  78.4600274
  43.9312752  37.5898722  75.3996692  43.1050870  37.8360459  75.2730971
  43.9924743  37.5110803  76.2658750  43.8186919  37.6143671  75.5085637
  46.1488776  23.6567663  76.3592132  45.2811201  23.7290263  76.4249741
  46.4363980  24.4589742  76.5480107  46.0628524  23.7861810  76.3966899
  48.7111581  40.2075603  73.1015722  49.0009880  39.8164584  72.3774949
  49.4415062  40.3892307  73.5420997  48.8618465  40.1769416  73.0598529
  49.3006326  35.0093348  84.1868852  48.8018020  35.7209116  84.2653741
  50.1106551  35.3294015  84.1487015  49.3462433  35.1620197  84.1925421
  46.6517497  42.1842985  76.1675872  46.4317792  41.8940340  76.9602539
  46.4312019  41.5257940  75.6393784  46.5865091  42.0442693  76.2064780
  45.5634444  34.2716301  78.4331573  45.2747693  33.6453773  78.9677301
  46.4317792  34.2136589  78.4996254  45.6494696  34.1703846  78.5222528
  56.3512342  29.4151085  78.7513555  56.0077108  28.6941420  79.1020805
  56.4505384  29.2064936  77.9091914  56.3154385  29.2775288  78.6785235
  48.8185452  43.5572375  74.9506564  49.4709510  43.0248817  75.1797590
  48.1211061  43.2041027  75.3374438  48.8116170  43.4261898  75.0418732
  45.7666717  35.9111553  74.3573938  46.5212685  36.2924592  74.5709401
  45.1737330  36.3622696  74.8120635  45.7903431  36.0340380  74.4556817
  56.8125371  35.8776789  74.2937543  57.3783403  36.5369999  74.2096086
  56.1653274  36.2226487  74.7653946  56.8004127  36.0258730  74.3510300
  47.0864944  37.0820114  79.7314054  46.5645697  37.2220406  80.4165919
  47.4738964  36.3230778  79.9216171  47.0668645  36.9905638  79.8615130
  44.0756128  27.1325923  73.8009009  43.7880924  26.7627193  73.0640956
  44.7626596  27.6020778  73.5392713  44.1345025  27.1472892  73.6524084
  53.2831949  38.8215573  73.7174623  53.0418625  38.0883434  73.3101688
  53.4633282  39.3702430  73.0640956  53.2739573  38.7937964  73.5604846
  48.5131269  34.1124133  75.1295545  48.3174052  34.7198867  74.5355848
  48.7365615  33.4192077  74.6487219  48.5165911  34.1001658  74.9711626
  46.9109800  30.9978871  75.2476413  47.6332451  31.1620029  74.7880219
  46.4317792  31.7188536  75.1415753  46.9473530  31.1277100  75.1642027
  54.8703307  27.3342670  80.6273098  54.0314408  27.3603948  80.3911361
  54.9407674  27.9813405  81.2078445  54.7571701  27.4338795  80.6782215
  44.5617416  33.4036943  84.3530553  45.0738513  33.6821196  83.7039313
  44.2753759  34.1426237  84.7193366  44.5952279  33.5539297  84.3120431
  53.3172585  24.2328047  75.3600714  54.0198938  24.0335795  74.8820672
  53.0516774  23.4603989  75.6669558  53.3819218  24.0891013  75.3346156
  58.7460831  32.5410656  77.9134340  58.6594805  32.6966082  78.7669119
  58.2911311  33.1848732  77.5393745  58.6664088  32.6586411  77.9841447
  41.6484323  27.9107135  74.6494290  41.7500459  28.7133296  74.9775265
  42.4440209  27.7094471  74.3517370  41.7812228  27.9993034  74.6529645
  52.6186647  29.8621403  76.5359899  52.3721361  29.7817154  77.3696688
  52.9471770  29.0774871  76.3422427  52.6307891  29.7347669  76.6307423
  56.5134696  36.5704763  80.3246681  56.3749055  37.2685809  80.8295423
  55.7334694  36.4153419  79.9682862  56.3777923  36.6504929  80.3472955
  48.5783674  32.5978122  85.9482883  48.7227050  33.1779330  85.3125993
  48.9259323  32.9754419  86.6532737  48.6511136  32.7398826  85.9581877
  50.7503592  31.7968290  83.7308014  50.0026906  31.9899305  83.3256292
  50.9045117  30.9713510  83.4932135  50.6626019  31.7033402  83.6353420
  47.6511429  40.7880894  82.8143909  47.8000993  40.2283810  82.1617314
  48.4311431  40.8672896  83.1976428  47.7885523  40.7166459  82.7740858
  58.0088069  35.9283017  71.0863180  57.6294877  35.1420155  71.0792469
  57.3454314  36.4769874  70.9434824  57.8546543  35.8927841  71.0643977
  50.8334977  39.4796536  74.9252006  51.5984868  39.2106179  74.6034670
  50.7313067  38.9946546  75.6422069  50.9316472  39.3686100  74.9831834
  48.8687747  27.6820945  81.4645242  48.0783821  27.5012405  81.7862578
  49.2648369  26.9047898  81.4475536  48.8104623  27.5408406  81.5097790
  53.3553637  36.5108719  66.9051955  54.1226622  36.5708844  66.4957807
  52.9084946  35.9389161  66.4208274  53.4027065  36.4345295  66.7729666
  54.2531433  35.3163375  79.1904688  53.5776435  35.0848607  79.6918075
  54.2623809  34.7084558  78.5646793  54.1549937  35.1922300  79.1720840
  51.3825577  30.1581204  85.9468741  51.3184718  31.0191161  85.8188877
  51.5222765  29.8413197  85.1464292  51.3941047  30.2381371  85.8096954
  56.2548167  38.1728508  71.4214866  56.3368005  38.9795494  71.0976317
  56.7397910  38.1924467  72.1455639  56.3385325  38.2949170  71.4801764
  50.0644671  32.8513344  80.0884944  49.6406920  33.0517843  79.3523962
  49.8889526  32.0042192  80.2009243  49.9755551  32.7562125  79.9958634
  45.3527116  33.3465395  75.5212916  45.5091735  33.2812198  76.3768908
  45.6927709  34.1213948  75.3091596  45.4260351  33.4514593  75.6167510
  51.8906260  32.7223279  74.3906279  52.4321806  32.2193660  74.8544900
  52.2052819  32.6688473  73.5795765  52.0170657  32.6402699  74.3390091
  50.0592710  38.1140630  71.6746307  50.1285530  37.2555169  71.8139308
  50.8381165  38.3312511  71.3465332  50.1845560  38.0193494  71.6463465
  53.0395530  27.6159583  84.4428580  53.2537499  26.9770497  83.8891934
  52.4229429  28.0605407  84.0136442  52.9800859  27.5869727  84.2979011
  54.4500198  40.5378331  75.8882801  54.0579989  40.2345047  75.1705667
  54.6053270  41.3747421  75.6987755  54.4153787  40.6162168  75.7539298
  41.9261377  30.5300345  75.8373683  42.3060342  30.9484890  75.1733951
  41.3516742  31.1113801  76.1442527  41.8972702  30.6778204  75.7850424
  54.6139872  37.1028320  75.8288831  54.2554527  37.2742963  76.6052864
  54.1278583  37.5641526  75.2716830  54.4898569  37.1967291  75.8614100
  52.4310258  20.7259519  79.4315923  51.5603816  20.6998240  79.3849232
  52.6850600  20.5536711  78.6141768  52.3403818  20.6969662  79.3036059
  49.4028238  32.7827486  68.3689066  49.6920763  33.5592368  68.6432640
  49.4900037  32.2716217  69.0703565  49.4582494  32.8219404  68.5131564
  49.4559399  22.7365747  80.8889393  48.9397887  22.0445939  81.0140972
  48.8953328  23.4036524  80.8351992  49.2965912  22.7329005  80.8995459
  57.5001612  29.8421362  81.3421948  57.0729220  29.7547711  80.5870047
  56.8627665  29.9499138  81.9276792  57.3431219  29.8454022  81.3167389
  45.5692179  32.0960750  80.4689178  44.7280185  31.9964624  80.6768072
  45.7782187  32.8656230  80.8203498  45.4756871  32.1952794  80.5516493
  43.0467746  29.7180287  78.2973928  42.6524443  29.7923299  77.5224038
  42.4907863  30.1038234  78.8482290  42.9070558  29.7862062  78.2641588
  54.6832692  22.6961581  77.9777807  54.8882286  22.6283889  78.8234805
  54.3559116  23.5020402  77.9098985  54.6647940  22.8047522  78.0937462
  49.3808844  30.0242149  79.7186775  49.0771981  29.4698138  80.3197183
  48.6788264  30.2034359  79.2314810  49.2325053  29.9686932  79.7356481
  48.4374941  27.3342669  74.2831477  48.7134675  26.6161582  73.8709045
  49.0373610  27.9327589  74.0752583  48.5668205  27.3163040  74.1912238
  47.4427195  37.2391870  84.4258873  47.3347550  37.2493932  85.2920931
  47.6522976  38.0646651  84.2363827  47.4577306  37.3632945  84.5262965
  57.9366380  23.2493345  77.4580573  57.3240694  23.7363748  77.8434305
  58.0330555  22.5736836  78.0018224  57.8604278  23.2211654  77.5959431
  51.9385461  25.0056187  72.5578072  52.3929208  25.1766747  73.2825917
  52.4125507  24.3924297  72.1575848  52.0753781  24.9407072  72.6051834
  45.4600987  34.4904513  81.8880811  44.8688920  35.1314011  81.8583826
  46.2222010  34.9142130  81.8612110  45.4849247  34.6480351  81.8795958
  55.2190503  39.9413824  79.3212835  55.0210191  40.4304639  78.6269046
  54.5978214  40.1455066  79.8996969  55.0978067  40.0430362  79.3036058
  49.2798481  31.7098721  73.6623079  50.0240526  32.0972997  73.9006029
  49.4259177  30.8656146  73.8263567  49.4109066  31.6429194  73.7217049
  51.1978057  23.5048980  78.6954941  50.3514102  23.6771788  78.5696291
  51.1949189  22.6998324  79.0320769  51.0725207  23.4110009  78.7266068
  52.2676357  27.2824194  79.5616999  51.7936311  26.7565956  80.0722310
  52.6394493  26.7353667  78.9931860  52.2526246  27.1240191  79.5532146
  58.5313088  32.3426570  80.9723779  58.2911311  31.5032985  80.9766206
  59.0105095  32.4226737  81.6964553  58.5665271  32.2307970  81.0798582
  54.1959857  28.1760749  72.6242753  53.6682875  28.2589493  71.9348461
  54.6555565  28.9178620  72.6207397  54.1861707  28.2981411  72.5217448
  60.5318275  29.1228027  78.9253038  60.2928045  29.0823861  78.0873823
  60.6952176  29.9699179  79.0518759  60.5208578  29.2420112  78.8206520
  46.0051173  28.1038150  81.5910963  45.3804243  28.1156542  80.9836915
  45.6696768  28.5798325  82.2402203  45.8636665  28.1756667  81.5967531
  46.1892922  26.4463268  67.6483648  45.8405726  27.0982994  68.1115197
  45.7089368  26.4320381  66.9207519  46.0663166  26.5406322  67.6094739
  42.7176849  36.1638610  83.0314727  42.1876773  35.4731049  83.0809702
  42.9901942  36.1548795  82.2027436  42.6801571  36.0605742  82.9162143
  53.7496939  36.7464312  71.7552410  54.4731138  37.2122425  71.6116983
  53.3097530  36.8137922  71.0050007  53.7912631  36.8248149  71.6237191
  52.9183094  33.6061855  83.0053099  52.3040087  33.0619905  83.3001734
  53.4350379  33.0926091  82.5258915  52.9038757  33.4498264  82.9777327
  52.1579391  34.6766125  80.7397397  51.7306999  34.0515843  80.3062833
  52.1504336  34.3941047  81.5656404  52.0938533  34.5418905  80.7977225
  50.4865101  25.5534879  80.9539931  50.5107588  25.0194992  80.2652711
  50.7376575  25.0452188  81.6165522  50.5275020  25.3995783  80.9504576
  37.9972691  32.8366374  80.3883075  37.8916140  32.7913219  79.5235159
  37.2472911  33.1820155  80.6697360  37.8708294  32.8807282  80.3020405
  46.7666423  24.2805697  80.3345676  46.8064795  24.7814904  81.0480383
  45.9416088  24.3716091  80.0651599  46.6505949  24.3687514  80.3996214
  48.1880787  30.7966207  82.6319575  47.3572716  30.9640025  82.4254823
  48.1332304  30.4202158  83.4168460  48.0570202  30.7655939  82.7168103
  46.5616831  29.0721799  73.1609692  46.7019792  29.5694263  73.8638334
  47.0599363  28.3708093  73.3023906  46.6557911  29.0423778  73.2861271
  46.5917053  29.9388910  70.4902269  47.2262132  30.5349335  70.4251731
  46.6742664  29.6392367  71.3048139  46.6973604  29.9829818  70.6005356
  48.1696036  25.8702885  70.4647711  48.4911877  25.3905968  69.8106973
  48.4322980  26.6802531  70.2738523  48.2562061  25.9192783  70.3403203
  53.5655191  25.2575079  82.8271190  53.9910262  24.8047606  82.2154717
  52.9512184  24.7035150  83.1035978  53.5383836  25.1089055  82.7776215
  43.0970041  32.1356751  73.7591815  43.6062270  32.7321258  74.1403121
  43.5704313  31.8682724  73.0768235  43.2413417  32.1842566  73.7146338
  54.0100789  40.8085017  71.9150471  53.2930099  40.6345880  71.4497708
  54.6607527  40.5737590  71.3825957  54.0002639  40.7480810  71.7679689
  52.0049414  21.7290179  76.2361767  51.3617732  21.5787825  76.8046906
  51.6648821  21.4832524  75.4710872  51.8594491  21.6702301  76.2064782
  56.5948760  29.6849606  75.6591776  55.9239950  30.2279308  75.5304841
  57.2888510  30.1544461  75.4173471  56.5977628  29.8347877  75.6047303
  50.6435494  41.8246318  80.8903534  50.4201148  41.0665147  81.2587560
  50.1545337  41.8544339  80.1683974  50.5378943  41.7168542  80.8380275
  56.7576888  26.1405489  78.5682149  57.1104498  25.7135212  79.2427948
  55.8991689  26.0556333  78.6983225  56.6826332  26.0650230  78.6877159
  45.4560573  28.7713009  76.6264996  44.7372562  29.1877142  76.8937859
  45.8272935  29.3367248  76.0756634  45.4052504  28.9162291  76.5847802
  54.7560153  29.4040858  82.5166991  54.7358081  29.2224153  83.3701770
  54.8039354  30.2752877  82.4926575  54.7594794  29.5057396  82.6390286
  49.2913951  42.0446776  78.3440619  48.8774349  41.3820906  77.9544460
  49.9761325  42.1924635  77.8236313  49.3312323  41.9687434  78.2097116
  52.6579245  41.2036861  79.0964235  52.2595528  41.3139132  78.3285056
  52.0430465  41.4118928  79.6790795  52.5078134  41.2510429  79.0695535
  51.2307147  27.8111009  71.9638375  50.6371986  28.1328006  71.4122942
  51.2682425  26.9652104  71.7559481  51.1481536  27.7335337  71.8521146
  54.1064964  27.7690514  75.3940125  53.8778657  27.7923215  74.5518483
  54.3663040  26.9447981  75.5135136  54.1111152  27.6506593  75.2865323
  47.1609726  26.3067060  76.6894321  47.6367092  26.6684140  76.0544502
  46.6598326  26.9623527  76.9694464  47.1575085  26.4561249  76.6371062
  60.3921088  35.7788828  72.4807326  60.7754693  36.5280184  72.7105423
  59.5965201  36.0254648  72.2219315  60.3314870  35.9258522  72.4764899
  49.2036379  28.4508260  70.0567705  49.5835344  28.4687889  69.2718820
  48.4628975  28.8962248  69.9358552  49.1505217  28.5190034  69.9231273
  56.8321670  26.7590451  75.6443284  56.8315896  26.6039107  76.5027560
  56.6277850  27.6053438  75.5884669  56.8021448  26.8611072  75.7631223
  38.8938941  30.1830235  80.0602100  38.7160702  29.7306844  80.7857016
  38.6057963  30.9856397  80.2440578  38.8251894  30.2352793  80.1945603
  54.5562522  31.4387953  79.2979490  55.0516187  30.7210948  79.2583511
  53.7462297  31.1358750  79.1833977  54.5106415  31.2885599  79.2753216
  50.0021133  35.2885766  71.4476495  49.1932456  34.9652439  71.4009804
  50.5096042  34.5818988  71.3804743  49.9570800  35.1367082  71.4306789
  40.6311411  32.7157959  77.1723859  39.7656930  32.7043649  77.0606630
  40.7310226  32.5288182  78.0194998  40.5185578  32.6864020  77.2812804
  56.6214341  34.1891640  81.9856619  57.0469412  33.6666062  81.4327044
  56.2571260  34.7872478  81.4645242  56.6300943  34.2001867  81.8265629
  46.2568420  42.4855858  80.7453965  46.5714979  43.2992246  80.7531746
  46.6661834  42.1006076  81.4136124  46.3636518  42.5484560  80.8458056
  53.2092940  37.9025904  78.3157777  53.6804118  38.6166167  78.4847762
  53.5453119  37.3024655  78.8517646  53.3288055  37.9197369  78.4190153
  49.1955550  24.6769788  72.7395336  50.0171244  24.8468101  72.4977031
  48.7325201  24.8317049  72.0161634  49.2486712  24.7251521  72.5966981
  43.5981441  36.4328966  80.3932573  44.2026298  36.3924800  79.7646394
  43.3908753  37.2800118  80.4236629  43.6570338  36.5516969  80.3048690
  53.4125213  38.6994911  81.6094810  54.2323587  38.5557877  81.8711106
  53.1319290  39.3241110  82.1511248  53.4921956  38.7705263  81.7282750
  38.8332723  35.4163584  80.2631496  38.7357001  34.6059855  80.5721553
  39.6161593  35.3955377  79.8777764  38.9348859  35.2930674  80.2518359
  61.6387471  44.9222083  74.2159726  62.3367636  45.1010210  74.7081189
  61.9539804  44.3992422  73.5930115  61.7882808  44.8715855  74.1961736
  59.8114335  40.2914480  78.2981000  59.4817665  40.7425623  77.6284699
  59.1359337  40.2130643  78.8454007  59.6624771  40.3465615  78.2804224
  67.0190743  36.2800002  76.5430611  66.7044184  36.9703481  76.9751033
  66.5017684  36.2244785  75.8416112  66.8955213  36.3734891  76.5027560
  58.2502784  50.1767720  71.4575490  57.6659999  50.6817752  71.8641353
  57.8472879  49.9510107  70.7172082  58.1042088  50.2175969  71.4080515
  62.7079999  46.4233372  69.9344410  62.9476002  46.6311356  69.1219753
  63.0295840  45.6190881  70.0433355  62.7917156  46.3347473  69.8304963
  58.0170289  38.3526768  73.7803948  58.7716257  38.7205085  73.5420998
  57.8397823  38.7266322  74.5483128  58.1024767  38.4624956  73.8588837
  56.3727353  40.7597087  70.4782061  56.1902927  40.9768968  69.6523054
  57.2352966  40.8736100  70.5340676  56.4731943  40.8086985  70.3636548
  62.0527073  37.7623498  73.5131085  62.7813233  37.5839453  73.0669241
  62.1421966  38.6041577  73.7238263  62.1733735  37.8607376  73.4784603
  55.9189381  44.0371260  68.9904534  55.2047558  43.7509439  69.4026967
  56.4033349  44.3767885  69.6310922  55.8848744  44.0452909  69.1460169
  63.0936698  52.5401214  69.3666342  63.5087847  52.2086237  68.6750838
  62.2628628  52.3070116  69.2386479  63.0324707  52.4572470  69.2457190
  65.7870089  48.7911773  68.5527544  65.7050251  48.8613960  69.4182531
  66.4249809  49.3541517  68.3611284  65.8689926  48.8850744  68.6517493
  47.8654791  45.7550348  76.5211405  47.9515043  45.3782217  77.3024935
  48.4930588  45.3810794  76.0431364  47.9711342  45.6435830  76.5656883
  62.8910199  48.8132227  71.5636150  63.7050838  49.1047120  71.4518922
  62.8269340  48.1592090  70.9894443  63.0012938  48.7597422  71.4624988
  59.4020922  47.5056035  71.0283352  59.7866075  47.2863741  71.7799897
  59.1532542  48.3318980  71.1584428  59.4222995  47.5954181  71.1584428
  57.1221359  39.1752971  76.3592132  56.2543785  39.2475571  76.4249741
  57.4096564  39.9775050  76.5480107  57.0361108  39.3047118  76.3966899
  55.0488711  42.6511231  73.8009009  54.7613507  42.2812501  73.0640956
  55.7359180  43.1206086  73.5392713  55.1077609  42.6658200  73.6524084
  57.8842383  46.5164179  75.2476413  58.6065035  46.6805337  74.7880219
  57.4050376  47.2373844  75.1415753  57.9206114  46.6462408  75.1642027
  64.2905169  39.7513355  75.3600714  64.9931522  39.5521103  74.8820672
  64.0249358  38.9789297  75.6669558  64.3551801  39.6076321  75.3346156
  52.6216906  43.4292443  74.6494290  52.7233043  44.2318604  74.9775265
  53.4172793  43.2279779  74.3517370  52.7544812  43.5178342  74.6529645
  64.3286221  52.0294027  66.9051955  65.0959206  52.0894152  66.4957807
  63.8817530  51.4574469  66.4208274  64.3759648  51.9530603  66.7729666
  52.8993961  46.0485653  75.8373683  53.2792926  46.4670198  75.1733951
  52.3249326  46.6299109  76.1442527  52.8705286  46.1963512  75.7850424
  63.4042842  36.2444827  79.4315923  62.5336400  36.2183548  79.3849232
  63.6583183  36.0722019  78.6141768  63.3136402  36.2154970  79.3036059
  60.3760821  48.3012794  68.3689066  60.6653346  49.0777676  68.6432640
  60.4632620  47.7901525  69.0703565  60.4315078  48.3404712  68.5131564
  59.4107524  42.8527977  74.2831477  59.6867259  42.1346890  73.8709045
  60.0106194  43.4512897  74.0752583  59.5400789  42.8348348  74.1912238
  62.9118045  40.5241494  72.5578072  63.3661791  40.6952055  73.2825917
  63.3858091  39.9109605  72.1575848  63.0486365  40.4592380  72.6051834
  60.2531065  47.2284029  73.6623079  60.9973110  47.6158305  73.9006029
  60.3991761  46.3841454  73.8263567  60.3841650  47.1614502  73.7217049
  62.1710640  39.0234288  78.6954941  61.3246685  39.1957096  78.5696291
  62.1681773  38.2183631  79.0320769  62.0457790  38.9295317  78.7266068
  65.1692440  43.6946057  72.6242753  64.6415459  43.7774801  71.9348461
  65.6288148  44.4363928  72.6207397  65.1594291  43.8166719  72.5217448
  57.1625505  41.9648576  67.6483648  56.8138310  42.6168302  68.1115197
  56.6821951  41.9505689  66.9207519  57.0395749  42.0591630  67.6094739
  57.5349414  44.5907107  73.1609692  57.6752375  45.0879571  73.8638334
  58.0331947  43.8893401  73.3023906  57.6290495  44.5609086  73.2861271
  57.5649637  45.4574218  70.4902269  58.1994716  46.0534643  70.4251731
  57.6475247  45.1577675  71.3048139  57.6706188  45.5015126  70.6005356
  59.1428619  41.3888193  70.4647711  59.4644460  40.9091276  69.8106973
  59.4055563  42.1987839  70.2738523  59.2294645  41.4378091  70.3403203
  54.0702624  47.6542059  73.7591815  54.5794854  48.2506566  74.1403121
  54.5436897  47.3868032  73.0768235  54.2146000  47.7027874  73.7146338
  62.9781997  37.2475487  76.2361767  62.3350315  37.0973133  76.8046906
  62.6381404  37.0017832  75.4710872  62.8327075  37.1887609  76.2064782
  56.4293156  44.2898317  76.6264996  55.7105145  44.7062450  76.8937859
  56.8005518  44.8552556  76.0756634  56.3785088  44.4347599  76.5847802
  62.2039731  43.3296317  71.9638375  61.6104570  43.6513313  71.4122942
  62.2415008  42.4837412  71.7559481  62.1214120  43.2520645  71.8521146
  58.1342310  41.8252368  76.6894321  58.6099676  42.1869448  76.0544502
  57.6330909  42.4808835  76.9694464  58.1307669  41.9746557  76.6371062
  60.1768963  43.9693568  70.0567705  60.5567928  43.9873197  69.2718820
  59.4361559  44.4147556  69.9358552  60.1237801  44.0375342  69.9231273
  60.9753717  50.8071074  71.4476495  60.1665040  50.4837747  71.4009804
  61.4828626  50.1004296  71.3804743  60.9303384  50.6552390  71.4306789
  60.1688133  40.1955096  72.7395336  60.9903828  40.3653409  72.4977031
  59.7057784  40.3502357  72.0161634  60.2219296  40.2436829  72.5966981
  35.2165344   0.8805647  62.0267896  34.4648244   0.5021185  61.7983941
  35.6651356   0.9124081  61.2786706  35.1715011   0.8291254  61.8825398
  40.6690304   1.3031017  57.4553443  40.3341673   1.9807938  57.0197665
  41.1817175   0.9136328  56.8670314  40.6955885   1.3455595  57.3040234
  40.2094596   3.2545285  63.3964554  40.5933975   3.8232184  62.8569330
  40.1453737   2.5294796  62.9170370  40.2568023   3.2320749  63.2458417
  36.6350840   5.8101628  65.6945524  37.2788296   6.2514793  66.0841683
  36.9607096   5.0055055  65.6075783  36.7782669   5.7566823  65.7391001
  37.3371420  -1.1786397  61.0665386  37.6587261  -0.6381189  60.4626694
  37.9843516  -1.7489625  61.1987676  37.4797475  -1.1827222  60.9972421
  37.4329821   1.6268426  60.0355769  37.7228120   1.2357407  59.3114995
  38.1633302   1.8085131  60.4761044  37.5836706   1.5962240  59.9938576
  35.3735737   3.6035808  63.1015919  35.1536032   3.3133163  63.8942586
  35.1530259   2.9450763  62.5733831  35.3083331   3.4635517  63.1404827
  37.5403693   4.9765198  61.8846611  38.1927751   4.4441640  62.1137637
  36.8429302   4.6233850  62.2714485  37.5334411   4.8454721  61.9758779
  42.0050189   0.2408396  60.6514669  41.7636865  -0.4923743  60.2441734
  42.1851522   0.7895253  59.9981003  41.9957813   0.2130788  60.4944892
  39.5553217   0.8989359  61.8592053  40.3203108   0.6299003  61.5374717
  39.4531307   0.4139369  62.5762116  39.6534713   0.7878924  61.9171881
  38.7810950  -0.4666547  58.6086354  38.8503771  -1.3252008  58.7479355
  39.5599406  -0.2494666  58.2805379  38.9063800  -0.5613683  58.5803512
  43.1718438   1.9571155  62.8222848  42.7798230   1.6537870  62.1045714
  43.3271510   2.7940245  62.6327801  43.1372028   2.0354991  62.6879345
  43.9408743   1.3606647  66.2552882  43.7428432   1.8497462  65.5609093
  43.3196454   1.5647889  66.8337015  43.8196308   1.4623186  66.2376105
  42.7319029   2.2277841  58.8490517  42.0148339   2.0538703  58.3837755
  43.3825767   1.9930413  58.3166004  42.7220880   2.1673633  58.7019735
  38.0132191   3.4639599  65.2780666  37.5992590   2.8013729  64.8884507
  38.6979565   3.6117458  64.7576360  38.0530563   3.3880257  65.1437163
  41.3797485   2.6229684  66.0304282  40.9813769   2.7331955  65.2625102
  40.7648705   2.8311751  66.6130842  41.2296375   2.6703252  66.0035581
  58.6057103   7.7752586  61.5077734  58.5751108   8.6297223  61.6796003
  59.2038452   7.4747879  62.0663877  58.6894261   7.8569083  61.6152536
  51.8056788   6.8628237  66.2630664  50.9494684   7.0236735  66.3139781
  51.8524442   5.9920301  66.2835725  51.6855900   6.7579039  66.2736730
  46.1897928  16.3990955  62.0267896  45.4380828  16.0206493  61.7983941
  46.6383940  16.4309389  61.2786706  46.1447595  16.3476562  61.8825398
  51.6422888  16.8216325  57.4553443  51.3074256  17.4993246  57.0197665
  52.1549758  16.4321636  56.8670314  51.6688469  16.8640903  57.3040234
  51.1827179  18.7730593  63.3964554  51.5666559  19.3417492  62.8569330
  51.1186320  18.0480104  62.9170370  51.2300606  18.7506057  63.2458417
  54.6508609   8.9220281  68.9062316  55.1964569   9.6005368  68.9656285
  54.5925486   8.7807742  68.0463897  54.7224524   9.0012283  68.7874376
  47.7682684  16.4109347  64.2930668  47.8693047  15.6009701  64.6027796
  47.1724429  16.3166294  63.6630347  47.6955223  16.2774375  64.2456907
  56.4273678  10.3504888  59.7796043  56.3113204  11.1012574  60.2088182
  57.2229565  10.0928842  60.0292131  56.5278267  10.4239735  59.8800135
  47.6083424  21.3286936  65.6945524  48.2520879  21.7700100  66.0841683
  47.9339679  20.5240363  65.6075783  47.7515252  21.2752131  65.7391001
  40.9647728  12.4329634  63.9183002  40.7297913  11.5997286  63.8115271
  41.1033369  12.7134299  63.1044203  40.9503391  12.3513137  63.7825357
  43.2637816   4.6015364  66.8167309  42.6442848   4.0108012  66.6477324
  43.1621680   5.1926800  66.1831633  43.1575491   4.6019447  66.6972299
  48.3104003  14.3398911  61.0665386  48.6319845  14.8804119  60.4626694
  48.9576100  13.7695683  61.1987676  48.4530059  14.3358086  60.9972421
  50.3605712   6.3414906  61.1499773  51.0585876   6.5203034  61.6421236
  50.6758044   5.8185246  60.5270162  50.5101049   6.2908678  61.1301783
  42.9906949   8.1467646  69.0610878  42.8665646   8.7330092  69.6960697
  43.6425233   7.6527842  69.3623153  43.0680598   8.1606451  69.1996808
  50.5493647  12.7285351  61.1379564  50.9887282  12.1202452  61.5834337
  50.3998310  12.3492725  60.3665029  50.5915113  12.5823822  61.0898731
  48.0165290  11.3229363  68.3398390  48.6614292  10.8301806  68.0209338
  48.2567067  11.4654150  69.1664468  48.1475875  11.2706805  68.4147923
  50.5551381  14.1684269  67.9905282  50.8374624  13.3735675  67.7692038
  51.2837542  14.6464856  68.0110343  50.7040945  14.1218866  67.9608297
  48.5332575   1.7107303  65.2321047  48.2035905   2.1618446  64.5624746
  47.8577577   1.6323466  65.7794054  48.3843011   1.7658438  65.2144270
  54.1502984  11.0812533  58.0910333  54.0654279  11.9373499  58.2359902
  54.6387367  10.8056857  58.7592492  54.2091881  11.1669854  58.2112415
  55.0821417   7.6997327  59.5908068  54.5532888   7.9156960  60.2505375
  55.6046437   8.3933465  59.5109038  55.0809870   7.8340464  59.6763668
  60.5369470  13.2743631  64.9641113  59.7067173  13.4854275  65.1274529
  60.4878722  12.4480686  64.6883396  60.4076205  13.1833237  64.9478478
  46.9721025  11.5960543  58.3915536  46.3878240  12.1010575  58.7981400
  46.5691120  11.3702930  57.6512128  46.8260328  11.6368792  58.3420562
  42.5265053  17.3115305  65.1939208  42.0432631  18.0365794  65.1698792
  43.3388371  17.6091435  65.3049366  42.5755801  17.4617658  65.2066487
  48.5979207  16.1047485  67.7989022  48.0806149  15.7454900  67.1950330
  49.2953598  15.5809660  67.8095089  48.6244788  15.9745173  67.7119281
  52.2542799  16.5542299  73.7605195  52.3426145  16.3668440  74.6083406
  52.6832512  15.9079729  73.3610042  52.3304902  16.4305307  73.8276947
  49.8213259  15.8373459  72.7422858  49.2584094  15.4246069  73.2662519
  50.5834282  15.7626365  73.1616001  49.8507708  15.7650860  72.8815858
  51.4298239   7.8426196  56.8684457  51.6694243   8.0504179  56.0559800
  51.7514080   7.0383704  56.9773402  51.5135397   7.7540297  56.7645010
  45.3809250  17.8271481  65.3459488  46.0829830  17.3123470  65.4032244
  45.3006733  18.1545632  66.1506363  45.4733011  17.7985707  65.4732280
  45.0945594   2.1789910  57.4122108  44.9121167   2.3961791  56.5863101
  45.9571207   2.2928923  57.4680722  45.1950183   2.2279808  57.2976595
  44.7060026  14.0177832  64.8545096  45.5448925  14.2500765  64.9018857
  44.7371795  13.1482144  64.7852131  44.8341743  13.9234779  64.8509740
  45.3312729  14.4378708  69.1558401  45.8710954  14.2949839  69.8261774
  44.6482675  14.8375458  69.5242428  45.3104883  14.4758379  69.3092823
  54.7553614  10.1169708  64.3503426  55.5111129  10.5501223  64.3892334
  54.8615938   9.4674478  64.9238062  54.8823784  10.0847192  64.4401451
  57.7933785  13.9442986  65.1005829  57.3569017  13.9479728  65.8564800
  57.4596700  14.6248485  64.6685406  57.6796405  14.0455441  65.1486661
  52.3662858  15.9851318  76.4248979  53.1503275  16.0982166  76.7904721
  52.1659453  15.1592455  76.6207665  52.4528884  15.8798038  76.5083365
  40.7349874  10.6578998  69.3092823  40.4688289   9.8418115  69.4683813
  40.7488438  10.7032154  68.4388338  40.6974596  10.5435903  69.2046305
  44.6407621   5.4564083  55.9244581  43.9265798   5.1702262  56.3367013
  45.1251590   5.7960709  56.5650968  44.6066984   5.4645733  56.0800216
  52.5233252  17.8961420  70.0715435  51.7248498  17.6560921  70.3289303
  52.9719263  17.9475813  70.8182482  52.4707863  17.8683812  70.2200359
  60.9278131  10.6623905  63.9925466  61.5894565  10.1014574  63.8921374
  60.2869543  10.1675936  64.3178157  60.9306999  10.5060314  64.0257806
  51.8154939  13.9594037  56.3006389  52.2306087  13.6279061  55.6090885
  50.9846868  13.7262939  56.1726526  51.7542948  13.8765293  56.1797237
  41.1443288  11.4437778  66.5904567  40.9618861  11.4184664  65.7376859
  41.8792956  11.9136716  66.6293476  41.2257351  11.5099140  66.4702486
  57.2142962  11.6789288  63.7337455  57.4498551  11.8234487  62.9064305
  57.3632525  12.4431696  64.1268968  57.2708765  11.8128342  63.6701059
  59.0433418  10.5190954  61.5707058  59.3741636  11.0518594  60.9647153
  59.6166507  10.5729842  62.2269009  59.1767098  10.6060523  61.5784840
  54.2565308   8.3655857  62.2530639  54.3512162   9.1045151  62.7070264
  53.6324151   7.9373332  62.6865203  54.1774338   8.4117177  62.3838786
  52.5117781  11.5442069  72.9020919  53.0856643  10.9069313  73.0569483
  52.4332585  11.5446152  72.0330577  52.5851016  11.4507181  72.7967330
  41.1114198   8.3231279  66.7403634  41.6887701   8.1867729  67.3795879
  40.4128260   7.8667063  66.9949218  41.0935219   8.2353545  66.8725923
  54.5088329  10.2104596  55.4867591  54.4268491  10.2806783  56.3522578
  55.1468049  10.7734340  55.2951331  54.5908166  10.3043567  55.5857540
  47.8681500   9.9765334  64.9542117  47.6100744   9.1437069  64.9273416
  47.9229983  10.2022947  64.1134617  47.8381278   9.8863105  64.8262254
  46.8416212   7.5303097  65.4407012  46.2665803   7.6895265  66.0770973
  46.4651889   6.8938506  64.9775462  46.7019025   7.4600910  65.4661570
  50.5089501   6.0026446  70.2999390  50.1203934   5.5780664  69.6451581
  49.8444199   6.2508596  70.8076417  50.3536429   5.9765167  70.2787258
  36.5873031   7.1743171  63.4551452  36.6733283   6.7975040  64.2364982
  37.2148829   6.8003617  62.9771411  36.6929582   7.0628654  63.4996930
  51.6128439  10.2325051  58.4976197  52.4269078  10.5239943  58.3858968
  51.5487580   9.5784913  57.9234490  51.7231178  10.1790245  58.3965034
  47.4836347  13.7046568  63.6248509  48.1210294  13.4658316  64.1700303
  47.9091419  13.9083727  62.8901670  47.6412514  13.6997578  63.5965666
  42.1748990  15.9434905  67.5082813  42.2153135  16.2149756  66.6802593
  42.7343514  16.4676813  67.9240601  42.2632336  16.0610660  67.4474701
  48.1239162   8.9248858  57.9623399  48.5084315   8.7056565  58.7139944
  47.8750783   9.7511803  58.0924475  48.1441235   9.0147004  58.0924475
  58.8574350  12.6995495  68.9734067  58.5520167  13.4323552  69.3347383
  58.1380566  12.2933425  68.6926853  58.7061692  12.7477228  68.9847204
  49.8657819  14.1818991  65.3042295  49.9396828  14.0194163  66.1584145
  50.6827326  14.3709180  65.0602777  49.9974178  14.1855733  65.3940321
  43.6263576  14.5276853  62.3336739  42.8001694  14.7738591  62.2071018
  43.6875567  14.4488934  63.1998797  43.5137743  14.5521802  62.4425683
  45.8439600   0.5945794  63.2932179  44.9762025   0.6668394  63.3589788
  46.1314804   1.3967873  63.4820154  45.7579348   0.7239942  63.3306946
  48.4062405  17.1453734  60.0355769  48.6960703  16.7542715  59.3114995
  49.1365886  17.3270439  60.4761044  48.5569289  17.1147547  59.9938576
  48.9957150  11.9471480  71.1208899  48.4968844  12.6587247  71.1993788
  49.8057375  12.2672146  71.0827062  49.0413257  12.0998328  71.1265468
  46.3468321  19.1221116  63.1015919  46.1268616  18.8318471  63.8942586
  46.1262843  18.4636071  62.5733831  46.2815915  18.9820824  63.1404827
  45.2585268  11.2094433  65.3671620  44.9698516  10.5831904  65.9017347
  46.1268616  11.1514720  65.4336301  45.3445520  11.1081977  65.4562575
  56.0463166   6.3529216  65.6853602  55.7027931   5.6319551  66.0360852
  56.1456208   6.1443067  64.8431960  56.0105208   6.2153419  65.6125282
  48.5136276  20.4950506  61.8846611  49.1660334  19.9626948  62.1137637
  47.8161885  20.1419158  62.2714485  48.5066994  20.3640029  61.9758779
  45.4617541  12.8489684  61.2913985  46.2163509  13.2302723  61.5049448
  44.8688154  13.3000827  61.7460682  45.4854255  12.9718511  61.3896864
  56.5076195  12.8154920  61.2277590  57.0734227  13.4748130  61.1436133
  55.8604098  13.1604618  61.6993992  56.4954951  12.9636861  61.2850347
  46.7815768  14.0198245  66.6654101  46.2596521  14.1598537  67.3505965
  47.1689788  13.2608909  66.8556218  46.7619469  13.9283769  66.7955177
  43.7706952   4.0704054  60.7349055  43.4831748   3.7005324  59.9981003
  44.4577420   4.5398909  60.4732760  43.8295849   4.0851023  60.5864131
  52.9782773  15.7593704  60.6514669  52.7369449  15.0261565  60.2441734
  53.1584106  16.3080561  59.9981003  52.9690397  15.7316095  60.4944892
  48.2082093  11.0502264  62.0635592  48.0124876  11.6576999  61.4695895
  48.4316439  10.3570208  61.5827266  48.2116734  11.0379790  61.9051673
  46.6060623   7.9357002  62.1816460  47.3283275   8.0998160  61.7220266
  46.1268616   8.6566667  62.0755800  46.6424354   8.0655232  62.0982074
  54.5654131   4.2720801  67.5613145  53.7265232   4.2982080  67.3251408
  54.6358498   4.9191536  68.1418492  54.4522525   4.3716927  67.6122262
  44.2568240  10.3415074  71.2870600  44.7689337  10.6199328  70.6379360
  43.9704583  11.0804368  71.6533413  44.2903103  10.4917428  71.2460478
  58.4411655   9.4788788  64.8474387  58.3545629   9.6344214  65.7009166
  57.9862135  10.1226863  64.4733792  58.3614911   9.5964543  64.9181494
  41.3435146   4.8485266  61.5834336  41.4451283   5.6511428  61.9115312
  42.1391033   4.6472602  61.2857417  41.4763052   4.9371165  61.5869692
  52.3137471   6.7999535  63.4699946  52.0672185   6.7195286  64.3036735
  52.6422594   6.0153002  63.2762474  52.3258714   6.6725800  63.5647469
  56.2085520  13.5082894  67.2586727  56.0699879  14.2063940  67.7635470
  55.4285518  13.3531550  66.9022909  56.0728747  13.5883061  67.2813002
  48.2734498   9.5356253  72.8822929  48.4177874  10.1157461  72.2466039
  48.6210147   9.9132550  73.5872784  48.3461960   9.6776957  72.8921924
  50.4454416   8.7346422  70.6648061  49.6977730   8.9277436  70.2596339
  50.5995941   7.9091641  70.4272182  50.3576843   8.6411533  70.5693467
  47.3462253  17.7259025  69.7483956  47.4951817  17.1661941  69.0957361
  48.1262255  17.8051027  70.1316475  47.4836347  17.6544591  69.7080905
  57.7038893  12.8661148  58.0203227  57.3245701  12.0798286  58.0132516
  57.0405138  13.4148005  57.8774871  57.5497367  12.8305972  57.9984024
  49.8715554  17.8973668  71.0268447  49.7959225  17.2282479  71.5819235
  49.8005413  18.5991456  71.5409113  49.8496161  17.9018575  71.1845295
  50.5285801  16.4174667  61.8592053  51.2935692  16.1484311  61.5374717
  50.4263891  15.9324677  62.5762116  50.6267296  16.3064231  61.9171881
  48.5638570   4.6199076  68.3985289  47.7734645   4.4390536  68.7202624
  48.9599193   3.8426029  68.3815583  48.5055447   4.4786537  68.4437837
  53.0504461  13.4486851  53.8392002  53.8177446  13.5086976  53.4297854
  52.6035770  12.8767292  53.3548321  53.0977889  13.3723426  53.7069713
  53.9482257  12.2541506  66.1244735  53.2727259  12.0226739  66.6258122
  53.9574633  11.6462689  65.4986840  53.8500761  12.1300432  66.1060887
  51.0776401   7.0959335  72.8808788  51.0135542   7.9569292  72.7528924
  51.2173589   6.7791329  72.0804339  51.0891871   7.1759502  72.7437000
  55.9498991  15.1106639  58.3554913  56.0318829  15.9173625  58.0316363
  56.4348734  15.1302598  59.0795686  56.0336149  15.2327301  58.4141811
  49.7595495   9.7891475  67.0224990  49.3357744   9.9895974  66.2864009
  49.5840350   8.9420323  67.1349290  49.6706375   9.6940256  66.9298681
  49.2607188  21.3041988  69.4846448  49.7503118  20.6052777  69.3022112
  48.6891420  21.0065858  70.0722505  49.2491718  21.1568211  69.5447489
  45.0477940  10.2843526  62.4552963  45.2042559  10.2190329  63.3108955
  45.3878533  11.0592079  62.2431643  45.1211174  10.3892724  62.5507557
  51.5857084   9.6601410  61.3246326  52.1272630   9.1571791  61.7884947
  51.9003643   9.6066604  60.5135811  51.7121481   9.5780831  61.2730138
  49.7543534  15.0518761  58.6086354  49.8236354  14.1933300  58.7479355
  50.5331989  15.2690642  58.2805379  49.8796384  14.9571625  58.5803512
  52.7346354   4.5537714  71.3768627  52.9488323   3.9148628  70.8231981
  52.1180253   4.9983538  70.9476488  52.6751683   4.5247858  71.2319058
  54.1451022  17.4756463  62.8222848  53.7530813  17.1723178  62.1045714
  54.3004094  18.3125553  62.6327801  54.1104611  17.5540299  62.6879345
  41.6212201   7.4678477  62.7713730  42.0011166   7.8863022  62.1073998
  41.0467566   8.0491932  63.0782574  41.5923526   7.6156335  62.7190471
  54.3090696  14.0406451  62.7628878  53.9505351  14.2121094  63.5392911
  53.8229407  14.5019657  62.2056877  54.1849393  14.1345422  62.7954147
  49.0979062   9.7205617  55.3029113  49.3871587  10.4970499  55.5772687
  49.1850861   9.2094348  56.0043612  49.1533318   9.7597535  55.4471610
  55.4695436  14.9310347  73.7096079  56.1075156  14.4370543  73.3758535
  54.8269527  14.8587748  73.1248306  55.4689662  14.8469356  73.5738434
  57.1952436   6.7799493  68.2761995  56.7680044   6.6925842  67.5210094
  56.5578489   6.8877269  68.8616839  57.0382043   6.7832153  68.2507436
  55.5249692  15.6230156  70.3501436  56.3142070  15.2719220  70.4703517
  55.6993290  16.4366544  70.0878070  55.6669974  15.6916013  70.3289304
  45.2643003   9.0338881  67.4029225  44.4231009   8.9342756  67.6108118
  45.4733011   9.8034362  67.7543545  45.1707695   9.1330925  67.4856540
  42.7418570   6.6558418  65.2313975  42.3475267   6.7301430  64.4564085
  42.1858686   7.0416365  65.7822337  42.6021382   6.7240193  65.1981635
  49.0759668   6.9620281  66.6526822  48.7722805   6.4076269  67.2537230
  48.3739088   7.1412491  66.1654856  48.9275877   6.9065063  66.6696528
  48.1325765   4.2720800  61.2171524  48.4085499   3.5539713  60.8049092
  48.7324434   4.8705720  61.0092630  48.2619029   4.2541171  61.1252285
  47.1378019  14.1770001  71.3598920  47.0298373  14.1872063  72.2260978
  47.3473800  15.0024782  71.1703874  47.1528130  14.3011076  71.4603012
  45.1551811  11.4282644  68.8220858  44.5639744  12.0692142  68.7923873
  45.9172834  11.8520261  68.7952157  45.1800071  11.5858482  68.8136005
  54.9141327  16.8791955  66.2552882  54.7161015  17.3682770  65.5609093
  54.2929038  17.0833197  66.8337015  54.7928891  16.9808494  66.2376105
  48.9749305   8.6476852  60.5963126  49.7191350   9.0351128  60.8346076
  49.1210001   7.8034277  60.7603614  49.1059890   8.5807325  60.6557096
  51.9627181   4.2202325  66.4957046  51.4887135   3.6944087  67.0062356
  52.3345317   3.6731798  65.9271907  51.9477070   4.0618322  66.4872193
  58.2263912   9.2804701  67.9063826  57.9862134   8.4411116  67.9106253
  58.7055919   9.3604868  68.6304600  58.2616095   9.1686101  68.0138628
  53.8910681   5.1138880  59.5582799  53.3633699   5.1967624  58.8688508
  54.3506389   5.8556751  59.5547444  53.8812531   5.2359542  59.4557495
  60.2269099   6.0606158  65.8593085  59.9878869   6.0201992  65.0213870
  60.3903000   6.9077310  65.9858806  60.2159402   6.1798243  65.7546567
  56.8315129  10.4456108  71.7898130  57.5549328   9.9928634  71.6109150
  56.5665091  10.7260773  71.0070458  56.8996402  10.4207076  71.6476846
  45.7001997   5.0416281  68.5251010  45.0755067   5.0534673  67.9176962
  45.3647592   5.5176456  69.1742250  45.5587489   5.1134798  68.5307578
  45.8843746   3.3841400  54.5823695  45.5356550   4.0361125  55.0455244
  45.4040192   3.3698513  53.8547566  45.7613990   3.4784453  54.5434786
  42.4127673  13.1016741  69.9654774  41.8827597  12.4109180  70.0149749
  42.6852766  13.0926927  69.1367482  42.3752395  12.9983873  69.8502190
  53.4447763  13.6842444  58.6892456  54.1681962  14.1500557  58.5457030
  53.0048354  13.7516053  57.9390053  53.4863455  13.7626280  58.5577238
  52.6133918  10.5439986  69.9393145  51.9990911   9.9998036  70.2341781
  53.1301203  10.0304222  69.4598962  52.5989581  10.3876395  69.9117374
  51.8530215  11.6144256  67.6737444  51.4257823  10.9893974  67.2402879
  51.8455160  11.3319178  68.4996451  51.7889357  11.4797036  67.7317272
  37.6923515   9.7744505  67.3223122  37.5866964   9.7291350  66.4575206
  36.9423735  10.1198286  67.6037407  37.5659118   9.8185413  67.2360452
  46.4617247   1.2183829  67.2685722  46.5015619   1.7193035  67.9820430
  45.6366912   1.3094222  66.9991645  46.3456773   1.3065645  67.3336261
  47.8831611   7.7344338  69.5659621  47.0523540   7.9018156  69.3594869
  47.8283128   7.3580289  70.3508507  47.7521026   7.7034070  69.6508149
  46.2567655   6.0099930  60.0949739  46.3970616   6.5072394  60.7978380
  46.7550187   5.3086224  60.2363953  46.3508735   5.9801909  60.2201318
  46.2867877   6.8767041  57.4242316  46.9212956   7.4727466  57.3591778
  46.3693488   6.5770499  58.2388186  46.3924428   6.9207949  57.5345402
  47.8646860   2.8081016  57.3987758  48.1862701   2.3284099  56.7447020
  48.1273804   3.6180662  57.2078570  47.9512885   2.8570914  57.2743250
  51.0943833  13.8299891  70.9186574  50.5868924  14.3835738  71.3627204
  50.7970479  13.8908181  70.1005348  50.9748717  13.9206202  70.8635031
  42.7920865   9.0734882  60.6931862  43.3013094   9.6699389  61.0743167
  43.2655137   8.8060855  60.0108282  42.9364240   9.1220697  60.6486385
  53.7051613  17.7463148  58.8490517  52.9880923  17.5724011  58.3837755
  54.3558350  17.5115721  58.3166004  53.6953463  17.6858941  58.7019735
  56.2899584   6.6227737  62.5931823  55.6190774   7.1657439  62.4644888
  56.9839334   7.0922592  62.3513517  56.2928452   6.7726008  62.5387350
  50.3386318  18.7624449  67.8243581  50.1151972  18.0043278  68.1927607
  49.8496161  18.7922470  67.1024021  50.2329767  18.6546674  67.7720322
  45.1511397   5.7091140  63.5605042  44.4323386   6.1255273  63.8277906
  45.5223759   6.2745379  63.0096680  45.1003328   5.8540422  63.5187849
  54.4510977   6.3418989  69.4507038  54.4308905   6.1602284  70.3041817
  54.4990178   7.2131008  69.4266622  54.4545618   6.4435527  69.5730333
  52.3957307  12.9306181  75.3755515  52.3553162  12.2855858  74.7900670
  53.2080625  12.8742799  75.6880927  52.5100461  12.8265148  75.3352464
  48.9864775  18.9824907  65.2780666  48.5725173  18.3199037  64.8884507
  49.6712149  19.1302766  64.7576360  49.0263146  18.9065565  65.1437163
  52.3530069  18.1414992  66.0304282  51.9546352  18.2517263  65.2625102
  51.7381288  18.3497059  66.6130842  52.2028958  18.1888560  66.0035581
  50.9257971   4.7489140  58.8978422  50.3322810   5.0706137  58.3462989
  50.9633249   3.9030236  58.6899528  50.8432360   4.6713468  58.7861193
  53.8015787   4.7068645  62.3280172  53.5729480   4.7301346  61.4858530
  54.0613864   3.8826112  62.4475183  53.8061976   4.5884725  62.2205370
  46.8560550   3.2445191  63.6234368  47.3317916   3.6062271  62.9884549
  46.3549150   3.9001659  63.9034510  46.8525909   3.3939380  63.5711109
  60.0871912  12.7166959  59.4147373  60.4705517  13.4658315  59.6445470
  59.2916025  12.9632779  59.1559362  60.0265694  12.8636653  59.4104946
  48.8987203   5.3886391  56.9907752  49.2786168   5.4066020  56.2058866
  48.1579799   5.8340380  56.8698599  48.8456041   5.4568165  56.8571320
  38.5889765   7.1208366  66.9942147  38.4111526   6.6684975  67.7197062
  38.3008787   7.9234528  67.1780624  38.5202718   7.1730924  67.1285650
  54.2513346   8.3766084  66.2319537  54.7467011   7.6589079  66.1923557
  53.4413121   8.0736881  66.1174024  54.2057239   8.2263730  66.2093263
  49.6971957  12.2263897  58.3816542  48.8883280  11.9030571  58.3349851
  50.2046866  11.5197119  58.3144790  49.6521624  12.0745213  58.3646836
  40.3262234   9.6536090  64.1063906  39.4607754   9.6421781  63.9946677
  40.4261050   9.4666313  64.9535045  40.2136401   9.6242151  64.2152850
  56.3165165  11.1269771  68.9196666  56.7420236  10.6044193  68.3667091
  55.9522084  11.7250609  68.3985289  56.3251767  11.1379998  68.7605676
  45.9519244  19.4233989  67.6794011  46.2665803  20.2370377  67.6871793
  46.3612658  19.0384207  68.3476171  46.0587342  19.4862691  67.7798103
  52.9043764  14.8404036  65.2497823  53.3754942  15.5544298  65.4187809
  53.2403943  14.2402786  65.7857693  53.0238879  14.8575500  65.3530199
  53.5417710  14.6321970  72.0125516  52.9938656  14.0079853  71.7445581
  54.0030739  14.8216242  71.2969595  53.5284920  14.5681020  71.8675947
  43.2932265  13.3707097  67.3272620  43.8977122  13.3302931  66.6986441
  43.0859577  14.2178249  67.3576676  43.3521162  13.4895100  67.2388736
  53.1076037  15.6373042  68.5434857  53.9274410  15.4936008  68.8051152
  52.8270114  16.2619241  69.0851295  53.1872780  15.7083394  68.6622797
  38.5283547  12.3541715  67.1971543  38.4307825  11.5437986  67.5061600
  39.3112416  12.3333508  66.8117811  38.6299683  12.2308805  67.1858406
  69.5789687  23.2937894  61.5077734  69.5483691  24.1482531  61.6796003
  70.1771036  22.9933187  62.0663877  69.6626845  23.3754391  61.6152536
  62.7789372  22.3813545  66.2630664  61.9227267  22.5422043  66.3139781
  62.8257026  21.5105609  66.2835725  62.6588483  22.2764347  66.2736730
  57.1630512  31.9176263  62.0267896  56.4113411  31.5391801  61.7983941
  57.6116523  31.9494697  61.2786706  57.1180178  31.8661870  61.8825398
  62.6155471  32.3401633  57.4553443  62.2806840  33.0178554  57.0197665
  63.1282342  31.9506944  56.8670314  62.6421053  32.3826211  57.3040234
  62.1559763  34.2915901  63.3964554  62.5399142  34.8602800  62.8569330
  62.0918904  33.5665412  62.9170370  62.2033190  34.2691365  63.2458417
  65.6241193  24.4405589  68.9062316  66.1697153  25.1190676  68.9656285
  65.5658069  24.2993050  68.0463897  65.6957107  24.5197591  68.7874376
  58.7415268  31.9294655  64.2930668  58.8425631  31.1195009  64.6027796
  58.1457013  31.8351602  63.6630347  58.6687806  31.7959683  64.2456907
  67.4006262  25.8690196  59.7796043  67.2845787  26.6197882  60.2088182
  68.1962148  25.6114149  60.0292131  67.5010851  25.9425043  59.8800135
  58.5816007  36.8472244  65.6945524  59.2253463  37.2885408  66.0841683
  58.9072263  36.0425671  65.6075783  58.7247836  36.7937439  65.7391001
  51.9380312  27.9514942  63.9183002  51.7030496  27.1182594  63.8115271
  52.0765953  28.2319607  63.1044203  51.9235974  27.8698445  63.7825357
  54.2370399  20.1200672  66.8167309  53.6175431  19.5293320  66.6477324
  54.1354263  20.7112108  66.1831633  54.1308075  20.1204755  66.6972299
  59.2836587  29.8584219  61.0665386  59.6052428  30.3989427  60.4626694
  59.9308684  29.2880991  61.1987676  59.4262642  29.8543394  60.9972421
  61.3338295  21.8600214  61.1499773  62.0318460  22.0388342  61.6421236
  61.6490628  21.3370553  60.5270162  61.4833632  21.8093986  61.1301783
  53.9639533  23.6652954  69.0610878  53.8398229  24.2515400  69.6960697
  54.6157817  23.1713150  69.3623153  54.0413182  23.6791758  69.1996808
  61.5226231  28.2470659  61.1379564  61.9619866  27.6387760  61.5834337
  61.3730893  27.8678032  60.3665029  61.5647696  28.1009130  61.0898731
  58.9897874  26.8414671  68.3398390  59.6346876  26.3487114  68.0209338
  59.2299651  26.9839458  69.1664468  59.1208459  26.7892113  68.4147923
  61.5283965  29.6869577  67.9905282  61.8107208  28.8920983  67.7692038
  62.2570125  30.1650164  68.0110343  61.6773529  29.6404174  67.9608297
  59.5065159  17.2292611  65.2321047  59.1768489  17.6803754  64.5624746
  58.8310161  17.1508774  65.7794054  59.3575595  17.2843746  65.2144270
  65.1235567  26.5997840  58.0910333  65.0386862  27.4558807  58.2359902
  65.6119950  26.3242165  58.7592492  65.1824464  26.6855162  58.2112415
  66.7141566  13.2178134  63.4770658  66.3995007  13.9081612  63.9091080
  66.1968508  13.1622916  62.7756159  66.5906037  13.3113022  63.4367607
  66.0554000  23.2182635  59.5908068  65.5265472  23.4342268  60.2505375
  66.5779020  23.9118773  59.5109038  66.0542453  23.3525772  59.6763668
  71.5102053  28.7928939  64.9641113  70.6799756  29.0039583  65.1274529
  71.4611306  27.9665994  64.6883396  71.3808789  28.7018545  64.9478478
  57.9453608  27.1145851  58.3915536  57.3610823  27.6195883  58.7981400
  57.5423703  26.8888238  57.6512128  57.7992912  27.1554100  58.3420562
  53.4997637  32.8300613  65.1939208  53.0165215  33.5551102  65.1698792
  54.3120955  33.1276743  65.3049366  53.5488384  32.9802966  65.2066487
  59.5711791  31.6232793  67.7989022  59.0538732  31.2640208  67.1950330
  60.2686182  31.0994968  67.8095089  59.5977372  31.4930481  67.7119281
  63.2275383  32.0727607  73.7605195  63.3158729  31.8853748  74.6083406
  63.6565095  31.4265037  73.3610042  63.3037485  31.9490615  73.8276947
  60.7945843  31.3558767  72.7422858  60.2316677  30.9431377  73.2662519
  61.5566866  31.2811673  73.1616001  60.8240291  31.2836168  72.8815858
  62.4030823  23.3611503  56.8684457  62.6426826  23.5689487  56.0559800
  62.7246664  22.5569012  56.9773402  62.4867980  23.2725605  56.7645010
  57.7121113  15.2904899  60.7143995  58.4667081  15.6583216  60.4761045
  57.5348647  15.6644454  61.4823175  57.7975591  15.4003087  60.7928883
  56.3541834  33.3456788  65.3459488  57.0562413  32.8308777  65.4032244
  56.2739317  33.6730940  66.1506363  56.4465594  33.3171015  65.4732280
  57.4020741  23.5832375  74.4739903  57.5741244  23.4738270  75.3225184
  57.9390098  24.2286781  74.2371095  57.5065745  23.6624377  74.5645000
  56.0678177  17.6975218  57.4122108  55.8853751  17.9147099  56.5863101
  56.9303790  17.8114231  57.4680722  56.1682767  17.7465116  57.2976595
  55.6792609  29.5363140  64.8545096  56.5181509  29.7686073  64.9018857
  55.7104379  28.6667452  64.7852131  55.8074327  29.4420087  64.8509740
  56.3045312  29.9564016  69.1558401  56.8443537  29.8135147  69.8261774
  55.6215259  30.3560766  69.5242428  56.2837466  29.9943687  69.3092823
  61.7477897  14.7001629  60.4471132  62.4764057  14.5217584  60.0009288
  61.8372790  15.5419709  60.6578310  61.8684559  14.7985507  60.4124649
  65.7286197  25.6355016  64.3503426  66.4843712  26.0686531  64.3892334
  65.8348522  24.9859786  64.9238062  65.8556368  25.6032500  64.4401451
  68.7666368  29.4628294  65.1005829  68.3301600  29.4665036  65.8564800
  68.4329284  30.1433792  64.6685406  68.6528988  29.5640749  65.1486661
  63.3395442  31.5036626  76.4248979  64.1235859  31.6167474  76.7904721
  63.1392037  30.6777763  76.6207665  63.4261467  31.3983346  76.5083365
  51.7082457  26.1764306  69.3092823  51.4420873  25.3603423  69.4683813
  51.7221022  26.2217462  68.4388338  51.6707180  26.0621211  69.2046305
  55.6140204  20.9749391  55.9244581  54.8998382  20.6887570  56.3367013
  56.0984173  21.3146017  56.5650968  55.5799568  20.9831040  56.0800216
  56.4581064  19.7142685  71.9559831  55.7652861  19.2439664  72.2020562
  57.0741391  19.4880989  72.5301538  56.4465594  19.6109817  72.0768983
  71.9010715  26.1809213  63.9925466  72.5627149  25.6199882  63.8921374
  71.2602127  25.6861244  64.3178157  71.9039582  26.0245622  64.0257806
  62.7887522  29.4779345  56.3006389  63.2038671  29.1464369  55.6090885
  61.9579452  29.2448247  56.1726526  62.7275531  29.3950601  56.1797237
  52.1175871  26.9623086  66.5904567  51.9351444  26.9369972  65.7376859
  52.8525540  27.4322024  66.6293476  52.1989935  27.0284448  66.4702486
  68.1875545  27.1974596  63.7337455  68.4231135  27.3419795  62.9064305
  68.3365109  27.9617004  64.1268968  68.2441349  27.3313650  63.6701059
  55.1821623  23.6808089  73.0986676  55.9061595  23.6661119  73.5851571
  55.2837759  24.3903444  72.6008644  55.3039832  23.7832792  73.0965463
  70.0166002  26.0376262  61.5707058  70.3474219  26.5703902  60.9647153
  70.5899090  26.0915149  62.2269009  70.1499681  26.1245831  61.5784840
  65.2297891  23.8841164  62.2530639  65.3244746  24.6230459  62.7070264
  64.6056735  23.4558640  62.6865203  65.1506921  23.9302485  62.3838786
  63.4850365  27.0627377  72.9020919  64.0589227  26.4254621  73.0569483
  63.4065169  27.0631459  72.0330577  63.5583600  26.9692488  72.7967330
  52.0846781  23.8416587  66.7403634  52.6620284  23.7053037  67.3795879
  51.3860843  23.3852371  66.9949218  52.0667803  23.7538853  66.8725923
  65.4820913  25.7289904  55.4867591  65.4001075  25.7992091  56.3522578
  66.1200633  26.2919648  55.2951331  65.5640750  25.8228875  55.5857540
  58.8414084  25.4950642  64.9542117  58.5833328  24.6622377  64.9273416
  58.8962566  25.7208255  64.1134617  58.8113862  25.4048413  64.8262254
  63.9215134  17.5979093  65.0546210  63.2171461  17.1088278  65.2130129
  63.9700108  17.6101567  64.1834654  63.8245185  17.5268741  64.9485549
  57.8148796  23.0488405  65.4407012  57.2398387  23.2080573  66.0770973
  57.4384472  22.4123814  64.9775462  57.6751608  22.9786218  65.4661570
  61.4822084  21.5211754  70.2999390  61.0936517  21.0965972  69.6451581
  60.8176783  21.7693904  70.8076417  61.3269012  21.4950475  70.2787258
  71.1245354  21.2786759  63.0747220  70.8681918  20.4666700  62.8845103
  71.9674668  21.2864326  62.8477407  71.2111379  21.1598756  63.0132037
  47.5605615  22.6928479  63.4551452  47.6465867  22.3160348  64.2364982
  48.1881412  22.3188925  62.9771411  47.6662166  22.5813962  63.4996930
  62.5861023  25.7510359  58.4976197  63.4001662  26.0425251  58.3858968
  62.5220164  25.0970221  57.9234490  62.6963762  25.6975553  58.3965034
  58.4568931  29.2231876  63.6248509  59.0942878  28.9843623  64.1700303
  58.8824003  29.4269035  62.8901670  58.6145097  29.2182886  63.5965666
  53.1481573  31.4620212  67.5082813  53.1885719  31.7335064  66.6802593
  53.7076097  31.9862121  67.9240601  53.2364919  31.5795968  67.4474701
  59.0971746  24.4434166  57.9623399  59.4816899  24.2241872  58.7139944
  58.8483366  25.2697111  58.0924475  59.1173819  24.5332312  58.0924475
  69.8306933  28.2180803  68.9734067  69.5252751  28.9508860  69.3347383
  69.1113149  27.8118733  68.6926853  69.6794276  28.2662536  68.9847204
  60.8390403  29.7004299  65.3042295  60.9129411  29.5379470  66.1584145
  61.6559909  29.8894488  65.0602777  60.9706762  29.7041041  65.3940321
  54.5996160  30.0462161  62.3336739  53.7734277  30.2923899  62.2071018
  54.6608151  29.9674242  63.1998797  54.4870327  30.0707110  62.4425683
  56.8172183  16.1131102  63.2932179  55.9494609  16.1853702  63.3589788
  57.1047388  16.9153181  63.4820154  56.7311931  16.2425249  63.3306946
  59.3794989  32.6639042  60.0355769  59.6693287  32.2728023  59.3114995
  60.1098469  32.8455747  60.4761044  59.5301873  32.6332855  59.9938576
  59.9689734  27.4656788  71.1208899  59.4701427  28.1772555  71.1993788
  60.7789958  27.7857454  71.0827062  60.0145841  27.6183636  71.1265468
  57.3200904  34.6406424  63.1015919  57.1001200  34.3503779  63.8942586
  57.0995426  33.9821379  62.5733831  57.2548498  34.5006132  63.1404827
  56.2317851  26.7279741  65.3671620  55.9431100  26.1017212  65.9017347
  57.1001199  26.6700028  65.4336301  56.3178103  26.6267285  65.4562575
  67.0195749  21.8714524  65.6853602  66.6760515  21.1504859  66.0360852
  67.1188792  21.6628375  64.8431960  66.9837792  21.7338727  65.6125282
  59.4868860  36.0135814  61.8846611  60.1392918  35.4812256  62.1137637
  58.7894469  35.6604466  62.2714485  59.4799578  35.8825337  61.9758779
  56.4350125  28.3674992  61.2913985  57.1896093  28.7488031  61.5049448
  55.8420737  28.8186135  61.7460682  56.4586838  28.4903819  61.3896864
  67.4808778  28.3340228  61.2277590  68.0466811  28.9933438  61.1436133
  66.8336682  28.6789926  61.6993992  67.4687535  28.4822169  61.2850347
  58.8956792  20.3237832  76.4171198  58.0856568  20.6295612  76.3061040
  59.3731479  21.0443414  76.5323782  58.8460271  20.4752433  76.4178269
  57.7548351  29.5383553  66.6654101  57.2329105  29.6783845  67.3505965
  58.1422372  28.7794217  66.8556218  57.7352052  29.4469077  66.7955177
  54.7439535  19.5889362  60.7349055  54.4564331  19.2190632  59.9981003
  55.4310004  20.0584217  60.4732760  54.8028433  19.6036331  60.5864131
  63.9515356  31.2779012  60.6514669  63.7102032  30.5446873  60.2441734
  64.1316689  31.8265869  59.9981003  63.9422980  31.2501403  60.4944892
  59.1814677  26.5687572  62.0635592  58.9857460  27.1762307  61.4695895
  59.4049023  25.8755516  61.5827266  59.1849318  26.5565098  61.9051673
  57.5793207  23.4542310  62.1816460  58.3015859  23.6183468  61.7220266
  57.1001200  24.1751975  62.0755800  57.6156938  23.5840539  62.0982074
  65.5386715  19.7906109  67.5613145  64.6997815  19.8167388  67.3251408
  65.6091082  20.4376844  68.1418492  65.4255108  19.8902235  67.6122262
  55.2300824  25.8600382  71.2870600  55.7421921  26.1384636  70.6379360
  54.9437166  26.5989676  71.6533413  55.2635687  26.0102736  71.2460478
  63.9855993  16.6891486  62.2940761  64.6882346  16.4899234  61.8160719
  63.7200182  15.9167428  62.6009604  64.0502625  16.5454452  62.2686202
  69.4144238  24.9974095  64.8474387  69.3278213  25.1529522  65.7009166
  68.9594718  25.6412171  64.4733792  69.3347495  25.1149851  64.9181494
  52.3167730  20.3670574  61.5834336  52.4183866  21.1696736  61.9115312
  53.1123617  20.1657910  61.2857417  52.4495636  20.4556473  61.5869692
  58.7484549  17.9526771  71.3471642  58.5567746  17.9681905  72.1971065
  59.5983145  18.1490445  71.3238296  58.8460271  17.9841122  71.4694936
  53.1331462  20.4817752  69.3255458  52.9916954  19.6301693  69.4499966
  53.4172026  20.5246413  68.5017664  53.1539308  20.3617502  69.2223082
  63.2870055  22.3184843  63.4699946  63.0404769  22.2380593  64.3036735
  63.6155178  21.5338310  63.2762474  63.2991298  22.1911108  63.5647469
  67.1818103  29.0268202  67.2586727  67.0432463  29.7249248  67.7635470
  66.4018101  28.8716858  66.9022909  67.0461330  29.1068369  67.2813002
  59.2467082  25.0541561  72.8822929  59.3910458  25.6342769  72.2466039
  59.5942730  25.4317858  73.5872784  59.3194543  25.1962265  72.8921924
  61.4186999  24.2531730  70.6648061  60.6710313  24.4462744  70.2596339
  61.5728524  23.4276949  70.4272182  61.3309427  24.1596841  70.5693467
  58.3194837  33.2444333  69.7483956  58.4684401  32.6847249  69.0957361
  59.0994839  33.3236335  70.1316475  58.4568930  33.1729898  69.7080905
  68.6771476  28.3846456  58.0203227  68.2978285  27.5983594  58.0132516
  68.0137722  28.9333313  57.8774871  68.5229951  28.3491280  57.9984024
  60.8448137  33.4158976  71.0268447  60.7691809  32.7467786  71.5819235
  60.7737997  34.1176764  71.5409113  60.8228744  33.4203883  71.1845295
  61.6588776  18.1482280  71.5543465  62.1161390  18.8806255  71.6816257
  61.7345105  17.7248746  72.3130720  61.7379746  18.1939518  71.6844541
  53.9021767  18.3948100  72.6432908  53.3663957  17.7828458  72.9593676
  53.9639532  18.9696236  73.2966575  53.8317400  18.3895028  72.7868335
  61.5018384  31.9359975  61.8592053  62.2668275  31.6669618  61.5374717
  61.3996474  31.4509985  62.5762116  61.5999880  31.8249539  61.9171881
  59.5371154  20.1384384  68.3985289  58.7467229  19.9575844  68.7202624
  59.9331777  19.3611337  68.3815583  59.4788030  19.9971845  68.4437837
  64.0237045  28.9672159  53.8392002  64.7910030  29.0272283  53.4297854
  63.5768354  28.3952600  53.3548321  64.0710472  28.8908734  53.7069713
  64.9214840  27.7726814  66.1244735  64.2459842  27.5412047  66.6258122
  64.9307216  27.1647997  65.4986840  64.8233345  27.6485740  66.1060887
  62.0508984  22.6144643  72.8808788  61.9868126  23.4754600  72.7528924
  62.1906172  22.2976637  72.0804339  62.0624454  22.6944810  72.7437000
  66.9231575  30.6291947  58.3554913  67.0051412  31.4358933  58.0316363
  67.4081317  30.6487906  59.0795686  67.0068733  30.7512609  58.4141811
  60.7328078  25.3076783  67.0224990  60.3090327  25.5081282  66.2864009
  60.5572933  24.4605631  67.1349290  60.6438959  25.2125564  66.9298681
  60.2339772  36.8227296  69.4846448  60.7235702  36.1238085  69.3022112
  59.6624004  36.5251166  70.0722505  60.2224302  36.6753519  69.5447489
  56.0210523  25.8028834  62.4552963  56.1775142  25.7375637  63.3108955
  56.3611116  26.5777387  62.2431643  56.0943758  25.9078032  62.5507557
  62.5589668  25.1786718  61.3246326  63.1005213  24.6757099  61.7884947
  62.8736227  25.1251912  60.5135811  62.6854065  25.0966139  61.2730138
  60.7276118  30.5704069  58.6086354  60.7968938  29.7118608  58.7479355
  61.5064573  30.7875950  58.2805379  60.8528968  30.4756933  58.5803512
  63.7078937  20.0723022  71.3768627  63.9220907  19.4333936  70.8231981
  63.0912836  20.5168846  70.9476488  63.6484266  20.0433166  71.2319058
  65.1183605  32.9941770  62.8222848  64.7263397  32.6908486  62.1045714
  65.2736677  33.8310860  62.6327801  65.0837195  33.0725607  62.6879345
  52.5944785  22.9863785  62.7713730  52.9743750  23.4048329  62.1073998
  52.0200150  23.5677240  63.0782574  52.5656110  23.1341643  62.7190471
  65.2823280  29.5591759  62.7628878  64.9237935  29.7306402  63.5392911
  64.7961991  30.0204965  62.2056877  65.1581977  29.6530730  62.7954147
  63.0993666  13.1822958  66.3655970  62.2287224  13.1561679  66.3189279
  63.3534007  13.0100150  65.5481815  63.0087226  13.1533102  66.2376106
  60.0711645  25.2390925  55.3029113  60.3604170  26.0155807  55.5772687
  60.1583444  24.7279656  56.0043612  60.1265902  25.2782843  55.4471610
  60.1242806  15.1929186  67.8229440  59.6081295  14.5009378  67.9481019
  59.5636735  15.8599963  67.7692039  59.9649320  15.1892444  67.8335506
  62.1935040  15.7322146  69.6522292  61.8066793  15.7571178  70.4335822
  61.7067977  15.1663825  69.1996809  62.0647549  15.6517897  69.7010196
  66.4428019  30.4495655  73.7096079  67.0807740  29.9555851  73.3758535
  65.8002111  30.3773056  73.1248306  66.4422246  30.3654664  73.5738434
  68.1685019  22.2984801  68.2761995  67.7412627  22.2111150  67.5210094
  67.5311072  22.4062577  68.8616839  68.0114627  22.3017461  68.2507436
  66.4982276  31.1415464  70.3501436  67.2874654  30.7904528  70.4703517
  66.6725874  31.9551852  70.0878070  66.6402557  31.2101321  70.3289304
  56.2375586  24.5524189  67.4029225  55.3963593  24.4528063  67.6108118
  56.4465594  25.3219670  67.7543545  56.1440279  24.6516233  67.4856540
  53.7151153  22.1743726  65.2313975  53.3207851  22.2486738  64.4564085
  53.1591270  22.5601673  65.7822337  53.5753966  22.2425501  65.1981635
  65.3516100  15.1525020  64.9117854  65.5565693  15.0847328  65.7574851
  65.0242524  15.9583841  64.8439032  65.3331348  15.2610961  65.0277509
  59.1058348  19.7906108  61.2171524  59.3818083  19.0725021  60.8049092
  59.7057018  20.3891028  61.0092630  59.2351613  19.7726479  61.1252285
  58.1110602  29.6955309  71.3598920  58.0030957  29.7057371  72.2260978
  58.3206384  30.5210090  71.1703874  58.1260713  29.8196384  71.4603012
  68.6049788  15.7056785  64.3920620  67.9924101  16.1927187  64.7774351
  68.7013963  15.0300275  64.9358271  68.5287685  15.6775093  64.5299478
  62.6068869  17.4619626  59.4918119  63.0612615  17.6330186  60.2165964
  63.0808914  16.8487736  59.0915895  62.7437189  17.3970511  59.5391881
  56.1284394  26.9467952  68.8220858  55.5372327  27.5877450  68.7923873
  56.8905418  27.3705569  68.7952157  56.1532655  27.1043790  68.8136005
  56.5245017  18.1069949  69.4888875  56.9846498  18.1808879  70.2263999
  56.5701124  18.9051203  69.1388696  56.5995572  18.2364096  69.5461632
  58.1728367  18.7736644  74.0560902  57.7813932  18.1269991  74.4916680
  58.3414229  19.3648080  74.6755158  58.1399277  18.7650912  74.2123608
  65.8873910  32.3977263  66.2552882  65.6893599  32.8868078  65.5609093
  65.2661621  32.6018505  66.8337015  65.7661475  32.4993801  66.2376105
  59.9481889  24.1662160  60.5963126  60.6923934  24.5536436  60.8346076
  60.0942585  23.3219585  60.7603614  60.0792474  24.0992633  60.6557096
  61.8661464  15.9612419  65.6294988  61.0197509  16.1335227  65.5036337
  61.8632597  15.1561763  65.9660816  61.7408614  15.8673448  65.6606115
  62.9359765  19.7387633  66.4957046  62.4619719  19.2129395  67.0062356
  63.3077900  19.1917106  65.9271907  62.9209654  19.5803630  66.4872193
  53.3132795  21.7359140  71.8640591  54.1758408  21.6354849  71.7777921
  52.9824578  21.1553849  71.3026163  53.3917991  21.6350767  71.7685997
  69.1996495  24.7990009  67.9063826  68.9594718  23.9596424  67.9106253
  69.6788502  24.8790176  68.6304600  69.2348679  24.6871409  68.0138628
  64.8643264  20.6324188  59.5582799  64.3366283  20.7152932  58.8688508
  65.3238972  21.3742059  59.5547444  64.8545115  20.7544850  59.4557495
  71.2001682  21.5791466  65.8593085  70.9611452  21.5387300  65.0213870
  71.3635583  22.4262618  65.9858806  71.1891986  21.6983551  65.7546567
  67.8047712  25.9641415  71.7898130  68.5281911  25.5113942  71.6109150
  67.5397675  26.2446081  71.0070458  67.8728986  25.9392384  71.6476846
  56.6734581  20.5601589  68.5251010  56.0487651  20.5719981  67.9176962
  56.3380176  21.0361764  69.1742250  56.5320073  20.6320106  68.5307578
  56.8576329  18.9026708  54.5823695  56.5089134  19.5546433  55.0455244
  56.3772775  18.8883821  53.8547566  56.7346573  18.9969761  54.5434786
  53.3860256  28.6202049  69.9654774  52.8560181  27.9294488  70.0149749
  53.6585350  28.6112234  69.1367482  53.3484979  28.5169181  69.8502190
  64.4180347  29.2027751  58.6892456  65.1414546  29.6685864  58.5457030
  63.9780938  29.2701361  57.9390053  64.4596039  29.2811588  58.5577238
  63.5866502  26.0625294  69.9393145  62.9723495  25.5183344  70.2341781
  64.1033787  25.5489530  69.4598962  63.5722164  25.9061703  69.9117374
  62.8262799  27.1329564  67.6737444  62.3990407  26.5079282  67.2402879
  62.8187743  26.8504486  68.4996451  62.7621940  26.9982344  67.7317272
  55.9425326  22.1694737  70.7425878  56.1018813  21.4138061  71.1477600
  55.7618220  22.7185676  71.3966616  55.9390685  22.1388551  70.8988584
  61.1548509  18.0098318  67.8879978  61.1790996  17.4758431  67.1992758
  61.4059982  17.5015627  68.5505569  61.1958427  17.8559222  67.8844623
  48.6656098  25.2929813  67.3223122  48.5599548  25.2476658  66.4575206
  47.9156318  25.6383594  67.6037407  48.5391701  25.3370721  67.2360452
  57.4349831  16.7369137  67.2685722  57.4748202  17.2378343  67.9820430
  56.6099496  16.8279530  66.9991645  57.3189357  16.8250953  67.3336261
  59.6179444  26.3029877  75.3706017  58.7675074  26.4401591  75.5063662
  59.7807571  25.5693655  75.8153719  59.5163307  26.2143978  75.4561616
  58.8564194  23.2529646  69.5659621  58.0256124  23.4203464  69.3594869
  58.8015711  22.8765597  70.3508507  58.7253609  23.2219378  69.6508149
  57.2300238  21.5285238  60.0949739  57.3703199  22.0257702  60.7978380
  57.7282771  20.8271532  60.2363953  57.3241319  21.4987217  60.2201318
  57.2600460  22.3952349  57.4242316  57.8945540  22.9912774  57.3591778
  57.3426071  22.0955807  58.2388186  57.3657011  22.4393257  57.5345402
  58.8379443  18.3266324  57.3987758  59.1595284  17.8469407  56.7447020
  59.1006387  19.1365970  57.2078570  58.9245469  18.3756222  57.2743250
  62.0676416  29.3485199  70.9186574  61.5601507  29.9021046  71.3627204
  61.7703062  29.4093489  70.1005348  61.9481301  29.4391510  70.8635031
  64.2338598  17.7138518  69.7611237  64.6593670  17.2611045  69.1494763
  63.6195591  17.1598589  70.0376024  64.2067244  17.5652495  69.7116262
  53.7653448  24.5920190  60.6931862  54.2745678  25.1884697  61.0743167
  54.2387721  24.3246163  60.0108282  53.9096824  24.6406005  60.6486385
  64.6784196  33.2648456  58.8490517  63.9613506  33.0909319  58.3837755
  65.3290934  33.0301029  58.3166004  64.6686047  33.2044249  58.7019735
  62.6732821  14.1853618  63.1701814  62.0301139  14.0351264  63.7386952
  62.3332228  13.9395963  62.4050919  62.5277899  14.1265741  63.1404829
  67.2632168  22.1413045  62.5931823  66.5923358  22.6842747  62.4644888
  67.9571918  22.6107900  62.3513517  67.2661035  22.2911316  62.5387350
  61.3118901  34.2809757  67.8243581  61.0884556  33.5228586  68.1927607
  60.8228745  34.3107778  67.1024021  61.2062350  34.1731981  67.7720322
  67.4260295  18.5968929  65.5022196  67.7787905  18.1698651  66.1767995
  66.5675097  18.5119772  65.6323272  67.3509740  18.5213669  65.6217206
  56.1243980  21.2276448  63.5605042  55.4055969  21.6440581  63.8277906
  56.4956342  21.7930687  63.0096680  56.0735912  21.3725730  63.5187849
  65.4243561  21.8604297  69.4507038  65.4041488  21.6787592  70.3041817
  65.4722762  22.7316316  69.4266622  65.4278202  21.9620835  69.5730333
  63.3689891  28.4491489  75.3755515  63.3285746  27.8041166  74.7900670
  64.1813209  28.3928107  75.6880927  63.4833044  28.3450456  75.3352464
  59.9597358  34.5010215  65.2780666  59.5457757  33.8384345  64.8884507
  60.6444733  34.6488074  64.7576360  59.9995730  34.4250873  65.1437163
  63.3262652  33.6600300  66.0304282  62.9278936  33.7702571  65.2625102
  62.7113872  33.8682367  66.6130842  63.1761542  33.7073868  66.0035581
  61.8990554  20.2674448  58.8978422  61.3055394  20.5891445  58.3462989
  61.9365832  19.4215544  58.6899528  61.8164944  20.1898776  58.7861193
  64.7748371  20.2253953  62.3280172  64.5462064  20.2486654  61.4858530
  65.0346447  19.4011420  62.4475183  64.7794559  20.1070033  62.2205370
  59.0567599  22.0788426  71.9305272  58.5446503  21.4709609  72.2890304
  58.8847096  22.7945018  72.3979248  58.9557237  22.0951725  72.0521496
  53.9033314  20.5226001  74.5807634  53.7335904  21.1827376  74.0355841
  53.4599264  20.7332562  75.3020123  53.8132648  20.6511983  74.6069263
  57.8293134  18.7630499  63.6234368  58.3050500  19.1247579  62.9884549
  57.3281733  19.4186967  63.9034510  57.8258493  18.9124688  63.5711109
  71.0604495  28.2352267  59.4147373  71.4438101  28.9843623  59.6445470
  70.2648608  28.4818087  59.1559362  70.9998277  28.3821961  59.4104946
  50.8035379  23.4272867  69.8396124  50.2562098  22.7573512  69.9576992
  51.5927757  23.0602714  69.9039591  50.8387562  23.2737853  69.8664824
  60.6519787  23.0880324  75.3359535  61.4031114  23.4032000  75.6499089
  60.8442364  22.8859495  74.5093457  60.7911201  23.1047705  75.2602931
  59.8719787  20.9071699  56.9907752  60.2518752  20.9251328  56.2058866
  59.1312383  21.3525688  56.8698599  59.8188624  20.9753473  56.8571320
  67.5005077  19.2153890  62.5783330  67.4999304  19.0602547  63.4367607
  67.2961257  20.0616877  62.5224716  67.4704855  19.3174511  62.6971270
  49.5622348  22.6393674  66.9942147  49.3844109  22.1870283  67.7197062
  49.2741370  23.4419836  67.1780624  49.4935301  22.6916232  67.1285650
  65.2245929  23.8951392  66.2319537  65.7199595  23.1774387  66.1923557
  64.4145705  23.5922189  66.1174024  65.1789823  23.7449038  66.2093263
  60.6704541  27.7449205  58.3816542  59.8615864  27.4215879  58.3349851
  61.1779450  27.0382427  58.3144790  60.6254208  27.5930521  58.3646836
  51.2994818  25.1721398  64.1063906  50.4340338  25.1607089  63.9946677
  51.3993634  24.9851621  64.9535045  51.1868985  25.1427459  64.2152850
  67.2897748  26.6455079  68.9196666  67.7152820  26.1229501  68.3667091
  66.9254668  27.2435917  68.3985289  67.2984351  26.6565306  68.7605676
  56.9251828  34.9419297  67.6794011  57.2398387  35.7555685  67.6871793
  57.3345241  34.5569515  68.3476171  57.0319926  35.0047999  67.7798103
  63.8776348  30.3589344  65.2497823  64.3487526  31.0729606  65.4187809
  64.2136526  29.7588094  65.7857693  63.9971463  30.3760808  65.3530199
  64.5150294  30.1507278  72.0125516  63.9671240  29.5265161  71.7445581
  64.9763323  30.3401550  71.2969595  64.5017503  30.0866328  71.8675947
  59.8638957  17.1333227  59.6735383  60.6854652  17.3031540  59.4317078
  59.4008608  17.2880488  58.9501681  59.9170120  17.1814960  59.5307027
  58.4534289  15.1275989  70.4533812  58.9978702  14.7867116  71.0438154
  58.5071225  15.9861451  70.5955097  58.5423409  15.2031249  70.5615685
  54.2664848  28.8892405  67.3272620  54.8709705  28.8488239  66.6986441
  54.0592161  29.7363557  67.3576676  54.3253745  29.0080408  67.2388736
  64.0808620  31.1558350  68.5434857  64.9006994  31.0121316  68.8051152
  63.8002698  31.7804549  69.0851295  64.1605364  31.2268702  68.6622797
  49.5016130  27.8727023  67.1971543  49.4040408  27.0623294  67.5061600
  50.2845000  27.8518816  66.8117811  49.6032267  27.7494113  67.1858406
  73.7521955  37.8998853  66.2630664  72.8959851  38.0607351  66.3139781
  73.7989609  37.0290917  66.2835725  73.6321067  37.7949655  66.2736730
  68.1363095  47.4361571  62.0267896  67.3845995  47.0577109  61.7983941
  68.5849107  47.4680005  61.2786706  68.0912762  47.3847178  61.8825398
  73.5888055  47.8586940  57.4553443  73.2539424  48.5363862  57.0197665
  74.1014925  47.4692252  56.8670314  73.6153636  47.9011519  57.3040234
  73.1292346  49.8101209  63.3964554  73.5131726  50.3788108  62.8569330
  73.0651488  49.0850719  62.9170370  73.1765774  49.7876673  63.2458417
  76.5973776  39.9590897  68.9062316  77.1429737  40.6375984  68.9656285
  76.5390653  39.8178358  68.0463897  76.6689691  40.0382899  68.7874376
  69.7147851  47.4479963  64.2930668  69.8158214  46.6380317  64.6027796
  69.1189597  47.3536910  63.6630347  69.6420390  47.3144991  64.2456907
  69.5548591  52.3657552  65.6945524  70.1986046  52.8070716  66.0841683
  69.8804846  51.5610978  65.6075783  69.6980420  52.3122747  65.7391001
  62.9112896  43.4700250  63.9183002  62.6763080  42.6367902  63.8115271
  63.0498536  43.7504915  63.1044203  62.8968558  43.3883753  63.7825357
  65.2102983  35.6385980  66.8167309  64.5908015  35.0478628  66.6477324
  65.1086847  36.2297415  66.1831633  65.1040659  35.6390063  66.6972299
  70.2569171  45.3769527  61.0665386  70.5785012  45.9174734  60.4626694
  70.9041267  44.8066298  61.1987676  70.3995226  45.3728702  60.9972421
  72.3070879  37.3785522  61.1499773  73.0051043  37.5573650  61.6421236
  72.6223211  36.8555861  60.5270162  72.4566216  37.3279294  61.1301783
  64.9372116  39.1838262  69.0610878  64.8130813  39.7700707  69.6960697
  65.5890401  38.6898458  69.3623153  65.0145765  39.1977066  69.1996808
  72.4958814  43.7655967  61.1379564  72.9352450  43.1573068  61.5834337
  72.3463477  43.3863340  60.3665029  72.5380280  43.6194438  61.0898731
  69.9630457  42.3599979  68.3398390  70.6079460  41.8672422  68.0209338
  70.2032234  42.5024766  69.1664468  70.0941042  42.3077421  68.4147923
  72.5016548  45.2054885  67.9905282  72.7839791  44.4106291  67.7692038
  73.2302709  45.6835472  68.0110343  72.6506112  45.1589482  67.9608297
  70.4797742  32.7477919  65.2321047  70.1501072  33.1989062  64.5624746
  69.8042744  32.6694082  65.7794054  70.3308179  32.8029054  65.2144270
  76.0968151  42.1183148  58.0910333  76.0119446  42.9744115  58.2359902
  76.5852534  41.8427472  58.7592492  76.1557048  42.2040470  58.2112415
  77.6874150  28.7363442  63.4770658  77.3727591  29.4266920  63.9091080
  77.1701092  28.6808224  62.7756159  77.5638620  28.8298330  63.4367607
  77.0286584  38.7367943  59.5908068  76.4998055  38.9527576  60.2505375
  77.5511604  39.4304081  59.5109038  77.0275037  38.8711079  59.6763668
  68.9186192  42.6331159  58.3915536  68.3343407  43.1381191  58.7981400
  68.5156287  42.4073546  57.6512128  68.7725495  42.6739408  58.3420562
  64.4730220  48.3485920  65.1939208  63.9897799  49.0736410  65.1698792
  65.2853539  48.6462050  65.3049366  64.5220968  48.4988274  65.2066487
  70.5444374  47.1418101  67.7989022  70.0271316  46.7825516  67.1950330
  71.2418766  46.6180276  67.8095089  70.5709955  47.0115789  67.7119281
  73.3763406  38.8796811  56.8684457  73.6159410  39.0874795  56.0559800
  73.6979247  38.0754320  56.9773402  73.4600564  38.7910913  56.7645010
  68.6853696  30.8090207  60.7143995  69.4399664  31.1768524  60.4761045
  68.5081231  31.1829762  61.4823175  68.7708175  30.9188395  60.7928883
  67.3274418  48.8642096  65.3459488  68.0294997  48.3494085  65.4032244
  67.2471901  49.1916248  66.1506363  67.4198178  48.8356323  65.4732280
  68.3753324  39.1017683  74.4739903  68.5473828  38.9923578  75.3225184
  68.9122682  39.7472089  74.2371095  68.4798328  39.1809685  74.5645000
  67.0410761  33.2160526  57.4122108  66.8586334  33.4332407  56.5863101
  67.9036374  33.3299539  57.4680722  67.1415350  33.2650424  57.2976595
  66.6525193  45.0548448  64.8545096  67.4914092  45.2871381  64.9018857
  66.6836962  44.1852760  64.7852131  66.7806911  44.9605395  64.8509740
  67.2777896  45.4749324  69.1558401  67.8176121  45.3320455  69.8261774
  66.5947842  45.8746074  69.5242428  67.2570050  45.5128994  69.3092823
  72.7210480  30.2186937  60.4471132  73.4496641  30.0402892  60.0009288
  72.8105373  31.0605017  60.6578310  72.8417142  30.3170815  60.4124649
  76.7018781  41.1540324  64.3503426  77.4576296  41.5871839  64.3892334
  76.8081105  40.5045094  64.9238062  76.8288951  41.1217808  64.4401451
  62.6815041  41.6949614  69.3092823  62.4153456  40.8788731  69.4683813
  62.6953605  41.7402770  68.4388338  62.6439763  41.5806519  69.2046305
  66.5872788  36.4934699  55.9244581  65.8730965  36.2072878  56.3367013
  67.0716757  36.8331325  56.5650968  66.5532151  36.5016348  56.0800216
  67.4313647  35.2327993  71.9559831  66.7385444  34.7624972  72.2020562
  68.0473975  35.0066297  72.5301538  67.4198177  35.1295124  72.0768983
  73.7620106  44.9964653  56.3006389  74.1771254  44.6649677  55.6090885
  72.9312036  44.7633555  56.1726526  73.7008115  44.9135909  56.1797237
  63.0908455  42.4808394  66.5904567  62.9084028  42.4555280  65.7376859
  63.8258124  42.9507332  66.6293476  63.1722519  42.5469756  66.4702486
  66.1554206  39.1993397  73.0986676  66.8794179  39.1846427  73.5851571
  66.2570343  39.9088752  72.6008644  66.2772415  39.3018100  73.0965463
  76.2030475  39.4026472  62.2530639  76.2977329  40.1415766  62.7070264
  75.5789318  38.9743948  62.6865203  76.1239505  39.4487793  62.3838786
  63.0579365  39.3601894  66.7403634  63.6352868  39.2238345  67.3795879
  62.3593427  38.9037679  66.9949218  63.0400386  39.2724161  66.8725923
  69.8146667  41.0135950  64.9542117  69.5565912  40.1807685  64.9273416
  69.8695150  41.2393563  64.1134617  69.7846445  40.9233721  64.8262254
  74.8947717  33.1164401  65.0546210  74.1904044  32.6273586  65.2130129
  74.9432692  33.1286875  64.1834654  74.7977769  33.0454049  64.9485549
  68.7881379  38.5673713  65.4407012  68.2130971  38.7265881  66.0770973
  68.4117056  37.9309122  64.9775462  68.6484192  38.4971525  65.4661570
  72.4554668  37.0397062  70.2999390  72.0669101  36.6151280  69.6451581
  71.7909366  37.2879211  70.8076417  72.3001596  37.0135783  70.2787258
  58.5338198  38.2113787  63.4551452  58.6198450  37.8345656  64.2364982
  59.1613996  37.8374233  62.9771411  58.6394749  38.0999269  63.4996930
  73.5593606  41.2695666  58.4976197  74.3734245  41.5610559  58.3858968
  73.4952748  40.6155529  57.9234490  73.6696345  41.2160861  58.3965034
  69.4301515  44.7417184  63.6248509  70.0675461  44.5028931  64.1700303
  69.8556586  44.9454343  62.8901670  69.5877681  44.7368194  63.5965666
  64.1214157  46.9805520  67.5082813  64.1618302  47.2520371  66.6802593
  64.6808681  47.5047428  67.9240601  64.2097503  47.0981275  67.4474701
  70.0704330  39.9619474  57.9623399  70.4549482  39.7427180  58.7139944
  69.8215950  40.7882419  58.0924475  70.0906402  40.0517620  58.0924475
  71.8122986  45.2189607  65.3042295  71.8861995  45.0564778  66.1584145
  72.6292493  45.4079796  65.0602777  71.9439345  45.2226349  65.3940321
  65.5728743  45.5647469  62.3336739  64.7466861  45.8109207  62.2071018
  65.6340734  45.4859550  63.1998797  65.4602910  45.5892418  62.4425683
  67.7904767  31.6316410  63.2932179  66.9227192  31.7039010  63.3589788
  68.0779971  32.4338489  63.4820154  67.7044515  31.7610557  63.3306946
  70.3527572  48.1824350  60.0355769  70.6425871  47.7913331  59.3114995
  71.0831053  48.3641054  60.4761044  70.5034456  48.1518163  59.9938576
  70.9422317  42.9842095  71.1208899  70.4434011  43.6957863  71.1993788
  71.7522542  43.3042762  71.0827062  70.9878424  43.1368944  71.1265468
  68.2933488  50.1591732  63.1015919  68.0733783  49.8689087  63.8942586
  68.0728010  49.5006687  62.5733831  68.2281082  50.0191440  63.1404827
  67.2050435  42.2465048  65.3671620  66.9163684  41.6202520  65.9017347
  68.0733783  42.1885336  65.4336301  67.2910687  42.1452593  65.4562575
  77.9928333  37.3899832  65.6853602  77.6493099  36.6690167  66.0360852
  78.0921375  37.1813683  64.8431960  77.9570376  37.2524035  65.6125282
  70.4601444  51.5321122  61.8846611  71.1125502  50.9997564  62.1137637
  69.7627052  51.1789774  62.2714485  70.4532161  51.4010645  61.9758779
  67.4082708  43.8860300  61.2913985  68.1628676  44.2673339  61.5049448
  66.8153321  44.3371443  61.7460682  67.4319422  44.0089127  61.3896864
  69.8689375  35.8423140  76.4171198  69.0589151  36.1480920  76.3061040
  70.3464062  36.5628722  76.5323782  69.8192854  35.9937741  76.4178269
  68.7280935  45.0568861  66.6654101  68.2061688  45.1969153  67.3505965
  69.1154955  44.2979525  66.8556218  68.7084636  44.9654385  66.7955177
  65.7172119  35.1074670  60.7349055  65.4296915  34.7375940  59.9981003
  66.4042587  35.5769525  60.4732760  65.7761016  35.1221639  60.5864131
  74.9247940  46.7964320  60.6514669  74.6834616  46.0632181  60.2441734
  75.1049273  47.3451177  59.9981003  74.9155564  46.7686711  60.4944892
  70.1547261  42.0872880  62.0635592  69.9590043  42.6947614  61.4695895
  70.3781606  41.3940824  61.5827266  70.1581902  42.0750405  61.9051673
  68.5525791  38.9727618  62.1816460  69.2748443  39.1368776  61.7220266
  68.0733783  39.6937283  62.0755800  68.5889521  39.1025847  62.0982074
  76.5119298  35.3091417  67.5613145  75.6730399  35.3352696  67.3251408
  76.5823665  35.9562152  68.1418492  76.3987692  35.4087542  67.6122262
  66.2033407  41.3785690  71.2870600  66.7154504  41.6569944  70.6379360
  65.9169750  42.1174984  71.6533413  66.2368270  41.5288044  71.2460478
  74.9588576  32.2076794  62.2940761  75.6614929  32.0084542  61.8160719
  74.6932765  31.4352736  62.6009604  75.0235209  32.0639760  62.2686202
  63.2900314  35.8855882  61.5834336  63.3916450  36.6882044  61.9115312
  64.0856200  35.6843218  61.2857417  63.4228219  35.9741781  61.5869692
  69.7217133  33.4712079  71.3471642  69.5300330  33.4867213  72.1971065
  70.5715729  33.6675753  71.3238296  69.8192855  33.5026430  71.4694936
  64.1064046  36.0003060  69.3255458  63.9649538  35.1487001  69.4499966
  64.3904609  36.0431721  68.5017664  64.1271892  35.8802810  69.2223082
  74.2602638  37.8370151  63.4699946  74.0137352  37.7565901  64.3036735
  74.5887761  37.0523618  63.2762474  74.2723882  37.7096416  63.5647469
  78.1550687  44.5453510  67.2586727  78.0165046  45.2434556  67.7635470
  77.3750685  44.3902166  66.9022909  78.0193914  44.6253676  67.2813002
  70.2199665  40.5726869  72.8822929  70.3643041  41.1528077  72.2466039
  70.5675314  40.9503166  73.5872784  70.2927127  40.7147573  72.8921924
  72.3919583  39.7717037  70.6648061  71.6442897  39.9648052  70.2596339
  72.5461108  38.9462257  70.4272182  72.3042010  39.6782149  70.5693467
  72.6321360  33.6667588  71.5543465  73.0893974  34.3991563  71.6816257
  72.7077689  33.2434053  72.3130720  72.7112330  33.7124826  71.6844541
  64.8754351  33.9133408  72.6432908  64.3396540  33.3013766  72.9593676
  64.9372116  34.4881544  73.2966575  64.8049984  33.9080336  72.7868335
  72.4750968  47.4545283  61.8592053  73.2400859  47.1854926  61.5374717
  72.3729058  46.9695293  62.5762116  72.5732463  47.3434847  61.9171881
  70.5103738  35.6569692  68.3985289  69.7199812  35.4761152  68.7202624
  70.9064360  34.8796645  68.3815583  70.4520614  35.5157153  68.4437837
  74.9969628  44.4857466  53.8392002  75.7642614  44.5457591  53.4297854
  74.5500937  43.9137908  53.3548321  75.0443056  44.4094042  53.7069713
  75.8947424  43.2912122  66.1244735  75.2192426  43.0597355  66.6258122
  75.9039800  42.6833305  65.4986840  75.7965928  43.1671047  66.1060887
  73.0241568  38.1329951  72.8808788  72.9600709  38.9939908  72.7528924
  73.1638756  37.8161944  72.0804339  73.0357038  38.2130118  72.7437000
  77.8964159  46.1477255  58.3554913  77.9783996  46.9544241  58.0316363
  78.3813901  46.1673214  59.0795686  77.9801316  46.2697917  58.4141811
  71.7060662  40.8262091  67.0224990  71.2822911  41.0266590  66.2864009
  71.5305517  39.9790939  67.1349290  71.6171542  40.7310872  66.9298681
  66.9943107  41.3214142  62.4552963  67.1507726  41.2560945  63.3108955
  67.3343700  42.0962695  62.2431643  67.0676342  41.4263340  62.5507557
  73.5322251  40.6972026  61.3246326  74.0737797  40.1942407  61.7884947
  73.8468810  40.6437220  60.5135811  73.6586648  40.6151447  61.2730138
  71.7008701  46.0889377  58.6086354  71.7701521  45.2303916  58.7479355
  72.4797156  46.3061258  58.2805379  71.8261551  45.9942241  58.5803512
  74.6811521  35.5908330  71.3768627  74.8953490  34.9519244  70.8231981
  74.0645420  36.0354154  70.9476488  74.6216850  35.5618474  71.2319058
  76.0916189  48.5127078  62.8222848  75.6995980  48.2093794  62.1045714
  76.2469261  49.3496168  62.6327801  76.0569779  48.5910915  62.6879345
  63.5677368  38.5049092  62.7713730  63.9476333  38.9233637  62.1073998
  62.9932733  39.0862548  63.0782574  63.5388693  38.6526951  62.7190471
  76.2555863  45.0777067  62.7628878  75.8970518  45.2491710  63.5392911
  75.7694574  45.5390273  62.2056877  76.1314560  45.1716038  62.7954147
  74.0726249  28.7008266  66.3655970  73.2019807  28.6746987  66.3189279
  74.3266591  28.5285458  65.5481815  73.9819810  28.6718409  66.2376106
  71.0444229  40.7576233  55.3029113  71.3336754  41.5341115  55.5772687
  71.1316028  40.2464964  56.0043612  71.0998485  40.7968151  55.4471610
  71.0975390  30.7114494  67.8229440  70.5813879  30.0194686  67.9481019
  70.5369319  31.3785271  67.7692039  70.9381903  30.7077752  67.8335506
  73.1667623  31.2507454  69.6522292  72.7799377  31.2756486  70.4335822
  72.6800561  30.6849133  69.1996809  73.0380132  31.1703205  69.7010196
  67.2108170  40.0709497  67.4029225  66.3696176  39.9713371  67.6108118
  67.4198178  40.8404978  67.7543545  67.1172862  40.1701541  67.4856540
  64.6883737  37.6929034  65.2313975  64.2940435  37.7672046  64.4564085
  64.1323854  38.0786981  65.7822337  64.5486549  37.7610809  65.1981635
  76.3248684  30.6710328  64.9117854  76.5298277  30.6032636  65.7574851
  75.9975108  31.4769149  64.8439032  76.3063931  30.7796269  65.0277509
  71.0224835  37.9990896  66.6526822  70.7187972  37.4446885  67.2537230
  70.3204255  38.1783106  66.1654856  70.8741044  37.9435679  66.6696528
  70.0790932  35.3091416  61.2171524  70.3550666  34.5910329  60.8049092
  70.6789601  35.9076336  61.0092630  70.2084196  35.2911787  61.1252285
  69.0843186  45.2140617  71.3598920  68.9763541  45.2242679  72.2260978
  69.2938967  46.0395398  71.1703874  69.0993297  45.3381692  71.4603012
  73.5801452  32.9804934  59.4918119  74.0345199  33.1515494  60.2165964
  74.0541498  32.3673044  59.0915895  73.7169772  32.9155819  59.5391881
  67.1016978  42.4653260  68.8220858  66.5104911  43.1062758  68.7923873
  67.8638001  42.8890877  68.7952157  67.1265238  42.6229098  68.8136005
  67.4977600  33.6255257  69.4888875  67.9579082  33.6994187  70.2263999
  67.5433707  34.4236511  69.1388696  67.5728156  33.7549404  69.5461632
  69.1460950  34.2921952  74.0560902  68.7546515  33.6455299  74.4916680
  69.3146813  34.8833387  74.6755158  69.1131861  34.2836220  74.2123608
  76.8606494  47.9162571  66.2552882  76.6626183  48.4053386  65.5609093
  76.2394205  48.1203813  66.8337015  76.7394058  48.0179109  66.2376105
  70.9214472  39.6847468  60.5963126  71.6656517  40.0721744  60.8346076
  71.0675168  38.8404893  60.7603614  71.0525057  39.6177941  60.6557096
  72.8394048  31.4797727  65.6294988  71.9930093  31.6520535  65.5036337
  72.8365180  30.6747071  65.9660816  72.7141198  31.3858756  65.6606115
  73.9092348  35.2572941  66.4957046  73.4352302  34.7314703  67.0062356
  74.2810484  34.7102414  65.9271907  73.8942237  35.0988938  66.4872193
  64.2865378  37.2544448  71.8640591  65.1490991  37.1540157  71.7777921
  63.9557161  36.6739157  71.3026163  64.3650575  37.1536075  71.7685997
  75.8375848  36.1509496  59.5582799  75.3098866  36.2338240  58.8688508
  76.2971556  36.8927367  59.5547444  75.8277698  36.2730158  59.4557495
  67.6467164  36.0786897  68.5251010  67.0220234  36.0905289  67.9176962
  67.3112759  36.5547072  69.1742250  67.5052656  36.1505414  68.5307578
  67.8308913  34.4212015  54.5823695  67.4821717  35.0731741  55.0455244
  67.3505359  34.4069128  53.8547566  67.7079157  34.5155069  54.5434786
  64.3592840  44.1387357  69.9654774  63.8292764  43.4479796  70.0149749
  64.6317933  44.1297542  69.1367482  64.3217562  44.0354489  69.8502190
  75.3912930  44.7213059  58.6892456  76.1147129  45.1871172  58.5457030
  74.9513521  44.7886669  57.9390053  75.4328623  44.7996896  58.5577238
  74.5599085  41.5810602  69.9393145  73.9456078  41.0368652  70.2341781
  75.0766370  41.0674838  69.4598962  74.5454748  41.4247011  69.9117374
  73.7995383  42.6514872  67.6737444  73.3722991  42.0264590  67.2402879
  73.7920327  42.3689794  68.4996451  73.7354524  42.5167652  67.7317272
  66.9157910  37.6880045  70.7425878  67.0751396  36.9323369  71.1477600
  66.7350803  38.2370984  71.3966616  66.9123269  37.6573859  70.8988584
  72.1281092  33.5283626  67.8879978  72.1523579  32.9943739  67.1992758
  72.3792566  33.0200935  68.5505569  72.1691011  33.3744530  67.8844623
  59.6388682  40.8115121  67.3223122  59.5332131  40.7661966  66.4575206
  58.8888902  41.1568902  67.6037407  59.5124285  40.8556029  67.2360452
  68.4082414  32.2554444  67.2685722  68.4480786  32.7563651  67.9820430
  67.5832079  32.3464838  66.9991645  68.2921940  32.3436261  67.3336261
  69.8296778  38.7714954  69.5659621  68.9988707  38.9388772  69.3594869
  69.7748295  38.3950905  70.3508507  69.6986193  38.7404686  69.6508149
  68.2032822  37.0470546  60.0949739  68.3435783  37.5443010  60.7978380
  68.7015354  36.3456840  60.2363953  68.2973903  37.0172525  60.2201318
  68.2333044  37.9137657  57.4242316  68.8678124  38.5098082  57.3591778
  68.3158655  37.6141114  58.2388186  68.3389595  37.9578565  57.5345402
  69.8112027  33.8451632  57.3987758  70.1327868  33.3654715  56.7447020
  70.0738971  34.6551278  57.2078570  69.8978052  33.8941530  57.2743250
  75.2071182  33.2323826  69.7611237  75.6326253  32.7796353  69.1494763
  74.5928175  32.6783897  70.0376024  75.1799827  33.0837802  69.7116262
  64.7386032  40.1105498  60.6931862  65.2478261  40.7070005  61.0743167
  65.2120304  39.8431471  60.0108282  64.8829408  40.1591313  60.6486385
  75.6516780  48.7833764  58.8490517  74.9346090  48.6094627  58.3837755
  76.3023518  48.5486337  58.3166004  75.6418630  48.7229557  58.7019735
  73.6465405  29.7038926  63.1701814  73.0033723  29.5536572  63.7386952
  73.3064812  29.4581271  62.4050919  73.5010482  29.6451049  63.1404829
  72.2851485  49.7995065  67.8243581  72.0617139  49.0413894  68.1927607
  71.7961328  49.8293086  67.1024021  72.1794934  49.6917289  67.7720322
  78.3992879  34.1154236  65.5022196  78.7520489  33.6883959  66.1767995
  77.5407680  34.0305080  65.6323272  78.3242323  34.0398977  65.6217206
  67.0976564  36.7461756  63.5605042  66.3788553  37.1625889  63.8277906
  67.4688926  37.3115995  63.0096680  67.0468495  36.8911038  63.5187849
  76.3976144  37.3789605  69.4507038  76.3774072  37.1972900  70.3041817
  76.4455345  38.2501624  69.4266622  76.4010785  37.4806143  69.5730333
  70.9329942  50.0195523  65.2780666  70.5190341  49.3569653  64.8884507
  71.6177316  50.1673382  64.7576360  70.9728314  49.9436181  65.1437163
  74.2995236  49.1785608  66.0304282  73.9011519  49.2887879  65.2625102
  73.6846456  49.3867675  66.6130842  74.1494125  49.2259176  66.0035581
  72.8723138  35.7859756  58.8978422  72.2787977  36.1076753  58.3462989
  72.9098416  34.9400851  58.6899528  72.7897527  35.7084084  58.7861193
  75.7480955  35.7439261  62.3280172  75.5194648  35.7671962  61.4858530
  76.0079031  34.9196728  62.4475183  75.7527143  35.6255341  62.2205370
  70.0300183  37.5973734  71.9305272  69.5179086  36.9894917  72.2890304
  69.8579679  38.3130326  72.3979248  69.9289820  37.6137033  72.0521496
  64.8765898  36.0411309  74.5807634  64.7068488  36.7012684  74.0355841
  64.4331848  36.2517870  75.3020123  64.7865231  36.1697291  74.6069263
  68.8025717  34.2815807  63.6234368  69.2783083  34.6432887  62.9884549
  68.3014317  34.9372274  63.9034510  68.7991076  34.4309996  63.5711109
  61.7767962  38.9458174  69.8396124  61.2294682  38.2758820  69.9576992
  62.5660340  38.5788022  69.9039591  61.8120146  38.7923161  69.8664824
  70.8452370  36.4257007  56.9907752  71.2251335  36.4436636  56.2058866
  70.1044966  36.8710996  56.8698599  70.7921208  36.4938781  56.8571320
  78.4737661  34.7339198  62.5783330  78.4731887  34.5787854  63.4367607
  78.2693841  35.5802185  62.5224716  78.4437439  34.8359819  62.6971270
  60.5354932  38.1578982  66.9942147  60.3576693  37.7055591  67.7197062
  60.2473954  38.9605144  67.1780624  60.4667885  38.2101540  67.1285650
  76.1978513  39.4136700  66.2319537  76.6932178  38.6959695  66.1923557
  75.3878289  39.1107497  66.1174024  76.1522406  39.2634346  66.2093263
  71.6437124  43.2634513  58.3816542  70.8348447  42.9401186  58.3349851
  72.1512033  42.5567735  58.3144790  71.5986791  43.1115829  58.3646836
  62.2727402  40.6906706  64.1063906  61.4072921  40.6792397  63.9946677
  62.3726218  40.5036929  64.9535045  62.1601569  40.6612767  64.2152850
  78.2630332  42.1640387  68.9196666  78.6885403  41.6414809  68.3667091
  77.8987252  42.7621225  68.3985289  78.2716934  42.1750614  68.7605676
  67.8984412  50.4604605  67.6794011  68.2130970  51.2740993  67.6871793
  68.3077825  50.0754823  68.3476171  68.0052510  50.5233307  67.7798103
  74.8508931  45.8774651  65.2497823  75.3220109  46.5914914  65.4187809
  75.1869110  45.2773402  65.7857693  74.9704046  45.8946116  65.3530199
  70.8371541  32.6518535  59.6735383  71.6587235  32.8216848  59.4317078
  70.3741192  32.8065796  58.9501681  70.8902703  32.7000268  59.5307027
  69.4266873  30.6461297  70.4533812  69.9711286  30.3052424  71.0438154
  69.4803809  31.5046759  70.5955097  69.5155992  30.7216556  70.5615685
  65.2397432  44.4077713  67.3272620  65.8442289  44.3673547  66.6986441
  65.0324744  45.2548865  67.3576676  65.2986329  44.5265716  67.2388736
  60.4748714  43.3912331  67.1971543  60.3772992  42.5808602  67.5061600
  61.2577584  43.3704124  66.8117811  60.5764850  43.2679421  67.1858406
  77.5605372  52.0120007  55.9244581  76.8463549  51.7258186  56.3367013
  78.0449340  52.3516633  56.5650968  77.5264735  52.0201656  56.0800216
  69.5070782  53.7299095  63.4551452  69.5931034  53.3530964  64.2364982
  70.1346579  53.3559541  62.9771411  69.6127333  53.6184577  63.4996930
  76.6904703  50.6259978  60.7349055  76.4029498  50.2561248  59.9981003
  77.3775171  51.0954833  60.4732760  76.7493600  50.6406947  60.5864131
  74.2632897  51.4041190  61.5834336  74.3649034  52.2067351  61.9115312
  75.0588784  51.2028526  61.2857417  74.3960803  51.4927089  61.5869692
  74.5409952  54.0234400  62.7713730  74.9208917  54.4418945  62.1073998
  73.9665317  54.6047856  63.0782574  74.5121277  54.1712259  62.7190471
  75.7118616  55.6290806  60.6931862  76.2210845  56.2255313  61.0743167
  76.1852888  55.3616779  60.0108282  75.8561991  55.6776621  60.6486385
  78.0709147  52.2647064  63.5605042  77.3521136  52.6811197  63.8277906
  78.4421510  52.8301303  63.0096680  78.0201079  52.4096346  63.5187849
  56.8581336   8.8554394  48.9607942  56.1064235   8.4769933  48.7323987
  57.3067347   8.8872828  48.2126753  56.8131002   8.8040001  48.8165445
  62.3106295   9.2779764  44.3893490  61.9757664   9.9556685  43.9537712
  62.8233166   8.8885075  43.8010361  62.3371877   9.3204342  44.2380281
  61.8510587  11.2294032  50.3304601  62.2349966  11.7980931  49.7909376
  61.7869728  10.5043543  49.8510417  61.8984014  11.2069496  50.1798464
  58.4366092   8.8672786  51.2270715  58.5376455   8.0573140  51.5367843
  57.8407837   8.7729733  50.5970393  58.3638630   8.7337814  51.1796953
  58.2766831  13.7850376  52.6285571  58.9204287  14.2263540  53.0181729
  58.6023087  12.9803802  52.5415830  58.4198660  13.7315570  52.6731048
  51.6331136   4.8893073  50.8523049  51.3981320   4.0560725  50.7455317
  51.7716777   5.1697739  50.0384250  51.6186798   4.8076576  50.7165404
  58.9787411   6.7962350  48.0005433  59.3003252   7.3367558  47.3966741
  59.6259508   6.2259122  48.1327722  59.1213466   6.7921526  47.9312468
  53.1948461   9.7678744  52.1279255  52.7116039  10.4929233  52.1038838
  54.0071779  10.0654874  52.2389412  53.2439208   9.9181097  52.1406534
  59.2662615   8.5610924  54.7329069  58.7489556   8.2018339  54.1290377
  59.9637006   8.0373099  54.7435135  59.2928196   8.4308612  54.6459328
  62.9226207   9.0105738  60.6945242  63.0109553   8.8231879  61.5423453
  63.3515919   8.3643168  60.2950089  62.9988309   8.8868746  60.7616994
  60.4896666   8.2936898  59.6762904  59.9267501   7.8809508  60.2002566
  61.2517690   8.2189804  60.0956048  60.5191115   8.2214299  59.8155905
  56.0492658  10.2834920  52.2799535  56.7513237   9.7686909  52.3372291
  55.9690141  10.6109071  53.0846410  56.1416418  10.2549146  52.4072327
  55.3743433   6.4741272  51.7885143  56.2132333   6.7064204  51.8358904
  55.4055202   5.6045583  51.7192178  55.5025151   6.3798218  51.7849787
  55.9996136   6.8942147  56.0898448  56.5394361   6.7513278  56.7601821
  55.3166083   7.2938898  56.4582474  55.9788290   6.9321818  56.2432870
  63.0346266   8.4414757  63.3589026  63.8186683   8.5545605  63.7244768
  62.8342861   7.6155895  63.5547712  63.1212291   8.3361477  63.4423412
  63.1916659  10.3524860  57.0055481  62.3931905  10.1124360  57.2629350
  63.6402671  10.4039252  57.7522529  63.1391271  10.3247251  57.1540406
  51.8126695   3.9001217  53.5244614  51.6302268   3.8748103  52.6716906
  52.5476364   4.3700155  53.5633523  51.8940759   3.9662579  53.4042532
  58.1519755   6.1610007  50.5588556  58.7893702   5.9221755  51.1040349
  58.5774826   6.3647166  49.8241717  58.3095921   6.1561017  50.5305713
  52.8432397   8.3998344  54.4422860  52.8836543   8.6713195  53.6142639
  53.4026921   8.9240252  54.8580648  52.9315743   8.5174099  54.3814748
  60.5341227   6.6382430  52.2382342  60.6080235   6.4757602  53.0924192
  61.3510733   6.8272619  51.9942824  60.6657585   6.6419172  52.3280368
  54.2946984   6.9840293  49.2676786  53.4685101   7.2302030  49.1411065
  54.3558975   6.9052373  50.1338844  54.1821151   7.0085242  49.3765730
  59.0745813   9.6017173  46.9695816  59.3644111   9.2106154  46.2455042
  59.8049293   9.7833878  47.4101091  59.2252697   9.5710987  46.9278623
  57.0151728  11.5784555  50.0355965  56.7952024  11.2881910  50.8282632
  56.7946250  10.9199510  49.5073878  56.9499322  11.4384264  50.0744874
  59.1819684  12.9513945  48.8186658  59.8343742  12.4190387  49.0477684
  58.4845293  12.5982597  49.2054532  59.1750402  12.8203468  48.9098825
  56.1300949   5.3053123  48.2254032  56.8846917   5.6866162  48.4389495
  55.5371561   5.7564266  48.6800729  56.1537662   5.4281950  48.3236910
  57.4499175   6.4761684  53.5994147  56.9279929   6.6161976  54.2846012
  57.8373196   5.7172348  53.7896265  57.4302876   6.3847208  53.7295224
  63.6466180   8.2157143  47.5854716  63.4052856   7.4825004  47.1781781
  63.8267513   8.7644000  46.9321050  63.6373804   8.1879535  47.4284939
  58.0145661  10.1822464  56.6824003  58.1635224   9.6225380  56.0297407
  58.7945663  10.2614466  57.0656522  58.1519754  10.1108030  56.6420952
  60.5398961  10.3537107  57.9608494  60.4642632   9.6845918  58.5159282
  60.4688820  11.0554895  58.4749160  60.5179568  10.3582014  58.1185342
  61.1969208   8.8738106  48.7932100  61.9619099   8.6047750  48.4714764
  61.0947298   8.3888116  49.5102163  61.2950704   8.7627671  48.8511927
  59.9290596  13.7605427  56.4186495  60.4186526  13.0616216  56.2362159
  59.3574828  13.4629297  57.0062552  59.9175126  13.6131650  56.4787535
  60.4226941   7.5082200  45.5426401  60.4919762   6.6496739  45.6819401
  61.2015397   7.7254081  45.2145426  60.5479792   7.4135064  45.5143558
  64.8134429   9.9319902  49.7562894  64.4214221   9.6286617  49.0385761
  64.9687501  10.7688992  49.5667848  64.7788019  10.0103738  49.6219392
  57.8061426   6.6333440  58.2938967  57.6981781   6.6435502  59.1601025
  58.0157208   7.4588221  58.1043921  57.8211537   6.7574515  58.3943058
  65.5824734   9.3355394  53.1892929  65.3844423   9.8246209  52.4949140
  64.9612445   9.5396636  53.7677062  65.4612299   9.4371933  53.1716152
  53.0811080   5.5580180  56.8994821  52.5511005   4.8672619  56.9489795
  53.3536174   5.5490366  56.0707529  53.0435803   5.4547312  56.7842237
  48.3606922   2.2307944  54.2563169  48.2550372   2.1854789  53.3915253
  47.6107142   2.5761725  54.5377454  48.2342525   2.2748853  54.1700499
  61.7627240   6.2863330  57.8526621  61.2552331   6.8399177  58.2967251
  61.4653886   6.3471620  57.0345395  61.6432125   6.3769641  57.7975077
  64.3735020  10.2026588  45.7830564  63.6564330  10.0287450  45.3177802
  65.0241758   9.9679160  45.2506050  64.3636871  10.1422380  45.6359782
  61.0069725  11.2187888  54.7583628  60.7835380  10.4606717  55.1267654
  60.5179569  11.2485909  54.0364067  60.9013174  11.1110113  54.7060369
  59.6548182  11.4388346  52.2120712  59.2408581  10.7762476  51.8224554
  60.3395557  11.5866205  51.6916406  59.6946554  11.3629004  52.0777209
  63.0213476  10.5978431  52.9644329  62.6229760  10.7080702  52.1965149
  62.4064696  10.8060498  53.5470889  62.8712366  10.6452000  52.9375628
  56.6202652  11.8797428  54.6134058  56.9349211  12.6933816  54.6211840
  57.0296065  11.4947647  55.2816217  56.7270750  11.9426130  54.7138150
  53.9615672   5.8270536  54.2612667  54.5660529   5.7866371  53.6326487
  53.7542985   6.6741688  54.2916723  54.0204569   5.9458539  54.1728783
  63.7759444   8.0936482  55.4774904  64.5957818   7.9499448  55.7391199
  63.4953522   8.7182680  56.0191342  63.8556188   8.1646834  55.5962843
  49.1966954   4.8105154  54.1311590  49.0991232   4.0001425  54.4401646
  49.9795824   4.7896947  53.7457858  49.2983091   4.6872244  54.1198453
  73.4472779  14.8376984  53.1970711  72.5910675  14.9985483  53.2479828
  73.4940433  13.9669048  53.2175772  73.3271891  14.7327786  53.2076777
  67.8313919  24.3739702  48.9607942  67.0796819  23.9955240  48.7323987
  68.2799931  24.4058136  48.2126753  67.7863586  24.3225309  48.8165445
  73.2838879  24.7965072  44.3893490  72.9490247  25.4741993  43.9537712
  73.7965749  24.4070383  43.8010361  73.3104460  24.8389650  44.2380281
  72.8243170  26.7479340  50.3304601  73.2082550  27.3166239  49.7909376
  72.7602312  26.0228851  49.8510417  72.8716597  26.7254804  50.1798464
  76.2924600  16.8969028  55.8402362  76.8380560  17.5754115  55.8996332
  76.2341477  16.7556489  54.9803944  76.3640515  16.9761030  55.7214423
  69.4098675  24.3858094  51.2270715  69.5109038  23.5758448  51.5367843
  68.8140421  24.2915041  50.5970393  69.3371214  24.2523122  51.1796953
  69.2499415  29.3035683  52.6285571  69.8936870  29.7448847  53.0181729
  69.5755670  28.4989110  52.5415830  69.3931244  29.2500878  52.6731048
  62.6063720  20.4078381  50.8523049  62.3713904  19.5746033  50.7455317
  62.7449360  20.6883047  50.0384250  62.5919382  20.3261884  50.7165404
  64.9053807  12.5764111  53.7507356  64.2858839  11.9856759  53.5817371
  64.8037671  13.1675547  53.1171679  64.7991483  12.5768194  53.6312346
  69.9519995  22.3147658  48.0005433  70.2735836  22.8552866  47.3966741
  70.5992091  21.7444430  48.1327722  70.0946050  22.3106833  47.9312468
  72.0021703  14.3163653  48.0839819  72.7001867  14.4951781  48.5761283
  72.3174035  13.7933993  47.4610209  72.1517040  14.2657425  48.0641830
  64.6322940  16.1216393  55.9950925  64.5081637  16.7078839  56.6300744
  65.2841225  15.6276589  56.2963200  64.7096589  16.1355198  56.1336855
  72.1909638  20.7034098  48.0719611  72.6303274  20.0951199  48.5174384
  72.0414301  20.3241472  47.3005076  72.2331104  20.5572569  48.0238778
  69.6581281  19.2978110  55.2738436  70.3030284  18.8050553  54.9549385
  69.8983058  19.4402897  56.1004515  69.7891866  19.2455552  55.3487970
  72.1967372  22.1433016  54.9245329  72.4790615  21.3484422  54.7032085
  72.9253533  22.6213603  54.9450390  72.3456936  22.0967613  54.8948344
  70.1748566   9.6856050  52.1661094  69.8451896  10.1367193  51.4964793
  69.4993568   9.6072213  52.7134100  70.0259003   9.7407185  52.1484317
  75.7918975  19.0561280  45.0250380  75.7070270  19.9122246  45.1699949
  76.2803358  18.7805604  45.6932539  75.8507872  19.1418601  45.1452462
  76.7237408  15.6746074  46.5248115  76.1948879  15.8905707  47.1845421
  77.2462428  16.3682212  46.4449085  76.7225861  15.8089211  46.6103714
  68.6137016  19.5709291  45.3255583  68.0294231  20.0759322  45.7321447
  68.2107111  19.3451677  44.5852175  68.4676319  19.6117539  45.2760608
  64.1681044  25.2864052  52.1279255  63.6848622  26.0114541  52.1038838
  64.9804363  25.5840182  52.2389412  64.2171792  25.4366405  52.1406534
  70.2395198  24.0796232  54.7329069  69.7222140  23.7203647  54.1290377
  70.9369590  23.5558407  54.7435135  70.2660779  23.9493920  54.6459328
  73.8958790  24.5291046  60.6945242  73.9842136  24.3417187  61.5423453
  74.3248503  23.8828476  60.2950089  73.9720893  24.4054054  60.7616994
  71.4629250  23.8122206  59.6762904  70.9000085  23.3994816  60.2002566
  72.2250274  23.7375112  60.0956048  71.4923699  23.7399607  59.8155905
  73.0714230  15.8174943  43.8024504  73.3110234  16.0252926  42.9899847
  73.3930071  15.0132451  43.9113448  73.1551388  15.7289044  43.6985057
  67.0225242  25.8020228  52.2799535  67.7245821  25.2872217  52.3372291
  66.9422725  26.1294379  53.0846410  67.1149002  25.7734454  52.4072327
  68.0704148  16.0395814  61.4079950  68.2424652  15.9301709  62.2565231
  68.6073506  16.6850220  61.1711142  68.1749152  16.1187816  61.4985046
  66.7361585  10.1538657  44.3462155  66.5537158  10.3710538  43.5203148
  67.5987198  10.2677670  44.4020769  66.8366174  10.2028555  44.2316642
  66.3476017  21.9926580  51.7885143  67.1864916  22.2249512  51.8358904
  66.3787786  21.1230891  51.7192178  66.4757735  21.8983526  51.7849787
  66.9728720  22.4127455  56.0898448  67.5126945  22.2698586  56.7601821
  66.2898666  22.8124206  56.4582474  66.9520874  22.4507126  56.2432870
  76.3969605  18.0918455  51.2843472  77.1527120  18.5249970  51.3232381
  76.5031929  17.4423225  51.8578109  76.5239775  18.0595939  51.3741498
  74.0078850  23.9600065  63.3589026  74.7919266  24.0730913  63.7244768
  73.8075444  23.1341203  63.5547712  74.0944875  23.8546785  63.4423412
  62.3765865  18.6327746  56.2432870  62.1104280  17.8166862  56.4023860
  62.3904429  18.6780901  55.3728385  62.3390587  18.5184650  56.1386352
  66.2823612  13.4312830  42.8584628  65.5681789  13.1451009  43.2707060
  66.7667581  13.7709456  43.4991015  66.2482975  13.4394480  43.0140263
  67.1264471  12.1706124  58.8899877  66.4336268  11.7003104  59.1360609
  67.7424799  11.9444428  59.4641585  67.1149001  12.0673256  59.0109030
  74.1649243  25.8710167  57.0055481  73.3664489  25.6309668  57.2629350
  74.6135254  25.9224560  57.7522529  74.1123854  25.8432559  57.1540406
  73.4570930  21.9342784  43.2346436  73.8722078  21.6027808  42.5430932
  72.6262860  21.7011686  43.1066573  73.3958939  21.8514040  43.1137283
  62.7859279  19.4186525  53.5244614  62.6034852  19.3933411  52.6716906
  63.5208948  19.8885463  53.5633523  62.8673343  19.4847887  53.4042532
  65.8505030  16.1371528  60.0326723  66.5745003  16.1224558  60.5191617
  65.9521167  16.8466883  59.5348691  65.9723239  16.2396231  60.0305509
  75.8981299  16.3404604  49.1870685  75.9928153  17.0793898  49.6410311
  75.2740142  15.9122079  49.6205250  75.8190329  16.3865924  49.3178833
  74.1533773  19.5190816  59.8360966  74.7272634  18.8818060  59.9909530
  74.0748576  19.5194899  58.9670624  74.2267007  19.4255928  59.7307377
  62.7530189  16.2980026  53.6743681  63.3303692  16.1616476  54.3135926
  62.0544251  15.8415810  53.9289265  62.7351210  16.2102292  53.8065970
  76.1504320  18.1853343  42.4207637  76.0684483  18.2555530  43.2862624
  76.7884041  18.7483087  42.2291378  76.2324157  18.2792314  42.5197587
  69.5097491  17.9514081  51.8882164  69.2516735  17.1185816  51.8613463
  69.5645974  18.1771694  51.0474664  69.4797269  17.8611853  51.7602300
  68.4832203  15.5051844  52.3747058  67.9081795  15.6644012  53.0111019
  68.1067880  14.8687253  51.9115509  68.3435016  15.4349657  52.4001617
  72.1505492  13.9775193  57.2339437  71.7619925  13.5529411  56.5791628
  71.4860190  14.2257343  57.7416464  71.9952420  13.9513914  57.2127305
  58.2289022  15.1491919  50.3891499  58.3149274  14.7723787  51.1705029
  58.8564820  14.7752364  49.9111457  58.3345573  15.0377401  50.4336976
  73.2544430  18.2073798  45.4316244  74.0685069  18.4988690  45.3199015
  73.1903571  17.5533660  44.8574537  73.3647169  18.1538992  45.3305081
  69.1252338  21.6795315  50.5588556  69.7626285  21.4407063  51.1040349
  69.5507410  21.8832474  49.8241717  69.2828505  21.6746325  50.5305713
  63.8164981  23.9183652  54.4422860  63.8569126  24.1898503  53.6142639
  64.3759505  24.4425560  54.8580648  63.9048327  24.0359407  54.3814748
  69.7655154  16.8997605  44.8963445  70.1500306  16.6805312  45.6479990
  69.5166774  17.7260550  45.0264522  69.7857226  16.9895751  45.0264522
  71.5073810  22.1567738  52.2382342  71.5812819  21.9942910  53.0924192
  72.3243317  22.3457927  51.9942824  71.6390169  22.1604480  52.3280368
  65.2679567  22.5025601  49.2676786  64.4417685  22.7487338  49.1411065
  65.3291558  22.4237681  50.1338844  65.1553734  22.5270549  49.3765730
  67.4855591   8.5694542  50.2272226  66.6178016   8.6417141  50.2929835
  67.7730795   9.3716620  50.4160201  67.3995339   8.6988689  50.2646992
  70.0478396  25.1202481  46.9695816  70.3376695  24.7291462  46.2455042
  70.7781877  25.3019186  47.4101091  70.1985280  25.0896295  46.9278623
  70.6373141  19.9220227  58.0548946  70.1384835  20.6335994  58.1333835
  71.4473366  20.2420893  58.0167109  70.6829248  20.0747075  58.0605515
  67.9884312  27.0969863  50.0355965  67.7684607  26.8067218  50.8282632
  67.7678834  26.4384818  49.5073878  67.9231906  26.9569572  50.0744874
  66.9001259  19.1843180  52.3011667  66.6114508  18.5580651  52.8357394
  67.7684607  19.1263467  52.3676347  66.9861511  19.0830724  52.3902622
  77.6879157  14.3277963  52.6193649  77.3443923  13.6068298  52.9700899
  77.7872199  14.1191814  51.7772007  77.6521200  14.1902166  52.5465329
  70.1552267  28.4699253  48.8186658  70.8076325  27.9375695  49.0477684
  69.4577876  28.1167905  49.2054532  70.1482985  28.3388776  48.9098825
  67.1033532  20.8238431  48.2254032  67.8579500  21.2051470  48.4389495
  66.5104145  21.2749574  48.6800729  67.1270246  20.9467258  48.3236910
  78.1492186  20.7903667  48.1617637  78.7150218  21.4496877  48.0776180
  77.5020089  21.1353365  48.6334039  78.1370942  20.9385608  48.2190393
  69.5640199  12.7801271  63.3511244  68.7539975  13.0859051  63.2401087
  70.0414886  13.5006853  63.4663828  69.5143678  12.9315872  63.3518315
  68.4231759  21.9946992  53.5994147  67.9012512  22.1347284  54.2846012
  68.8105779  21.2357656  53.7896265  68.4035460  21.9032516  53.7295224
  65.4122943  12.0452801  47.6689102  65.1247739  11.6754071  46.9321049
  66.0993411  12.5147656  47.4072807  65.4711840  12.0599770  47.5204178
  74.6198764  23.7342451  47.5854716  74.3785440  23.0010312  47.1781781
  74.8000097  24.2829308  46.9321050  74.6106388  23.7064842  47.4284939
  69.8498085  19.0251011  48.9975639  69.6540867  19.6325746  48.4035941
  70.0732430  18.3318955  48.5167312  69.8532726  19.0128537  48.8391719
  68.2476615  15.9105749  49.1156507  68.9699266  16.0746907  48.6560313
  67.7684607  16.6315414  49.0095847  68.2840345  16.0403979  49.0322121
  76.2070122  12.2469548  54.4953192  75.3681223  12.2730827  54.2591455
  76.2774489  12.8940283  55.0758538  76.0938516  12.3465674  54.5462309
  65.8984231  18.3163821  58.2210647  66.4105328  18.5948075  57.5719406
  65.6120574  19.0553115  58.5873460  65.9319094  18.4666175  58.1800525
  62.9851138  12.8234013  48.5174383  63.0867274  13.6260175  48.8455359
  63.7807024  12.6221349  48.2197464  63.1179043  12.9119912  48.5209739
  69.4167957  10.4090210  58.2811688  69.2251154  10.4245344  59.1311112
  70.2666553  10.6053884  58.2578343  69.5143679  10.4404561  58.4034983
  63.8014870  12.9381191  56.2595505  63.6600361  12.0865132  56.3840013
  64.0855433  12.9809852  55.4357711  63.8222716  12.8180942  56.1563129
  73.9553462  14.7748282  50.4039993  73.7088176  14.6944033  51.2376782
  74.2838585  13.9901750  50.2102521  73.9674706  14.6474547  50.4987516
  77.8501511  21.4831641  54.1926774  77.7115870  22.1812687  54.6975517
  77.0701509  21.3280297  53.8362956  77.7144738  21.5631808  54.2153048
  69.9150489  17.5105000  59.8162976  70.0593865  18.0906208  59.1806086
  70.2626138  17.8881297  60.5212831  69.9877951  17.6525704  59.8261971
  72.0870407  16.7095169  57.5988108  71.3393721  16.9026183  57.1936386
  72.2411932  15.8840388  57.3612229  71.9992834  16.6160280  57.5033514
  68.9878244  25.7007772  56.6824003  69.1367808  25.1410688  56.0297407
  69.7678246  25.7799774  57.0656522  69.1252338  25.6293338  56.6420952
  71.5131545  25.8722415  57.9608494  71.4375216  25.2031226  58.5159282
  71.4421404  26.5740203  58.4749160  71.4912152  25.8767322  58.1185342
  72.3272184  10.6045719  58.4883511  72.7844798  11.3369694  58.6156304
  72.4028512  10.1812185  59.2470767  72.4063154  10.6502957  58.6184588
  64.5705175  10.8511539  59.5772955  64.0347364  10.2391897  59.8933722
  64.6322940  11.4259675  60.2306622  64.5000808  10.8458467  59.7208382
  72.1701792  24.3923414  48.7932100  72.9351683  24.1233058  48.4714764
  72.0679882  23.9073424  49.5102163  72.2683287  24.2812978  48.8511927
  70.2054562  12.5947823  55.3325335  69.4150636  12.4139283  55.6542671
  70.6015184  11.8174776  55.3155630  70.1471438  12.4535284  55.3777884
  74.6920452  21.4235598  40.7732049  75.4593437  21.4835723  40.3637901
  74.2451761  20.8516039  40.2888368  74.7393880  21.3472173  40.6409759
  75.5898248  20.2290253  53.0584781  74.9143250  19.9975486  53.5598168
  75.5990624  19.6211436  52.4326886  75.4916752  20.1049179  53.0400934
  72.7192392  15.0708082  59.8148834  72.6551533  15.9318039  59.6868971
  72.8589580  14.7540076  59.0144386  72.7307862  15.1508249  59.6777047
  77.5914982  23.0855386  45.2894959  77.6734820  23.8922372  44.9656410
  78.0764725  23.1051345  46.0135733  77.6752140  23.2076048  45.3481858
  71.4011486  17.7640222  53.9565037  70.9773735  17.9644721  53.2204056
  71.2256341  16.9169070  54.0689337  71.3122366  17.6689003  53.8638727
  70.9023179  29.2790735  56.4186495  71.3919110  28.5801524  56.2362159
  70.3307412  28.9814605  57.0062552  70.8907709  29.1316958  56.4787535
  66.6893931  18.2592273  49.3893010  66.8458550  18.1939076  50.2449002
  67.0294524  19.0340826  49.1771689  66.7627166  18.3641471  49.4847604
  73.2273075  17.6350157  48.2586373  73.7688621  17.1320538  48.7224994
  73.5419634  17.5815351  47.4475858  73.3537472  17.5529578  48.2070185
  71.3959525  23.0267508  45.5426401  71.4652345  22.1682047  45.6819401
  72.1747980  23.2439389  45.2145426  71.5212375  22.9320372  45.5143558
  74.3762345  12.5286461  58.3108674  74.5904314  11.8897375  57.7572027
  73.7596244  12.9732285  57.8816535  74.3167674  12.4996605  58.1659105
  75.7867013  25.4505210  49.7562894  75.3946804  25.1471925  49.0385761
  75.9420085  26.2874300  49.5667848  75.7520602  25.5289046  49.6219392
  63.2628192  15.4427224  49.7053777  63.6427157  15.8611769  49.0414044
  62.6883557  16.0240679  50.0122620  63.2339517  15.5905082  49.6530518
  75.9506687  22.0155198  49.6968925  75.5921342  22.1869841  50.4732957
  75.4645398  22.4768404  49.1396923  75.8265384  22.1094169  49.7294194
  70.7395053  17.6954364  42.2369159  71.0287578  18.4719246  42.5112734
  70.8266852  17.1843095  42.9383659  70.7949309  17.7346282  42.3811657
  77.1111427  22.9059094  60.6436126  77.7491147  22.4119290  60.3098582
  76.4685518  22.8336495  60.0588353  77.1105653  22.8218103  60.5078481
  77.1665683  23.5978903  57.2841483  77.9558062  23.2467967  57.4043564
  77.3409281  24.4115291  57.0218116  77.3085965  23.6664760  57.2629351
  66.9058994  17.0087628  54.3369271  66.0647000  16.9091503  54.5448165
  67.1149002  17.7783109  54.6883592  66.8123686  17.1079672  54.4196586
  64.3834561  14.6307165  52.1654022  63.9891258  14.7050177  51.3904132
  63.8274678  15.0165112  52.7162384  64.2437373  14.6988940  52.1321682
  70.7175659  14.9369028  53.5866869  70.4138796  14.3825016  54.1877277
  70.0155079  15.1161238  53.0994903  70.5691868  14.8813810  53.6036575
  69.7741756  12.2469547  48.1511571  70.0501490  11.5288460  47.7389138
  70.3740425  12.8454467  47.9432677  69.9035020  12.2289918  48.0592332
  68.7794010  22.1518748  58.2938967  68.6714365  22.1620810  59.1601025
  68.9889791  22.9773529  58.1043921  68.7944121  22.2759823  58.3943058
  66.7967802  19.4031391  55.7560904  66.2055735  20.0440889  55.7263919
  67.5588825  19.8269008  55.7292204  66.8216062  19.5607229  55.7476052
  67.1928424  10.5633388  56.4228922  67.6529906  10.6372318  57.1604046
  67.2384531  11.3614642  56.0728743  67.2678980  10.6927536  56.4801678
  68.8411774  11.2300083  60.9900949  68.4497339  10.5833430  61.4256727
  69.0097637  11.8211519  61.6095204  68.8082685  11.2214351  61.1463655
  76.5557318  24.8540702  53.1892929  76.3577007  25.3431517  52.4949140
  75.9345029  25.0581944  53.7677062  76.4344882  24.9557241  53.1716152
  70.6165296  16.6225599  47.5303173  71.3607341  17.0099875  47.7686123
  70.7625992  15.7783024  47.6943661  70.7475881  16.5556072  47.5897143
  73.6043172  12.1951072  53.4297092  73.1303126  11.6692834  53.9402403
  73.9761308  11.6480545  52.8611954  73.5893061  12.0367069  53.4212240
  63.9816202  14.1922579  58.7980638  64.8441815  14.0918288  58.7117968
  63.6507985  13.6117288  58.2366210  64.0601399  14.0914206  58.7026044
  75.5326672  13.0887627  46.4922846  75.0049690  13.1716371  45.8028555
  75.9922380  13.8305498  46.4887491  75.5228522  13.2108289  46.3897541
  67.3417988  13.0165028  55.4591056  66.7171058  13.0283420  54.8517009
  67.0063583  13.4925203  56.1082297  67.2003480  13.0883545  55.4647625
  67.5259737  11.3590147  41.5163741  67.1772541  12.0109872  41.9795291
  67.0456183  11.3447260  40.7887613  67.4029981  11.4533200  41.4774833
  64.0543664  21.0765488  56.8994821  63.5243588  20.3857927  56.9489795
  64.3268757  21.0675674  56.0707529  64.0168386  20.9732620  56.7842237
  75.0863754  21.6591191  45.6232503  75.8097953  22.1249304  45.4797076
  74.6464345  21.7264800  44.8730100  75.1279446  21.7375027  45.4917285
  74.2549909  18.5188733  56.8733192  73.6406902  17.9746783  57.1681827
  74.7717194  18.0052969  56.3939008  74.2405572  18.3625142  56.8457421
  73.4946206  19.5893003  54.6077491  73.0673815  18.9642722  54.1742926
  73.4871151  19.3067925  55.4336498  73.4305348  19.4545784  54.6657318
  66.6108734  14.6258176  57.6765925  66.7702220  13.8701500  58.0817647
  66.4301627  15.1749115  58.3306662  66.6074093  14.5951990  57.8328631
  71.8231916  10.4661757  54.8220025  71.8474403   9.9321870  54.1332805
  72.0743390   9.9579066  55.4845615  71.8641835  10.3122661  54.8184670
  59.3339506  17.7493252  54.2563169  59.2282955  17.7040097  53.3915253
  58.5839726  18.0947033  54.5377454  59.2075109  17.7934161  54.1700499
  68.1033238   9.1932576  54.2025769  68.1431610   9.6941782  54.9160477
  67.2782903   9.2842969  53.9331692  67.9872764   9.2814392  54.2676307
  70.2862851  18.7593316  62.3046064  69.4358482  18.8965030  62.4403709
  70.4490979  18.0257094  62.7493765  70.1846715  18.6707417  62.3901663
  69.5247602  15.7093085  56.4999668  68.6939531  15.8766903  56.2934916
  69.4699119  15.3329036  57.2848553  69.3937017  15.6782817  56.5848196
  67.8983646  13.9848677  47.0289786  68.0386607  14.4821141  47.7318427
  68.3966178  13.2834971  47.1704000  67.9924727  13.9550656  47.1541365
  67.9283868  14.8515788  44.3582363  68.5628947  15.4476213  44.2931824
  68.0109479  14.5519246  45.1728233  68.0340419  14.8956696  44.4685449
  69.5062851  10.7829763  44.3327805  69.8278692  10.3032846  43.6787067
  69.7689795  11.5929410  44.1418616  69.5928876  10.8319661  44.2083297
  72.7359824  21.8048638  57.8526621  72.2284915  22.3584485  58.2967251
  72.4386470  21.8656928  57.0345395  72.6164709  21.8954949  57.7975077
  64.4336856  17.0483629  47.6271909  64.9429085  17.6448136  48.0083214
  64.9071128  16.7809602  46.9448328  64.5780232  17.0969444  47.5826431
  75.3467604  25.7211895  45.7830564  74.6296914  25.5472758  45.3177802
  75.9974342  25.4864468  45.2506050  75.3369454  25.6607688  45.6359782
  77.9315575  14.5976484  49.5271869  77.2606765  15.1406186  49.3984935
  78.6255325  15.0671339  49.2853564  77.9344443  14.7474755  49.4727397
  71.9802309  26.7373196  54.7583628  71.7567963  25.9792025  55.1267654
  71.4912152  26.7671217  54.0364067  71.8745758  26.6295421  54.7060369
  66.7927388  13.6839887  50.4945089  66.0739377  14.1004020  50.7617953
  67.1639750  14.2494126  49.9436727  66.7419319  13.8289169  50.4527896
  76.0926968  14.3167736  56.3847085  76.0724896  14.1351031  57.2381864
  76.1406169  15.1879755  56.3606668  76.0961609  14.4184275  56.5070380
  74.0373298  20.9054928  62.3095561  73.9969153  20.2604605  61.7240717
  74.8496617  20.8491546  62.6220973  74.1516452  20.8013895  62.2692511
  70.6280766  26.9573654  52.2120712  70.2141164  26.2947784  51.8224554
  71.3128140  27.1051513  51.6916406  70.6679138  26.8814312  52.0777209
  73.9946060  26.1163739  52.9644329  73.5962343  26.2266010  52.1965149
  73.3797280  26.3245806  53.5470889  73.8444949  26.1637307  52.9375628
  72.5673962  12.7237887  45.8318469  71.9738801  13.0454884  45.2803036
  72.6049240  11.8778983  45.6239575  72.4848351  12.6462216  45.7201240
  75.4431779  12.6817392  49.2620219  75.2145472  12.7050093  48.4198577
  75.7029855  11.8574859  49.3815229  75.4477967  12.5633472  49.1545417
  69.7251007  14.5351865  58.8645319  69.2129910  13.9273048  59.2230350
  69.5530503  15.2508457  59.3319295  69.6240644  14.5515164  58.9861543
  64.5716722  12.9789440  61.5147681  64.4019312  13.6390815  60.9695887
  64.1282672  13.1896001  62.2360170  64.4816055  13.1075422  61.5409310
  68.4976541  11.2193938  50.5574414  68.9733907  11.5811018  49.9224596
  67.9965141  11.8750406  50.8374557  68.4941900  11.3688127  50.5051155
  61.4718786  15.8836306  56.7736171  60.9245506  15.2136951  56.8917039
  62.2611164  15.5166154  56.8379638  61.5070970  15.7301292  56.8004871
  71.3203195  15.5443763  62.2699582  72.0714522  15.8595440  62.5839136
  71.5125771  15.3422934  61.4433503  71.4594609  15.5611145  62.1942977
  70.5403194  13.3635138  43.9247798  70.9202159  13.3814767  43.1398913
  69.7995790  13.8089127  43.8038646  70.4872032  13.4316912  43.7911367
  60.2305756  15.0957113  53.9282194  60.0527517  14.6433722  54.6537109
  59.9424778  15.8983275  54.1120671  60.1618709  15.1479671  54.0625697
  75.8929337  16.3514831  53.1659584  76.3883002  15.6337826  53.1263604
  75.0829113  16.0485629  53.0514071  75.8473230  16.2012477  53.1433310
  71.3387948  20.2012644  45.3156588  70.5299271  19.8779318  45.2689898
  71.8462857  19.4945866  45.2484837  71.2937615  20.0493960  45.2986883
  61.9678226  17.6284837  51.0403953  61.1023745  17.6170528  50.9286724
  62.0677041  17.4415060  51.8875092  61.8552393  17.5990898  51.1492897
  77.9581156  19.1018518  55.8536713  78.3836227  18.5792940  55.3007138
  77.5938076  19.6999356  55.3325336  77.9667758  19.1128745  55.6945723
  67.5935235  27.3982736  54.6134058  67.9081794  28.2119124  54.6211840
  68.0028649  27.0132955  55.2816217  67.7003333  27.4611438  54.7138150
  74.5459755  22.8152783  52.1837870  75.0170933  23.5293045  52.3527855
  74.8819934  22.2151533  52.7197740  74.6654870  22.8324247  52.2870246
  75.1833701  22.6070717  58.9465563  74.6354647  21.9828600  58.6785628
  75.6446730  22.7964989  58.2309642  75.1700911  22.5429767  58.8015994
  70.5322365   9.5896666  46.6075430  71.3538059   9.7594979  46.3657125
  70.0692016   9.7443927  45.8841728  70.5853527   9.6378399  46.4647074
  64.9348256  21.3455844  54.2612667  65.5393113  21.3051678  53.6326487
  64.7275568  22.1926996  54.2916723  64.9937153  21.4643847  54.1728783
  74.7492028  23.6121789  55.4774904  75.5690402  23.4684755  55.7391199
  74.4686105  24.2367988  56.0191342  74.8288771  23.6832141  55.5962843
  60.1699538  20.3290462  54.1311590  60.0723816  19.5186733  54.4401646
  60.9528408  20.3082255  53.7457858  60.2715674  20.2057552  54.1198453
  73.5796303  35.9263689  50.8523049  73.3446488  35.0931341  50.7455317
  73.7181944  36.2068354  50.0384250  73.5651966  35.8447192  50.7165404
  75.8786391  28.0949419  53.7507356  75.2591422  27.5042067  53.5817371
  75.7770254  28.6860855  53.1171679  75.7724066  28.0953502  53.6312346
  75.6055524  31.6401701  55.9950925  75.4814220  32.2264147  56.6300744
  76.2573808  31.1461897  56.2963200  75.6829173  31.6540506  56.1336855
  75.1413628  40.8049360  52.1279255  74.6581206  41.5299849  52.1038838
  75.9536946  41.1025490  52.2389412  75.1904376  40.9551713  52.1406534
  77.9957825  41.3205535  52.2799535  78.6978404  40.8057525  52.3372291
  77.9155308  41.6479687  53.0846410  78.0881586  41.2919762  52.4072327
  77.7094169  25.6723965  44.3462155  77.5269742  25.8895846  43.5203148
  78.5719782  25.7862978  44.4020769  77.8098758  25.7213863  44.2316642
  77.3208601  37.5111887  51.7885143  78.1597500  37.7434820  51.8358904
  77.3520370  36.6416199  51.7192178  77.4490318  37.4168834  51.7849787
  77.9461304  37.9312763  56.0898448  78.4859528  37.7883894  56.7601821
  77.2631250  38.3309513  56.4582474  77.9253457  37.9692434  56.2432870
  73.3498449  34.1513053  56.2432870  73.0836864  33.3352170  56.4023860
  73.3637013  34.1966209  55.3728385  73.3123171  34.0369958  56.1386352
  77.2556196  28.9498138  42.8584628  76.5414373  28.6636317  43.2707060
  77.7400164  29.2894764  43.4991015  77.2215559  28.9579788  43.0140263
  78.0997055  27.6891432  58.8899877  77.4068852  27.2188411  59.1360609
  78.7157382  27.4629736  59.4641585  78.0881585  27.5858564  59.0109030
  73.7591862  34.9371833  53.5244614  73.5767435  34.9118719  52.6716906
  74.4941531  35.4070771  53.5633523  73.8405926  35.0033195  53.4042532
  76.8237614  31.6556836  60.0326723  77.5477586  31.6409866  60.5191617
  76.9253750  32.3652191  59.5348691  76.9455823  31.7581539  60.0305509
  73.7262773  31.8165334  53.6743681  74.3036275  31.6801784  54.3135926
  73.0276834  31.3601118  53.9289265  73.7083794  31.7287600  53.8065970
  69.2021606  30.6677226  50.3891499  69.2881858  30.2909095  51.1705029
  69.8297403  30.2937672  49.9111457  69.3078157  30.5562709  50.4336976
  74.7897564  39.4368959  54.4422860  74.8301710  39.7083811  53.6142639
  75.3492089  39.9610868  54.8580648  74.8780910  39.5544715  54.3814748
  76.2412151  38.0210908  49.2676786  75.4150268  38.2672646  49.1411065
  76.3024142  37.9422989  50.1338844  76.1286318  38.0455857  49.3765730
  78.4588174  24.0879849  50.2272226  77.5910600  24.1602449  50.2929835
  78.7463379  24.8901928  50.4160201  78.3727923  24.2173997  50.2646992
  77.8733843  34.7028488  52.3011667  77.5847091  34.0765959  52.8357394
  78.7417191  34.6448775  52.3676347  77.9594094  34.6016032  52.3902622
  76.3855527  27.5638109  47.6689102  76.0980322  27.1939379  46.9321049
  77.0725995  28.0332964  47.4072807  76.4444424  27.5785078  47.5204178
  76.8716815  33.8349129  58.2210647  77.3837912  34.1133383  57.5719406
  76.5853157  34.5738423  58.5873460  76.9051678  33.9851483  58.1800525
  73.9583721  28.3419321  48.5174383  74.0599858  29.1445483  48.8455359
  74.7539608  28.1406657  48.2197464  74.0911627  28.4305220  48.5209739
  74.7747453  28.4566499  56.2595505  74.6332945  27.6050440  56.3840013
  75.0588017  28.4995160  55.4357711  74.7955299  28.3366249  56.1563129
  75.5437758  26.3696847  59.5772955  75.0079948  25.7577205  59.8933722
  75.6055523  26.9444983  60.2306622  75.4733391  26.3643775  59.7208382
  77.6626514  33.7777581  49.3893010  77.8191133  33.7124384  50.2449002
  78.0027107  34.5526134  49.1771689  77.7359749  33.8826779  49.4847604
  74.2360776  30.9612532  49.7053777  74.6159741  31.3797077  49.0414044
  73.6616141  31.5425987  50.0122620  74.2072101  31.1090390  49.6530518
  77.8791577  32.5272936  54.3369271  77.0379584  32.4276811  54.5448165
  78.0881585  33.2968417  54.6883592  77.7856270  32.6264980  54.4196586
  75.3567144  30.1492473  52.1654022  74.9623842  30.2235485  51.3904132
  74.8007261  30.5350420  52.7162384  75.2169957  30.2174248  52.1321682
  77.7700385  34.9216699  55.7560904  77.1788318  35.5626197  55.7263919
  78.5321409  35.3454316  55.7292204  77.7948646  35.0792537  55.7476052
  78.1661008  26.0818696  56.4228922  78.6262490  26.1557626  57.1604046
  78.2117115  26.8799950  56.0728743  78.2411563  26.2112843  56.4801678
  74.9548786  29.7107887  58.7980638  75.8174399  29.6103596  58.7117968
  74.6240569  29.1302596  58.2366210  75.0333982  29.6099514  58.7026044
  78.3150572  28.5350336  55.4591056  77.6903642  28.5468728  54.8517009
  77.9796167  29.0110511  56.1082297  78.1736064  28.6068853  55.4647625
  78.4992320  26.8775455  41.5163741  78.1505125  27.5295180  41.9795291
  78.0188766  26.8632568  40.7887613  78.3762564  26.9718508  41.4774833
  75.0276247  36.5950796  56.8994821  74.4976172  35.9043235  56.9489795
  75.3001341  36.5860981  56.0707529  74.9900970  36.4917928  56.7842237
  77.5841317  30.1443484  57.6765925  77.7434804  29.3886808  58.0817647
  77.4034211  30.6934423  58.3306662  77.5806676  30.1137298  57.8328631
  70.3072090  33.2678560  54.2563169  70.2015539  33.2225405  53.3915253
  69.5572310  33.6132341  54.5377454  70.1807692  33.3119468  54.1700499
  75.4069439  32.5668937  47.6271909  75.9161669  33.1633444  48.0083214
  75.8803712  32.2994910  46.9448328  75.5512815  32.6154752  47.5826431
  77.7659971  29.2025195  50.4945089  77.0471960  29.6189328  50.7617953
  78.1372333  29.7679434  49.9436727  77.7151903  29.3474477  50.4527896
  75.5449305  28.4974748  61.5147681  75.3751896  29.1576123  60.9695887
  75.1015255  28.7081309  62.2360170  75.4548639  28.6260730  61.5409310
  72.4451370  31.4021614  56.7736171  71.8978089  30.7322259  56.8917039
  73.2343748  31.0351461  56.8379638  72.4803553  31.2486600  56.8004871
  71.2038339  30.6142421  53.9282194  71.0260100  30.1619030  54.6537109
  70.9157361  31.4168583  54.1120671  71.1351292  30.6664979  54.0625697
  72.9410809  33.1470145  51.0403953  72.0756329  33.1355836  50.9286724
  73.0409625  32.9600368  51.8875092  72.8284976  33.1176206  51.1492897
  75.9080839  36.8641152  54.2612667  76.5125697  36.8236986  53.6326487
  75.7008152  37.7112304  54.2916723  75.9669736  36.9829155  54.1728783
  71.1432121  35.8475770  54.1311590  71.0456399  35.0372041  54.4401646
  71.9260991  35.8267563  53.7457858  71.2448258  35.7242860  54.1198453
  73.2747127  12.8641820  37.7863095  73.0397312  12.0309472  37.6795364
  73.4132768  13.1446486  36.9724296  73.2602790  12.7825323  37.6505450
  74.8364452  17.7427491  39.0619302  74.3532030  18.4677980  39.0378885
  75.6487770  18.0403621  39.1729459  74.8855199  17.8929844  39.0746581
  77.6908649  18.2583667  39.2139581  78.3929228  17.7435656  39.2712338
  77.6106132  18.5857818  40.0186457  77.7832409  18.2297893  39.3412374
  77.0159424  14.4490019  38.7225189  77.8548324  14.6812951  38.7698951
  77.0471194  13.5794330  38.6532225  77.1441142  14.3546965  38.7189834
  77.6412127  14.8690894  43.0238495  78.1810352  14.7262025  43.6941867
  76.9582074  15.2687645  43.3922521  77.6204281  14.9070565  43.1772917
  73.0449273  11.0891185  43.1772917  72.7787688  10.2730301  43.3363907
  73.0587837  11.1344340  42.3068432  73.0073995  10.9748089  43.0726398
  73.4542686  11.8749964  40.4584661  73.2718259  11.8496850  39.6056953
  74.1892355  12.3448902  40.4973570  73.5356750  11.9411326  40.3382579
  74.4848388  16.3747091  41.3762907  74.5252534  16.6461942  40.5482686
  75.0442912  16.8988999  41.7920694  74.5731734  16.4922846  41.3154795
  75.9362975  14.9589040  36.2016833  75.1101092  15.2050777  36.0751111
  75.9974966  14.8801120  37.0678891  75.8237142  14.9833989  36.3105777
  78.6567719  19.5533302  36.9696012  78.4368015  19.2630657  37.7622679
  78.4362241  18.8948257  36.4413925  78.5915313  19.4133011  37.0084921
  77.7716940  13.2801870  35.1594079  78.5262908  13.6614909  35.3729541
  77.1787552  13.7313013  35.6140775  77.7953653  13.4030697  35.2576957
  77.4651209  11.8594830  42.6900951  76.8739142  12.5004328  42.6603966
  78.2272233  12.2832447  42.6632251  77.4899470  12.0170668  42.6816098
  74.7227071  13.5328927  43.8334867  74.1926996  12.8421366  43.8829842
  74.9952165  13.5239113  43.0047576  74.6851794  13.4296059  43.7182283
  70.0022914  10.2056691  41.1903216  69.8966363  10.1603536  40.3255300
  69.2523133  10.5510472  41.4717501  69.8758516  10.2497600  41.1040545
  78.2618643  19.8546175  41.5474105  78.5765202  20.6682563  41.5551887
  78.6712056  19.4696394  42.2156264  78.3686741  19.9174877  41.6478197
  75.6031663  13.8019283  41.1952713  76.2076520  13.7615118  40.5666534
  75.3958976  14.6490435  41.2256769  75.6620560  13.9207286  41.1068830
  70.8382945  12.7853901  41.0651637  70.7407223  11.9750172  41.3741693
  71.6211815  12.7645694  40.6797905  70.9399082  12.6620991  41.0538500
  26.3774062  30.5641110  74.3003047  26.3468066  31.4185747  74.4721317
  26.9755411  30.2636403  74.8589191  26.4611220  30.6457607  74.4077850
  13.9614887  39.1879479  74.8193209  13.2097786  38.8095017  74.5909254
  14.4100898  39.2197913  74.0712020  13.9164553  39.1365086  74.6750711
  19.4139846  39.6104849  70.2478756  19.0791215  40.2881770  69.8122978
  19.9266717  39.2210160  69.6595628  19.4405428  39.6529427  70.0965548
  18.9544138  41.5619117  76.1889868  19.3383517  42.1306016  75.6494643
  18.8903279  40.8368628  75.7095684  19.0017565  41.5394581  76.0383730
  24.1990637  33.1393412  72.5721357  24.0830162  33.8901098  73.0013495
  24.9946523  32.8817366  72.8217444  24.2995226  33.2128259  72.6725449
  15.3800382  44.1175460  78.4870838  16.0237838  44.5588624  78.8766996
  15.7056638  43.3128887  78.4001097  15.5232211  44.0640655  78.5316315
  16.0820962  37.1287435  73.8590700  16.4036803  37.6692643  73.2552008
  16.7293059  36.5584207  73.9912989  16.2247017  37.1246610  73.7897735
  18.3210606  35.5173875  73.9304878  18.7604241  34.9090976  74.3759650
  18.1715268  35.1381249  73.1590343  18.3632071  35.3712346  73.8824045
  21.9219942  33.8701057  70.8835647  21.8371237  34.7262023  71.0285216
  22.4104325  33.5945381  71.5517806  21.9808839  33.9558378  71.0037728
  22.8538375  30.4885851  72.3833382  22.3249847  30.7045484  73.0430688
  23.3763395  31.1821989  72.3034351  22.8526828  30.6228988  72.4688981
  28.3086428  36.0632155  77.7566427  27.4784131  36.2742799  77.9199843
  28.2595681  35.2369210  77.4808710  28.1793164  35.9721761  77.7403792
  14.7437983  34.3849067  71.1840850  14.1595198  34.8899099  71.5906714
  14.3408078  34.1591454  70.4437442  14.5977287  34.4257316  71.1345875
  19.2015198  30.6314720  69.6609771  19.4411201  30.8392703  68.8485114
  19.5231039  29.8272228  69.7698715  19.2852355  30.5428821  69.5570324
  25.5650743  36.7331510  77.8931142  25.1285975  36.7368252  78.6490114
  25.2313659  37.4137009  77.4610720  25.4513363  36.8343965  77.9411975
  12.4124579  28.2452607  68.7169895  11.6982757  27.9590786  69.1292327
  12.8968548  28.5849233  69.3576282  12.3783943  28.2534257  68.8725530
  28.6995090  33.4512429  76.7850780  29.3611524  32.8903098  76.6846688
  28.0586502  32.9564460  77.1103471  28.7023957  33.2948839  76.8183120
  19.5871897  36.7482561  69.0931703  20.0023046  36.4167585  68.4016199
  18.7563827  36.5151463  68.9651839  19.5259906  36.6653817  68.9722550
  24.9859920  34.4677812  76.5262768  25.2215510  34.6123011  75.6989619
  25.1349484  35.2320220  76.9194282  25.0425724  34.6016866  76.4626372
  26.8150377  33.3079478  74.3632372  27.1458594  33.8407118  73.7572467
  27.3883465  33.3618366  75.0194323  26.9484056  33.3949047  74.3710154
  22.2805288  32.9993120  68.2792904  22.1985450  33.0695307  69.1447891
  22.9185008  33.5622864  68.0876645  22.3625125  33.0932091  68.3782854
  27.9229729  28.5489975  75.8672534  27.6666293  27.7369916  75.6770417
  28.7659043  28.5567542  75.6402721  28.0095754  28.4301972  75.8057351
  19.3845398  33.0213575  71.2901511  20.1986037  33.3128467  71.1784282
  19.3204539  32.3673437  70.7159804  19.4948137  32.9678769  71.1890348
  15.8956121  31.7137382  70.7548712  16.2801274  31.4945089  71.5065257
  15.6467741  32.5400327  70.8849789  15.9158194  31.8035528  70.8849789
  16.1779364  39.9342258  72.8281082  16.4677662  39.5431239  72.1040309
  16.9082845  40.1158963  73.2686358  16.3286248  39.9036072  72.7863889
  14.1185279  41.9109640  75.8941232  13.8985575  41.6206995  76.6867899
  13.8979801  41.2524595  75.3659145  14.0532873  41.7709349  75.9330141
  16.2853235  43.2839030  74.6771925  16.9377293  42.7515472  74.9062951
  15.5878844  42.9307682  75.0639799  16.2783953  43.1528553  74.7684092
  24.2793153  35.6043444  74.0202904  24.8451186  36.2636654  73.9361447
  23.6321057  35.9493142  74.4919306  24.2671910  35.7525385  74.0775660
  20.7499731  38.5482228  73.4439983  20.5086407  37.8150089  73.0367048
  20.9301064  39.0969085  72.7906316  20.7407355  38.5204619  73.2870206
  25.4755851  35.6549672  70.8128540  25.0962660  34.8686810  70.8057830
  24.8122097  36.2036529  70.6700185  25.3214326  35.6194496  70.7909337
  18.3002759  39.2063191  74.6517367  19.0652650  38.9372835  74.3300031
  18.1980849  38.7213201  75.3687429  18.3984255  39.0952755  74.7097194
  20.8221420  36.2375375  66.6317316  21.5894405  36.2975500  66.2223168
  20.3752729  35.6655816  66.1473634  20.8694847  36.1611950  66.4995026
  23.7215950  37.8995163  71.1480226  23.8035787  38.7062149  70.8241677
  24.2065692  37.9191122  71.8721000  23.8053108  38.0215825  71.2067125
  19.3574043  32.4489934  74.1171640  19.8989588  31.9460315  74.5810260
  19.6720602  32.3955128  73.3061125  19.4838440  32.3669355  74.0655452
  17.5260493  37.8407285  71.4011668  17.5953313  36.9821824  71.5404668
  18.3048948  38.0579166  71.0730692  17.6513343  37.7460149  71.3728825
  21.9167980  40.2644987  75.6148161  21.5247772  39.9611702  74.8971027
  22.0721052  41.1014077  75.4253115  21.8821570  40.3428823  75.4804658
  22.0807655  36.8294975  75.5554192  21.7222310  37.0009618  76.3318224
  21.5946366  37.2908181  74.9982190  21.9566352  36.9233946  75.5879461
  16.8696020  32.5094141  68.0954426  17.1588545  33.2859023  68.3698000
  16.9567819  31.9982872  68.7968925  16.9250277  32.5486059  68.2396924
  22.6858285  39.6680479  79.0478196  22.4877974  40.1571294  78.3534407
  22.0645996  39.8721721  79.6262329  22.5645850  39.7697018  79.0301419
  21.6627639  27.9027404  72.3508113  21.1350658  27.9856148  71.6613822
  22.1223347  28.6445275  72.3472758  21.6529490  28.0248066  72.2482808
  13.6560704  26.1729924  67.3749008  13.3073509  26.8249649  67.8380558
  13.1757150  26.1587037  66.6472879  13.5330948  26.2672977  67.3360099
  21.2164722  36.4730968  71.4817770  21.9398921  36.9389081  71.3382343
  20.7765313  36.5404577  70.7315367  21.2580414  36.5514804  71.3502551
  14.0584836  29.6655565  70.2167630  14.6929915  30.2615990  70.1517091
  14.1410446  29.3659023  71.0313500  14.1641387  29.7096473  70.3270716
  21.4768571  40.5351672  71.6415831  20.7597881  40.3612535  71.1763068
  22.1275309  40.3004245  71.1091317  21.4670422  40.4747465  71.4945049
  16.7581733  41.7713431  78.0705979  16.3442132  41.1087561  77.6809821
  17.4429108  41.9191290  77.5501673  16.7980105  41.6954089  77.9362476
  27.8588870  35.5055483  72.2072686  28.2422476  36.2546839  72.4370783
  27.0632983  35.7521303  71.9484675  27.7982652  35.6525177  72.2030260
  16.6704162  28.1774915  69.7833065  17.0503127  28.1954544  68.9984180
  15.9296758  28.6228904  69.6623913  16.6173000  28.2456689  69.6496633
  17.4688916  35.0152421  71.1741855  16.6600239  34.6919095  71.1275165
  17.9763825  34.3085643  71.1070104  17.4238583  34.8633737  71.1572150
  30.5506330  45.1702069  79.0555978  29.6944226  45.3310567  79.1065094
  30.5973984  44.2994133  79.0761039  30.4305442  45.0652871  79.0662044
  24.9347470  54.7064787  74.8193209  24.1830370  54.3280325  74.5909254
  25.3833482  54.7383221  74.0712020  24.8897137  54.6550394  74.6750711
  30.3872430  55.1290157  70.2478756  30.0523799  55.8067078  69.8122978
  30.8999301  54.7395468  69.6595628  30.4138011  55.1714735  70.0965548
  29.9276721  57.0804425  76.1889868  30.3116101  57.6491324  75.6494643
  29.8635863  56.3553936  75.7095684  29.9750149  57.0579889  76.0383730
  33.3958152  47.2294113  81.6987629  33.9414112  47.9079200  81.7581599
  33.3375028  47.0881574  80.8389211  33.4674066  47.3086115  81.5799690
  26.5132226  54.7183179  77.0855982  26.6142589  53.9083533  77.3953110
  25.9173972  54.6240126  76.4555660  26.4404765  54.5848207  77.0382220
  35.1723220  48.6578720  72.5721357  35.0562746  49.4086406  73.0013495
  35.9679107  48.4002673  72.8217444  35.2727810  48.7313567  72.6725449
  26.3532966  59.6360768  78.4870838  26.9970421  60.0773932  78.8766996
  26.6789221  58.8314195  78.4001097  26.4964795  59.5825963  78.5316315
  19.7097271  50.7403466  76.7108315  19.4747455  49.9071118  76.6040584
  19.8482911  51.0208131  75.8969516  19.6952933  50.6586969  76.5750670
  22.0087358  42.9089196  79.6092623  21.3892390  42.3181844  79.4402638
  21.9071222  43.5000632  78.9756946  21.9025034  42.9093279  79.4897613
  27.0553546  52.6472743  73.8590700  27.3769387  53.1877951  73.2552008
  27.7025642  52.0769515  73.9912989  27.1979601  52.6431918  73.7897735
  29.1055254  44.6488738  73.9425086  29.8035418  44.8276866  74.4346549
  29.4207586  44.1259078  73.3195476  29.2550591  44.5982510  73.9227096
  21.7356491  46.4541478  81.8536192  21.6115188  47.0403924  82.4886011
  22.3874776  45.9601674  82.1548467  21.8130140  46.4680283  81.9922121
  29.2943189  51.0359183  73.9304878  29.7336825  50.4276284  74.3759650
  29.1447852  50.6566557  73.1590343  29.3364655  50.8897654  73.8824045
  26.7614832  49.6303195  81.1323703  27.4063835  49.1375638  80.8134652
  27.0016609  49.7727982  81.9589781  26.8925417  49.5780637  81.2073236
  29.3000923  52.4758101  80.7830596  29.5824166  51.6809507  80.5617352
  30.0287084  52.9538688  80.8035657  29.4490487  52.4292698  80.7533611
  27.2782117  40.0181135  78.0246361  26.9485447  40.4692278  77.3550060
  26.6027119  39.9397298  78.5719367  27.1292554  40.0732270  78.0069584
  32.8952526  49.3886364  70.8835647  32.8103821  50.2447331  71.0285216
  33.3836909  49.1130689  71.5517806  32.9541423  49.4743686  71.0037728
  34.4858525  36.0066658  76.2695971  34.1711966  36.6970136  76.7016394
  33.9685467  35.9511440  75.5681472  34.3622996  36.1001546  76.2292921
  33.8270959  46.0071159  72.3833382  33.2982430  46.2230792  73.0430688
  34.3495979  46.7007297  72.3034351  33.8259412  46.1414296  72.4688981
  39.2819012  51.5817463  77.7566427  38.4516715  51.7928107  77.9199843
  39.2328264  50.7554518  77.4808710  39.1525747  51.4907069  77.7403792
  25.7170567  49.9034375  71.1840850  25.1327782  50.4084407  71.5906714
  25.3140662  49.6776762  70.4437442  25.5709871  49.9442624  71.1345875
  21.2714595  55.6189137  77.9864522  20.7882174  56.3439626  77.9624105
  22.0837914  55.9165267  78.0974679  21.3205343  55.7691490  77.9991801
  27.3428749  54.4121317  80.5914336  26.8255691  54.0528732  79.9875644
  28.0403141  53.8883492  80.6020402  27.3694331  54.2819005  80.5044595
  30.1747781  46.1500027  69.6609771  30.4143785  46.3578011  68.8485114
  30.4963622  45.3457536  69.7698715  30.2584939  46.0614129  69.5570324
  25.4838071  38.0793423  73.5069309  26.2384039  38.4471740  73.2686359
  25.3065606  38.4532978  74.2748488  25.5692550  38.1891611  73.5854197
  24.1258793  56.1345312  78.1384801  24.8279372  55.6197302  78.1957558
  24.0456276  56.4619464  78.9431677  24.2182553  56.1059539  78.2657594
  38.7772970  44.2287864  81.5516848  37.9401391  44.2990051  81.7864442
  38.7461201  44.2312359  80.6791150  38.6491253  44.2398091  81.4576396
  23.8395136  40.4863742  70.2047422  23.6570709  40.7035623  69.3788414
  24.7020749  40.6002755  70.2606036  23.9399726  40.5353640  70.0901909
  23.4509568  52.3251664  77.6470409  24.2898467  52.5574597  77.6944171
  23.4821337  51.4555976  77.5777445  23.5791286  52.2308611  77.6435054
  24.0762271  52.7452540  81.9483715  24.6160496  52.6023671  82.6187087
  23.3932217  53.1449290  82.3167741  24.0554425  52.7832211  82.1018137
  29.5194855  37.4890153  73.2396445  30.2481016  37.3106108  72.7934602
  29.6089748  38.3308233  73.4503624  29.6401517  37.5874031  73.2049963
  33.5003156  48.4243540  77.1428739  34.2560671  48.8575055  77.1817648
  33.6065480  47.7748310  77.7163375  33.6273327  48.3921024  77.2326765
  36.5383327  52.2516818  77.8931142  36.1018559  52.2553560  78.6490114
  36.2046243  52.9322317  77.4610720  36.4245947  52.3529273  77.9411975
  36.4580810  39.2930645  80.1360570  37.1006718  39.3628750  80.7222486
  36.7103831  38.6259868  79.6340112  36.5902942  39.2056994  80.1487849
  23.3857163  43.7637915  68.7169895  22.6715340  43.4776094  69.1292327
  23.8701132  44.1034541  69.3576282  23.3516526  43.7719565  68.8725530
  39.6727673  48.9697737  76.7850780  40.3344107  48.4088406  76.6846688
  39.0319085  48.4749768  77.1103471  39.6756541  48.8134146  76.8183120
  30.5604481  52.2667869  69.0931703  30.9755629  51.9352893  68.4016199
  29.7296411  52.0336771  68.9651839  30.4992490  52.1839125  68.9722550
  19.8892830  49.7511610  79.3829881  19.7068403  49.7258496  78.5302173
  20.6242499  50.2210548  79.4218790  19.9706894  49.8172972  79.2627799
  35.9592504  49.9863120  76.5262768  36.1948093  50.1308319  75.6989619
  36.1082068  50.7505528  76.9194282  36.0158307  50.1202174  76.4626372
  37.7882961  48.8264786  74.3632372  38.1191178  49.3592426  73.7572467
  38.3616049  48.8803674  75.0194323  37.9216640  48.9134355  74.3710154
  33.0014850  46.6729688  75.0455952  33.0961704  47.4118983  75.4995578
  32.3773693  46.2447164  75.4790517  32.9223880  46.7191009  75.1764100
  19.8563740  46.6305111  79.5328947  20.4337243  46.4941561  80.1721193
  19.1577802  46.1740895  79.7874532  19.8384761  46.5427377  79.6651237
  33.2537871  48.5178428  68.2792904  33.1718034  48.5880615  69.1447891
  33.8917592  49.0808172  68.0876645  33.3357708  48.6117399  68.3782854
  26.6131042  48.2839166  77.7467431  26.3550287  47.4510901  77.7198730
  26.6679525  48.5096779  76.9059931  26.5830820  48.1936937  77.6187567
  31.6932092  40.3867617  77.8471523  30.9888419  39.8976802  78.0055442
  31.7417067  40.3990091  76.9759968  31.5962144  40.3157265  77.7410863
  25.5865754  45.8376929  78.2332325  25.0115346  45.9969097  78.8696286
  25.2101431  45.2012338  77.7700776  25.4468567  45.7674742  78.2586884
  29.2539043  44.3100278  83.0924704  28.8653476  43.8854496  82.4376895
  28.5893741  44.5582428  83.6001730  29.0985971  44.2838999  83.0712572
  38.8962312  44.0675283  75.8672534  38.6398877  43.2555224  75.6770417
  39.7391626  44.0752850  75.6402721  38.9828338  43.9487280  75.8057351
  15.3322573  45.4817003  76.2476766  15.4182825  45.1048872  77.0290296
  15.9598371  45.1077449  75.7696724  15.4379124  45.3702486  76.2922243
  33.0765405  38.0074907  80.6048688  33.4575916  37.3253078  80.9916562
  32.2728689  37.7184509  80.4224352  33.0141866  37.8641955  80.6352744
  30.3577981  48.5398883  71.2901511  31.1718620  48.8313775  71.1784282
  30.2937123  47.8858745  70.7159804  30.4680720  48.4864077  71.1890348
  26.2285890  52.0120400  76.4173823  26.8659837  51.7732148  76.9625616
  26.6540961  52.2157559  75.6826983  26.3862056  52.0071410  76.3890980
  26.8688705  47.2322690  70.7548712  27.2533857  47.0130396  71.5065257
  26.6200325  48.0585635  70.8849789  26.8890777  47.3220836  70.8849789
  28.6107362  52.4892823  78.0967609  28.6846370  52.3267994  78.9509459
  29.4276868  52.6783012  77.8528091  28.7423720  52.4929565  78.1865635
  22.3713118  52.8350685  75.1262053  21.5451236  53.0812423  74.9996331
  22.4325109  52.7562766  75.9924111  22.2587285  52.8595634  75.2350997
  24.5889142  38.9019626  76.0857493  23.7211567  38.9742226  76.1515102
  24.8764346  39.7041705  76.2745468  24.5028890  39.0313774  76.1232259
  33.7122031  39.0497486  84.4168815  34.4575623  38.8607296  84.0032240
  33.2959335  39.5755724  83.8582671  33.7607005  39.0999631  84.2733388
  27.1511947  55.4527566  72.8281082  27.4410246  55.0616547  72.1040309
  27.8815428  55.6344271  73.2686358  27.3018831  55.4221379  72.7863889
  41.0884302  46.4206714  79.3674320  41.6392223  45.7874783  79.6071412
  41.0728417  46.9522107  80.0589824  41.1669498  46.4055662  79.5053178
  27.7406692  50.2545312  83.9134213  27.2418386  50.9661079  83.9919101
  28.5506917  50.5745978  83.8752375  27.7862799  50.4072160  83.9190781
  25.0917863  57.4294948  75.8941232  24.8718158  57.1392303  76.6867899
  24.8712385  56.7709903  75.3659145  25.0265457  57.2894656  75.9330141
  24.0034810  49.5168265  78.1596934  23.7148059  48.8905736  78.6942661
  24.8718158  49.4588552  78.2261614  24.0895062  49.4155809  78.2487888
  34.7912708  44.6603048  78.4778916  34.4477474  43.9393383  78.8286165
  34.8905750  44.4516899  77.6357274  34.7554751  44.5227251  78.4050596
  27.2585819  58.8024338  74.6771925  27.9109877  58.2700780  74.9062951
  26.5611427  58.4492990  75.0639799  27.2516537  58.6713861  74.7684092
  24.2067083  51.1563516  74.0839299  24.9613051  51.5376555  74.2974761
  23.6137696  51.6074659  74.5385995  24.2303797  51.2792343  74.1822177
  35.2525737  51.1228752  74.0202904  35.8183770  51.7821962  73.9361447
  34.6053640  51.4678450  74.4919306  35.2404493  51.2710693  74.0775660
  25.5265310  52.3272077  79.4579414  25.0046064  52.4672369  80.1431279
  25.9139330  51.5682741  79.6481532  25.5069011  52.2357601  79.5880491
  22.5156494  42.3777886  73.5274369  22.2281290  42.0079156  72.7906316
  23.2026962  42.8472741  73.2658074  22.5745391  42.3924855  73.3789445
  31.7232315  54.0667536  73.4439983  31.4818991  53.3335397  73.0367048
  31.9033648  54.6154393  72.7906316  31.7139939  54.0389927  73.2870206
  26.9531636  49.3576096  74.8560905  26.7574418  49.9650831  74.2621208
  27.1765981  48.6644040  74.3752579  26.9566277  49.3453622  74.6976986
  25.3510166  46.2430834  74.9741774  26.0732818  46.4071992  74.5145580
  24.8718158  46.9640499  74.8681113  25.3873896  46.3729064  74.8907388
  33.3103673  42.5794633  80.3538459  32.4714774  42.6055912  80.1176722
  33.3808041  43.2265368  80.9343805  33.1972067  42.6790759  80.4047575
  31.7572951  39.4780010  75.0866075  32.4599304  39.2787758  74.6086033
  31.4917140  38.7055952  75.3934918  31.8219584  39.3342976  75.0611516
  37.1861197  47.7862620  77.6399700  37.0995172  47.9418046  78.4934479
  36.7311677  48.4300695  77.2659105  37.1064454  47.9038375  77.7106807
  20.0884689  43.1559098  74.3759650  20.1900825  43.9585260  74.7040625
  20.8840575  42.9546434  74.0782731  20.2212594  43.2444997  74.3795005
  31.0587013  45.1073367  76.2625260  30.8121727  45.0269118  77.0962049
  31.3872136  44.3226834  76.0687787  31.0708257  44.9799632  76.3572783
  34.9535062  51.8156726  80.0512041  34.8149421  52.5137772  80.5560783
  34.1735060  51.6605382  79.6948223  34.8178289  51.8956893  80.0738315
  27.0184040  47.8430085  85.6748243  27.1627416  48.4231293  85.0391353
  27.3659689  48.2206382  86.3798098  27.0911502  47.9850789  85.6847238
  29.1903958  47.0420254  83.4573375  28.4427272  47.2351268  83.0521653
  29.3445483  46.2165473  83.2197496  29.1026385  46.9485365  83.3618780
  26.0911795  56.0332857  82.5409270  26.2401359  55.4735773  81.8882674
  26.8711797  56.1124859  82.9241789  26.2285889  55.9618422  82.5006219
  36.4488435  51.1734980  70.8128540  36.0695244  50.3872118  70.8057830
  35.7854680  51.7221837  70.6700185  36.2946910  51.1379804  70.7909337
  33.9033061  34.1160679  78.2162621  34.0216629  34.5737143  77.4829924
  33.7295236  33.3105941  77.9298839  33.8952232  34.0654452  78.0663555
  29.2735343  54.7248499  74.6517367  30.0385234  54.4558143  74.3300031
  29.1713433  54.2398509  75.3687429  29.3716838  54.6138063  74.7097194
  27.3088113  42.9272908  81.1910602  26.5184187  42.7464368  81.5127938
  27.7048736  42.1499861  81.1740897  27.2504989  42.7860369  81.2363151
  31.7954003  51.7560683  66.6317316  32.5626989  51.8160808  66.2223168
  31.3485312  51.1841124  66.1473634  31.8427431  51.6797258  66.4995026
  32.6931799  50.5615338  78.9170048  32.0176801  50.3300571  79.4183435
  32.7024175  49.9536521  78.2912153  32.5950304  50.4374264  78.8986200
  29.8225943  45.4033167  85.6734101  29.7585084  46.2643124  85.5454238
  29.9623131  45.0865161  84.8729653  29.8341413  45.4833334  85.5362314
  34.6948534  53.4180471  71.1480226  34.7768371  54.2247457  70.8241677
  35.1798276  53.4376430  71.8721000  34.7785691  53.5401133  71.2067125
  23.7927482  48.5917358  75.2478277  23.9492101  48.5264161  76.1034269
  24.1328075  49.3665911  75.0356956  23.8660717  48.6966556  75.3432871
  30.3306626  47.9675242  74.1171640  30.8722172  47.4645623  74.5810260
  30.6453185  47.9140436  73.3061125  30.4571024  47.8854663  74.0655452
  28.4993076  53.3592593  71.4011668  28.5685896  52.5007132  71.5404668
  29.2781531  53.5764474  71.0730692  28.6245926  53.2645457  71.3728825
  31.4795896  42.8611546  84.1693940  31.6937865  42.2222460  83.6157294
  30.8629795  43.3057370  83.7401802  31.4201225  42.8321690  84.0244371
  32.8900564  55.7830295  75.6148161  32.4980355  55.4797010  74.8971027
  33.0453636  56.6199384  75.4253115  32.8554154  55.8614131  75.4804658
  20.3661743  45.7752309  75.5639044  20.7460708  46.1936854  74.8999311
  19.7917108  46.3565764  75.8707887  20.3373068  45.9230167  75.5115785
  33.6434984  44.4700611  85.1077247  32.8311666  44.1626502  85.1890420
  34.1024918  43.9899612  85.6719960  33.5915369  44.3537104  85.2031842
  33.0540238  52.3480283  75.5554192  32.6954893  52.5194926  76.3318224
  32.5678949  52.8093489  74.9982190  32.9298935  52.4419254  75.5879461
  30.8710624  35.9711482  79.1581283  30.0004182  35.9450203  79.1114593
  31.1250966  35.7988674  78.3407129  30.7804185  35.9421626  79.0301420
  27.8428604  48.0279449  68.0954426  28.1321129  48.8044331  68.3698000
  27.9300403  47.5168180  68.7968925  27.8982860  48.0671367  68.2396924
  27.8959765  37.9817710  80.6154754  27.3798254  37.2897902  80.7406333
  27.3353694  38.6488487  80.5617352  27.7366278  37.9780968  80.6260820
  35.9401978  45.0873325  81.0687308  35.5129586  44.9999674  80.3135408
  35.3028031  45.1951101  81.6542152  35.7831585  45.0905985  81.0432750
  24.0092545  47.3412713  80.1954538  23.1680551  47.2416588  80.4033432
  24.2182553  48.1108194  80.5468859  23.9157237  47.4404757  80.2781853
  21.4868112  44.9632250  78.0239289  21.0924810  45.0375262  77.2489399
  20.9308229  45.3490197  78.5747651  21.3470924  45.0314025  77.9906949
  33.1233059  37.9413544  77.7043168  33.3282652  37.8735852  78.5500165
  32.7959483  38.7472366  77.6364345  33.1048307  38.0499485  77.8202823
  27.8209210  45.2694113  79.4452136  27.5172347  44.7150101  80.0462543
  27.1188630  45.4486322  78.9580170  27.6725420  45.2138895  79.4621841
  26.8775307  42.5794632  74.0096838  27.1535041  41.8613545  73.5974405
  27.4773976  43.1779552  73.8017944  27.0068571  42.5615003  73.9177599
  36.3766746  38.4945309  77.1845933  35.7641060  38.9815711  77.5699665
  36.4730921  37.8188799  77.7283584  36.3004644  38.4663617  77.3224791
  30.3785827  40.2508150  72.2843433  30.8329574  40.4218710  73.0091277
  30.8525873  39.6376260  71.8841208  30.5154147  40.1859035  72.3317194
  23.9001353  49.7356476  81.6146171  23.3089286  50.3765974  81.5849186
  24.6622376  50.1594093  81.5877471  23.9249613  49.8932314  81.6061318
  33.6590869  55.1865787  79.0478196  33.4610558  55.6756602  78.3534407
  33.0378580  55.3907029  79.6262329  33.5378433  55.2882325  79.0301419
  27.7198847  46.9550684  73.3888440  28.4640892  47.3424960  73.6271390
  27.8659543  46.1108109  73.5528928  27.8509432  46.8881157  73.4482410
  29.6378423  38.7500943  78.4220301  28.7914468  38.9223751  78.2961651
  29.6349555  37.9450287  78.7586130  29.5125573  38.6561972  78.4531428
  30.7076723  42.5276157  79.2882359  30.2336677  42.0017919  79.7987670
  31.0794859  41.9805630  78.7197221  30.6926612  42.3692154  79.2797506
  36.9713454  47.5878533  80.6989140  36.7311677  46.7484948  80.7031566
  37.4505461  47.6678700  81.4229913  37.0065637  47.4759933  80.8063942
  32.6360223  43.4212712  72.3508113  32.1083241  43.5041456  71.6613822
  33.0955931  44.1630583  72.3472758  32.6262073  43.5433374  72.2482808
  38.9718641  44.3679990  78.6518399  38.7328411  44.3275824  77.8139183
  39.1352542  45.2151142  78.7784120  38.9608944  44.4872075  78.5471881
  24.4451539  43.3490113  81.3176323  23.8204609  43.3608505  80.7102276
  24.1097134  43.8250288  81.9667563  24.3037031  43.4208630  81.3232892
  24.6293288  41.6915232  67.3749008  24.2806092  42.3434957  67.8380558
  24.1489734  41.6772345  66.6472879  24.5063532  41.7858285  67.3360099
  32.1897305  51.9916276  71.4817770  32.9131504  52.4574388  71.3382343
  31.7497896  52.0589885  70.7315367  32.2312998  52.0700112  71.3502551
  31.3583460  48.8513818  82.7318459  30.7440454  48.3071868  83.0267094
  31.8750745  48.3378054  82.2524275  31.3439123  48.6950227  82.7042687
  30.5979758  49.9218088  80.4662758  30.1707366  49.2967806  80.0328193
  30.5904702  49.6393010  81.2921765  30.5338899  49.7870868  80.5242585
  28.9265467  40.7986842  80.6805292  28.9507954  40.2646955  79.9918072
  29.1776941  40.2904151  81.3430882  28.9675386  40.6447746  80.6769936
  25.2066789  39.5257661  80.0611036  25.2465161  40.0266867  80.7745743
  24.3816454  39.6168054  79.7916959  25.0906315  39.6139477  80.1261574
  26.6281153  46.0418170  82.3584935  25.7973083  46.2091988  82.1520183
  26.5732670  45.6654121  83.1433820  26.4970568  46.0107902  82.4433463
  25.0017197  44.3173762  72.8875053  25.1420158  44.8146226  73.5903694
  25.4999730  43.6160056  73.0289266  25.0958278  44.2875741  73.0126632
  25.0317419  45.1840873  70.2167630  25.6662499  45.7801298  70.1517091
  25.1143030  44.8844331  71.0313500  25.1373970  45.2281781  70.3270716
  26.6096402  41.1154848  70.1913071  26.9312243  40.6357931  69.5372334
  26.8723346  41.9254494  70.0003883  26.6962427  41.1644746  70.0668564
  32.0055557  40.5027042  82.5536551  32.4310628  40.0499569  81.9420077
  31.3912550  39.9487113  82.8301338  31.9784202  40.3541019  82.5041576
  21.5370407  47.3808714  73.4857176  22.0462636  47.9773221  73.8668481
  22.0104679  47.1134687  72.8033595  21.6813783  47.4294529  73.4411698
  32.4501155  56.0536980  71.6415831  31.7330465  55.8797843  71.1763068
  33.1007893  55.8189553  71.1091317  32.4403006  55.9932773  71.4945049
  30.4449780  36.9742142  75.9627128  29.8018098  36.8239788  76.5312266
  30.1049187  36.7284487  75.1976232  30.2994857  36.9154265  75.9330143
  35.0349126  44.9301569  75.3857136  34.3640316  45.4731271  75.2570202
  35.7288877  45.3996424  75.1438831  35.0377994  45.0799840  75.3312664
  29.0835860  57.0698281  80.6168894  28.8601514  56.3117110  80.9852921
  28.5945703  57.0996302  79.8949334  28.9779309  56.9620505  80.5645635
  35.1977254  41.3857453  78.2947509  35.5504864  40.9587176  78.9693308
  34.3392055  41.3008296  78.4248586  35.1226698  41.3102193  78.4142520
  23.8960939  44.0164972  76.3530356  23.1772928  44.4329105  76.6203219
  24.2673301  44.5819211  75.8021994  23.8452870  44.1614254  76.3113163
  33.1960520  44.6492821  82.2432352  33.1758447  44.4676116  83.0967131
  33.2439720  45.5204840  82.2191935  33.1995161  44.7509359  82.3655646
  27.7314317  57.2898739  78.0705979  27.3174716  56.6272869  77.6809821
  28.4161691  57.4376598  77.5501673  27.7712689  57.2139397  77.9362476
  31.0979611  56.4488824  78.8229596  30.6995894  56.5591095  78.0550416
  30.4830831  56.6570891  79.4056155  30.9478500  56.4962392  78.7960895
  29.6707513  43.0562972  71.6903735  29.0772352  43.3779969  71.1388302
  29.7082791  42.2104068  71.4824842  29.5881902  42.9787300  71.5786507
  36.6301314  36.5075864  79.2231822  36.1232178  35.8005004  79.1552999
  37.4268748  36.1769053  79.3532898  36.6728553  36.3549016  79.2330817
  32.5465330  43.0142477  75.1205486  32.3179023  43.0375178  74.2783844
  32.8063406  42.1899944  75.2400496  32.5511518  42.8958557  75.0130683
  25.6010092  41.5519023  76.4159681  26.0767458  41.9136103  75.7809862
  25.0998692  42.2075491  76.6959824  25.5975451  41.7013212  76.3636422
  38.8321454  51.0240791  72.2072686  39.2155060  51.7732147  72.4370783
  38.0365567  51.2706611  71.9484675  38.7715236  51.1710485  72.2030260
  27.6436745  43.6960223  69.7833065  28.0235710  43.7139852  68.9984180
  26.9029341  44.1414212  69.6623913  27.5905583  43.7641997  69.6496633
  35.2722036  42.0042414  75.3708644  35.2716262  41.8491071  76.2292920
  35.0678216  42.8505401  75.3150030  35.2421814  42.1063035  75.4896583
  17.3339307  45.4282198  79.7867461  17.1561068  44.9758807  80.5122376
  17.0458329  46.2308360  79.9705938  17.2652260  45.4804756  79.9210963
  32.9962888  46.6839916  79.0244851  33.4916553  45.9662911  78.9848871
  32.1862664  46.3810713  78.9099338  32.9506781  46.5337562  79.0018577
  28.4421499  50.5337729  71.1741855  27.6332822  50.2104403  71.1275165
  28.9496408  49.8270951  71.1070104  28.3971166  50.3819045  71.1572150
  19.0711777  47.9609922  76.8989220  18.2057296  47.9495613  76.7871991
  19.1710593  47.7740145  77.7460359  18.9585944  47.9315983  77.0078164
  35.0614707  49.4343603  81.7121980  35.4869778  48.9118025  81.1592405
  34.6971627  50.0324441  81.1910603  35.0701309  49.4453830  81.5530989
  24.6968787  57.7307821  80.4719325  25.0115346  58.5444209  80.4797107
  25.1062200  57.3458039  81.1401484  24.8036885  57.7936523  80.5723417
  31.6493306  53.1477868  78.0423137  32.1204484  53.8618130  78.2113122
  31.9853485  52.5476618  78.5783007  31.7688421  53.1649332  78.1455513
  35.0961117  41.0081156  82.1902022  34.5124106  41.5090363  81.7779589
  35.4165411  40.5010712  81.5566345  35.0574292  41.0072991  82.0360529
  27.6355916  39.9221751  72.4660697  28.4571610  40.0920064  72.2242392
  27.1725567  40.0769012  71.7426994  27.6887078  39.9703484  72.3232341
  22.0381807  51.6780929  80.1197934  22.6426664  51.6376763  79.4911754
  21.8309119  52.5252081  80.1501989  22.0970704  51.7968932  80.0314050
  31.8525579  53.9446874  81.3360171  32.6723953  53.8009840  81.5976466
  31.5719656  54.5693073  81.8776609  31.9322322  54.0157226  81.4548110
  40.0787837  60.1674046  73.9425086  40.7768002  60.3462174  74.4346549
  40.3940170  59.6444385  73.3195476  40.2283175  60.1167818  73.9227096
  38.2514701  55.5366443  78.0246361  37.9218031  55.9877586  77.3550060
  37.5759703  55.4582606  78.5719367  38.1025137  55.5917578  78.0069584
  45.4591109  51.5251966  76.2695971  45.1444550  52.2155444  76.7016394
  44.9418050  51.4696748  75.5681472  45.3355579  51.6186854  76.2292921
  36.6903150  65.4219683  71.1840850  36.1060366  65.9269715  71.5906714
  36.2873245  65.1962070  70.4437442  36.5442454  65.4627932  71.1345875
  41.1480365  61.6685335  69.6609771  41.3876368  61.8763319  68.8485114
  41.4696206  60.8642844  69.7698715  41.2317523  61.5799437  69.5570324
  36.4570655  53.5978731  73.5069309  37.2116623  53.9657048  73.2686359
  36.2798190  53.9718286  74.2748488  36.5425133  53.7076919  73.5854197
  34.8127720  56.0049050  70.2047422  34.6303293  56.2220931  69.3788414
  35.6753333  56.1188063  70.2606036  34.9132309  56.0538948  70.0901909
  40.4927439  53.0075461  73.2396445  41.2213599  52.8291416  72.7934602
  40.5822332  53.8493541  73.4503624  40.6134101  53.1059339  73.2049963
  34.3589747  59.2823223  68.7169895  33.6447924  58.9961402  69.1292327
  34.8433715  59.6219849  69.3576282  34.3249110  59.2904872  68.8725530
  41.5337065  67.7853177  69.0931703  41.9488213  67.4538201  68.4016199
  40.7028994  67.5522079  68.9651839  41.4725073  67.7024433  68.9722550
  44.2270455  64.0363736  68.2792904  44.1450617  64.1065923  69.1447891
  44.8650175  64.5993480  68.0876645  44.3090292  64.1302707  68.3782854
  26.3055157  61.0002311  76.2476766  26.3915409  60.6234180  77.0290296
  26.9330954  60.6262757  75.7696724  26.4111708  60.8887794  76.2922243
  41.3310565  64.0584190  71.2901511  42.1451204  64.3499083  71.1784282
  41.2669706  63.4044053  70.7159804  41.4413304  64.0049385  71.1890348
  37.8421288  62.7507998  70.7548712  38.2266441  62.5315704  71.5065257
  37.5932909  63.5770943  70.8849789  37.8623361  62.8406144  70.8849789
  35.5621726  54.4204934  76.0857493  34.6944151  54.4927534  76.1515102
  35.8496930  55.2227013  76.2745468  35.4761474  54.5499081  76.1232259
  33.4889078  57.8963194  73.5274369  33.2013873  57.5264464  72.7906316
  34.1759546  58.3658049  73.2658074  33.5477975  57.9110163  73.3789445
  36.3242749  61.7616142  74.9741774  37.0465401  61.9257300  74.5145580
  35.8450742  62.4825807  74.8681113  36.3606480  61.8914371  74.8907388
  42.7305535  54.9965318  75.0866075  43.4331888  54.7973066  74.6086033
  42.4649724  54.2241260  75.3934918  42.7952167  54.8528284  75.0611516
  31.0617272  58.6744406  74.3759650  31.1633409  59.4770568  74.7040625
  31.8573159  58.4731742  74.0782731  31.1945178  58.7630305  74.3795005
  44.8765644  49.6345987  78.2162621  44.9949212  50.0922451  77.4829924
  44.7027820  48.8291249  77.9298839  44.8684815  49.5839760  78.0663555
  42.7686587  67.2745990  66.6317316  43.5359572  67.3346115  66.2223168
  42.3217896  66.7026432  66.1473634  42.8160014  67.1982566  66.4995026
  31.3394327  61.2937617  75.5639044  31.7193292  61.7122161  74.8999311
  30.7649692  61.8751072  75.8707887  31.3105652  61.4415475  75.5115785
  41.8443208  51.4896790  79.1581283  40.9736766  51.4635511  79.1114593
  42.0983549  51.3173982  78.3407129  41.7536768  51.4606934  79.0301420
  38.8161187  63.5464757  68.0954426  39.1053712  64.3229639  68.3698000
  38.9032986  63.0353488  68.7968925  38.8715444  63.5856675  68.2396924
  37.8507890  58.0979940  74.0096838  38.1267625  57.3798853  73.5974405
  38.4506560  58.6964860  73.8017944  37.9801155  58.0800311  73.9177599
  41.3518411  55.7693458  72.2843433  41.8062157  55.9404018  73.0091277
  41.8258457  55.1561568  71.8841208  41.4886731  55.7044343  72.3317194
  38.6931431  62.4735992  73.3888440  39.4373476  62.8610268  73.6271390
  38.8392127  61.6293417  73.5528928  38.8242016  62.4066465  73.4482410
  40.6111006  54.2686251  78.4220301  39.7647051  54.4409059  78.2961651
  40.6082139  53.4635595  78.7586130  40.4858156  54.1747280  78.4531428
  43.6092806  58.9398020  72.3508113  43.0815825  59.0226764  71.6613822
  44.0688515  59.6815891  72.3472758  43.5994657  59.0618682  72.2482808
  35.6025872  57.2100539  67.3749008  35.2538676  57.8620265  67.8380558
  35.1222317  57.1957653  66.6472879  35.4796115  57.3043593  67.3360099
  35.9749780  59.8359070  72.8875053  36.1152741  60.3331534  73.5903694
  36.4732313  59.1345364  73.0289266  36.0690861  59.8061049  73.0126632
  36.0050003  60.7026181  70.2167630  36.6395082  61.2986606  70.1517091
  36.0875613  60.4029639  71.0313500  36.1106554  60.7467089  70.3270716
  37.5828986  56.6340156  70.1913071  37.9044827  56.1543239  69.5372334
  37.8455929  57.4439802  70.0003883  37.6695011  56.6830054  70.0668564
  32.5102991  62.8994022  73.4857176  33.0195220  63.4958529  73.8668481
  32.9837263  62.6319995  72.8033595  32.6546366  62.9479837  73.4411698
  41.4182363  52.4927450  75.9627128  40.7750681  52.3425096  76.5312266
  41.0781770  52.2469795  75.1976232  41.2727441  52.4339573  75.9330143
  34.8693522  59.5350280  76.3530356  34.1505511  59.9514413  76.6203219
  35.2405885  60.1004519  75.8021994  34.8185454  59.6799562  76.3113163
  40.6440097  58.5748280  71.6903735  40.0504936  58.8965277  71.1388302
  40.6815374  57.7289376  71.4824842  40.5614486  58.4972608  71.5786507
  43.5197913  58.5327785  75.1205486  43.2911606  58.5560486  74.2783844
  43.7795989  57.7085252  75.2400496  43.5244101  58.4143865  75.0130683
  36.5742676  57.0704331  76.4159681  37.0500042  57.4321411  75.7809862
  36.0731275  57.7260798  76.6959824  36.5708035  57.2198520  76.3636422
  38.6169329  59.2145531  69.7833065  38.9968294  59.2325160  68.9984180
  37.8761925  59.6599520  69.6623913  38.5638167  59.2827305  69.6496633
  39.4154083  66.0523037  71.1741855  38.6065406  65.7289710  71.1275165
  39.9228992  65.3456259  71.1070104  39.3703750  65.9004353  71.1572150
  30.0444360  63.4795230  76.8989220  29.1789880  63.4680921  76.7871991
  30.1443176  63.2925453  77.7460359  29.9318527  63.4501291  77.0078164
  38.6088500  55.4407059  72.4660697  39.4304194  55.6105372  72.2242392
  38.1458151  55.5954320  71.7426994  38.6619662  55.4888792  72.3232341
  26.0724886   7.5019241  61.2343094  26.0418890   8.3563878  61.4061363
  26.6706235   7.2014534  61.7929238  26.1562044   7.5835738  61.3417896
  13.6565711  16.1257610  61.7533256  12.9048610  15.7473149  61.5249301
  14.1051722  16.1576044  61.0052066  13.6115377  16.0743217  61.6090758
  19.1090670  16.5482980  57.1818803  18.7742039  17.2259901  56.7463025
  19.6217541  16.1588291  56.5935675  19.1356252  16.5907558  57.0305595
  18.6494962  18.4997248  63.1229915  19.0334341  19.0684147  62.5834690
  18.5854103  17.7746759  62.6435731  18.6968389  18.4772712  62.9723777
  23.8941461  10.0771543  59.5061404  23.7780986  10.8279230  59.9353542
  24.6897347   9.8195497  59.7557491  23.9946050  10.1506390  59.6065496
  15.0751206  21.0553592  65.4210885  15.7188662  21.4966756  65.8107043
  15.4007462  20.2507018  65.3341143  15.2183035  21.0018786  65.4656362
  15.7771786  14.0665566  60.7930746  16.0987627  14.6070774  60.1892054
  16.4243883  13.4962338  60.9253036  15.9197841  14.0624742  60.7237782
  18.0161429  12.4552006  60.8644924  18.4555065  11.8469107  61.3099697
  17.8666092  12.0759380  60.0930390  18.0582895  12.3090478  60.8164092
  21.6170766  10.8079188  57.8175694  21.5322061  11.6640154  57.9625263
  22.1055149  10.5323512  58.4857853  21.6759663  10.8936509  57.9377775
  22.5489199   7.4263982  59.3173429  22.0200671   7.6423615  59.9770735
  23.0714219   8.1200120  59.2374398  22.5477652   7.5607119  59.4029028
  28.0037252  13.0010286  64.6906473  27.1734955  13.2120930  64.8539890
  27.9546504  12.1747341  64.4148757  27.8743988  12.9099893  64.6743839
  14.4388807  11.3227199  58.1180897  13.8546022  11.8277230  58.5246761
  14.0358902  11.0969586  57.3777489  14.2928111  11.3635447  58.0685922
  18.8966021   7.5692851  56.5949817  19.1362025   7.7770834  55.7825161
  19.2181862   6.7650359  56.7038762  18.9803179   7.4806952  56.4910370
  25.2601567  13.6709641  64.8271189  24.8236799  13.6746383  65.5830161
  24.9264483  14.3515140  64.3950767  25.1464187  13.7722097  64.8752022
  28.3945914  10.3890561  63.7190826  29.0562348   9.8281229  63.6186735
  27.7537326   9.8942591  64.0443518  28.3974781  10.2326970  63.7523167
  19.2822721  13.6860692  56.0271750  19.6973870  13.3545716  55.3356245
  18.4514651  13.4529594  55.8991886  19.2210730  13.6031948  55.9062597
  24.6810744  11.4055943  63.4602815  24.9166333  11.5501142  62.6329666
  24.8300308  12.1698351  63.8534329  24.7376548  11.5394997  63.3966419
  26.5101201  10.2457609  61.2972419  26.8409418  10.7785249  60.6912514
  27.0834289  10.2996497  61.9534370  26.6434880  10.3327178  61.3050201
  21.9756111   9.9371252  55.2132951  21.8936274  10.0073439  56.0787938
  22.6135832  10.5000995  55.0216692  22.0575949  10.0310223  55.3122901
  19.0796222   9.9591706  58.2241558  19.8936860  10.2506599  58.1124329
  19.0155363   9.3051568  57.6499851  19.1898961   9.9056901  58.1230395
  15.5906945   8.6515513  57.6888759  15.9752098   8.4323220  58.4405304
  15.3418565   9.4778458  57.8189835  15.6109018   8.7413659  57.8189835
  15.8730188  16.8720389  59.7621129  16.1628486  16.4809370  59.0380356
  16.6033668  17.0537094  60.2026405  16.0237072  16.8414203  59.7203936
  13.8136103  18.8487771  62.8281279  13.5936399  18.5585126  63.6207946
  13.5930625  18.1902726  62.2999191  13.7483697  18.7087480  62.8670188
  15.9804059  20.2217161  61.6111971  16.6328117  19.6893604  61.8402997
  15.2829668  19.8685814  61.9979845  15.9734777  20.0906684  61.7024139
  23.9743977  12.5421575  60.9542951  24.5402010  13.2014785  60.8701494
  23.3271881  12.8871273  61.4259353  23.9622734  12.6903517  61.0115707
  20.4450555  15.4860359  60.3780030  20.2037231  14.7528220  59.9707095
  20.6251888  16.0347216  59.7246363  20.4358179  15.4582751  60.2210253
  25.1706675  12.5927803  57.7468587  24.7913484  11.8064941  57.7397877
  24.5072921  13.1414660  57.6040231  25.0165150  12.5572627  57.7249384
  17.9953583  16.1441322  61.5857413  18.7603474  15.8750966  61.2640078
  17.8931673  15.6591332  62.3027476  18.0935079  16.0330887  61.6437241
  20.5172244  13.1753506  53.5657363  21.2845229  13.2353631  53.1563215
  20.0703553  12.6033947  53.0813681  20.5645671  13.0990081  53.4335073
  23.4166774  14.8373294  58.0820273  23.4986611  15.6440280  57.7581724
  23.9016516  14.8569253  58.8061046  23.5003932  14.9593956  58.1407172
  19.0524867   9.3868065  61.0511687  19.5940412   8.8838446  61.5150307
  19.3671426   9.3333260  60.2401172  19.1789264   9.3047486  60.9995499
  17.2211317  14.7785416  58.3351715  17.2904137  13.9199955  58.4744715
  17.9999772  14.9957297  58.0070739  17.3464167  14.6838280  58.3068872
  21.6118804  17.2023118  62.5488208  21.2198596  16.8989833  61.8311074
  21.7671876  18.0392208  62.3593162  21.5772394  17.2806954  62.4144705
  21.7758479  13.7673107  62.4894239  21.4173134  13.9387749  63.2658271
  21.2897190  14.2286312  61.9322237  21.6517176  13.8612078  62.5219508
  16.5646844   9.4472272  55.0294473  16.8539369  10.2237155  55.3038047
  16.6518643   8.9361003  55.7308972  16.6201101   9.4864190  55.1736971
  22.3809109  16.6058610  65.9818242  22.1828798  17.0949425  65.2874454
  21.7596820  16.8099852  66.5602376  22.2596674  16.7075149  65.9641466
  21.3578463   4.8405535  59.2848160  20.8301482   4.9234279  58.5953869
  21.8174171   5.5823407  59.2812804  21.3480314   4.9626198  59.1822855
  20.9115546  13.4109099  58.4157817  21.6349745  13.8767212  58.2722390
  20.4716137  13.4782708  57.6655414  20.9531238  13.4892935  58.2842598
  21.1719395  17.4729804  58.5755878  20.4548705  17.2990666  58.1103115
  21.8226133  17.2382376  58.0431364  21.1621246  17.4125596  58.4285096
  16.4532557  18.7091562  65.0046026  16.0392956  18.0465693  64.6149868
  17.1379932  18.8569421  64.4841720  16.4930929  18.6332220  64.8702523
  19.8197851  17.8681648  65.7569642  19.4214135  17.9783918  64.9890463
  19.2049071  18.0763714  66.3396202  19.6696741  17.9155216  65.7300942
  27.5539694  12.4433614  59.1412733  27.9373300  13.1924970  59.3710830
  26.7583807  12.6899434  58.8824722  27.4933476  12.5903308  59.1370307
  16.3654986   5.1153046  56.7173112  16.7453951   5.1332675  55.9324227
  15.6247582   5.5607035  56.5963959  16.3123823   5.1834821  56.5836680
  17.1639740  11.9530552  58.1081902  16.3551063  11.6297226  58.0615212
  17.6714649  11.2463774  58.0410151  17.1189407  11.8011869  58.0912196
  37.0457470  23.0204549  61.2343094  37.0151474  23.8749186  61.4061363
  37.6438818  22.7199842  61.7929238  37.1294627  23.1021046  61.3417896
  30.2457154  22.1080200  65.9896025  29.3895050  22.2688699  66.0405141
  30.2924808  21.2372264  66.0101086  30.1256266  22.0031002  66.0002091
  24.6298294  31.6442918  61.7533256  23.8781194  31.2658457  61.5249301
  25.0784306  31.6761352  61.0052066  24.5847961  31.5928525  61.6090758
  33.5550871  28.3766726  75.5956481  34.2617638  27.8818757  75.7243415
  33.7438806  28.8175807  74.8659139  33.6878777  28.3685076  75.5065526
  30.0823254  32.0668288  57.1818803  29.7474622  32.7445209  56.7463025
  30.5950124  31.6773599  56.5935675  30.1088835  32.1092866  57.0305595
  29.6227545  34.0182556  63.1229915  30.0066925  34.5869455  62.5834690
  29.5586687  33.2932067  62.6435731  29.6700973  33.9958020  62.9723777
  33.0908975  24.1672244  68.6327676  33.6364935  24.8457331  68.6921646
  33.0325852  24.0259705  67.7729258  33.1624890  24.2464246  68.5139737
  26.2083050  31.6561310  64.0196029  26.3093413  30.8461664  64.3293156
  25.6124796  31.5618257  63.3895707  26.1355589  31.5226338  63.9722267
  34.8674044  25.5956851  59.5061404  34.7513570  26.3464537  59.9353542
  35.6629931  25.3380805  59.7557491  34.9678634  25.6691698  59.6065496
  26.0483790  36.5738900  65.4210885  26.6921245  37.0152064  65.8107043
  26.3740045  35.7692326  65.3341143  26.1915619  36.5204094  65.4656362
  19.4048095  27.6781597  63.6448362  19.1698279  26.8449249  63.5380631
  19.5433735  27.9586263  62.8309563  19.3903757  27.5965100  63.5090717
  21.7038182  19.8467328  66.5432670  21.0843214  19.2559975  66.3742685
  21.6022046  20.4378763  65.9096993  21.5975858  19.8471410  66.4237659
  26.7504370  29.5850874  60.7930746  27.0720211  30.1256082  60.1892054
  27.3976466  29.0147646  60.9253036  26.8930425  29.5810050  60.7237782
  28.8006078  21.5866869  60.8765133  29.4986242  21.7654997  61.3686596
  29.1158410  21.0637209  60.2535522  28.9501415  21.5360641  60.8567143
  21.4307315  23.3919609  68.7876239  21.3066012  23.9782055  69.4226058
  22.0825600  22.8979805  69.0888514  21.5080964  23.4058414  68.9262168
  28.9894013  27.9737314  60.8644924  29.4287649  27.3654415  61.3099697
  28.8398676  27.5944688  60.0930390  29.0315479  27.8275785  60.8164092
  26.4565656  26.5681326  68.0663750  27.1014659  26.0753769  67.7474699
  26.6967433  26.7106113  68.8929828  26.5876241  26.5158768  68.1413283
  28.9951747  29.4136232  67.7170643  29.2774990  28.6187638  67.4957398
  29.7237908  29.8916820  67.7375704  29.1441311  29.3670829  67.6873658
  26.9732941  16.9559266  64.9586408  26.6436271  17.4070410  64.2890106
  26.2977943  16.8775429  65.5059414  26.8243378  17.0110401  64.9409631
  32.5903350  26.3264496  57.8175694  32.5054645  27.1825462  57.9625263
  33.0787733  26.0508820  58.4857853  32.6492247  26.4121817  57.9377775
  34.1809349  12.9444789  63.2036018  33.8662790  13.6348267  63.6356441
  33.6636291  12.8889571  62.5021519  34.0573819  13.0379677  63.1632967
  33.5221783  22.9449290  59.3173429  32.9933254  23.1608923  59.9770735
  34.0446803  23.6385428  59.2374398  33.5210236  23.0792427  59.4029028
  38.9769836  28.5195594  64.6906473  38.1467539  28.7306238  64.8539890
  38.9279088  27.6932649  64.4148757  38.8476571  28.4285201  64.6743839
  25.4121391  26.8412507  58.1180897  24.8278606  27.3462538  58.5246761
  25.0091486  26.6154894  57.3777489  25.2660694  26.8820755  58.0685922
  20.9665419  32.5567268  64.9204568  20.4832998  33.2817757  64.8964152
  21.7788738  32.8543398  65.0314726  21.0156167  32.7069621  64.9331848
  27.0379573  31.3499448  67.5254383  26.5206515  30.9906863  66.9215691
  27.7353965  30.8261623  67.5360449  27.0645154  31.2197136  67.4384642
  30.6943165  31.7994263  73.4870556  30.7826511  31.6120403  74.3348766
  31.1232878  31.1531692  73.0875403  30.7705268  31.6757270  73.5542307
  28.2613625  31.0825422  72.4688218  27.6984460  30.6698032  72.9927879
  29.0234649  31.0078328  72.8881361  28.2908074  31.0102823  72.6081218
  29.8698605  23.0878159  56.5949817  30.1094609  23.2956142  55.7825161
  30.1914446  22.2835667  56.7038762  29.9535763  22.9992260  56.4910370
  25.1788895  15.0171554  60.4409355  25.9334863  15.3849871  60.2026406
  25.0016430  15.3911109  61.2088535  25.2643374  15.1269742  60.5194244
  23.8209617  33.0723444  65.0724848  24.5230196  32.5575433  65.1297605
  23.7407100  33.3997595  65.8771723  23.9133377  33.0437670  65.1997640
  38.4723794  21.1665995  68.4856895  37.6352215  21.2368182  68.7204489
  38.4412025  21.1690490  67.6131197  38.3442076  21.1776222  68.3916443
  23.5345960  17.4241873  57.1387468  23.3521533  17.6413754  56.3128461
  24.3971573  17.5380886  57.1946083  23.6350549  17.4731771  57.0241955
  23.1460392  29.2629796  64.5810456  23.9849291  29.4952728  64.6284218
  23.1772161  28.3934107  64.5117492  23.2742110  29.1686742  64.5775101
  23.7713095  29.6830671  68.8823762  24.3111320  29.5401802  69.5527134
  23.0883041  30.0827422  69.2507788  23.7505249  29.7210342  69.0358184
  29.2145679  14.4268284  60.1736492  29.9431840  14.2484239  59.7274648
  29.3040572  15.2686364  60.3843670  29.3352341  14.5252162  60.1390010
  33.1953980  25.3621671  64.0768786  33.9511495  25.7953186  64.1157695
  33.3016304  24.7126441  64.6503422  33.3224150  25.3299155  64.1666812
  36.2334151  29.1894949  64.8271189  35.7969383  29.1931691  65.5830161
  35.8997066  29.8700448  64.3950767  36.1196771  29.2907404  64.8752022
  30.8063225  31.2303282  76.1514339  31.5903641  31.3434129  76.5170082
  30.6059819  30.4044419  76.3473025  30.8929250  31.1250001  76.2348725
  19.1750240  25.9030962  69.0358183  18.9088655  25.0870078  69.1949174
  19.1888804  25.9484117  68.1653699  19.1374962  25.7887866  68.9311665
  36.1531634  16.2308777  67.0700617  36.7957542  16.3006881  67.6562532
  36.4054655  15.5637999  66.5680159  36.2853766  16.1435125  67.0827896
  23.0807987  20.7016046  55.6509941  22.3666164  20.4154226  56.0632374
  23.5651956  21.0412672  56.2916329  23.0467350  20.7097696  55.8065576
  30.9633618  33.1413384  69.7980795  30.1648864  32.9012884  70.0554664
  31.4119629  33.1927776  70.5447843  30.9108229  33.1135775  69.9465719
  39.3678497  25.9075869  63.7190826  40.0294931  25.3466537  63.6186735
  38.7269909  25.4127899  64.0443518  39.3707365  25.7512278  63.7523167
  30.2555305  29.2046000  56.0271750  30.6706453  28.8731024  55.3356245
  29.4247235  28.9714902  55.8991886  30.1943314  29.1217256  55.9062597
  19.5843654  26.6889741  66.3169928  19.4019227  26.6636627  65.4642220
  20.3193323  27.1588679  66.3558836  19.6657718  26.7551103  66.1967846
  35.6543328  26.9241251  63.4602815  35.8898917  27.0686450  62.6329666
  35.8032892  27.6883659  63.8534329  35.7109131  27.0580305  63.3966419
  37.4833785  25.7642917  61.2972419  37.8142002  26.2970557  60.6912514
  38.0566873  25.8181805  61.9534370  37.6167464  25.8512486  61.3050201
  32.6965674  23.6107820  61.9795999  32.7912528  24.3497114  62.4335625
  32.0724517  23.1825295  62.4130564  32.6174704  23.6569140  62.1104147
  30.9518148  26.7894032  72.6286280  31.5257009  26.1521276  72.7834844
  30.8732951  26.7898115  71.7595938  31.0251382  26.6959144  72.5232691
  19.5514564  23.5683242  66.4668994  20.1288067  23.4319692  67.1061240
  18.8528626  23.1119026  66.7214579  19.5335585  23.4805508  66.5991284
  32.9488695  25.4556559  55.2132951  32.8668858  25.5258747  56.0787938
  33.5868416  26.0186303  55.0216692  33.0308532  25.5495531  55.3122901
  26.3081866  25.2217297  64.6807477  26.0501110  24.3889032  64.6538777
  26.3630349  25.4474910  63.8399978  26.2781644  25.1315069  64.5527614
  31.3882916  17.3245748  64.7811570  30.6839243  16.8354934  64.9395489
  31.4367891  17.3368222  63.9100014  31.2912968  17.2535396  64.6750910
  25.2816578  22.7755060  65.1672372  24.7066170  22.9347228  65.8036333
  24.9052255  22.1390469  64.7040823  25.1419391  22.7052873  65.1926931
  28.9489867  21.2478409  70.0264751  28.5604300  20.8232627  69.3716942
  28.2844565  21.4960559  70.5341777  28.7936795  21.2217130  70.0052619
  38.5913136  21.0053414  62.8012581  38.3349701  20.1933355  62.6110463
  39.4342450  21.0130981  62.5742768  38.6779162  20.8865411  62.7397398
  15.0273397  22.4195135  63.1816813  15.1133649  22.0427003  63.9630343
  15.6549195  22.0455580  62.7036771  15.1329948  22.3080617  63.2262290
  32.7716229  14.9453038  67.5388735  33.1526740  14.2631209  67.9256609
  31.9679513  14.6562640  67.3564399  32.7092690  14.8020086  67.5692791
  30.0528805  25.4777014  58.2241558  30.8669444  25.7691906  58.1124329
  29.9887947  24.8236876  57.6499851  30.1631544  25.4242208  58.1230395
  36.2738295  28.1603010  72.6371133  36.0376933  27.3291075  72.5183194
  36.9181524  28.1088617  73.2225977  36.3332966  28.0300698  72.7057027
  25.9236714  28.9498531  63.3513870  26.5610660  28.7110279  63.8965663
  26.3491785  29.1535690  62.6167030  26.0812880  28.9449541  63.3231027
  20.6149356  31.1886868  67.2348173  20.6553501  31.4601719  66.4067953
  21.1743880  31.7128776  67.6505961  20.7032702  31.3062623  67.1740062
  26.5639529  24.1700821  57.6888759  26.9484681  23.9508528  58.4405304
  26.3151149  24.9963766  57.8189835  26.5841601  24.2598967  57.8189835
  37.2974716  27.9447459  68.6999428  36.9920533  28.6775515  69.0612743
  36.5780932  27.5385388  68.4192214  37.1462058  27.9929192  68.7112565
  28.3058185  29.4270954  65.0307656  28.3797194  29.2646126  65.8849506
  29.1227692  29.6161143  64.7868138  28.4374544  29.4307696  65.1205681
  42.9976508  24.5840459  68.0267772  42.9301008  24.6036418  67.1570358
  42.9832171  25.4270786  68.2523442  42.9855265  24.7114194  67.9320249
  22.0663942  29.7728817  62.0602099  21.2402060  30.0190554  61.9336378
  22.1275933  29.6940897  62.9264157  21.9538109  29.7973766  62.1691044
  24.2839966  15.8397758  63.0197540  23.4162391  15.9120357  63.0855149
  24.5715170  16.6419837  63.2085515  24.1979714  15.9691905  63.0572306
  26.8462771  32.3905697  59.7621129  27.1361070  31.9994678  59.0380356
  27.5766252  32.5722402  60.2026405  26.9969655  32.3599511  59.7203936
  40.7835126  23.3584845  66.3014366  41.3343047  22.7252915  66.5411458
  40.7679241  23.8900238  66.9929871  40.8620322  23.3433794  66.4393225
  27.4357516  27.1923443  70.8474260  26.9369210  27.9039210  70.9259148
  28.2457741  27.5124109  70.8092422  27.4813623  27.3450291  70.8530828
  24.7868687  34.3673079  62.8281279  24.5668982  34.0770434  63.6207946
  24.5663209  33.7088034  62.2999191  24.7216281  34.2272788  62.8670188
  23.6985634  26.4546396  65.0936981  23.4098883  25.8283867  65.6282708
  24.5668982  26.3966683  65.1601661  23.7845886  26.3533940  65.1827935
  34.4863532  21.5981179  65.4118963  34.1428298  20.8771514  65.7626212
  34.5856574  21.3895030  64.5697321  34.4505575  21.4605382  65.3390643
  26.9536642  35.7402469  61.6111971  27.6060701  35.2078911  61.8402997
  26.2562251  35.3871122  61.9979845  26.9467360  35.6091992  61.7024139
  23.9017907  28.0941647  61.0179346  24.6563875  28.4754686  61.2314808
  23.3088520  28.5452790  61.4726042  23.9254621  28.2170474  61.1162224
  34.9476561  28.0606883  60.9542951  35.5134593  28.7200093  60.8701494
  34.3004464  28.4056581  61.4259353  34.9355317  28.2088825  61.0115707
  25.2216134  29.2650208  66.3919461  24.6996887  29.4050500  67.0771326
  25.6090154  28.5060872  66.5821578  25.2019835  29.1735732  66.5220538
  22.2107318  19.3156017  60.4614416  21.9232114  18.9457287  59.7246363
  22.8977786  19.7850872  60.1998121  22.2696215  19.3302986  60.3129492
  31.4183139  31.0045667  60.3780030  31.1769815  30.2713528  59.9707095
  31.5984472  31.5532524  59.7246363  31.4090763  30.9768059  60.2210253
  26.6482460  26.2954227  61.7900952  26.4525242  26.9028962  61.1961255
  26.8716805  25.6022171  61.3092626  26.6517101  26.2831753  61.6317033
  25.0460990  23.1808965  61.9081821  25.7683641  23.3450123  61.4485627
  24.5668982  23.9018630  61.8021160  25.0824720  23.3107195  61.8247435
  33.0054497  19.5172764  67.2878505  32.1665598  19.5434043  67.0516769
  33.0758864  20.1643499  67.8683852  32.8922891  19.6168890  67.3387622
  22.6968606  25.5867037  71.0135960  23.2089703  25.8651291  70.3644720
  22.4104949  26.3256332  71.3798773  22.7303469  25.7369391  70.9725838
  31.4523775  16.4158141  62.0206121  32.1550128  16.2165889  61.5426080
  31.1867964  15.6434083  62.3274965  31.5170408  16.2721107  61.9951563
  36.8812021  24.7240751  64.5739747  36.7945996  24.8796177  65.4274526
  36.4262501  25.3678826  64.1999152  36.8015278  24.8416506  64.6446854
  19.7835513  20.0937229  61.3099697  19.8851649  20.8963391  61.6380672
  20.5791399  19.8924565  61.0122777  19.9163418  20.1823128  61.3135052
  30.7537837  22.0451498  63.1965307  30.5072551  21.9647249  64.0302096
  31.0822960  21.2604966  63.0027834  30.7659081  21.9177763  63.2912830
  34.6485886  28.7534857  66.9852088  34.5100245  29.4515903  67.4900830
  33.8685884  28.5983514  66.6288270  34.5129113  28.8335024  67.0078362
  32.9863971  25.0531232  73.2374470  32.9812009  24.1811049  73.2416896
  33.6924965  25.2519402  72.7643925  33.0908975  24.9535107  73.1681505
  26.7134864  24.7808216  72.6088290  26.8578240  25.3609425  71.9731400
  27.0610513  25.1584513  73.3138144  26.7862326  24.9228920  72.6187285
  28.8854782  23.9798385  70.3913421  28.1378096  24.1729399  69.9861699
  29.0396307  23.1543604  70.1537543  28.7977209  23.8863496  70.2958827
  25.7862619  32.9710988  69.4749317  25.9352183  32.4113904  68.8222721
  26.5662621  33.0502990  69.8581835  25.9236713  32.8996554  69.4346266
  36.1439259  28.1113111  57.7468587  35.7646067  27.3250249  57.7397877
  35.4805504  28.6599968  57.6040231  35.9897733  28.0757935  57.7249384
  28.3115920  33.1425631  70.7533807  28.2359591  32.4734442  71.3084596
  28.2405779  33.8443419  71.2674474  28.2896527  33.1470538  70.9110656
  33.5983885  11.0538811  65.1502668  33.7167453  11.5115274  64.4169971
  33.4246060  10.2484072  64.8638886  33.5903056  11.0032583  65.0003602
  28.9686167  31.6626630  61.5857413  29.7336058  31.3936274  61.2640078
  28.8664257  31.1776640  62.3027476  29.0667662  31.5516195  61.6437241
  27.0038937  19.8651039  68.1250649  26.2135011  19.6842499  68.4467985
  27.3999559  19.0877992  68.1080944  26.9455813  19.7238500  68.1703197
  31.4904827  28.6938814  53.5657363  32.2577813  28.7538939  53.1563215
  31.0436136  28.1219255  53.0813681  31.5378255  28.6175389  53.4335073
  32.3882623  27.4993470  65.8510095  31.7127625  27.2678702  66.3523482
  32.3974999  26.8914652  65.2252200  32.2901127  27.3752395  65.8326247
  29.5176767  22.3411299  72.6074148  29.4535908  23.2021255  72.4794285
  29.6573955  22.0243292  71.8069699  29.5292237  22.4211465  72.4702361
  34.3899358  30.3558602  58.0820273  34.4719195  31.1625588  57.7581724
  34.8749100  30.3754561  58.8061046  34.4736515  30.4779264  58.1407172
  28.1995861  25.0343438  66.7490351  27.7758110  25.2347937  66.0129369
  28.0240716  24.1872286  66.8614651  28.1106741  24.9392219  66.6564041
  27.7007554  36.5493951  69.2111808  28.1903485  35.8504740  69.0287473
  27.1291787  36.2517821  69.7987866  27.6892084  36.4020174  69.2712849
  23.4878306  25.5295489  62.1818323  23.6442925  25.4642292  63.0374316
  23.8278899  26.3044042  61.9697003  23.5611541  25.6344687  62.2772918
  30.0257450  24.9053373  61.0511687  30.5672996  24.4023754  61.5150307
  30.3404009  24.8518568  60.2401172  30.1521847  24.8232794  60.9995499
  33.8974558  29.1156020  78.1638599  34.7109423  28.8441169  78.3243731
  33.7369524  28.8163560  77.3598795  33.9944506  29.0310946  78.0684005
  28.1943900  30.2970724  58.3351715  28.2636720  29.4385263  58.4744715
  28.9732355  30.5142605  58.0070739  28.3196750  30.2023588  58.3068872
  31.1746720  19.7989677  71.1033987  31.3888689  19.1600592  70.5497341
  30.5580619  20.2435501  70.6741849  31.1152049  19.7699821  70.9584418
  32.5851388  32.7208426  62.5488208  32.1931179  32.4175141  61.8311074
  32.7404460  33.5577516  62.3593162  32.5504978  32.7992262  62.4144705
  20.0612567  22.7130440  62.4979091  20.4411532  23.1314985  61.8339358
  19.4867932  23.2943895  62.8047934  20.0323892  22.8608299  62.4455832
  33.3385808  21.4078743  72.0417294  32.5262489  21.1004633  72.1230467
  33.7975742  20.9277743  72.6060006  33.2866193  21.2915235  72.1371888
  32.7491062  29.2858415  62.4894239  32.3905717  29.4573057  63.2658271
  32.2629773  29.7471620  61.9322237  32.6249759  29.3797386  62.5219508
  30.5661448  12.9089613  66.0921330  29.6955006  12.8828334  66.0454639
  30.8201790  12.7366805  65.2747176  30.4755009  12.8799757  65.9641467
  27.5379428  24.9657580  55.0294473  27.8271953  25.7422462  55.3038047
  27.6251227  24.4546311  55.7308972  27.5933684  25.0049498  55.1736971
  33.9095802  30.1762310  73.4361439  34.5475522  29.6822506  73.1023896
  33.2669893  30.1039711  72.8513666  33.9090028  30.0921319  73.3003794
  35.6352802  22.0251456  68.0027355  35.2080410  21.9377805  67.2475455
  34.9978855  22.1329232  68.5882199  35.4782409  22.0284116  67.9772797
  33.9650058  30.8682119  70.0766796  34.7542437  30.5171183  70.1968878
  34.1393656  31.6818507  69.8143430  34.1070340  30.9367976  70.0554664
  23.7043369  24.2790844  67.1294585  22.8631375  24.1794719  67.3373479
  23.9133377  25.0486325  67.4808906  23.6108061  24.3782888  67.2121900
  21.1818936  21.9010381  64.9579336  20.7875634  21.9753393  64.1829445
  20.6259053  22.2868328  65.5087697  21.0421748  21.9692156  64.9246996
  32.8183883  14.8791675  64.6383215  33.0233476  14.8113983  65.4840212
  32.4910307  15.6850497  64.5704392  32.7999130  14.9877616  64.7542870
  27.5160034  22.2072244  66.3792183  27.2123171  21.6528232  66.9802590
  26.8139454  22.3864454  65.8920217  27.3676243  22.1517026  66.3961888
  26.5726131  19.5172763  60.9436884  26.8485865  18.7991676  60.5314452
  27.1724800  20.1157683  60.7357991  26.7019395  19.4993134  60.8517646
  25.5778385  29.4221964  71.0864280  25.4698740  29.4324027  71.9526338
  25.7874166  30.2476745  70.8969234  25.5928496  29.5463039  71.1868372
  36.0717570  15.4323440  64.1185980  35.4591884  15.9193842  64.5039712
  36.1681745  14.7566931  64.6623631  35.9955468  15.4041748  64.2564838
  30.0736651  17.1886281  59.2183479  30.5280398  17.3596841  59.9431324
  30.5476697  16.5754392  58.8181255  30.2104971  17.1237166  59.2657241
  23.5952177  26.6734607  68.5486218  23.0040110  27.3144105  68.5189233
  24.3573200  27.0972224  68.5217517  23.6200437  26.8310445  68.5401365
  39.7142598  26.5040376  69.5463496  39.7725722  26.9527025  70.2923473
  39.0809066  26.9139189  69.1093576  39.6293893  26.6314111  69.5916045
  33.3541693  32.1243918  65.9818242  33.1561382  32.6134733  65.2874454
  32.7329404  32.3285160  66.5602376  33.2329257  32.2260457  65.9641466
  27.4149671  23.8928815  60.3228487  28.1591716  24.2803092  60.5611437
  27.5610367  23.0486241  60.4868974  27.5460256  23.8259288  60.3822456
  29.3329247  15.6879074  65.3560348  28.4865292  15.8601882  65.2301698
  29.3300379  14.8828418  65.6926176  29.2076397  15.5940103  65.3871475
  30.4027547  19.4654289  66.2222406  29.9287501  18.9396051  66.7327717
  30.7745683  18.9183761  65.6537268  30.3877436  19.3070285  66.2137553
  36.6664278  24.5256664  67.6329187  36.4262501  23.6863079  67.6371613
  37.1456285  24.6056831  68.3569960  36.7016461  24.4138064  67.7403989
  32.3311047  20.3590843  59.2848160  31.8034065  20.4419587  58.5953869
  32.7906755  21.1008715  59.2812804  32.3212897  20.4811506  59.1822855
  38.6669465  21.3058121  65.5858446  38.4279235  21.2653956  64.7479230
  38.8303366  22.1529273  65.7124167  38.6559768  21.4250206  65.4811928
  35.2715495  25.6908071  71.5163491  35.9949694  25.2380597  71.3374511
  35.0065457  25.9712736  70.7335819  35.3396768  25.6659039  71.3742206
  24.1402363  20.2868244  68.2516370  23.5155433  20.2986636  67.6442323
  23.8047958  20.7628419  68.9007610  23.9987855  20.3586761  68.2572938
  24.3244112  18.6293363  54.3089055  23.9756916  19.2813088  54.7720604
  23.8440558  18.6150476  53.5812926  24.2014356  18.7236416  54.2700146
  20.8528039  28.3468704  69.6920134  20.3227963  27.6561143  69.7415109
  21.1253132  28.3378890  68.8632843  20.8152761  28.2435836  69.5767550
  31.8848129  28.9294407  58.4157817  32.6082328  29.3952520  58.2722390
  31.4448720  28.9968016  57.6655414  31.9263821  29.0078243  58.2842598
  31.0534284  25.7891949  69.6658506  30.4391277  25.2449999  69.9607141
  31.5701569  25.2756185  69.1864322  31.0389947  25.6328358  69.6382734
  30.2930582  26.8596219  67.4002804  29.8658190  26.2345938  66.9668240
  30.2855526  26.5771141  68.2261812  30.2289723  26.7249000  67.4582632
  28.6216291  17.7364973  67.6145338  28.6458778  17.2025086  66.9258118
  28.8727765  17.2282282  68.2770929  28.6626210  17.5825877  67.6109983
  16.1323881  25.0196468  67.0488483  16.0267330  24.9743313  66.1840567
  15.3824101  25.3650249  67.3302767  16.0059484  25.0637377  66.9625812
  24.9017613  16.4635792  66.9951083  24.9415985  16.9644998  67.7085790
  24.0767278  16.5546185  66.7257006  24.7857139  16.5517608  67.0601621
  26.3231977  22.9796302  69.2924982  25.4923906  23.1470120  69.0860230
  26.2683494  22.6032252  70.0773867  26.1921392  22.9486033  69.3773510
  24.6968021  21.2551893  59.8215100  24.8370982  21.7524357  60.5243741
  25.1950553  20.5538188  59.9629313  24.7909102  21.2253872  59.9466679
  24.7268243  22.1219004  57.1507676  25.3613323  22.7179429  57.0857138
  24.8093854  21.8222462  57.9653546  24.8324794  22.1659912  57.2610763
  37.7050809  24.6534482  70.0194040  38.2968649  25.2931732  70.0512239
  38.1409803  23.9557518  70.3086107  37.8569240  24.6452832  70.0674873
  26.3047226  18.0532980  57.1253118  26.6263067  17.5736062  56.4712381
  26.5674170  18.8632626  56.9343930  26.3913251  18.1022877  57.0008610
  29.5344199  29.0751854  70.6451934  29.0269290  29.6287701  71.0892565
  29.2370845  29.1360144  69.8270709  29.4149084  29.1658165  70.5900391
  31.7006381  17.4405174  69.4876597  32.1261452  16.9877700  68.8760124
  31.0863374  16.8865244  69.7641385  31.6735026  17.2919150  69.4381623
  21.2321231  24.3186845  60.4197222  21.7413460  24.9151352  60.8008528
  21.7055503  24.0512819  59.7373642  21.3764607  24.3672660  60.3751745
  32.1451979  32.9915112  58.5755878  31.4281289  32.8175974  58.1103115
  32.7958717  32.7567684  58.0431364  32.1353829  32.9310904  58.4285096
  30.1400604  13.9120273  62.8967174  29.4968922  13.7617920  63.4652313
  29.8000011  13.6662619  62.1316279  29.9945681  13.8532396  62.8670190
  34.7299950  21.8679700  62.3197183  34.0591140  22.4109402  62.1910249
  35.4239700  22.3374555  62.0778878  34.7328818  22.0177971  62.2652711
  28.7786684  34.0076412  67.5508941  28.5552338  33.2495241  67.9192968
  28.2896527  34.0374433  66.8289381  28.6730133  33.8998637  67.4985682
  34.8928078  18.3235584  65.2287556  35.2455688  17.8965307  65.9033355
  34.0342879  18.2386427  65.3588633  34.8177522  18.2480324  65.3482567
  23.5911763  20.9543103  63.2870403  22.8723752  21.3707236  63.5543266
  23.9624125  21.5197342  62.7362041  23.5403694  21.0992385  63.2453210
  32.8911343  21.5870952  69.1772398  32.8709271  21.4054248  70.0307177
  32.9390544  22.4582971  69.1531982  32.8945984  21.6887491  69.2995693
  30.8357673  28.1758144  75.1020875  30.7953528  27.5307821  74.5166031
  31.6480992  28.1194762  75.4146287  30.9500827  28.0717111  75.0617824
  27.4265141  34.2276870  65.0046026  27.0125539  33.5651000  64.6149868
  28.1112515  34.3754729  64.4841720  27.4663513  34.1517528  64.8702523
  30.7930435  33.3866956  65.7569642  30.3946718  33.4969226  64.9890463
  30.1781655  33.5949022  66.3396202  30.6429324  33.4340524  65.7300942
  29.3658337  19.9941103  58.6243782  28.7723176  20.3158100  58.0728349
  29.4033615  19.1482199  58.4164888  29.2832726  19.9165432  58.5126554
  36.3252138  13.4453996  66.1571869  35.8183002  12.7383135  66.0893046
  37.1219571  13.1147184  66.2872945  36.3679377  13.2927147  66.1670864
  32.2416154  19.9520608  62.0545532  32.0129847  19.9753309  61.2123891
  32.5014230  19.1278075  62.1740543  32.2462342  19.8336688  61.9470730
  38.5272278  27.9618922  59.1412733  38.9105883  28.7110278  59.3710830
  37.7316391  28.2084742  58.8824722  38.4666060  28.1088616  59.1370307
  27.3387569  20.6338354  56.7173112  27.7186534  20.6517983  55.9324227
  26.5980165  21.0792343  56.5963959  27.2856407  20.7020129  56.5836680
  34.9672860  18.9420545  62.3048691  34.9667086  18.7869202  63.1632967
  34.7629040  19.7883532  62.2490076  34.9372638  19.0441166  62.4236630
  17.0290131  22.3660330  66.7207507  16.8511892  21.9136939  67.4462423
  16.7409153  23.1686491  66.9045985  16.9603084  22.4182887  66.8551010
  32.6913712  23.6218047  65.9584898  33.1867377  22.9041042  65.9188918
  31.8813488  23.3188845  65.8439385  32.6457605  23.4715693  65.9358623
  28.1372323  27.4715860  58.1081902  27.3283646  27.1482534  58.0615212
  28.6447232  26.7649082  58.0410151  28.0921990  27.3197177  58.0912196
  18.7662601  24.8988053  63.8329266  17.9008120  24.8873744  63.7212038
  18.8661416  24.7118276  64.6800406  18.6536768  24.8694115  63.9418211
  34.7565531  26.3721734  68.6462026  35.1820602  25.8496156  68.0932451
  34.3922451  26.9702572  68.1250649  34.7652133  26.3831961  68.4871036
  24.3919611  34.6685952  67.4059372  24.7066169  35.4822340  67.4137154
  24.8013024  34.2836171  68.0741531  24.4987708  34.7314654  67.5063464
  31.3444130  30.0855999  64.9763184  31.8155308  30.7996261  65.1453169
  31.6804309  29.4854749  65.5123053  31.4639245  30.1027463  65.0795560
  33.4321115  31.6957312  77.1555256  33.5418080  30.9065873  77.5112003
  33.7612011  31.6063248  76.3529594  33.4973521  31.5663165  77.0897647
  31.9818076  29.8773933  71.7390877  31.4339022  29.2531816  71.4710942
  32.4431105  30.0668205  71.0234956  31.9685286  29.8132983  71.5941308
  34.7911941  17.9459287  69.1242069  34.2074930  18.4468494  68.7119636
  35.1116235  17.4388844  68.4906392  34.7525116  17.9451122  68.9700576
  27.3306740  16.8599882  59.4000744  28.1522434  17.0298195  59.1582439
  26.8676391  17.0147143  58.6767041  27.3837902  16.9081615  59.2572388
  21.7332631  28.6159060  67.0537980  22.3377488  28.5754895  66.4251801
  21.5259943  29.4630212  67.0842036  21.7921528  28.7347063  66.9654097
  31.5476403  30.8825006  68.2700218  32.3674777  30.7387972  68.5316513
  31.2670480  31.5071204  68.8116656  31.6273146  30.9535358  68.3888157
  16.9683913  27.5993678  66.9236903  16.8708191  26.7889949  67.2326960
  17.7512783  27.5785471  66.5383172  17.0700049  27.4760768  66.9123766
  41.2189738  37.6265508  65.9896025  40.3627634  37.7874007  66.0405141
  41.2657392  36.7557572  66.0101086  41.0988849  37.5216310  66.0002091
  44.5283455  43.8952034  75.5956481  45.2350222  43.4004065  75.7243415
  44.7171390  44.3361115  74.8659139  44.6611360  43.8870384  75.5065526
  44.0641559  39.6857552  68.6327676  44.6097519  40.3642639  68.6921646
  44.0058435  39.5445013  67.7729258  44.1357473  39.7649554  68.5139737
  37.1815634  47.1746618  64.0196029  37.2825997  46.3646972  64.3293156
  36.5857379  47.0803565  63.3895707  37.1088173  47.0411646  63.9722267
  37.0216373  52.0924207  65.4210885  37.6653829  52.5337372  65.8107043
  37.3472629  51.2877634  65.3341143  37.1648202  52.0389402  65.4656362
  30.3780678  43.1966905  63.6448362  30.1430863  42.3634557  63.5380631
  30.5166319  43.4771571  62.8309563  30.3636341  43.1150408  63.5090717
  32.6770766  35.3652635  66.5432670  32.0575797  34.7745283  66.3742685
  32.5754629  35.9564071  65.9096993  32.5708441  35.3656718  66.4237659
  39.7738661  37.1052177  60.8765133  40.4718826  37.2840305  61.3686596
  40.0890994  36.5822517  60.2535522  39.9233998  37.0545949  60.8567143
  32.4039899  38.9104917  68.7876239  32.2798596  39.4967363  69.4226058
  33.0558183  38.4165113  69.0888514  32.4813548  38.9243722  68.9262168
  37.4298240  42.0866634  68.0663750  38.0747242  41.5939077  67.7474699
  37.6700017  42.2291421  68.8929828  37.5608825  42.0344076  68.1413283
  39.9684331  44.9321540  67.7170643  40.2507574  44.1372946  67.4957398
  40.6970491  45.4102127  67.7375704  40.1173895  44.8856137  67.6873658
  37.9465525  32.4744574  64.9586408  37.6168855  32.9255717  64.2890106
  37.2710527  32.3960737  65.5059414  37.7975961  32.5295709  64.9409631
  45.1541933  28.4630097  63.2036018  44.8395374  29.1533575  63.6356441
  44.6368874  28.4074879  62.5021519  45.0306403  28.5564985  63.1632967
  36.3853974  42.3597815  58.1180897  35.8011189  42.8647846  58.5246761
  35.9824069  42.1340201  57.3777489  36.2393278  42.4006063  58.0685922
  31.9398003  48.0752576  64.9204568  31.4565581  48.8003065  64.8964152
  32.7521321  48.3728706  65.0314726  31.9888751  48.2254929  64.9331848
  38.0112157  46.8684756  67.5254383  37.4939099  46.5092171  66.9215691
  38.7086548  46.3446931  67.5360449  38.0377738  46.7382444  67.4384642
  41.6675749  47.3179570  73.4870556  41.7559095  47.1305711  74.3348766
  42.0965461  46.6717000  73.0875403  41.7437851  47.1942578  73.5542307
  39.2346209  46.6010730  72.4688218  38.6717043  46.1883340  72.9927879
  39.9967232  46.5263636  72.8881361  39.2640657  46.5288131  72.6081218
  36.1521479  30.5356862  60.4409355  36.9067447  30.9035179  60.2026406
  35.9749014  30.9096417  61.2088535  36.2375957  30.6455050  60.5194244
  34.7942200  48.5908752  65.0724848  35.4962779  48.0760741  65.1297605
  34.7139683  48.9182903  65.8771723  34.8865961  48.5622978  65.1997640
  49.4456378  36.6851303  68.4856895  48.6084799  36.7553490  68.7204489
  49.4144609  36.6875798  67.6131197  49.3174660  36.6961530  68.3916443
  35.8421107  38.8284338  74.2005263  36.0141610  38.7190233  75.0490545
  36.3790464  39.4738744  73.9636456  35.9466111  38.9076340  74.2910360
  34.5078544  32.9427181  57.1387468  34.3254117  33.1599062  56.3128461
  35.3704157  33.0566194  57.1946083  34.6083133  32.9917079  57.0241955
  34.1192976  44.7815104  64.5810456  34.9581875  45.0138036  64.6284218
  34.1504745  43.9119415  64.5117492  34.2474693  44.6872050  64.5775101
  34.7445679  45.2015979  68.8823762  35.2843903  45.0587110  69.5527134
  34.0615625  45.6012730  69.2507788  34.7237832  45.2395650  69.0358184
  40.1878263  29.9453592  60.1736492  40.9164423  29.7669547  59.7274648
  40.2773156  30.7871672  60.3843670  40.3084925  30.0437470  60.1390010
  44.1686563  40.8806979  64.0768786  44.9244078  41.3138494  64.1157695
  44.2748888  40.2311749  64.6503422  44.2956734  40.8484463  64.1666812
  47.2066735  44.7080257  64.8271189  46.7701966  44.7116999  65.5830161
  46.8729650  45.3885756  64.3950767  47.0929354  44.8092712  64.8752022
  41.7795808  46.7488589  76.1514339  42.5636225  46.8619437  76.5170082
  41.5792403  45.9229727  76.3473025  41.8661834  46.6435309  76.2348725
  30.1482824  41.4216270  69.0358183  29.8821239  40.6055386  69.1949174
  30.1621388  41.4669425  68.1653699  30.1107546  41.3073174  68.9311665
  47.1264217  31.7494084  67.0700617  47.7690126  31.8192189  67.6562532
  47.3787238  31.0823307  66.5680159  47.2586350  31.6620433  67.0827896
  34.8981430  34.9594648  71.6825191  34.2053227  34.4891628  71.9285923
  35.5141757  34.7332952  72.2566898  34.8865960  34.8561780  71.8034344
  41.9366201  48.6598691  69.7980795  41.1381447  48.4198192  70.0554664
  42.3852213  48.7113084  70.5447843  41.8840813  48.6321083  69.9465719
  30.5576237  42.2075049  66.3169928  30.3751810  42.1821935  65.4642220
  31.2925906  42.6773987  66.3558836  30.6390301  42.2736411  66.1967846
  46.6275911  42.4426559  63.4602815  46.8631501  42.5871758  62.6329666
  46.7765475  43.2068967  63.8534329  46.6841715  42.5765613  63.3966419
  33.6221989  38.9260052  72.8252036  34.3461961  38.9113082  73.3116931
  33.7238125  39.6355407  72.3274004  33.7440198  39.0284755  72.8230823
  40.9966938  42.4059136  77.6900983  40.2039919  42.7202648  77.8753603
  41.1115865  42.6210605  76.8521768  40.8962349  42.4842973  77.5939318
  41.9250731  42.3079340  72.6286280  42.4989593  41.6706584  72.7834844
  41.8465535  42.3083423  71.7595938  41.9983966  42.2144452  72.5232691
  30.5247148  39.0868550  66.4668994  31.1020650  38.9505000  67.1061240
  29.8261209  38.6304334  66.7214579  30.5068169  38.9990816  66.5991284
  37.2814450  40.7402605  64.6807477  37.0233694  39.9074340  64.6538777
  37.3362933  40.9660218  63.8399978  37.2514228  40.6500377  64.5527614
  42.3615500  32.8431056  64.7811570  41.6571827  32.3540241  64.9395489
  42.4100474  32.8553530  63.9100014  42.2645552  32.7720704  64.6750910
  36.2549162  38.2940368  65.1672372  35.6798753  38.4532536  65.8036333
  35.8784838  37.6575777  64.7040823  36.1151974  38.2238181  65.1926931
  39.9222451  36.7663717  70.0264751  39.5336883  36.3417935  69.3716942
  39.2577149  37.0145867  70.5341777  39.7669378  36.7402438  70.0052619
  49.5645720  36.5238722  62.8012581  49.3082285  35.7118663  62.6110463
  50.4075034  36.5316289  62.5742768  49.6511745  36.4050719  62.7397398
  26.0005981  37.9380443  63.1816813  26.0866233  37.5612311  63.9630343
  26.6281778  37.5640888  62.7036771  26.1062532  37.8265925  63.2262290
  43.7448812  30.4638346  67.5388735  44.1259324  29.7816517  67.9256609
  42.9412096  30.1747948  67.3564399  43.6825274  30.3205394  67.5692791
  47.2470879  43.6788318  72.6371133  47.0109516  42.8476383  72.5183194
  47.8914108  43.6273925  73.2225977  47.3065550  43.5486006  72.7057027
  36.8969297  44.4683839  63.3513870  37.5343244  44.2295587  63.8965663
  37.3224369  44.6720998  62.6167030  37.0545463  44.4634849  63.3231027
  31.5881939  46.7072176  67.2348173  31.6286085  46.9787027  66.4067953
  32.1476464  47.2314084  67.6505961  31.6765285  46.8247931  67.1740062
  37.5372112  39.6886129  57.6888759  37.9217265  39.4693836  58.4405304
  37.2883732  40.5149074  57.8189835  37.5574185  39.7784275  57.8189835
  37.7040653  32.9692544  77.4051343  37.3894094  33.7392107  77.1420906
  37.3830585  32.4062800  76.8203570  37.6099572  33.0002813  77.2792693
  48.2707300  43.4632767  68.6999428  47.9653117  44.1960823  69.0612743
  47.5513515  43.0570696  68.4192214  48.1194642  43.5114500  68.7112565
  39.2790769  44.9456262  65.0307656  39.3529777  44.7831434  65.8849506
  40.0960275  45.1346451  64.7868138  39.4107128  44.9493004  65.1205681
  53.9709092  40.1025767  68.0267772  53.9033592  40.1221726  67.1570358
  53.9564754  40.9456094  68.2523442  53.9587848  40.2299502  67.9320249
  33.0396526  45.2914125  62.0602099  32.2134643  45.5375862  61.9336378
  33.1008517  45.2126205  62.9264157  32.9270693  45.3159074  62.1691044
  35.2572549  31.3583066  63.0197540  34.3894975  31.4305665  63.0855149
  35.5447754  32.1605144  63.2085515  35.1712298  31.4877213  63.0572306
  44.3805438  31.5060925  71.3508861  45.1259030  31.3170735  70.9372287
  43.9642743  32.0319163  70.7922718  44.4290412  31.5563070  71.2073435
  51.7567709  38.8770153  66.3014366  52.3075631  38.2438222  66.5411458
  51.7411824  39.4085546  66.9929871  51.8352905  38.8619102  66.4393225
  38.4090100  42.7108751  70.8474260  37.9101794  43.4224518  70.9259148
  39.2190324  43.0309417  70.8092422  38.4546207  42.8635599  70.8530828
  35.7601270  49.8858387  62.8281279  35.5401566  49.5955742  63.6207946
  35.5395792  49.2273342  62.2999191  35.6948865  49.7458096  62.8670188
  34.6718218  41.9731704  65.0936981  34.3831466  41.3469175  65.6282708
  35.5401566  41.9151991  65.1601661  34.7578469  41.8719248  65.1827935
  45.4596115  37.1166487  65.4118963  45.1160881  36.3956822  65.7626212
  45.5589158  36.9080338  64.5697321  45.4238158  36.9790690  65.3390643
  37.9269226  51.2587777  61.6111971  38.5793284  50.7264219  61.8402997
  37.2294835  50.9056429  61.9979845  37.9199944  51.1277300  61.7024139
  34.8750491  43.6126955  61.0179346  35.6296459  43.9939994  61.2314808
  34.2821104  44.0638098  61.4726042  34.8987204  43.7355782  61.1162224
  37.3357158  35.5689795  76.1436558  36.5256934  35.8747575  76.0326400
  37.8131845  36.2895377  76.2589142  37.2860637  35.7204396  76.1443629
  36.1948718  44.7835516  66.3919461  35.6729471  44.9235808  67.0771326
  36.5822738  44.0246180  66.5821578  36.1752418  44.6921040  66.5220538
  33.1839902  34.8341325  60.4614416  32.8964697  34.4642595  59.7246363
  33.8710370  35.3036180  60.1998121  33.2428799  34.8488294  60.3129492
  37.6215043  41.8139535  61.7900952  37.4257826  42.4214270  61.1961255
  37.8449389  41.1207479  61.3092626  37.6249684  41.8017061  61.6317033
  36.0193573  38.6994273  61.9081821  36.7416225  38.8635431  61.4485627
  35.5401566  39.4203938  61.8021160  36.0557304  38.8292503  61.8247435
  43.9787081  35.0358072  67.2878505  43.1398181  35.0619351  67.0516769
  44.0491448  35.6828807  67.8683852  43.8655474  35.1354198  67.3387622
  33.6701190  41.1052345  71.0135960  34.1822287  41.3836599  70.3644720
  33.3837532  41.8441640  71.3798773  33.7036053  41.2554699  70.9725838
  42.4256359  31.9343449  62.0206121  43.1282712  31.7351197  61.5426080
  42.1600548  31.1619391  62.3274965  42.4902991  31.7906415  61.9951563
  47.8544605  40.2426059  64.5739747  47.7678579  40.3981485  65.4274526
  47.3995084  40.8864134  64.1999152  47.7747861  40.3601814  64.6446854
  30.7568096  35.6122537  61.3099697  30.8584233  36.4148699  61.6380672
  31.5523983  35.4109873  61.0122777  30.8896002  35.7008436  61.3135052
  37.1884915  33.1978734  71.0737002  36.9968112  33.2133868  71.9236425
  38.0383511  33.3942408  71.0503657  37.2860637  33.2293085  71.1960297
  31.5731828  35.7269716  69.0520818  31.4317320  34.8753656  69.1765326
  31.8572392  35.7698376  68.2283024  31.5939674  35.6069466  68.9488443
  41.7270421  37.5636806  63.1965307  41.4805135  37.4832557  64.0302096
  42.0555544  36.7790274  63.0027834  41.7391664  37.4363071  63.2912830
  45.6218469  44.2720165  66.9852088  45.4832829  44.9701211  67.4900830
  44.8418467  44.1168822  66.6288270  45.4861696  44.3520332  67.0078362
  43.9596555  40.5716540  73.2374470  43.9544593  39.6996357  73.2416896
  44.6657548  40.7704710  72.7643925  44.0641559  40.4720415  73.1681505
  37.6867448  40.2993524  72.6088290  37.8310824  40.8794732  71.9731400
  38.0343096  40.6769821  73.3138144  37.7594909  40.4414228  72.6187285
  39.8587365  39.4983693  70.3913421  39.1110679  39.6914707  69.9861699
  40.0128890  38.6728912  70.1537543  39.7709793  39.4048804  70.2958827
  36.7595203  48.4896296  69.4749317  36.9084767  47.9299212  68.8222721
  37.5395205  48.5688298  69.8581835  36.8969297  48.4181862  69.4346266
  39.2848504  48.6610939  70.7533807  39.2092175  47.9919750  71.3084596
  39.2138363  49.3628727  71.2674474  39.2629110  48.6655846  70.9110656
  40.0989142  33.3934243  71.2808825  40.5561756  34.1258218  71.4081617
  40.1745471  32.9700709  72.0396081  40.1780112  33.4391481  71.4109902
  32.3422134  33.6400063  72.3698269  31.8064323  33.0280421  72.6859036
  32.4039898  34.2148199  73.0231935  32.2717766  33.6346991  72.5133696
  44.5716468  26.5724119  65.1502668  44.6900036  27.0300582  64.4169971
  44.3978644  25.7669380  64.8638886  44.5635639  26.5217891  65.0003602
  37.9771520  35.3836347  68.1250649  37.1867595  35.2027807  68.4467985
  38.3732143  34.6063300  68.1080944  37.9188396  35.2423808  68.1703197
  43.3615207  43.0178777  65.8510095  42.6860208  42.7864010  66.3523482
  43.3707583  42.4099960  65.2252200  43.2633711  42.8937703  65.8326247
  40.4909350  37.8596606  72.6074148  40.4268492  38.7206563  72.4794285
  40.6306538  37.5428600  71.8069699  40.5024821  37.9396773  72.4702361
  39.1728444  40.5528746  66.7490351  38.7490693  40.7533245  66.0129369
  38.9973300  39.7057594  66.8614651  39.0839325  40.4577527  66.6564041
  38.6740138  52.0679259  69.2111808  39.1636068  51.3690048  69.0287473
  38.1024370  51.7703129  69.7987866  38.6624668  51.9205482  69.2712849
  34.4610889  41.0480797  62.1818323  34.6175509  40.9827600  63.0374316
  34.8011482  41.8229350  61.9697003  34.5344124  41.1529995  62.2772918
  44.8707141  44.6341328  78.1638599  45.6842007  44.3626477  78.3243731
  44.7102108  44.3348868  77.3598795  44.9677090  44.5496254  78.0684005
  42.1479303  35.3174985  71.1033987  42.3621273  34.6785900  70.5497341
  41.5313203  35.7620809  70.6741849  42.0884633  35.2885129  70.9584418
  43.5583971  48.2393734  62.5488208  43.1663763  47.9360449  61.8311074
  43.7137043  49.0762824  62.3593162  43.5237561  48.3177570  62.4144705
  31.0345151  38.2315748  62.4979091  31.4144116  38.6500293  61.8339358
  30.4600516  38.8129203  62.8047934  31.0056476  38.3793606  62.4455832
  44.3118391  36.9264050  72.0417294  43.4995073  36.6189941  72.1230467
  44.7708326  36.4463051  72.6060006  44.2598776  36.8100543  72.1371888
  43.7223646  44.8043722  62.4894239  43.3638301  44.9758365  63.2658271
  43.2362357  45.2656928  61.9322237  43.5982343  44.8982694  62.5219508
  41.5394032  28.4274921  66.0921330  40.6687590  28.4013642  66.0454639
  41.7934373  28.2552113  65.2747176  41.4487592  28.3985065  65.9641467
  41.4071899  38.3324122  76.8245997  41.8771530  38.9566238  77.2113871
  41.4533779  37.6641097  77.3839211  41.4839775  38.3258802  76.9646068
  38.5643172  30.4381149  67.5494800  38.0481661  29.7461341  67.6746379
  38.0037101  31.1051926  67.4957399  38.4049686  30.4344407  67.5600866
  40.6335406  30.9774109  69.3787653  40.2467159  31.0023141  70.1601183
  40.1468343  30.4115788  68.9262170  40.5047915  30.8969860  69.4275557
  44.8828385  45.6947618  73.4361439  45.5208106  45.2007814  73.1023896
  44.2402477  45.6225019  72.8513666  44.8822612  45.6106627  73.3003794
  46.6085385  37.5436764  68.0027355  46.1812994  37.4563113  67.2475455
  45.9711438  37.6514540  68.5882199  46.4514993  37.5469424  67.9772797
  40.2992548  27.8641095  71.6697913  40.9285666  28.4001395  71.3918983
  40.4678410  27.7718454  72.5211478  40.4170342  27.9302457  71.7546441
  40.1006463  32.6512290  73.9424324  40.9279892  32.3797439  73.9982939
  40.1214309  33.4473131  74.2988143  40.2259313  32.7292044  74.0039507
  44.9382642  46.3867427  70.0766796  45.7275020  46.0356491  70.1968878
  45.1126240  47.2003815  69.8143430  45.0802924  46.4553284  70.0554664
  34.6775952  39.7976152  67.1294585  33.8363959  39.6980027  67.3373479
  34.8865960  40.5671633  67.4808906  34.5840645  39.8968196  67.2121900
  32.1551519  37.4195689  64.9579336  31.7608217  37.4938701  64.1829445
  31.5991636  37.8053636  65.5087697  32.0154332  37.4877464  64.9246996
  43.7916466  30.3976983  64.6383215  43.9966060  30.3299291  65.4840212
  43.4642890  31.2035805  64.5704392  43.7731714  30.5062924  64.7542870
  38.4892617  37.7257552  66.3792183  38.1855755  37.1713540  66.9802590
  37.7872038  37.9049762  65.8920217  38.3408827  37.6702334  66.3961888
  37.5458714  35.0358071  60.9436884  37.8218449  34.3176984  60.5314452
  38.1457384  35.6342991  60.7357991  37.6751979  35.0178442  60.8517646
  36.5510968  44.9407272  71.0864280  36.4431323  44.9509334  71.9526338
  36.7606750  45.7662053  70.8969234  36.5661079  45.0648347  71.1868372
  47.0450154  30.9508748  64.1185980  46.4324467  31.4379150  64.5039712
  47.1414329  30.2752239  64.6623631  46.9688051  30.9227056  64.2564838
  41.0469235  32.7071589  59.2183479  41.5012981  32.8782149  59.9431324
  41.5209281  32.0939699  58.8181255  41.1837555  32.6422474  59.2657241
  34.5684760  42.1919915  68.5486218  33.9772694  42.8329413  68.5189233
  35.3305784  42.6157532  68.5217517  34.5933021  42.3495753  68.5401365
  34.9645383  33.3521912  69.2154236  35.4246865  33.4260842  69.9529359
  35.0101490  34.1503167  68.8654057  35.0395938  33.4816060  69.2726992
  36.6128733  34.0188607  73.7826263  36.2214298  33.3721954  74.2182040
  36.7814596  34.6100043  74.4020518  36.5799643  34.0102875  73.9388969
  50.6875182  42.0225684  69.5463496  50.7458306  42.4712333  70.2923473
  50.0541649  42.4324497  69.1093576  50.6026477  42.1499419  69.5916045
  44.3274277  47.6429226  65.9818242  44.1293965  48.1320041  65.2874454
  43.7061988  47.8470468  66.5602376  44.2061841  47.7445765  65.9641466
  38.3882255  39.4114123  60.3228487  39.1324300  39.7988399  60.5611437
  38.5342951  38.5671549  60.4868974  38.5192840  39.3444596  60.3822456
  40.3061830  31.2064382  65.3560348  39.4597875  31.3787190  65.2301698
  40.3032963  30.4013726  65.6926176  40.1808980  31.1125411  65.3871475
  41.3760131  34.9839596  66.2222406  40.9020085  34.4581358  66.7327717
  41.7478267  34.4369069  65.6537268  41.3610020  34.8255593  66.2137553
  31.7533161  36.9811103  71.5905952  32.6158774  36.8806812  71.5043282
  31.4224944  36.4005812  71.0291524  31.8318357  36.8802730  71.4951358
  47.6396861  40.0441972  67.6329187  47.3995084  39.2048387  67.6371613
  48.1188868  40.1242139  68.3569960  47.6749045  39.9323372  67.7403989
  49.6402048  36.8243429  65.5858446  49.4011818  36.7839263  64.7479230
  49.8035950  37.6714581  65.7124167  49.6292352  36.9435514  65.4811928
  46.2448078  41.2093379  71.5163491  46.9682277  40.7565905  71.3374511
  45.9798041  41.4898044  70.7335819  46.3129352  41.1844347  71.3742206
  35.1134947  35.8053552  68.2516370  34.4888017  35.8171944  67.6442323
  34.7780542  36.2813727  68.9007610  34.9720439  35.8772069  68.2572938
  31.8260622  43.8654012  69.6920134  31.2960547  43.1746451  69.7415109
  32.0985716  43.8564198  68.8632843  31.7885345  43.7621144  69.5767550
  42.0266868  41.3077257  69.6658506  41.4123861  40.7635307  69.9607141
  42.5434153  40.7941493  69.1864322  42.0122530  41.1513666  69.6382734
  41.2663165  42.3781527  67.4002804  40.8390773  41.7531246  66.9668240
  41.2588109  42.0956449  68.2261812  41.2022306  42.2434308  67.4582632
  34.3825692  37.4146700  70.4691238  34.5419179  36.6590024  70.8742960
  34.2018586  37.9637639  71.1231976  34.3791051  37.3840514  70.6253944
  42.3245995  29.5807936  71.0242028  41.8286556  29.7771610  70.3333595
  43.0815057  29.9800604  70.8530830  42.3632820  29.6685669  70.8962165
  39.5948875  33.2550281  67.6145338  39.6191362  32.7210394  66.9258118
  39.8460348  32.7467590  68.2770929  39.6358793  33.1011185  67.6109983
  27.1056465  40.5381776  67.0488483  26.9999914  40.4928621  66.1840567
  26.3556685  40.8835557  67.3302767  26.9792068  40.5822685  66.9625812
  35.8750197  31.9821100  66.9951083  35.9148569  32.4830306  67.7085790
  35.0499862  32.0731493  66.7257006  35.7589723  32.0702916  67.0601621
  38.0579810  41.5481840  75.0971377  37.2075440  41.6853554  75.2329022
  38.2207938  40.8145618  75.5419079  37.9563673  41.4595941  75.1826977
  37.2964560  38.4981609  69.2924982  36.4656490  38.6655427  69.0860230
  37.2416078  38.1217560  70.0773867  37.1653975  38.4671341  69.3773510
  35.1048344  31.9890502  74.9281393  35.7301047  31.4452635  75.2010825
  34.6498824  31.5085420  74.3589183  35.1296604  31.8379984  74.8842986
  35.6700604  36.7737201  59.8215100  35.8103565  37.2709665  60.5243741
  36.1683137  36.0723495  59.9629313  35.7641685  36.7439180  59.9466679
  35.7000827  37.6404312  57.1507676  36.3345906  38.2364737  57.0857138
  35.7826437  37.3407770  57.9653546  35.8057378  37.6845220  57.2610763
  48.6783392  40.1719789  70.0194040  49.2701233  40.8117040  70.0512239
  49.1142387  39.4742826  70.3086107  48.8301824  40.1638140  70.0674873
  37.2779809  33.5718287  57.1253118  37.5995651  33.0921370  56.4712381
  37.5406753  34.3817934  56.9343930  37.3645835  33.6208185  57.0008610
  40.5076782  44.5937162  70.6451934  40.0001873  45.1473009  71.0892565
  40.2103428  44.6545452  69.8270709  40.3881667  44.6843473  70.5900391
  42.6738964  32.9590481  69.4876597  43.0994036  32.5063008  68.8760124
  42.0595958  32.4050552  69.7641385  42.6467610  32.8104458  69.4381623
  32.2053815  39.8372153  60.4197222  32.7146044  40.4336660  60.8008528
  32.6788087  39.5698126  59.7373642  32.3497190  39.8857968  60.3751745
  41.1133187  29.4305581  62.8967174  40.4701505  29.2803228  63.4652313
  40.7732594  29.1847926  62.1316279  40.9678265  29.3717704  62.8670190
  39.7519268  49.5261720  67.5508941  39.5284922  48.7680549  67.9192968
  39.2629111  49.5559741  66.8289381  39.6462717  49.4183945  67.4985682
  45.8660661  33.8420892  65.2287556  46.2188271  33.4150615  65.9033355
  45.0075463  33.7571735  65.3588633  45.7910106  33.7665632  65.3482567
  34.5644346  36.4728411  63.2870403  33.8456335  36.8892544  63.5543266
  34.9356709  37.0382650  62.7362041  34.5136278  36.6177693  63.2453210
  43.8643927  37.1056260  69.1772398  43.8441854  36.9239555  70.0307177
  43.9123128  37.9768279  69.1531982  43.8678568  37.2072799  69.2995693
  41.8090257  43.6943452  75.1020875  41.7686112  43.0493129  74.5166031
  42.6213575  43.6380070  75.4146287  41.9233410  43.5902419  75.0617824
  38.3997724  49.7462178  65.0046026  37.9858123  49.0836308  64.6149868
  39.0845099  49.8940037  64.4841720  38.4396096  49.6702836  64.8702523
  41.7663019  48.9052263  65.7569642  41.3679302  49.0154534  64.9890463
  41.1514238  49.1134330  66.3396202  41.6161908  48.9525831  65.7300942
  40.3390921  35.5126411  58.6243782  39.7455760  35.8343408  58.0728349
  40.3766198  34.6667507  58.4164888  40.2565310  35.4350740  58.5126554
  47.2984721  28.9639304  66.1571869  46.7915586  28.2568443  66.0893046
  48.0952155  28.6332492  66.2872945  47.3411961  28.8112455  66.1670864
  37.4967966  37.3240389  71.6570633  36.9846869  36.7161572  72.0155664
  37.3247462  38.0396981  72.1244608  37.3957603  37.3403688  71.7786856
  32.3433680  35.7677964  74.3072994  32.1736271  36.4279339  73.7621201
  31.8999630  35.9784525  75.0285484  32.2533014  35.8963946  74.3334624
  36.2693500  34.0082462  63.3499728  36.7450866  34.3699542  62.7149909
  35.7682099  34.6638930  63.6299871  36.2658859  34.1576651  63.2976469
  41.3737036  35.2464633  74.0972888  41.9308466  35.0178443  73.4651354
  41.0498101  36.0070299  73.8208101  41.4083446  35.3248470  73.9629385
  29.2435745  38.6724830  69.5661484  28.6962464  38.0025475  69.6842353
  30.0328123  38.3054678  69.6304952  29.2787928  38.5189816  69.5930185
  39.0920153  38.3332287  75.0624895  39.8431480  38.6483964  75.3764450
  39.2842730  38.1311458  74.2358817  39.2311567  38.3499669  74.9868291
  45.9405443  34.4605853  62.3048691  45.9399670  34.3054510  63.1632967
  45.7361623  35.3068840  62.2490076  45.9105221  34.5626474  62.4236630
  28.0022714  37.8845638  66.7207507  27.8244475  37.4322246  67.4462423
  27.7141736  38.6871799  66.9045985  27.9335667  37.9368195  66.8551010
  43.6646295  39.1403355  65.9584898  44.1599961  38.4226350  65.9188918
  42.8546071  38.8374153  65.8439385  43.6190189  38.9901001  65.9358623
  29.7395184  40.4173361  63.8329266  28.8740704  40.4059052  63.7212038
  29.8394000  40.2303584  64.6800406  29.6269351  40.3879422  63.9418211
  45.7298114  41.8907042  68.6462026  46.1553186  41.3681464  68.0932451
  45.3655034  42.4887880  68.1250649  45.7384717  41.9017269  68.4871036
  35.3652194  50.1871260  67.4059372  35.6798753  51.0007648  67.4137154
  35.7745607  49.8021479  68.0741531  35.4720292  50.2499962  67.5063464
  42.3176714  45.6041307  64.9763184  42.7887892  46.3181569  65.1453169
  42.6536892  45.0040057  65.5123053  42.4371829  45.6212771  65.0795560
  44.4053698  47.2142620  77.1555256  44.5150664  46.4251181  77.5112003
  44.7344595  47.1248556  76.3529594  44.4706104  47.0848473  77.0897647
  39.2346209  30.3768777  71.9321279  39.3674114  29.5799771  72.2602254
  39.6191361  30.9035180  72.5119554  39.3102538  30.3368694  72.0664782
  42.9550660  45.3959241  71.7390877  42.4071606  44.7717124  71.4710942
  43.4163689  45.5853513  71.0234956  42.9417870  45.3318291  71.5941308
  42.3078564  27.2999103  68.5302372  41.5024528  27.1896833  68.8470210
  42.1785299  27.4011559  67.6732238  42.1698697  27.2982773  68.4510412
  45.7644524  33.4644595  69.1242069  45.1807513  33.9653802  68.7119636
  46.0848818  32.9574151  68.4906392  45.7257700  33.4636430  68.9700576
  38.3039324  32.3785190  59.4000744  39.1255018  32.5483503  59.1582439
  37.8408974  32.5332451  58.6767041  38.3570486  32.4266923  59.2572388
  36.8934655  30.3727952  70.1799172  37.4379068  30.0319079  70.7703514
  36.9471591  31.2313414  70.3220457  36.9823775  30.4483212  70.2881046
  32.7065214  44.1344368  67.0537980  33.3110072  44.0940202  66.4251801
  32.4992527  44.9815520  67.0842036  32.7654111  44.2532371  66.9654097
  42.5208986  46.4010313  68.2700218  43.3407360  46.2573280  68.5316513
  42.2403064  47.0256512  68.8116656  42.6005730  46.4720666  68.3888157
  27.9416497  43.1178986  66.9236903  27.8440775  42.3075257  67.2326960
  28.7245366  43.0970779  66.5383172  28.0432633  42.9946076  66.9123766
  58.9922637  54.0575165  61.2343094  58.9616641  54.9119802  61.4061363
  59.5903985  53.7570458  61.7929238  59.0759795  54.1391662  61.3417896
  52.1922322  53.1450816  65.9896025  51.3360217  53.3059314  66.0405141
  52.2389975  52.2742880  66.0101086  52.0721433  53.0401618  66.0002091
  46.5763461  62.6813534  61.7533256  45.8246361  62.3029072  61.5249301
  47.0249473  62.7131968  61.0052066  46.5313128  62.6299141  61.6090758
  52.0288421  63.1038904  57.1818803  51.6939790  63.7815825  56.7463025
  52.5415292  62.7144215  56.5935675  52.0554002  63.1463482  57.0305595
  51.5692712  65.0553172  63.1229915  51.9532092  65.6240071  62.5834690
  51.5051854  64.3302683  62.6435731  51.6166140  65.0328636  62.9723777
  55.0374143  55.2042860  68.6327676  55.5830103  55.8827947  68.6921646
  54.9791019  55.0630321  67.7729258  55.1090057  55.2834862  68.5139737
  48.1548217  62.6931926  64.0196029  48.2558580  61.8832280  64.3293156
  47.5589963  62.5988873  63.3895707  48.0820756  62.5596954  63.9722267
  56.8139211  56.6327467  59.5061404  56.6978737  57.3835153  59.9353542
  57.6095098  56.3751421  59.7557491  56.9143801  56.7062314  59.6065496
  47.9948957  67.6109515  65.4210885  48.6386413  68.0522679  65.8107043
  48.3205213  66.8062942  65.3341143  48.1380786  67.5574710  65.4656362
  41.3513262  58.7152213  63.6448362  41.1163446  57.8819865  63.5380631
  41.4898902  58.9956878  62.8309563  41.3368924  58.6335716  63.5090717
  43.6503349  50.8837943  66.5432670  43.0308381  50.2930591  66.3742685
  43.5487213  51.4749379  65.9096993  43.5441025  50.8842026  66.4237659
  48.6969537  60.6221490  60.7930746  49.0185378  61.1626698  60.1892054
  49.3441633  60.0518262  60.9253036  48.8395592  60.6180665  60.7237782
  50.7471245  52.6237485  60.8765133  51.4451410  52.8025613  61.3686596
  51.0623577  52.1007825  60.2535522  50.8966582  52.5731257  60.8567143
  43.3772482  54.4290225  68.7876239  43.2531179  55.0152671  69.4226058
  44.0290767  53.9350421  69.0888514  43.4546132  54.4429030  68.9262168
  50.9359180  59.0107930  60.8644924  51.3752816  58.4025031  61.3099697
  50.7863843  58.6315304  60.0930390  50.9780646  58.8646401  60.8164092
  48.4030823  57.6051942  68.0663750  49.0479826  57.1124385  67.7474699
  48.6432600  57.7476729  68.8929828  48.5341408  57.5529384  68.1413283
  50.9416915  60.4506848  67.7170643  51.2240157  59.6558254  67.4957398
  51.6703075  60.9287435  67.7375704  51.0906478  60.4041445  67.6873658
  54.5368517  57.3635111  57.8175694  54.4519812  58.2196078  57.9625263
  55.0252900  57.0879436  58.4857853  54.5957414  57.4492433  57.9377775
  56.1274516  43.9815405  63.2036018  55.8127957  44.6718883  63.6356441
  55.6101458  43.9260187  62.5021519  56.0038987  44.0750293  63.1632967
  55.4686950  53.9819906  59.3173429  54.9398421  54.1979539  59.9770735
  55.9911970  54.6756044  59.2374398  55.4675403  54.1163043  59.4029028
  60.9235003  59.5566210  64.6906473  60.0932706  59.7676854  64.8539890
  60.8744255  58.7303265  64.4148757  60.7941738  59.4655816  64.6743839
  47.3586558  57.8783122  58.1180897  46.7743773  58.3833154  58.5246761
  46.9556653  57.6525509  57.3777489  47.2125862  57.9191371  58.0685922
  42.9130586  63.5937884  64.9204568  42.4298165  64.3188373  64.8964152
  43.7253905  63.8914014  65.0314726  42.9621334  63.7440237  64.9331848
  48.9844740  62.3870064  67.5254383  48.4671682  62.0277479  66.9215691
  49.6819132  61.8632239  67.5360449  49.0110322  62.2567752  67.4384642
  51.8163772  54.1248775  56.5949817  52.0559776  54.3326758  55.7825161
  52.1379613  53.3206283  56.7038762  51.9000930  54.0362876  56.4910370
  45.7674784  64.1094059  65.0724848  46.4695363  63.5946049  65.1297605
  45.6872267  64.4368211  65.8771723  45.8598544  64.0808286  65.1997640
  60.4188961  52.2036611  68.4856895  59.5817382  52.2738798  68.7204489
  60.3877192  52.2061106  67.6131197  60.2907244  52.2146838  68.3916443
  46.8153690  54.3469646  74.2005263  46.9874194  54.2375541  75.0490545
  47.3523048  54.9924052  73.9636456  46.9198694  54.4261648  74.2910360
  45.0925559  60.3000411  64.5810456  45.9314459  60.5323344  64.6284218
  45.1237328  59.4304723  64.5117492  45.2207277  60.2057358  64.5775101
  45.7178262  60.7201287  68.8823762  46.2576487  60.5772418  69.5527134
  45.0348208  61.1198037  69.2507788  45.6970416  60.7580958  69.0358184
  55.1419147  56.3992287  64.0768786  55.8976662  56.8323802  64.1157695
  55.2481471  55.7497057  64.6503422  55.2689318  56.3669771  64.1666812
  58.1799318  60.2265565  64.8271189  57.7434550  60.2302307  65.5830161
  57.8462234  60.9071064  64.3950767  58.0661938  60.3278020  64.8752022
  41.1215407  56.9401577  69.0358183  40.8553822  56.1240694  69.1949174
  41.1353971  56.9854733  68.1653699  41.0840130  56.8258482  68.9311665
  58.0996801  47.2679392  67.0700617  58.7422709  47.3377497  67.6562532
  58.3519822  46.6008615  66.5680159  58.2318933  47.1805741  67.0827896
  45.8714014  50.4779956  71.6825191  45.1785810  50.0076935  71.9285923
  46.4874341  50.2518260  72.2566898  45.8598544  50.3747088  71.8034344
  61.3143664  56.9446484  63.7190826  61.9760098  56.3837153  63.6186735
  60.6735076  56.4498515  64.0443518  61.3172532  56.7882893  63.7523167
  52.2020472  60.2416616  56.0271750  52.6171621  59.9101640  55.3356245
  51.3712402  60.0085518  55.8991886  52.1408481  60.1587872  55.9062597
  41.5308821  57.7260357  66.3169928  41.3484394  57.7007243  65.4642220
  42.2658490  58.1959295  66.3558836  41.6122885  57.7921719  66.1967846
  57.6008495  57.9611867  63.4602815  57.8364084  58.1057066  62.6329666
  57.7498059  58.7254275  63.8534329  57.6574298  58.0950921  63.3966419
  44.5954573  54.4445360  72.8252036  45.3194545  54.4298390  73.3116931
  44.6970709  55.1540715  72.3274004  44.7172782  54.5470063  72.8230823
  59.4298952  56.8013533  61.2972419  59.7607169  57.3341173  60.6912514
  60.0032040  56.8552421  61.9534370  59.5632631  56.8883102  61.3050201
  54.6430841  54.6478435  61.9795999  54.7377695  55.3867730  62.4335625
  54.0189684  54.2195911  62.4130564  54.5639871  54.6939756  62.1104147
  41.4979731  54.6053858  66.4668994  42.0753234  54.4690308  67.1061240
  40.7993793  54.1489642  66.7214579  41.4800753  54.5176124  66.5991284
  54.8953862  56.4927175  55.2132951  54.8134025  56.5629362  56.0787938
  55.5333583  57.0556919  55.0216692  54.9773700  56.5866146  55.3122901
  48.2547033  56.2587913  64.6807477  47.9966278  55.4259648  64.6538777
  48.3095516  56.4845526  63.8399978  48.2246811  56.1685684  64.5527614
  47.2281746  53.8125676  65.1672372  46.6531337  53.9717844  65.8036333
  46.8517422  53.1761085  64.7040823  47.0884558  53.7423489  65.1926931
  50.8955034  52.2849025  70.0264751  50.5069467  51.8603243  69.3716942
  50.2309733  52.5331175  70.5341777  50.7401962  52.2587746  70.0052619
  60.5378303  52.0424030  62.8012581  60.2814868  51.2303971  62.6110463
  61.3807617  52.0501597  62.5742768  60.6244329  51.9236027  62.7397398
  36.9738564  53.4565750  63.1816813  37.0598816  53.0797619  63.9630343
  37.6014362  53.0826196  62.7036771  37.0795115  53.3451233  63.2262290
  54.7181396  45.9823654  67.5388735  55.0991907  45.3001825  67.9256609
  53.9144680  45.6933256  67.3564399  54.6557857  45.8390702  67.5692791
  51.9993972  56.5147630  58.2241558  52.8134611  56.8062522  58.1124329
  51.9353114  55.8607492  57.6499851  52.1096711  56.4612824  58.1230395
  47.8701881  59.9869147  63.3513870  48.5075828  59.7480895  63.8965663
  48.2956952  60.1906306  62.6167030  48.0278047  59.9820157  63.3231027
  42.5614523  62.2257484  67.2348173  42.6018668  62.4972335  66.4067953
  43.1209047  62.7499392  67.6505961  42.6497869  62.3433239  67.1740062
  48.5104696  55.2071437  57.6888759  48.8949848  54.9879144  58.4405304
  48.2616316  56.0334382  57.8189835  48.5306768  55.2969583  57.8189835
  48.6773236  48.4877852  77.4051343  48.3626677  49.2577415  77.1420906
  48.3563169  47.9248108  76.8203570  48.5832155  48.5188121  77.2792693
  50.2523353  60.4641570  65.0307656  50.3262361  60.3016741  65.8849506
  51.0692859  60.6531759  64.7868138  50.3839711  60.4678312  65.1205681
  44.0129109  60.8099432  62.0602099  43.1867227  61.0561170  61.9336378
  44.0741101  60.7311513  62.9264157  43.9003276  60.8344381  62.1691044
  46.2305133  46.8768373  63.0197540  45.3627559  46.9490973  63.0855149
  46.5180337  47.6790452  63.2085515  46.1444881  47.0062521  63.0572306
  55.3538022  47.0246233  71.3508861  56.0991614  46.8356043  70.9372287
  54.9375326  47.5504471  70.7922718  55.4022996  47.0748378  71.2073435
  48.7927938  63.4276313  59.7621129  49.0826237  63.0365294  59.0380356
  49.5231419  63.6093018  60.2026405  48.9434823  63.3970126  59.7203936
  62.7300293  54.3955461  66.3014366  63.2808214  53.7623530  66.5411458
  62.7144408  54.9270854  66.9929871  62.8085489  54.3804409  66.4393225
  49.3822684  58.2294059  70.8474260  48.8834377  58.9409826  70.9259148
  50.1922908  58.5494725  70.8092422  49.4278790  58.3820907  70.8530828
  46.7333854  65.4043695  62.8281279  46.5134149  65.1141050  63.6207946
  46.5128376  64.7458650  62.2999191  46.6681448  65.2643403  62.8670188
  45.6450801  57.4917012  65.0936981  45.3564050  56.8654483  65.6282708
  46.5134149  57.4337299  65.1601661  45.7311053  57.3904556  65.1827935
  56.4328699  52.6351795  65.4118963  56.0893465  51.9142130  65.7626212
  56.5321741  52.4265646  64.5697321  56.3970742  52.4975998  65.3390643
  48.9001810  66.7773085  61.6111971  49.5525868  66.2449527  61.8402997
  48.2027418  66.4241737  61.9979845  48.8932528  66.6462608  61.7024139
  45.8483074  59.1312263  61.0179346  46.6029042  59.5125302  61.2314808
  45.2553687  59.5823406  61.4726042  45.8719788  59.2541090  61.1162224
  56.8941728  59.0977499  60.9542951  57.4599761  59.7570709  60.8701494
  56.2469631  59.4427197  61.4259353  56.8820484  59.2459440  61.0115707
  48.3089742  51.0875103  76.1436558  47.4989517  51.3932883  76.0326400
  48.7864428  51.8080685  76.2589142  48.2593220  51.2389704  76.1443629
  47.1681301  60.3020824  66.3919461  46.6462055  60.4421116  67.0771326
  47.5555321  59.5431488  66.5821578  47.1485002  60.2106348  66.5220538
  44.1572485  50.3526633  60.4614416  43.8697281  49.9827903  59.7246363
  44.8442953  50.8221488  60.1998121  44.2161382  50.3673602  60.3129492
  53.3648306  62.0416283  60.3780030  53.1234982  61.3084144  59.9707095
  53.5449639  62.5903140  59.7246363  53.3555930  62.0138674  60.2210253
  48.5947627  57.3324843  61.7900952  48.3990409  57.9399578  61.1961255
  48.8181972  56.6392787  61.3092626  48.5982268  57.3202369  61.6317033
  46.9926157  54.2179581  61.9081821  47.7148809  54.3820739  61.4485627
  46.5134150  54.9389246  61.8021160  47.0289887  54.3477811  61.8247435
  54.9519664  50.5543380  67.2878505  54.1130765  50.5804659  67.0516769
  55.0224032  51.2014115  67.8683852  54.8388058  50.6539506  67.3387622
  44.6433773  56.6237653  71.0135960  45.1554870  56.9021907  70.3644720
  44.3570116  57.3626947  71.3798773  44.6768637  56.7740007  70.9725838
  58.8277188  55.7611367  64.5739747  58.7411163  55.9166793  65.4274526
  58.3727668  56.4049442  64.1999152  58.7480445  55.8787122  64.6446854
  41.7300680  51.1307845  61.3099697  41.8316816  51.9334007  61.6380672
  42.5256566  50.9295181  61.0122777  41.8628585  51.2193744  61.3135052
  48.1617499  48.7164042  71.0737002  47.9700696  48.7319176  71.9236425
  49.0116095  48.9127716  71.0503657  48.2593221  48.7478393  71.1960297
  42.5464412  51.2455023  69.0520818  42.4049904  50.3938964  69.1765326
  42.8304975  51.2883684  68.2283024  42.5672258  51.1254773  68.9488443
  52.7003004  53.0822114  63.1965307  52.4537718  53.0017865  64.0302096
  53.0288127  52.2975581  63.0027834  52.7124248  52.9548379  63.2912830
  56.5951053  59.7905473  66.9852088  56.4565412  60.4886519  67.4900830
  55.8151051  59.6354129  66.6288270  56.4594280  59.8705640  67.0078362
  48.6600031  55.8178832  72.6088290  48.8043407  56.3980040  71.9731400
  49.0075680  56.1955129  73.3138144  48.7327493  55.9599536  72.6187285
  50.8319949  55.0169001  70.3913421  50.0843263  55.2100015  69.9861699
  50.9861474  54.1914220  70.1537543  50.7442376  54.9234112  70.2958827
  47.7327786  64.0081604  69.4749317  47.8817350  63.4484520  68.8222721
  48.5127789  64.0873606  69.8581835  47.8701880  63.9367170  69.4346266
  58.0904426  59.1483727  57.7468587  57.7111235  58.3620865  57.7397877
  57.4270671  59.6970584  57.6040231  57.9362901  59.1128551  57.7249384
  51.0721726  48.9119551  71.2808825  51.5294340  49.6443526  71.4081617
  51.1478055  48.4886017  72.0396081  51.1512696  48.9576789  71.4109902
  43.3154717  49.1585371  72.3698269  42.7796907  48.5465729  72.6859036
  43.3772482  49.7333507  73.0231935  43.2450350  49.1532299  72.5133696
  55.5449052  42.0909427  65.1502668  55.6632620  42.5485890  64.4169971
  55.3711228  41.2854688  64.8638886  55.5368223  42.0403199  65.0003602
  50.9151334  62.6997246  61.5857413  51.6801225  62.4306890  61.2640078
  50.8129424  62.2147256  62.3027476  51.0132829  62.5886810  61.6437241
  48.9504104  50.9021655  68.1250649  48.1600179  50.7213115  68.4467985
  49.3464727  50.1248608  68.1080944  48.8920980  50.7609116  68.1703197
  53.4369995  59.7309430  53.5657363  54.2042980  59.7909555  53.1563215
  52.9901304  59.1589871  53.0813681  53.4843422  59.6546005  53.4335073
  54.3347790  58.5364085  65.8510095  53.6592792  58.3049318  66.3523482
  54.3440166  57.9285268  65.2252200  54.2366295  58.4123011  65.8326247
  56.3364525  61.3929218  58.0820273  56.4184362  62.1996204  57.7581724
  56.8214267  61.4125177  58.8061046  56.4201683  61.5149880  58.1407172
  50.1461028  56.0714054  66.7490351  49.7223277  56.2718553  66.0129369
  49.9705883  55.2242902  66.8614651  50.0571909  55.9762835  66.6564041
  45.4343473  56.5666105  62.1818323  45.5908092  56.5012908  63.0374316
  45.7744066  57.3414658  61.9697003  45.5076708  56.6715303  62.2772918
  51.9722618  55.9423989  61.0511687  52.5138163  55.4394370  61.5150307
  52.2869177  55.8889183  60.2401172  52.0987015  55.8603410  60.9995499
  50.1409067  61.3341340  58.3351715  50.2101888  60.4755879  58.4744715
  50.9197522  61.5513221  58.0070739  50.2661917  61.2394204  58.3068872
  53.1211887  50.8360293  71.1033987  53.3353856  50.1971207  70.5497341
  52.5045786  51.2806117  70.6741849  53.0617216  50.8070437  70.9584418
  54.5316555  63.7579042  62.5488208  54.1396347  63.4545757  61.8311074
  54.6869627  64.5948131  62.3593162  54.4970145  63.8362878  62.4144705
  42.0077734  53.7501056  62.4979091  42.3876699  54.1685601  61.8339358
  41.4333099  54.3314511  62.8047934  41.9789059  53.8978914  62.4455832
  55.2850975  52.4449358  72.0417294  54.4727657  52.1375249  72.1230467
  55.7440910  51.9648359  72.6060006  55.2331360  52.3285851  72.1371888
  54.6956230  60.3229030  62.4894239  54.3370884  60.4943673  63.2658271
  54.2094940  60.7842236  61.9322237  54.5714927  60.4168001  62.5219508
  52.5126616  43.9460229  66.0921330  51.6420174  43.9198950  66.0454639
  52.7666957  43.7737421  65.2747176  52.4220176  43.9170373  65.9641467
  49.4844595  56.0028196  55.0294473  49.7737120  56.7793078  55.3038047
  49.5716394  55.4916927  55.7308972  49.5398851  56.0420114  55.1736971
  49.5375756  45.9566457  67.5494800  49.0214245  45.2646649  67.6746379
  48.9769685  46.6237234  67.4957399  49.3782269  45.9529715  67.5600866
  51.6067990  46.4959417  69.3787653  51.2199743  46.5208449  70.1601183
  51.1200927  45.9301096  68.9262170  51.4780498  46.4155168  69.4275557
  57.5817969  53.0622072  68.0027355  57.1545577  52.9748421  67.2475455
  56.9444022  53.1699848  68.5882199  57.4247576  53.0654732  67.9772797
  51.2725131  43.3826403  71.6697913  51.9018249  43.9186703  71.3918983
  51.4410994  43.2903762  72.5211478  51.3902926  43.4487765  71.7546441
  51.0739046  48.1697598  73.9424324  51.9012475  47.8982746  73.9982939
  51.0946892  48.9658439  74.2988143  51.1991896  48.2477352  74.0039507
  45.6508536  55.3161460  67.1294585  44.8096543  55.2165335  67.3373479
  45.8598544  56.0856941  67.4808906  45.5573229  55.4153504  67.2121900
  43.1284103  52.9380997  64.9579336  42.7340801  53.0124009  64.1829445
  42.5724220  53.3238944  65.5087697  42.9886915  53.0062772  64.9246996
  54.7649050  45.9162291  64.6383215  54.9698643  45.8484599  65.4840212
  54.4375474  46.7221113  64.5704392  54.7464298  46.0248232  64.7542870
  49.4625201  53.2442860  66.3792183  49.1588338  52.6898848  66.9802590
  48.7604622  53.4235070  65.8920217  49.3141411  53.1887642  66.3961888
  47.5243552  60.4592580  71.0864280  47.4163907  60.4694642  71.9526338
  47.7339333  61.2847361  70.8969234  47.5393663  60.5833655  71.1868372
  58.0182737  46.4694056  64.1185980  57.4057051  46.9564458  64.5039712
  58.1146912  45.7937546  64.6623631  57.9420635  46.4412364  64.2564838
  45.5417344  57.7105223  68.5486218  44.9505277  58.3514721  68.5189233
  46.3038367  58.1342840  68.5217517  45.5665604  57.8681061  68.5401365
  45.9377967  48.8707220  69.2154236  46.3979448  48.9446150  69.9529359
  45.9834073  49.6688474  68.8654057  46.0128522  49.0001367  69.2726992
  47.5861316  49.5373915  73.7826263  47.1946882  48.8907262  74.2182040
  47.7547179  50.1285351  74.4020518  47.5532227  49.5288183  73.9388969
  55.3006860  63.1614534  65.9818242  55.1026549  63.6505349  65.2874454
  54.6794571  63.3655776  66.5602376  55.1794425  63.2631072  65.9641466
  49.3614838  54.9299431  60.3228487  50.1056883  55.3173707  60.5611437
  49.5075535  54.0856856  60.4868974  49.4925424  54.8629904  60.3822456
  52.3492714  50.5024904  66.2222406  51.8752669  49.9766666  66.7327717
  52.7210850  49.9554377  65.6537268  52.3342603  50.3440901  66.2137553
  42.7265744  52.4996411  71.5905952  43.5891357  52.3992120  71.5043282
  42.3957527  51.9191120  71.0291524  42.8050941  52.3988038  71.4951358
  58.6129445  55.5627280  67.6329187  58.3727668  54.7233695  67.6371613
  59.0921452  55.6427447  68.3569960  58.6481629  55.4508680  67.7403989
  60.6134632  52.3428737  65.5858446  60.3744402  52.3024571  64.7479230
  60.7768533  53.1899889  65.7124167  60.6024935  52.4620822  65.4811928
  46.0867530  51.3238860  68.2516370  45.4620601  51.3357252  67.6442323
  45.7513125  51.7999035  68.9007610  45.9453022  51.3957377  68.2572938
  42.7993206  59.3839320  69.6920134  42.2693130  58.6931759  69.7415109
  43.0718299  59.3749506  68.8632843  42.7617928  59.2806452  69.5767550
  53.8313296  59.9665023  58.4157817  54.5547495  60.4323136  58.2722390
  53.3913887  60.0338632  57.6655414  53.8728989  60.0448859  58.2842598
  52.9999452  56.8262565  69.6658506  52.3856445  56.2820615  69.9607141
  53.5166736  56.3126801  69.1864322  52.9855114  56.6698974  69.6382734
  52.2395749  57.8966835  67.4002804  51.8123357  57.2716553  66.9668240
  52.2320693  57.6141757  68.2261812  52.1754890  57.7619615  67.4582632
  45.3558276  52.9332008  70.4691238  45.5151762  52.1775332  70.8742960
  45.1751169  53.4822947  71.1231976  45.3523635  52.9025822  70.6253944
  53.2978579  45.0993243  71.0242028  52.8019140  45.2956918  70.3333595
  54.0547641  45.4985912  70.8530830  53.3365403  45.1870977  70.8962165
  50.5681458  48.7735589  67.6145338  50.5923946  48.2395702  66.9258118
  50.8192932  48.2652898  68.2770929  50.6091377  48.6196493  67.6109983
  38.0789048  56.0567084  67.0488483  37.9732497  56.0113929  66.1840567
  37.3289268  56.4020865  67.3302767  37.9524651  56.1007992  66.9625812
  46.8482781  47.5006408  66.9951083  46.8881152  48.0015614  67.7085790
  46.0232445  47.5916801  66.7257006  46.7322307  47.5888224  67.0601621
  48.2697144  54.0166917  69.2924982  47.4389074  54.1840735  69.0860230
  48.2148661  53.6402868  70.0773867  48.1386559  53.9856649  69.3773510
  46.0780927  47.5075810  74.9281393  46.7033631  46.9637943  75.2010825
  45.6231407  47.0270728  74.3589183  46.1029188  47.3565292  74.8842986
  46.6433188  52.2922509  59.8215100  46.7836149  52.7894973  60.5243741
  47.1415721  51.5908803  59.9629313  46.7374269  52.2624488  59.9466679
  46.6733410  53.1589620  57.1507676  47.3078490  53.7550045  57.0857138
  46.7559021  52.8593078  57.9653546  46.7789961  53.2030528  57.2610763
  48.2512393  49.0903595  57.1253118  48.5728234  48.6106678  56.4712381
  48.5139337  49.9003241  56.9343930  48.3378418  49.1393493  57.0008610
  53.6471548  48.4775789  69.4876597  54.0726620  48.0248316  68.8760124
  53.0328541  47.9235860  69.7641385  53.6200193  48.3289766  69.4381623
  43.1786398  55.3557461  60.4197222  43.6878627  55.9521968  60.8008528
  43.6520670  55.0883434  59.7373642  43.3229774  55.4043276  60.3751745
  54.0917146  64.0285727  58.5755878  53.3746456  63.8546590  58.1103115
  54.7423884  63.7938300  58.0431364  54.0818997  63.9681520  58.4285096
  56.6765117  52.9050316  62.3197183  56.0056307  53.4480018  62.1910249
  57.3704868  53.3745171  62.0778878  56.6793985  53.0548587  62.2652711
  50.7251851  65.0447028  67.5508941  50.5017506  64.2865857  67.9192968
  50.2361694  65.0745049  66.8289381  50.6195300  64.9369253  67.4985682
  56.8393245  49.3606200  65.2287556  57.1920855  48.9335923  65.9033355
  55.9808046  49.2757043  65.3588633  56.7642689  49.2850940  65.3482567
  54.8376511  52.6241568  69.1772398  54.8174438  52.4424863  70.0307177
  54.8855711  53.4953587  69.1531982  54.8411152  52.7258106  69.2995693
  49.3730308  65.2647486  65.0046026  48.9590707  64.6021616  64.6149868
  50.0577682  65.4125345  64.4841720  49.4128680  65.1888144  64.8702523
  52.7395602  64.4237571  65.7569642  52.3411885  64.5339842  64.9890463
  52.1246822  64.6319638  66.3396202  52.5894491  64.4711139  65.7300942
  58.2717305  44.4824611  66.1571869  57.7648170  43.7753751  66.0893046
  59.0684739  44.1517800  66.2872945  58.3144544  44.3297763  66.1670864
  54.1881321  50.9891224  62.0545532  53.9595014  51.0123925  61.2123891
  54.4479397  50.1648691  62.1740543  54.1927509  50.8707304  61.9470730
  48.4700549  52.8425697  71.6570633  47.9579452  52.2346880  72.0155664
  48.2980045  53.5582289  72.1244608  48.3690186  52.8588996  71.7786856
  43.3166264  51.2863272  74.3072994  43.1468854  51.9464647  73.7621201
  42.8732214  51.4969833  75.0285484  43.2265597  51.4149254  74.3334624
  47.2426083  49.5267770  63.3499728  47.7183450  49.8884850  62.7149909
  46.7414683  50.1824238  63.6299871  47.2391442  49.6761959  63.2976469
  60.4737445  58.9989538  59.1412733  60.8571051  59.7480894  59.3710830
  59.6781558  59.2455358  58.8824722  60.4131227  59.1459232  59.1370307
  52.3469620  50.7649941  74.0972888  52.9041050  50.5363751  73.4651354
  52.0230685  51.5255607  73.8208101  52.3816030  50.8433778  73.9629385
  40.2168328  54.1910138  69.5661484  39.6695048  53.5210783  69.6842353
  41.0060707  53.8239986  69.6304952  40.2520512  54.0375124  69.5930185
  49.2852736  51.6708970  56.7173112  49.6651701  51.6888599  55.9324227
  48.5445332  52.1162959  56.5963959  49.2321574  51.7390744  56.5836680
  56.9138027  49.9791161  62.3048691  56.9132253  49.8239818  63.1632967
  56.7094207  50.8254148  62.2490076  56.8837805  50.0811782  62.4236630
  38.9755298  53.4030945  66.7207507  38.7977059  52.9507554  67.4462423
  38.6874320  54.2057107  66.9045985  38.9068251  53.4553503  66.8551010
  54.6378879  54.6588663  65.9584898  55.1332544  53.9411658  65.9188918
  53.8278655  54.3559460  65.8439385  54.5922772  54.5086309  65.9358623
  50.0837490  58.5086476  58.1081902  49.2748813  58.1853150  58.0615212
  50.5912399  57.8019698  58.0410151  50.0387157  58.3567792  58.0912196
  40.7127768  55.9358669  63.8329266  39.8473287  55.9244360  63.7212038
  40.8126584  55.7488892  64.6800406  40.6001935  55.9064730  63.9418211
  56.7030698  57.4092350  68.6462026  57.1285769  56.8866772  68.0932451
  56.3387618  58.0073188  68.1250649  56.7117300  57.4202577  68.4871036
  46.3384778  65.7056568  67.4059372  46.6531337  66.5192956  67.4137154
  46.7478191  65.3206786  68.0741531  46.4452876  65.7685270  67.5063464
  53.2909297  61.1226615  64.9763184  53.7620475  61.8366877  65.1453169
  53.6269476  60.5225365  65.5123053  53.4104412  61.1398079  65.0795560
  50.2078792  45.8954085  71.9321279  50.3406698  45.0985079  72.2602254
  50.5923945  46.4220488  72.5119554  50.2835121  45.8554002  72.0664782
  53.2811147  42.8184411  68.5302372  52.4757111  42.7082141  68.8470210
  53.1517883  42.9196867  67.6732238  53.1431280  42.8168081  68.4510412
  56.7377108  48.9829903  69.1242069  56.1540097  49.4839110  68.7119636
  57.0581402  48.4759459  68.4906392  56.6990283  48.9821738  68.9700576
  47.8667239  45.8913260  70.1799172  48.4111652  45.5504387  70.7703514
  47.9204175  46.7498722  70.3220457  47.9556358  45.9668520  70.2881046
  43.6797798  59.6529676  67.0537980  44.2842655  59.6125510  66.4251801
  43.4725110  60.5000828  67.0842036  43.7386695  59.7717679  66.9654097
  53.4941570  61.9195621  68.2700218  54.3139944  61.7758587  68.5316513
  53.2135648  62.5441820  68.8116656  53.5738313  61.9905973  68.3888157
  38.9149080  58.6364294  66.9236903  38.8173358  57.8260565  67.2326960
  39.6977950  58.6156087  66.5383172  39.0165217  58.5131384  66.9123766
  61.7203828  68.1422793  60.8765133  62.4183993  68.3210921  61.3686596
  62.0356161  67.6193132  60.2535522  61.8699166  68.0916565  60.8567143
  59.8930692  63.5115190  64.9586408  59.5634022  63.9626333  64.2890106
  59.2175694  63.4331353  65.5059414  59.7441128  63.5666325  64.9409631
  67.1007100  59.5000713  63.2036018  66.7860541  60.1904191  63.6356441
  66.5834041  59.4445495  62.5021519  66.9771570  59.5935601  63.1632967
  58.3319141  73.3968430  58.1180897  57.7476357  73.9018462  58.5246761
  57.9289237  73.1710817  57.3777489  58.1858445  73.4376679  58.0685922
  62.7896356  69.6434082  56.5949817  63.0292359  69.8512066  55.7825161
  63.1112197  68.8391591  56.7038762  62.8733514  69.5548184  56.4910370
  58.0986646  61.5727478  60.4409355  58.8532614  61.9405795  60.2026406
  57.9214181  61.9467033  61.2088535  58.1841124  61.6825666  60.5194244
  56.4543711  63.9797797  57.1387468  56.2719284  64.1969678  56.3128461
  57.3169324  64.0936810  57.1946083  56.5548300  64.0287695  57.0241955
  62.1343430  60.9824208  60.1736492  62.8629590  60.8040163  59.7274648
  62.2238323  61.8242288  60.3843670  62.2550092  61.0808086  60.1390010
  56.0005738  67.2571970  55.6509941  55.2863915  66.9710149  56.0632374
  56.4849706  67.5968596  56.2916329  55.9665101  67.2653619  55.8065576
  63.1753056  75.7601924  56.0271750  63.5904204  75.4286948  55.3356245
  62.3444985  75.5270826  55.8991886  63.1141064  75.6773180  55.9062597
  65.8686446  72.0112483  55.2132951  65.7866608  72.0814670  56.0787938
  66.5066166  72.5742227  55.0216692  65.9506283  72.1051454  55.3122901
  47.9471148  68.9751058  63.1816813  48.0331400  68.5982927  63.9630343
  48.5746945  68.6011504  62.7036771  48.0527699  68.8636541  63.2262290
  62.9726556  72.0332937  58.2241558  63.7867195  72.3247830  58.1124329
  62.9085697  71.3792800  57.6499851  63.0829295  71.9798132  58.1230395
  59.4837279  70.7256745  57.6888759  59.8682432  70.5064451  58.4405304
  59.2348900  71.5519690  57.8189835  59.5039352  70.8154891  57.8189835
  57.2037717  62.3953681  63.0197540  56.3360142  62.4676281  63.0855149
  57.4912921  63.1975760  63.2085515  57.1177465  62.5247828  63.0572306
  55.1305069  65.8711941  60.4614416  54.8429864  65.5013211  59.7246363
  55.8175537  66.3406796  60.1998121  55.1893966  65.8858910  60.3129492
  57.9658740  69.7364889  61.9081821  58.6881392  69.9006047  61.4485627
  57.4866733  70.4574554  61.8021160  58.0022471  69.8663118  61.8247435
  64.3721526  62.9714065  62.0206121  65.0747879  62.7721813  61.5426080
  64.1065715  62.1990007  62.3274965  64.4368158  62.8277031  61.9951563
  52.7033263  66.6493153  61.3099697  52.8049400  67.4519315  61.6380672
  53.4989150  66.4480489  61.0122777  52.8361169  66.7379052  61.3135052
  66.5181635  57.6094734  65.1502668  66.6365203  58.0671198  64.4169971
  66.3443811  56.8039996  64.8638886  66.5100806  57.5588507  65.0003602
  64.4102578  75.2494738  53.5657363  65.1775563  75.3094862  53.1563215
  63.9633887  74.6775179  53.0813681  64.4576005  75.1731313  53.4335073
  52.9810318  69.2686364  62.4979091  53.3609283  69.6870908  61.8339358
  52.4065683  69.8499819  62.8047934  52.9521643  69.4164222  62.4455832
  63.4859199  59.4645537  66.0921330  62.6152757  59.4384258  66.0454639
  63.7399540  59.2922729  65.2747176  63.3952759  59.4355681  65.9641467
  60.4577179  71.5213504  55.0294473  60.7469703  72.2978386  55.3038047
  60.5448977  71.0102235  55.7308972  60.5131435  71.5605422  55.1736971
  59.4923882  66.0728687  60.9436884  59.7683616  65.3547600  60.5314452
  60.0922551  66.6713607  60.7357991  59.6217146  66.0549058  60.8517646
  62.9934402  63.7442205  59.2183479  63.4478149  63.9152765  59.9431324
  63.4674448  63.1310315  58.8181255  63.1302722  63.6793090  59.2657241
  60.3347422  70.4484739  60.3228487  61.0789467  70.8359015  60.5611437
  60.4808118  69.6042164  60.4868974  60.4658007  70.3815212  60.3822456
  65.2508798  66.9146767  59.2848160  64.7231816  66.9975511  58.5953869
  65.7104506  67.6564638  59.2812804  65.2410648  67.0367429  59.1822855
  57.2441863  65.1849287  54.3089055  56.8954667  65.8369012  54.7720604
  56.7638308  65.1706400  53.5812926  57.1212107  65.2792340  54.2700146
  57.6165771  67.8107817  59.8215100  57.7568732  68.3080281  60.5243741
  58.1148304  67.1094111  59.9629313  57.7106852  67.7809796  59.9466679
  57.6465994  68.6774928  57.1507676  58.2811073  69.2735353  57.0857138
  57.7291605  68.3778386  57.9653546  57.7522545  68.7215836  57.2610763
  59.2244977  64.6088903  57.1253118  59.5460818  64.1291986  56.4712381
  59.4871920  65.4188549  56.9343930  59.3111002  64.6578801  57.0008610
  54.1518982  70.8742769  60.4197222  54.6611211  71.4707276  60.8008528
  54.6253254  70.6068742  59.7373642  54.2962357  70.9228584  60.3751745
  63.0598354  60.4676197  62.8967174  62.4166672  60.3173843  63.4652313
  62.7197761  60.2218542  62.1316279  62.9143432  60.4088320  62.8670190
  56.5109513  67.5099027  63.2870403  55.7921503  67.9263160  63.5543266
  56.8821876  68.0753266  62.7362041  56.4601445  67.6548309  63.2453210
  62.2856088  66.5497027  58.6243782  61.6920927  66.8714024  58.0728349
  62.3231365  65.7038123  58.4164888  62.2030477  66.4721355  58.5126554
  58.2158667  65.0453078  63.3499728  58.6916033  65.4070158  62.7149909
  57.7147266  65.7009546  63.6299871  58.2124026  65.1947267  63.2976469
  60.2585320  67.1894278  56.7173112  60.6384285  67.2073907  55.9324227
  59.5177916  67.6348267  56.5963959  60.2054158  67.2576052  56.5836680
  61.0570074  74.0271784  58.1081902  60.2481397  73.7038458  58.0615212
  61.5644983  73.3205006  58.0410151  61.0119741  73.8753100  58.0912196
  60.2504491  63.4155806  59.4000744  61.0720185  63.5854119  59.1582439
  59.7874142  63.5703067  58.6767041  60.3035653  63.4637539  59.2572388
  36.7408294  -0.0417320  48.1683141  36.7102298   0.8127317  48.3401410
  37.3389642  -0.3422027  48.7269285  36.8245451   0.0399177  48.2757943
  29.9407978  -0.9541668  52.9236071  29.0845874  -0.7933170  52.9745188
  29.9875632  -1.8249605  52.9441132  29.8207090  -1.0590867  52.9342137
  24.3249118   8.5821049  48.6873303  23.5732018   8.2036588  48.4589348
  24.7735130   8.6139483  47.9392113  24.2798785   8.5306657  48.5430805
  33.2501695   5.3144857  62.5296527  33.9568462   4.8196888  62.6583462
  33.4389630   5.7553939  61.7999185  33.3829601   5.3063207  62.4405573
  29.7774078   9.0046419  44.1158850  29.4425446   9.6823340  43.6803072
  30.2900948   8.6151730  43.5275722  29.8039659   9.0470997  43.9645641
  29.3178369  10.9560688  50.0569962  29.7017749  11.5247586  49.5174737
  29.2537510  10.2310198  49.5775778  29.3651796  10.9336151  49.9063824
  32.7859799   1.1050375  55.5667723  33.3315759   1.7835462  55.6261693
  32.7276676   0.9637836  54.7069304  32.8575714   1.1842377  55.4479784
  25.9033874   8.5939442  50.9536075  26.0044237   7.7839795  51.2633203
  25.3075620   8.4996388  50.3235754  25.8306413   8.4604470  50.9062314
  34.5624868   2.5334983  46.4401451  34.4464394   3.2842669  46.8693589
  35.3580755   2.2758936  46.6897538  34.6629457   2.6069829  46.5405542
  25.7434614  13.5117031  52.3550931  26.3872069  13.9530195  52.7447090
  26.0690869  12.7070457  52.2681190  25.8866443  13.4582225  52.3996409
  19.0998919   4.6159728  50.5788409  18.8649103   3.7827380  50.4720678
  19.2384559   4.8964394  49.7649610  19.0854581   4.5343232  50.4430764
  26.4455194   6.5229006  47.7270793  26.7671035   7.0634213  47.1232101
  27.0927290   5.9525777  47.8593083  26.5881249   6.5188181  47.6577829
  28.4956902  -1.4755000  47.8105180  29.1937066  -1.2966872  48.3026643
  28.8109234  -1.9984660  47.1875569  28.6452239  -1.5261227  47.7907190
  21.1258139   0.3297740  55.7216286  21.0016836   0.9160186  56.3566105
  21.7776424  -0.1642064  56.0228561  21.2031788   0.3436545  55.8602215
  28.6844837   4.9115446  47.7984971  29.1238473   4.3032546  48.2439744
  28.5349500   4.5322819  47.0270436  28.7266303   4.7653917  47.7504139
  26.1516480   3.5059457  55.0003797  26.7965483   3.0131900  54.6814745
  26.3918257   3.6484244  55.8269875  26.2827065   3.4536900  55.0753330
  28.6902571   6.3514363  54.6510689  28.9725814   5.5565769  54.4297445
  29.4188732   6.8294951  54.6715750  28.8392135   6.3048960  54.6213705
  32.2854174   3.2642627  44.7515741  32.2005469   4.1203593  44.8965309
  32.7738557   2.9886951  45.4197900  32.3443071   3.3499948  44.8717822
  33.2172607  -0.1172579  46.2513476  32.6884078   0.0987055  46.9110782
  33.7397627   0.5763559  46.1714445  33.2161060   0.0170558  46.3369075
  38.6720660   5.4573725  51.6246520  37.8418363   5.6684369  51.7879937
  38.6229912   4.6310780  51.3488804  38.5427395   5.3663332  51.6083886
  25.1072215   3.7790638  45.0520944  24.5229430   4.2840669  45.4586808
  24.7042310   3.5533025  44.3117536  24.9611518   3.8198886  45.0025969
  20.6616243   9.4945399  51.8544615  20.1783821  10.2195889  51.8304199
  21.4739561   9.7921529  51.9654773  20.7106991   9.6447753  51.8671894
  26.7330397   8.2877580  54.4594430  26.2157339   7.9284995  53.8555738
  27.4304789   7.7639754  54.4700496  26.7595978   8.1575268  54.3724688
  30.3893989   8.7372394  60.4210603  30.4777335   8.5498534  61.2688813
  30.8183702   8.0909823  60.0215449  30.4656092   8.6135401  60.4882354
  27.9564449   8.0203554  59.4028265  27.3935284   7.6076163  59.9267926
  28.7185473   7.9456459  59.8221408  27.9858898   7.9480954  59.5421265
  29.5649429   0.0256290  43.5289864  29.8045433   0.2334274  42.7165207
  29.8865270  -0.7786201  43.6378809  29.6486587  -0.0629609  43.4250417
  23.5160441  10.0101575  52.0064895  24.2181020   9.4953564  52.0637652
  23.4357924  10.3375726  52.8111770  23.6084201   9.9815801  52.1337687
  38.1674618  -1.8955874  55.4196942  37.3303039  -1.8253687  55.6544536
  38.1362849  -1.8931379  54.5471244  38.0392900  -1.8845647  55.3256490
  22.8411216   6.2007927  51.5150503  23.6800115   6.4330860  51.5624265
  22.8722985   5.3312238  51.4457538  22.9692933   6.1064873  51.5115148
  23.4663919   6.6208802  55.8163809  24.0062144   6.4779933  56.4867181
  22.7833865   7.0205553  56.1847835  23.4456073   6.6588473  55.9698230
  32.8904804   2.2999803  51.0108833  33.6462319   2.7331317  51.0497742
  32.9967128   1.6504572  51.5843469  33.0174974   2.2677286  51.1006859
  35.9284975   6.1273080  51.7611236  35.4920207   6.1309822  52.5170207
  35.5947890   6.8078579  51.3290813  35.8147595   6.2285536  51.8092069
  30.5014049   8.1681413  63.0854386  31.2854465   8.2812260  63.4510128
  30.3010643   7.3422550  63.2813072  30.5880074   8.0628132  63.1688772
  18.8701064   2.8409093  55.9698230  18.6039479   2.0248209  56.1289220
  18.8839628   2.8862248  55.0993746  18.8325786   2.7265998  55.8651712
  22.7758811  -2.3605823  42.5849988  22.0616988  -2.6467643  42.9972421
  23.2602780  -2.0209197  43.2256376  22.7418174  -2.3524173  42.7405623
  30.6584442  10.0791515  56.7320842  29.8599688   9.8391015  56.9894711
  31.1070453  10.1305908  57.4787890  30.6059053  10.0513906  56.8805766
  39.0629321   2.8454000  50.6530873  39.7245755   2.2844668  50.5526782
  38.4220733   2.3506030  50.9783564  39.0658189   2.6890409  50.6863213
  29.9506129   6.1424131  42.9611796  30.3657277   5.8109155  42.2696292
  29.1198058   5.9093033  42.8331933  29.8894138   6.0595387  42.8402644
  19.2794478   3.6267872  53.2509974  19.0970051   3.6014758  52.3982267
  20.0144147   4.0966810  53.2898883  19.3608542   3.6929234  53.1307893
  35.3494152   3.8619382  50.3942862  35.5849741   4.0064581  49.5669713
  35.4983715   4.6261790  50.7874376  35.4059955   3.9958437  50.3306466
  37.1784609   2.7021048  48.2312466  37.5092826   3.2348688  47.6252561
  37.7517697   2.7559936  48.8874417  37.3118288   2.7890617  48.2390248
  32.3916498   0.5485951  48.9136046  32.4863352   1.2875245  49.3675671
  31.7675341   0.1203426  49.3470610  32.3125528   0.5947271  49.0444193
  30.6468972   3.7272163  59.5626327  31.2207833   3.0899408  59.7174891
  30.5683775   3.7276246  58.6935984  30.7202206   3.6337275  59.4572738
  19.2465388   0.5061373  53.4009041  19.8238891   0.3697824  54.0401286
  18.5479450   0.0497157  53.6554625  19.2286409   0.4183639  53.5331331
  32.6439519   2.3934691  42.1472998  32.5619682   2.4636878  43.0127985
  33.2819239   2.9564435  41.9556739  32.7259356   2.4873662  42.2462947
  26.0032690   2.1595429  51.6147524  25.7451934   1.3267163  51.5878824
  26.0581173   2.3853042  50.7740025  25.9732468   2.0693200  51.4867661
  24.9767402  -0.2866809  52.1012419  24.4016994  -0.1274641  52.7376380
  24.6003079  -0.9231400  51.6380870  24.8370215  -0.3568996  52.1266977
  28.6440691  -1.8143460  56.9604797  28.2555124  -2.2389242  56.3056989
  27.9795389  -1.5661310  57.4681824  28.4887619  -1.8404739  56.9392665
  29.7479629   2.4155145  45.1581604  30.5620268   2.7070038  45.0464376
  29.6838770   1.7615007  44.5839897  29.8582368   2.3620340  45.0570442
  35.9689119   5.0981141  59.5711180  35.7327757   4.2669206  59.4523241
  36.6132348   5.0466748  60.1566024  36.0283790   4.9678829  59.6397074
  25.6187537   5.8876662  50.2853916  26.2561484   5.6488410  50.8305710
  26.0442609   6.0913821  49.5507077  25.7763704   5.8827673  50.2571074
  20.3100180   8.1264999  54.1688220  20.3504325   8.3979850  53.3408000
  20.8694704   8.6506907  54.5846008  20.3983526   8.2440754  54.1080108
  26.2590352   1.1078952  44.6228806  26.6435505   0.8886659  45.3745351
  26.0101973   1.9341898  44.7529882  26.2792425   1.1977098  44.7529882
  36.9925540   4.8825590  55.6339475  36.6871357   5.6153647  55.9952790
  36.2731756   4.4763519  55.3532261  36.8412882   4.9307323  55.6452612
  28.0009009   6.3649085  51.9647703  28.0748018   6.2024257  52.8189553
  28.8178516   6.5539275  51.7208184  28.1325368   6.3685827  52.0545728
  42.6927332   1.5218590  54.9607819  42.6251832   1.5414550  54.0910405
  42.6782995   2.3648918  55.1863489  42.6806089   1.6492325  54.8660296
  21.7614766   6.7106948  48.9942146  20.9352884   6.9568685  48.8676425
  21.8226757   6.6319029  49.8604204  21.6488933   6.7351897  49.1031091
  26.5413595   9.3283828  46.6961176  26.8311894   8.9372809  45.9720403
  27.2717076   9.5100533  47.1366451  26.6920479   9.2977642  46.6543983
  40.4785949   0.2962977  53.2354413  41.0293871  -0.3368954  53.4751505
  40.4630065   0.8278369  53.9269917  40.5571146   0.2811925  53.3733271
  27.1308340   4.1301574  57.7814307  26.6320034   4.8417342  57.8599195
  27.9408565   4.4502241  57.7432469  27.1764447   4.2828423  57.7870875
  24.4819511  11.3051210  49.7621326  24.2619806  11.0148565  50.5547993
  24.2614033  10.6466165  49.2339238  24.4167105  11.1650919  49.8010235
  23.3936458   3.3924527  52.0277027  23.1049707   2.7661998  52.5622755
  24.2619806   3.3344814  52.0941708  23.4796710   3.2912071  52.1167982
  34.1814356  -1.4640690  52.3459009  33.8379122  -2.1850354  52.6966259
  34.2807398  -1.6726838  51.5037368  34.1456399  -1.6016486  52.2730689
  26.6487466  12.6780600  48.5452018  27.3011524  12.1457043  48.7743044
  25.9513075  12.3249253  48.9319892  26.6418184  12.5470123  48.6364186
  23.5968731   5.0319778  47.9519393  24.3514699   5.4132817  48.1654855
  23.0039344   5.4830922  48.4066089  23.6205445   5.1548605  48.0502271
  34.6427385   4.9985014  47.8882997  35.2085417   5.6578224  47.8041540
  33.9955288   5.3434712  48.3599400  34.6306141   5.1466956  47.9455754
  24.9166958   6.2028339  53.3259508  24.3947711   6.3428631  54.0111373
  25.3040978   5.4439004  53.5161625  24.8970659   6.1113863  53.4560584
  31.1133963   7.9423799  47.3120077  30.8720639   7.2091659  46.9047142
  31.2935296   8.4910656  46.6586410  31.1041587   7.9146190  47.1550300
  26.3433283   3.2332358  48.7240999  26.1476066   3.8407093  48.1301302
  26.5667629   2.5400302  48.2432673  26.3467925   3.2209884  48.5657080
  24.7411814   0.1187096  48.8421867  25.4634465   0.2828254  48.3825673
  24.2619806   0.8396761  48.7361207  24.7775544   0.2485326  48.7587481
  32.7005321  -3.5449105  54.2218552  31.8616422  -3.5187826  53.9856816
  32.7709688  -2.8978369  54.8023899  32.5873715  -3.4452979  54.2727669
  22.3919430   2.5245169  57.9476007  22.9040527   2.8029422  57.2984767
  22.1055773   3.2634463  58.3138820  22.4254293   2.6747522  57.9065885
  36.5762845   1.6618882  51.5079794  36.4896819   1.8174308  52.3614573
  36.1213325   2.3056957  51.1339199  36.4966102   1.7794637  51.5786901
  30.4488661  -1.0170371  50.1305354  30.2023375  -1.0974620  50.9642142
  30.7773784  -1.8016903  49.9367881  30.4609905  -1.1444106  50.2252877
  34.3436710   5.6912988  53.9192135  34.2051069   6.3894034  54.4240877
  33.5636708   5.5361645  53.5628317  34.2079937   5.7713155  53.9418409
  32.6814795   1.9909364  60.1714516  32.6762833   1.1189180  60.1756943
  33.3875789   2.1897533  59.6983972  32.7859799   1.8913238  60.1021552
  26.4085688   1.7186348  59.5428337  26.5529064   2.2987556  58.9071447
  26.7561337   2.0962644  60.2478191  26.4813150   1.8607052  59.5527332
  28.5805606   0.9176516  57.3253468  27.8328920   1.1107530  56.9201746
  28.7347131   0.0921735  57.0877589  28.4928033   0.8241627  57.2298874
  25.4813443   9.9089119  56.4089363  25.6303007   9.3492035  55.7562768
  26.2613445   9.9881121  56.7921882  25.6187537   9.8374685  56.3686313
  35.8390083   5.0491242  44.6808634  35.4596891   4.2628380  44.6737923
  35.1756328   5.5978099  44.5380278  35.6848557   5.0136066  44.6589431
  28.0066744  10.0803762  57.6873854  27.9310415   9.4112573  58.2424643
  27.9356603  10.7821550  58.2014520  27.9847351  10.0848670  57.8450702
  28.6636991   8.6004761  48.5197460  29.4286882   8.3314405  48.1980124
  28.5615081   8.1154771  49.2367523  28.7618486   8.4894326  48.5777288
  26.6989761  -3.1970829  55.0590696  25.9085835  -3.3779369  55.3808032
  27.0950383  -3.9743877  55.0420990  26.6406637  -3.3383369  55.1043244
  31.1855651   5.6316945  40.4997410  31.9528636   5.6917070  40.0903261
  30.7386960   5.0597386  40.0153728  31.2329079   5.5553521  40.3675120
  29.2127591  -0.7210570  59.5414195  29.1486732   0.1399386  59.4134332
  29.3524779  -1.0378577  58.7409746  29.2243061  -0.6410404  59.4042408
  34.0850181   7.2936733  45.0160320  34.1670019   8.1003719  44.6921771
  34.5699924   7.3132692  45.7401093  34.1687339   7.4157395  45.0747218
  27.8946685   1.9721569  53.6830398  27.4708934   2.1726068  52.9469416
  27.7191540   1.1250417  53.7954698  27.8057565   1.8770350  53.5904088
  27.3958378  13.4872082  56.1451855  27.8854308  12.7882871  55.9627520
  26.8242610  13.1895952  56.7327912  27.3842908  13.3398306  56.2052896
  23.1829130   2.4673620  49.1158370  23.3393749   2.4020423  49.9714362
  23.5229723   3.2422173  48.9037050  23.2562365   2.5722819  49.2112964
  29.7208274   1.8431504  47.9851734  30.2623820   1.3401885  48.4490354
  30.0354833   1.7896699  47.1741219  29.8472671   1.7610925  47.9335546
  33.5925382   6.0534151  65.0978646  34.4060247   5.7819300  65.2583778
  33.4320348   5.7541691  64.2938842  33.6895330   5.9689077  65.0024052
  27.8894724   7.2348856  45.2691762  27.9587544   6.3763394  45.4084762
  28.6683179   7.4520736  44.9410786  28.0147574   7.1401720  45.2408919
  30.8697544  -3.2632191  58.0374034  31.0839513  -3.9021277  57.4837388
  30.2531443  -2.8186368  57.6081896  30.8102873  -3.2922048  57.8924465
  32.2802212   9.6586557  49.4828255  31.8882003   9.3553272  48.7651121
  32.4355284  10.4955647  49.2933209  32.2455801   9.7370394  49.3484752
  19.7563391  -0.3491429  49.4319137  20.1362356   0.0693116  48.7679405
  19.1818756   0.2322027  49.7387981  19.7274716  -0.2013570  49.3795878
  33.0336632  -1.6543126  58.9757341  32.2213313  -1.9617236  59.0570514
  33.4926566  -2.1344126  59.5400053  32.9817016  -1.7706634  59.0711935
  32.4441886   6.2236546  49.4234285  32.0856541   6.3951189  50.1998318
  31.9580597   6.6849751  48.8662284  32.3200583   6.3175517  49.4559555
  27.2330252   1.9035711  41.9634520  27.5222777   2.6800594  42.2378094
  27.3202051   1.3924443  42.6649019  27.2884508   1.9427629  42.1077018
  33.6046626   7.1140442  60.3701486  34.2426346   6.6200637  60.0363942
  32.9620717   7.0417842  59.7853713  33.6040852   7.0299450  60.2343841
  35.3303626  -1.0370412  54.9367402  34.9031234  -1.1244064  54.1815501
  34.6929679  -0.9292637  55.5222246  35.1733233  -1.0337753  54.9112843
  33.6600882   7.8060250  57.0106843  34.4493260   7.4549315  57.1308925
  33.8344480   8.6196638  56.7483477  33.8021164   7.8746107  56.9894711
  23.3994193   1.2168976  54.0634632  22.5582199   1.1172850  54.2713526
  23.6084201   1.9864456  54.4148953  23.3058885   1.3161019  54.1461947
  20.8769760  -1.1611487  51.8919383  20.4826457  -1.0868476  51.1169492
  20.3209877  -0.7753541  52.4427744  20.7372572  -1.0929713  51.8587042
  27.2110858  -0.8549625  53.3132229  26.9073995  -1.4093637  53.9142637
  26.5090278  -0.6757415  52.8260264  27.0627067  -0.9104843  53.3301935
  26.2676955  -3.5449105  47.8776931  26.5436689  -4.2630193  47.4654499
  26.8675624  -2.9464185  47.6698037  26.3970219  -3.5628735  47.7857692
  25.2729209   6.3600096  58.0204327  25.1649564   6.3702158  58.8866385
  25.4824990   7.1854876  57.8309281  25.2879320   6.4841170  58.1208419
  23.2903001   3.6112738  55.4826265  22.6990934   4.2522236  55.4529280
  24.0524024   4.0350355  55.4557564  23.3151261   3.7688576  55.4741412
  39.4093422   3.4418508  56.4803543  39.4676546   3.8905156  57.2263520
  38.7759890   3.8517320  56.0433623  39.3244717   3.5692242  56.5256091
  33.0492517   9.0622050  52.9158289  32.8512206   9.5512864  52.2214501
  32.4280228   9.2663291  53.4942423  32.9280081   9.1638588  52.8981512
  27.1100495   0.8306946  47.2568533  27.8542540   1.2181223  47.4951483
  27.2561191  -0.0135628  47.4209021  27.2411080   0.7637419  47.3162503
  30.0978371  -3.5967580  53.1562453  29.6238325  -4.1225818  53.6667764
  30.4696507  -4.1438107  52.5877314  30.0828260  -3.7551584  53.1477600
  36.3615102   1.4634795  54.5669233  36.1213325   0.6241211  54.5711660
  36.8407109   1.5434962  55.2910007  36.3967285   1.3516195  54.6744036
  32.0261871  -2.7031026  46.2188207  31.4984889  -2.6202282  45.5293915
  32.4857579  -1.9613154  46.2152851  32.0163721  -2.5810363  46.1162902
  38.3620289  -1.7563747  52.5198492  38.1230059  -1.7967913  51.6819277
  38.5254190  -0.9092595  52.6464214  38.3510592  -1.6371662  52.4151974
  34.9666319   2.6286202  58.4503538  35.6900518   2.1758728  58.2714558
  34.7016281   2.9090868  57.6675865  35.0347592   2.6037170  58.3082253
  23.8353187  -2.7753625  55.1856417  23.2106257  -2.7635233  54.5782369
  23.4998782  -2.2993449  55.8347657  23.6938679  -2.7035108  55.1912985
  20.5478863   5.2846836  56.6260181  20.0178787   4.5939274  56.6755156
  20.8203956   5.2757021  55.7972890  20.5103585   5.1813967  56.5107597
  31.5798953   5.8672538  45.3497864  32.3033152   6.3330651  45.2062437
  31.1399544   5.9346147  44.5995461  31.6214645   5.9456375  45.2182645
  30.7485108   2.7270080  56.5998553  30.1342101   2.1828130  56.8947188
  31.2652393   2.2134317  56.1204369  30.7340771   2.5706489  56.5722781
  29.9881405   3.7974350  54.3342851  29.5609014   3.1724069  53.9008287
  29.9806350   3.5149272  55.1601859  29.9240547   3.6627131  54.3922679
  15.8274705   1.9574600  53.9828529  15.7218154   1.9121444  53.1180613
  15.0774925   2.3028380  54.2642814  15.7010308   2.0015508  53.8965859
  26.0182801  -0.0825567  56.2265029  25.1874730   0.0848251  56.0200277
  25.9634318  -0.4589616  57.0113914  25.8872216  -0.1135836  56.3113557
  24.3918845  -1.8069976  46.7555146  24.5321806  -1.3097511  47.4583788
  24.8901377  -2.5083681  46.8969360  24.4859926  -1.8367997  46.8806725
  24.4219067  -0.9402865  44.0847723  25.0564146  -0.3442440  44.0197185
  24.5044678  -1.2399407  44.8993593  24.5275618  -0.8961957  44.1950810
  37.4001633   1.5912613  56.9534087  37.9919473   2.2309863  56.9852285
  37.8360627   0.8935649  57.2426154  37.5520064   1.5830963  57.0014920
  25.9998050  -5.0088889  44.0593165  26.3213891  -5.4885807  43.4052427
  26.2624994  -4.1989243  43.8683977  26.0864075  -4.9598991  43.9348657
  29.2295023   6.0129985  57.5791981  28.7220114   6.5665832  58.0232612
  28.9321669   6.0738275  56.7610756  29.1099908   6.1036296  57.5240438
  20.9272055   1.2564976  47.3537269  21.4364284   1.8529484  47.7348575
  21.4006327   0.9890950  46.6713689  21.0715431   1.3050792  47.3091792
  31.8402803   9.9293243  45.5095925  31.1232113   9.7554105  45.0443162
  32.4909541   9.6945815  44.9771411  31.8304653   9.8689035  45.3625143
  34.4250774  -1.1942169  49.2537230  33.7541964  -0.6512466  49.1250295
  35.1190524  -0.7247313  49.0118925  34.4279642  -1.0443897  49.1992758
  28.4737508  10.9454543  54.4848988  28.2503162  10.1873373  54.8533014
  27.9847351  10.9752565  53.7629428  28.3680957  10.8376768  54.4325729
  23.2862587  -2.1078765  50.2210450  22.5674576  -1.6914633  50.4883313
  23.6574949  -1.5424527  49.6702088  23.2354518  -1.9629484  50.1793257
  32.5862167  -1.4750916  56.1112445  32.5660095  -1.6567621  56.9647224
  32.6341368  -0.6038898  56.0872029  32.5896808  -1.3734378  56.2335740
  30.5308497   5.1136276  62.0360922  30.4904352   4.4685953  61.4506078
  31.3431816   5.0572893  62.3486334  30.6451651   5.0095242  61.9957871
  27.1215965  11.1655001  51.9386073  26.7076363  10.5029132  51.5489914
  27.8063339  11.3132860  51.4181767  27.1614337  11.0895660  51.8042570
  30.4881259  10.3245087  52.6909689  30.0897542  10.4347357  51.9230510
  29.8732479  10.5327153  53.2736249  30.3380148  10.3718655  52.6640989
  29.0609161  -3.0680765  45.5583829  28.4674000  -2.7463769  45.0068396
  29.0984439  -3.9139670  45.3504935  28.9783550  -3.1456437  45.4466600
  31.9366978  -3.1101261  48.9885579  31.7080671  -3.0868560  48.1463937
  32.1965054  -3.9343794  49.1080590  31.9413166  -3.2285181  48.8810777
  24.9911740  -4.5724715  50.2839775  25.4669106  -4.2107635  49.6489956
  24.4900340  -3.9168247  50.5639918  24.9877099  -4.4230526  50.2316516
  38.2223102   4.8997053  46.0752780  38.6056707   5.6488410  46.3050877
  37.4267215   5.1462873  45.8164769  38.1616884   5.0466747  46.0710354
  27.0338393  -2.4283515  43.6513159  27.4137358  -2.4103886  42.8664274
  26.2930989  -1.9829526  43.5304006  26.9807231  -2.3601740  43.5176727
  32.3864536   0.5596178  52.8924944  32.8818201  -0.1580827  52.8528965
  31.5764312   0.2566976  52.7779431  32.3408429   0.4093824  52.8698670
  27.8323147   4.4093991  45.0421949  27.0234470   4.0860665  44.9955258
  28.3398056   3.7027213  44.9750198  27.7872814   4.2575308  45.0252243
  18.4613425   1.8366185  50.7669313  17.5958944   1.8251875  50.6552084
  18.5612240   1.6496407  51.6140452  18.3487592   1.8072246  50.8758258
  34.4516355   3.3099866  55.5802073  34.8771426   2.7874287  55.0272498
  34.0873275   3.9080703  55.0590696  34.4602957   3.3210093  55.4211083
  24.0870434  11.6064083  54.3399419  24.4016993  12.4200472  54.3477200
  24.4963848  11.2214302  55.0081578  24.1938532  11.6692786  54.4403510
  31.0394954   7.0234130  51.9103231  31.5106132   7.7374392  52.0793216
  31.3755133   6.4232880  52.4463100  31.1590069   7.0405594  52.0135607
  33.1271939   8.6335443  64.0895303  33.2368904   7.8444004  64.4452050
  33.4562835   8.5441379  63.2869641  33.1924344   8.5041296  64.0237693
  31.6768900   6.8152064  58.6730923  31.1289846   6.1909948  58.4050989
  32.1381929   7.0046336  57.9575003  31.6636110   6.7511114  58.5281354
  21.4283455   5.5537192  53.9878027  22.0328312   5.5133026  53.3591848
  21.2210767   6.4008344  54.0182083  21.4872352   5.6725194  53.8994144
  31.2427227   7.8203137  55.2040265  32.0625601   7.6766103  55.4656560
  30.9621304   8.4449336  55.7456702  31.3223970   7.8913489  55.3228204
  16.6634737   4.5371809  53.8576950  16.5659015   3.7268081  54.1667007
  17.4463607   4.5163602  53.4723218  16.7650873   4.4138899  53.8463813
  40.9140562  14.5643639  52.9236071  40.0578457  14.7252138  52.9745188
  40.9608216  13.6935703  52.9441132  40.7939673  14.4594441  52.9342137
  44.2234278  20.8330165  62.5296527  44.9301046  20.3382196  62.6583462
  44.4122214  21.2739247  61.7999185  44.3562184  20.8248515  62.4405573
  43.7592383  16.6235683  55.5667723  44.3048343  17.3020770  55.6261693
  43.7009259  16.4823144  54.7069304  43.8308297  16.7027685  55.4479784
  36.7167197  29.0302339  52.3550931  37.3604653  29.4715503  52.7447090
  37.0423453  28.2255765  52.2681190  36.8599026  28.9767533  52.3996409
  30.0731502  20.1345036  50.5788409  29.8381687  19.3012688  50.4720678
  30.2117143  20.4149702  49.7649610  30.0587165  20.0528539  50.4430764
  32.3721590  12.3030767  53.4772717  31.7526621  11.7123414  53.3082732
  32.2705453  12.8942202  52.8437040  32.2659265  12.3034849  53.3577706
  39.4689485  14.0430308  47.8105180  40.1669650  14.2218436  48.3026643
  39.7841818  13.5200648  47.1875569  39.6184822  13.9924081  47.7907190
  32.0990723  15.8483048  55.7216286  31.9749419  16.4345494  56.3566105
  32.7509007  15.3543244  56.0228561  32.1764372  15.8621853  55.8602215
  39.6577421  20.4300753  47.7984971  40.0971056  19.8217854  48.2439744
  39.5082083  20.0508127  47.0270436  39.6998886  20.2839225  47.7504139
  37.1249064  19.0244765  55.0003797  37.7698066  18.5317208  54.6814745
  37.3650841  19.1669552  55.8269875  37.2559649  18.9722208  55.0753330
  39.6635155  21.8699671  54.6510689  39.9458398  21.0751077  54.4297445
  40.3921315  22.3480259  54.6715750  39.8124719  21.8234268  54.6213705
  37.6416349   9.4122705  51.8926454  37.3119679   9.8633849  51.2230153
  36.9661351   9.3338868  52.4399461  37.4926785   9.4673840  51.8749678
  44.8492757   5.4008228  50.1376065  44.5346198   6.0911707  50.5696487
  44.3319698   5.3453010  49.4361566  44.7257227   5.4943117  50.0973014
  49.6453243  20.9759033  51.6246520  48.8150946  21.1869677  51.7879937
  49.5962496  20.1496088  51.3488804  49.5159979  20.8848640  51.6083886
  36.0804798  19.2975946  45.0520944  35.4962013  19.8025977  45.4586808
  35.6774893  19.0718333  44.3117536  35.9344102  19.3384194  45.0025969
  31.6348827  25.0130707  51.8544615  31.1516405  25.7381196  51.8304199
  32.4472145  25.3106837  51.9654773  31.6839575  25.1633061  51.8671894
  37.7062981  23.8062888  54.4594430  37.1889922  23.4470303  53.8555738
  38.4037372  23.2825062  54.4700496  37.7328562  23.6760575  54.3724688
  41.3626573  24.2557702  60.4210603  41.4509919  24.0683842  61.2688813
  41.7916285  23.6095131  60.0215449  41.4388675  24.1320709  60.4882354
  38.9297033  23.5388862  59.4028265  38.3667867  23.1261471  59.9267926
  39.6918056  23.4641767  59.8221408  38.9591481  23.4666262  59.5421265
  40.5382013  15.5441598  43.5289864  40.7778016  15.7519582  42.7165207
  40.8597854  14.7399106  43.6378809  40.6219170  15.4555699  43.4250417
  35.8472303   7.4734993  47.3749402  36.6018271   7.8413311  47.1366452
  35.6699837   7.8474548  48.1428582  35.9326781   7.5833181  47.4534291
  34.4893024  25.5286883  52.0064895  35.1913603  25.0138872  52.0637652
  34.4090507  25.8561034  52.8111770  34.5816784  25.5001109  52.1337687
  49.1407202  13.6229434  55.4196942  48.3035623  13.6931621  55.6544536
  49.1095433  13.6253929  54.5471244  49.0125484  13.6339661  55.3256490
  35.5371931  15.7662470  61.1345310  35.7092434  15.6568364  61.9830592
  36.0741288  16.4116875  60.8976502  35.6416935  15.8454471  61.2250407
  34.2029367   9.8805312  44.0727515  34.0204941  10.0977193  43.2468508
  35.0654981   9.9944325  44.1286130  34.3033957   9.9295210  43.9582002
  33.8143799  21.7193235  51.5150503  34.6532699  21.9516168  51.5624265
  33.8455569  20.8497546  51.4457538  33.9425517  21.6250181  51.5115148
  34.4396502  22.1394110  55.8163809  34.9794727  21.9965241  56.4867181
  33.7566449  22.5390861  56.1847835  34.4188656  22.1773781  55.9698230
  39.8829087   6.8831723  47.1076539  40.6115247   6.7047678  46.6614695
  39.9723980   7.7249803  47.3183717  40.0035749   6.9815602  47.0730057
  43.8637387  17.8185111  51.0108833  44.6194902  18.2516625  51.0497742
  43.9699712  17.1689880  51.5843469  43.9907558  17.7862594  51.1006859
  46.9017558  21.6458388  51.7611236  46.4652790  21.6495130  52.5170207
  46.5680474  22.3263887  51.3290813  46.7880178  21.7470844  51.8092069
  41.4746632  23.6866721  63.0854386  42.2587049  23.7997568  63.4510128
  41.2743227  22.8607858  63.2813072  41.5612657  23.5813440  63.1688772
  29.8433648  18.3594401  55.9698230  29.5772063  17.5433517  56.1289220
  29.8572212  18.4047556  55.0993746  29.8058370  18.2451306  55.8651712
  46.8215041   8.6872216  54.0040664  47.4640950   8.7570320  54.5902579
  47.0738062   8.0201439  53.5020206  46.9537174   8.5998564  54.0167943
  33.7491395  13.1579485  42.5849988  33.0349572  12.8717665  42.9972421
  34.2335363  13.4976111  43.2256376  33.7150758  13.1661135  42.7405623
  34.5932254  11.8972779  58.6165238  33.9004051  11.4269759  58.8625969
  35.2092581  11.6711084  59.1906945  34.5816784  11.7939911  58.7374390
  41.6317025  25.5976823  56.7320842  40.8332271  25.3576323  56.9894711
  42.0803037  25.6491216  57.4787890  41.5791637  25.5699214  56.8805766
  50.0361905  18.3639308  50.6530873  50.6978339  17.8029976  50.5526782
  49.3953317  17.8691338  50.9783564  50.0390772  18.2075717  50.6863213
  30.2527061  19.1453180  53.2509974  30.0702634  19.1200066  52.3982267
  30.9876730  19.6152118  53.2898883  30.3341125  19.2114542  53.1307893
  46.3226735  19.3804690  50.3942862  46.5582325  19.5249889  49.5669713
  46.4716299  20.1447098  50.7874376  46.3792539  19.5143744  50.3306466
  33.3172813  15.8638183  59.7592083  34.0412785  15.8491214  60.2456978
  33.4188949  16.5733538  59.2614051  33.4391022  15.9662886  59.7570870
  40.6917762  19.3437268  64.6241030  39.8990743  19.6580779  64.8093650
  40.8066689  19.5588736  63.7861815  40.5913173  19.4221104  64.5279365
  43.3649081  16.0671259  48.9136046  43.4595936  16.8060553  49.3675671
  42.7407925  15.6388734  49.3470610  43.2858111  16.1132579  49.0444193
  41.6201555  19.2457471  59.5626327  42.1940417  18.6084716  59.7174891
  41.5416359  19.2461554  58.6935984  41.6934790  19.1522583  59.4572738
  30.2197972  16.0246681  53.4009041  30.7971474  15.8883132  54.0401286
  29.5212033  15.5682465  53.6554625  30.2018993  15.9368947  53.5331331
  36.9765274  17.6780736  51.6147524  36.7184518  16.8452471  51.5878824
  37.0313757  17.9038349  50.7740025  36.9465052  17.5878508  51.4867661
  42.0566324   9.7809187  51.7151617  41.3522651   9.2918373  51.8735536
  42.1051298   9.7931662  50.8440061  41.9596375   9.7098835  51.6090957
  35.9499986  15.2318499  52.1012419  35.3749577  15.3910667  52.7376380
  35.5735662  14.5953908  51.6380870  35.8102798  15.1616312  52.1266977
  39.6173275  13.7041848  56.9604797  39.2287707  13.2796066  56.3056989
  38.9527973  13.9523998  57.4681824  39.4620202  13.6780569  56.9392665
  49.2596544  13.4616853  49.7352627  49.0033108  12.6496794  49.5450510
  50.1025858  13.4694420  49.5082815  49.3462569  13.3428850  49.6737445
  25.6956805  14.8758574  50.1156860  25.7817057  14.4990442  50.8970390
  26.3232602  14.5019019  49.6376818  25.8013356  14.7644056  50.1602337
  43.4399636   7.4016477  54.4728782  43.8210148   6.7194648  54.8596656
  42.6362920   7.1126079  54.2904446  43.3776098   7.2583525  54.5032838
  40.7212213  17.9340453  45.1581604  41.5352852  18.2255346  45.0464376
  40.6571354  17.2800315  44.5839897  40.8314952  17.8805648  45.0570442
  46.9421703  20.6166449  59.5711180  46.7060340  19.7854514  59.4523241
  47.5864932  20.5652056  60.1566024  47.0016374  20.4864137  59.6397074
  36.5920121  21.4061970  50.2853916  37.2294068  21.1673718  50.8305710
  37.0175193  21.6099129  49.5507077  36.7496287  21.4012980  50.2571074
  31.2832763  23.6450307  54.1688220  31.3236909  23.9165158  53.3408000
  31.8427287  24.1692215  54.5846008  31.3716109  23.7626062  54.1080108
  37.2322936  16.6264260  44.6228806  37.6168089  16.4071967  45.3745351
  36.9834556  17.4527205  44.7529882  37.2525009  16.7162406  44.7529882
  37.3991476   9.9070675  64.3391390  37.0844918  10.6770238  64.0760953
  37.0781409   9.3440931  63.7543617  37.3050396   9.9380944  64.2132740
  47.9658124  20.4010898  55.6339475  47.6603941  21.1338955  55.9952790
  47.2464339  19.9948827  55.3532261  47.8145466  20.4492631  55.6452612
  38.9741593  21.8834393  51.9647703  39.0480601  21.7209565  52.8189553
  39.7911099  22.0724582  51.7208184  39.1057952  21.8871135  52.0545728
  53.6659916  17.0403898  54.9607819  53.5984416  17.0599858  54.0910405
  53.6515578  17.8834226  55.1863489  53.6538672  17.1677633  54.8660296
  32.7347350  22.2292256  48.9942146  31.9085467  22.4753993  48.8676425
  32.7959341  22.1504337  49.8604204  32.6221517  22.2537205  49.1031091
  34.9523373   8.2961197  49.9537586  34.0845799   8.3683796  50.0195196
  35.2398578   9.0983276  50.1425561  34.8663122   8.4255344  49.9912353
  44.0756262   8.4439056  58.2848908  44.8209854   8.2548866  57.8712334
  43.6593567   8.9697294  57.7262765  44.1241236   8.4941201  58.1413481
  51.4518533  15.8148285  53.2354413  52.0026455  15.1816354  53.4751505
  51.4362648  16.3463677  53.9269917  51.5303729  15.7997233  53.3733271
  38.1040924  19.6486882  57.7814307  37.6052618  20.3602650  57.8599195
  38.9141148  19.9687548  57.7432469  38.1497031  19.8013730  57.7870875
  34.3669042  18.9109835  52.0277027  34.0782290  18.2847306  52.5622755
  35.2352390  18.8530122  52.0941708  34.4529293  18.8097379  52.1167982
  45.1546939  14.0544618  52.3459009  44.8111705  13.3334953  52.6966259
  45.2539982  13.8458469  51.5037368  45.1188982  13.9168822  52.2730689
  45.6159968  20.5170322  47.8882997  46.1818001  21.1763532  47.8041540
  44.9687872  20.8620020  48.3599400  45.6038725  20.6652264  47.9455754
  37.0307982  12.5067926  63.0776605  36.2207758  12.8125706  62.9666447
  37.5082669  13.2273509  63.1929189  36.9811461  12.6582527  63.0783676
  35.8899541  21.7213647  53.3259508  35.3680295  21.8613939  54.0111373
  36.2773562  20.9624312  53.5161625  35.8703242  21.6299171  53.4560584
  32.8790726  11.7719456  47.3954463  32.5915521  11.4020726  46.6586410
  33.5661194  12.2414311  47.1338168  32.9379623  11.7866425  47.2469538
  37.3165867  18.7517666  48.7240999  37.1208650  19.3592401  48.1301302
  37.5400213  18.0585610  48.2432673  37.3200508  18.7395192  48.5657080
  35.7144397  15.6372404  48.8421867  36.4367049  15.8013562  48.3825673
  35.2352390  16.3582069  48.7361207  35.7508128  15.7670634  48.7587481
  43.6737905  11.9736203  54.2218552  42.8349005  11.9997482  53.9856816
  43.7442272  12.6206938  54.8023899  43.5606298  12.0732329  54.2727669
  33.3652014  18.0430477  57.9476007  33.8773111  18.3214730  57.2984767
  33.0788356  18.7819771  58.3138820  33.3986877  18.1932830  57.9065885
  42.1207183   8.8721580  48.9546168  42.8233536   8.6729328  48.4766126
  41.8551372   8.0997522  49.2615012  42.1853815   8.7284546  48.9291610
  47.5495429  17.1804190  51.5079794  47.4629403  17.3359616  52.3614573
  47.0945908  17.8242265  51.1339199  47.4698685  17.2979945  51.5786901
  30.4518920  12.5500668  48.2439744  30.5535057  13.3526830  48.5720719
  31.2474807  12.3488004  47.9462824  30.5846826  12.6386567  48.2475099
  36.8835739  10.1356865  58.0077049  36.6918936  10.1512000  58.8576472
  37.7334335  10.3320540  57.9843704  36.9811461  10.1671216  58.1300344
  31.2682652  12.6647847  55.9860865  31.1268144  11.8131787  56.1105373
  31.5523216  12.7076507  55.1623071  31.2890498  12.5447597  55.8828489
  41.4221245  14.5014937  50.1305354  41.1755959  14.4210688  50.9642142
  41.7506368  13.7168405  49.9367881  41.4342488  14.3741202  50.2252877
  45.3169293  21.2098296  53.9192135  45.1783653  21.9079342  54.4240877
  44.5369291  21.0546953  53.5628317  45.1812520  21.2898463  53.9418409
  43.6547379  17.5094672  60.1714516  43.6495417  16.6374488  60.1756943
  44.3608372  17.7082841  59.6983972  43.7592383  17.4098546  60.1021552
  37.3818272  17.2371655  59.5428337  37.5261648  17.8172864  58.9071447
  37.7293920  17.6147952  60.2478191  37.4545733  17.3792360  59.5527332
  39.5538189  16.4361824  57.3253468  38.8061503  16.6292838  56.9201746
  39.7079714  15.6107043  57.0877589  39.4660617  16.3426935  57.2298874
  36.4546027  25.4274427  56.4089363  36.6035591  24.8677343  55.7562768
  37.2346029  25.5066429  56.7921882  36.5920120  25.3559993  56.3686313
  38.9799327  25.5989070  57.6873854  38.9042999  24.9297881  58.2424643
  38.9089187  26.3006858  58.2014520  38.9579934  25.6033978  57.8450702
  39.7939966  10.3312375  58.2148872  40.2512580  11.0636349  58.3421664
  39.8696295   9.9078840  58.9736128  39.8730936  10.3769613  58.3449948
  32.0372957  10.5778194  59.3038316  31.5015147   9.9658552  59.6199083
  32.0990722  11.1526330  59.9571982  31.9668590  10.5725122  59.4473742
  44.2667292   3.5102250  52.0842715  44.3850860   3.9678713  51.3510018
  44.0929468   2.7047511  51.7978932  44.2586463   3.4596022  51.9343649
  37.6722344  12.3214479  55.0590696  36.8818419  12.1405939  55.3808032
  38.0682967  11.5441431  55.0420990  37.6139220  12.1801939  55.1043244
  43.0566030  19.9556909  52.7850142  42.3811032  19.7242141  53.2863529
  43.0658407  19.3478092  52.1592247  42.9584535  19.8315834  52.7666294
  40.1860174  14.7974738  59.5414195  40.1219316  15.6584694  59.4134332
  40.3257362  14.4806731  58.7409746  40.1975644  14.8774904  59.4042408
  38.8679268  17.4906877  53.6830398  38.4441517  17.6911376  52.9469416
  38.6924124  16.6435725  53.7954698  38.7790149  17.3955658  53.5904088
  38.3690962  29.0057390  56.1451855  38.8586892  28.3068179  55.9627520
  37.7975194  28.7081260  56.7327912  38.3575492  28.8583614  56.2052896
  34.1561713  17.9858928  49.1158370  34.3126332  17.9205731  49.9714362
  34.4962306  18.7607481  48.9037050  34.2294948  18.0908127  49.2112964
  40.6940858  17.3616812  47.9851734  41.2356403  16.8587193  48.4490354
  41.0087417  17.3082007  47.1741219  40.8205255  17.2796233  47.9335546
  44.5657965  21.5719459  65.0978646  45.3792831  21.3004608  65.2583778
  44.4052932  21.2726999  64.2938842  44.6627914  21.4874385  65.0024052
  41.8430127  12.2553116  58.0374034  42.0572097  11.6164031  57.4837388
  41.2264026  12.6998940  57.6081896  41.7835457  12.2263260  57.8924465
  30.7295975  15.1693879  49.4319137  31.1094940  15.5878424  48.7679405
  30.1551340  15.7507335  49.7387981  30.7007300  15.3171738  49.3795878
  44.0069215  13.8642182  58.9757341  43.1945897  13.5568072  59.0570514
  44.4659150  13.3841182  59.5400053  43.9549600  13.7478674  59.0711935
  43.4174470  21.7421854  49.4234285  43.0589125  21.9136497  50.1998318
  42.9313181  22.2035059  48.8662284  43.2933167  21.8360825  49.4559555
  41.2344856   5.3653052  53.0261377  40.3638414   5.3391773  52.9794686
  41.4885197   5.1930244  52.2087222  41.1438416   5.3363196  52.8981514
  38.2062835  17.4221019  41.9634520  38.4955360  18.1985902  42.2378094
  38.2934634  16.9109750  42.6649019  38.2617092  17.4612937  42.1077018
  41.1022723  15.2702253  63.7586043  41.5722354  15.8944369  64.1453917
  41.1484603  14.6019229  64.3179258  41.1790599  15.2636933  63.8986115
  38.2593996   7.3759281  54.4834847  37.7432485   6.6839472  54.6086426
  37.6987925   8.0430058  54.4297446  38.1000510   7.3722538  54.4940913
  40.3286230   7.9152241  56.3127700  39.9417983   7.9401272  57.0941230
  39.8419167   7.3493919  55.8602216  40.1998739   7.8347991  56.3615603
  44.5779209  22.6325750  60.3701486  45.2158930  22.1385945  60.0363942
  43.9353301  22.5603150  59.7853713  44.5773436  22.5484758  60.2343841
  46.3036209  14.4814896  54.9367402  45.8763817  14.3941244  54.1815501
  45.6662262  14.5892671  55.5222246  46.1465817  14.4847555  54.9112843
  39.9943372   4.8019226  58.6037960  40.6236490   5.3379526  58.3259030
  40.1629234   4.7096585  59.4551525  40.1121166   4.8680588  58.6886488
  39.7957286   9.5890421  60.8764371  40.6230716   9.3175570  60.9322986
  39.8165133  10.3851262  61.2328189  39.9210137   9.6670175  60.9379554
  44.6333466  23.3245558  57.0106843  45.4225844  22.9734623  57.1308925
  44.8077064  24.1381946  56.7483477  44.7753748  23.3931415  56.9894711
  34.3726776  16.7354284  54.0634632  33.5314783  16.6358158  54.2713526
  34.5816784  17.5049764  54.4148953  34.2791469  16.8346327  54.1461947
  31.8502343  14.3573821  51.8919383  31.4559041  14.4316832  51.1169492
  31.2942460  14.7431767  52.4427744  31.7105156  14.4255595  51.8587042
  43.4867290   7.3355115  51.5723261  43.6916883   7.2677422  52.4180259
  43.1593714   8.1413936  51.5044439  43.4682538   7.4441055  51.6882917
  38.1843441  14.6635683  53.3132229  37.8806579  14.1091671  53.9142637
  37.4822862  14.8427893  52.8260264  38.0359651  14.6080465  53.3301935
  37.2409538  11.9736203  47.8776931  37.5169273  11.2555115  47.4654499
  37.8408208  12.5721123  47.6698037  37.3702803  11.9556573  47.7857692
  36.2461792  21.8785403  58.0204327  36.1382147  21.8887466  58.8866385
  36.4557574  22.7040184  57.8309281  36.2611903  22.0026478  58.1208419
  46.7400978   7.8886879  51.0526027  46.1275291   8.3757281  51.4379759
  46.8365153   7.2130370  51.5963678  46.6638875   7.8605188  51.1904885
  40.7420059   9.6449720  46.1523526  41.1963805   9.8160280  46.8771371
  41.2160105   9.0317831  45.7521302  40.8788379   9.5800605  46.1997288
  34.2635584  19.1298046  55.4826265  33.6723517  19.7707544  55.4529280
  35.0256608  19.5535663  55.4557564  34.2883845  19.2873884  55.4741412
  34.6596207  10.2900044  56.1494282  35.1197689  10.3638973  56.8869406
  34.7052314  11.0881298  55.7994104  34.7346762  10.4194191  56.2067039
  36.3079557  10.9566739  60.7166309  35.9165122  10.3100086  61.1522087
  36.4765419  11.5478174  61.3360565  36.2750467  10.9481006  60.8729015
  50.3826006  18.9603816  56.4803543  50.4409129  19.4090464  57.2263520
  49.7492473  19.3702628  56.0433623  50.2977301  19.0877550  56.5256091
  44.0225100  24.5807358  52.9158289  43.8244789  25.0698172  52.2214501
  43.4012811  24.7848599  53.4942423  43.9012665  24.6823896  52.8981512
  38.0833079  16.3492254  47.2568533  38.8275124  16.7366531  47.4951483
  38.2293775  15.5049680  47.4209021  38.2143664  16.2822727  47.3162503
  40.0012654   8.1442513  52.2900395  39.1548699   8.3165321  52.1641745
  39.9983787   7.3391857  52.6266223  39.8759804   8.0503542  52.3211522
  41.0710955  11.9217728  53.1562453  40.5970909  11.3959490  53.6667764
  41.4429090  11.3747200  52.5877314  41.0560844  11.7633724  53.1477600
  31.4483985  13.9189234  58.5245999  32.3109598  13.8184944  58.4383328
  31.1175768  13.3383944  57.9631571  31.5269181  13.8180861  58.4291404
  47.3347685  16.9820103  54.5669233  47.0945908  16.1426518  54.5711660
  47.8139692  17.0620270  55.2910007  47.3699869  16.8701503  54.6744036
  42.9994454  12.8154282  46.2188207  42.4717473  12.8983026  45.5293915
  43.4590162  13.5572154  46.2152851  42.9896305  12.9374945  46.1162902
  49.3352872  13.7621561  52.5198492  49.0962642  13.7217395  51.6819277
  49.4986773  14.6092713  52.6464214  49.3243176  13.8813646  52.4151974
  45.9398902  18.1471510  58.4503538  46.6633101  17.6944036  58.2714558
  45.6748865  18.4276175  57.6675865  46.0080176  18.1222478  58.3082253
  34.8085771  12.7431683  55.1856417  34.1838841  12.7550075  54.5782369
  34.4731366  13.2191858  55.8347657  34.6671263  12.8150200  55.1912985
  34.9927519  11.0856802  41.2429102  34.6440324  11.7376527  41.7060651
  34.5123965  11.0713915  40.5152973  34.8697763  11.1799855  41.2040193
  31.5211446  20.8032143  56.6260181  30.9911371  20.1124582  56.6755156
  31.7936540  20.7942329  55.7972890  31.4836169  20.6999275  56.5107597
  41.7217692  18.2455388  56.5998553  41.1074685  17.7013438  56.8947188
  42.2384977  17.7319625  56.1204369  41.7073354  18.0891797  56.5722781
  40.9613989  19.3159658  54.3342851  40.5341597  18.6909377  53.9008287
  40.9538933  19.0334580  55.1601859  40.8973130  19.1812439  54.3922679
  34.0776516  14.3524831  57.4031285  34.2370003  13.5968155  57.8083007
  33.8969410  14.9015771  58.0572023  34.0741875  14.3218645  57.5593991
  42.0196819   6.5186067  57.9582075  41.5237380   6.7149741  57.2673641
  42.7765881   6.9178735  57.7870876  42.0583644   6.6063801  57.8302212
  39.2899699  10.1928413  54.5485385  39.3142186   9.6588525  53.8598165
  39.5411172   9.6845721  55.2110976  39.3309617  10.0389317  54.5450030
  26.8007289  17.4759908  53.9828529  26.6950738  17.4306752  53.1180613
  26.0507509  17.8213688  54.2642814  26.6742891  17.5200816  53.8965859
  35.5701021   8.9199231  53.9291130  35.6099393   9.4208437  54.6425837
  34.7450686   9.0109625  53.6597053  35.4540547   9.0081047  53.9941668
  37.7530634  18.4859971  62.0311424  36.9026264  18.6231685  62.1669069
  37.9158762  17.7523749  62.4759126  37.6514497  18.3974072  62.1167023
  36.9915384  15.4359741  56.2265029  36.1607314  15.6033559  56.0200277
  36.9366902  15.0595691  57.0113914  36.8604799  15.4049472  56.3113557
  34.7999168   8.9268634  61.8621439  35.4251871   8.3830766  62.1350872
  34.3449648   8.4463551  61.2929230  34.8247428   8.7758115  61.8183033
  35.3651428  13.7115332  46.7555146  35.5054389  14.2087796  47.4583788
  35.8633961  13.0101627  46.8969360  35.4592509  13.6817311  46.8806725
  35.3951651  14.5782443  44.0847723  36.0296730  15.1742868  44.0197185
  35.4777261  14.2785901  44.8993593  35.5008202  14.6223351  44.1950810
  48.3734216  17.1097921  56.9534087  48.9652057  17.7495171  56.9852285
  48.8093211  16.4120957  57.2426154  48.5252648  17.1016271  57.0014920
  36.9730633  10.5096419  44.0593165  37.2946474  10.0299501  43.4052427
  37.2357577  11.3196065  43.8683977  37.0596659  10.5586317  43.9348657
  40.2027606  21.5315293  57.5791981  39.6952697  22.0851140  58.0232612
  39.9054252  21.5923583  56.7610756  40.0832491  21.6221604  57.5240438
  42.3689788   9.8968613  56.4216644  42.7944860   9.4441139  55.8100171
  41.7546782   9.3428683  56.6981432  42.3418434   9.7482589  56.3721669
  31.9004638  16.7750284  47.3537269  32.4096868  17.3714792  47.7348575
  32.3738911  16.5076258  46.6713689  32.0448014  16.8236099  47.3091792
  40.8084011   6.3683712  49.8307221  40.1652329   6.2181359  50.3992360
  40.4683418   6.1226058  49.0656326  40.6629089   6.3095835  49.8010236
  45.3983358  14.3243139  49.2537230  44.7274548  14.8672841  49.1250295
  46.0923108  14.7937995  49.0118925  45.4012225  14.4741410  49.1992758
  39.4470091  26.4639851  54.4848988  39.2235746  25.7058681  54.8533014
  38.9579935  26.4937872  53.7629428  39.3413540  26.3562076  54.4325729
  45.5611485  10.7799023  52.1627603  45.9139095  10.3528746  52.8373402
  44.7026287  10.6949866  52.2928679  45.4860930  10.7043764  52.2822614
  34.2595170  13.4106543  50.2210450  33.5407159  13.8270675  50.4883313
  34.6307532  13.9760781  49.6702088  34.2087102  13.5555824  50.1793257
  43.5594751  14.0434391  56.1112445  43.5392678  13.8617687  56.9647224
  43.6073952  14.9146410  56.0872029  43.5629392  14.1450930  56.2335740
  41.5041081  20.6321583  62.0360922  41.4636936  19.9871260  61.4506078
  42.3164399  20.5758201  62.3486334  41.6184234  20.5280550  61.9957871
  41.4613843  25.8430395  52.6909689  41.0630126  25.9532665  51.9230510
  40.8465062  26.0512461  53.2736249  41.3112732  25.8903963  52.6640989
  40.0341745  12.4504542  45.5583829  39.4406584  12.7721539  45.0068396
  40.0717022  11.6045638  45.3504935  39.9516134  12.3728871  45.4466600
  46.9935545   5.9017435  53.0911916  46.4866410   5.1946574  53.0233093
  47.7902979   5.5710624  53.2212992  47.0362784   5.7490586  53.1010911
  42.9099561  12.4084047  48.9885579  42.6813254  12.4316748  48.1463937
  43.1697637  11.5841514  49.1080590  42.9145749  12.2900127  48.8810777
  37.1918790  14.2618520  58.5910679  36.6797693  13.6539703  58.9495711
  37.0198286  14.9775113  59.0584655  37.0908427  14.2781819  58.7126903
  32.0384504  12.7056095  61.2413041  31.8687095  13.3657470  60.6961248
  31.5950454  12.9162657  61.9625530  31.9483838  12.8342077  61.2674671
  35.9644324  10.9460593  50.2839775  36.4401690  11.3077673  49.6489956
  35.4632923  11.6017061  50.5639918  35.9609683  11.0954782  50.2316516
  41.0687860  12.1842765  61.0312935  41.6259290  11.9556574  60.3991400
  40.7448925  12.9448430  60.7548147  41.1034270  12.2626601  60.8969432
  28.9386569  15.6102961  56.5001531  28.3913288  14.9403606  56.6182399
  29.7278947  15.2432809  56.5644998  28.9738752  15.4567947  56.5270232
  38.7870977  15.2710418  61.9964942  39.5382304  15.5862095  62.3104496
  38.9793554  15.0689589  61.1698864  38.9262391  15.2877800  61.9208338
  38.0070977  13.0901793  43.6513159  38.3869942  13.1081422  42.8664274
  37.2663573  13.5355782  43.5304006  37.9539815  13.1583568  43.5176727
  45.6356267  11.3983984  49.2388738  45.6350494  11.2432641  50.0973014
  45.4312447  12.2446971  49.1830123  45.6056045  11.5004605  49.3576677
  27.6973538  14.8223769  53.6547554  27.5195299  14.3700378  54.3802470
  27.4092560  15.6249930  53.8386032  27.6286491  14.8746327  53.7891057
  43.3597119  16.0781486  52.8924944  43.8550785  15.3604481  52.8528965
  42.5496895  15.7752284  52.7779431  43.3141013  15.9279132  52.8698670
  29.4346008  17.3551492  50.7669313  28.5691528  17.3437183  50.6552084
  29.5344824  17.1681715  51.6140452  29.3220175  17.3257554  50.8758258
  45.4248938  18.8285174  55.5802073  45.8504010  18.3059595  55.0272498
  45.0605858  19.4266011  55.0590696  45.4335541  18.8395401  55.4211083
  35.0603018  27.1249391  54.3399419  35.3749577  27.9385779  54.3477200
  35.4696431  26.7399610  55.0081578  35.1671116  27.1878093  54.4403510
  42.0127538  22.5419438  51.9103231  42.4838716  23.2559700  52.0793216
  42.3487716  21.9418188  52.4463100  42.1322653  22.5590902  52.0135607
  44.1004522  24.1520751  64.0895303  44.2101488  23.3629312  64.4452050
  44.4295419  24.0626687  63.2869641  44.1656928  24.0226604  64.0237693
  38.9297033   7.3146908  58.8661326  39.0624938   6.5177902  59.1942301
  39.3142185   7.8413311  59.4459601  39.0053361   7.2746825  59.0004828
  42.6501484  22.3337372  58.6730923  42.1022430  21.7095256  58.4050989
  43.1114513  22.5231644  57.9575003  42.6368693  22.2696422  58.5281354
  42.0029388   4.2377235  55.4642419  41.1975351   4.1274964  55.7810257
  41.8736123   4.3389690  54.6072285  41.8649521   4.2360905  55.3850459
  45.4595348  10.4022726  56.0582116  44.8758337  10.9031933  55.6459683
  45.7799642   9.8952283  55.4246439  45.4208524  10.4014561  55.9040623
  37.9990147   9.3163321  46.3340790  38.8205842   9.4861634  46.0922485
  37.5359798   9.4710582  45.6107088  38.0521310   9.3645054  46.1912435
  36.5885479   7.3106083  57.1139219  37.1329892   6.9697210  57.7043561
  36.6422415   8.1691545  57.2560504  36.6774599   7.3861343  57.2221093
  32.4016038  21.0722499  53.9878027  33.0060896  21.0318334  53.3591848
  32.1943351  21.9193652  54.0182083  32.4604935  21.1910502  53.8994144
  42.2159810  23.3388445  55.2040265  43.0358184  23.1951411  55.4656560
  41.9353888  23.9634644  55.7456702  42.2956554  23.4098797  55.3228204
  27.6367320  20.0557117  53.8576950  27.5391598  19.2453389  54.1667007
  28.4196190  20.0348910  53.4723218  27.7383457  19.9324207  53.8463813
  58.6873461  30.9953296  48.1683141  58.6567465  31.8497933  48.3401410
  59.2854809  30.6948589  48.7269285  58.7710619  31.0769793  48.2757943
  51.8873146  30.0828947  52.9236071  51.0311041  30.2437446  52.9745188
  51.9340799  29.2121011  52.9441132  51.7672257  29.9779749  52.9342137
  55.1966862  36.3515473  62.5296527  55.9033629  35.8567504  62.6583462
  55.3854797  36.7924554  61.7999185  55.3294768  36.3433823  62.4405573
  54.7324967  32.1420991  55.5667723  55.2780927  32.8206078  55.6261693
  54.6741843  32.0008452  54.7069304  54.8040881  32.2212993  55.4479784
  43.3454173  27.8216075  53.4772717  42.7259205  27.2308722  53.3082732
  43.2438037  28.4127510  52.8437040  43.2391849  27.8220157  53.3577706
  50.4422069  29.5615616  47.8105180  51.1402233  29.7403744  48.3026643
  50.7574401  29.0385956  47.1875569  50.5917406  29.5109388  47.7907190
  43.0723306  31.3668356  55.7216286  42.9482003  31.9530802  56.3566105
  43.7241591  30.8728552  56.0228561  43.1496956  31.3807161  55.8602215
  48.6148932  24.9308013  51.8926454  48.2852262  25.3819157  51.2230153
  47.9393934  24.8524176  52.4399461  48.4659369  24.9859148  51.8749678
  55.8225340  20.9193536  50.1376065  55.5078781  21.6097015  50.5696487
  55.3052282  20.8638318  49.4361566  55.6989811  21.0128424  50.0973014
  60.6185827  36.4944341  51.6246520  59.7883530  36.7054985  51.7879937
  60.5695079  35.6681396  51.3488804  60.4892562  36.4033948  51.6083886
  60.1139785  29.1414742  55.4196942  59.2768206  29.2116929  55.6544536
  60.0828016  29.1439237  54.5471244  59.9858068  29.1524969  55.3256490
  46.5104514  31.2847778  61.1345310  46.6825018  31.1753672  61.9830592
  47.0473872  31.9302183  60.8976502  46.6149518  31.3639779  61.2250407
  57.8750142  37.1643696  51.7611236  57.4385374  37.1680438  52.5170207
  57.5413058  37.8449195  51.3290813  57.7612762  37.2656152  51.8092069
  52.4479216  39.2052029  63.0854386  53.2319632  39.3182876  63.4510128
  52.2475810  38.3793166  63.2813072  52.5345241  39.0998748  63.1688772
  57.7947625  24.2057524  54.0040664  58.4373533  24.2755628  54.5902579
  58.0470646  23.5386746  53.5020206  57.9269757  24.1183872  54.0167943
  45.5664838  27.4158087  58.6165238  44.8736634  26.9455067  58.8625969
  46.1825165  27.1896391  59.1906945  45.5549367  27.3125219  58.7374390
  61.0094488  33.8824616  50.6530873  61.6710922  33.3215284  50.5526782
  60.3685900  33.3876646  50.9783564  61.0123356  33.7261025  50.6863213
  57.2959319  34.8989998  50.3942862  57.5314908  35.0435197  49.5669713
  57.4448883  35.6632406  50.7874376  57.3525122  35.0329052  50.3306466
  44.2905396  31.3823491  59.7592083  45.0145369  31.3676522  60.2456978
  44.3921533  32.0918846  59.2614051  44.4123606  31.4848194  59.7570870
  59.1249776  33.7391664  48.2312466  59.4557993  34.2719304  47.6252561
  59.6982864  33.7930552  48.8874417  59.2583455  33.8261233  48.2390248
  51.6650346  34.8622576  64.6241030  50.8723327  35.1766087  64.8093650
  51.7799273  35.0774044  63.7861815  51.5645756  34.9406412  64.5279365
  52.5934139  34.7642779  59.5626327  53.1673000  34.1270023  59.7174891
  52.5148942  34.7646862  58.6935984  52.6667374  34.6707891  59.4572738
  53.0298907  25.2994495  51.7151617  52.3255234  24.8103681  51.8735536
  53.0783882  25.3116970  50.8440061  52.9328959  25.2284143  51.6090957
  50.5905858  29.2227156  56.9604797  50.2020291  28.7981374  56.3056989
  49.9260556  29.4709306  57.4681824  50.4352786  29.1965877  56.9392665
  60.2329127  28.9802161  49.7352627  59.9765692  28.1682102  49.5450510
  61.0758441  28.9879728  49.5082815  60.3195153  28.8614158  49.6737445
  54.4132220  22.9201785  54.4728782  54.7942731  22.2379956  54.8596656
  53.6095504  22.6311387  54.2904446  54.3508681  22.7768833  54.5032838
  57.9154286  36.1351757  59.5711180  57.6792924  35.3039822  59.4523241
  58.5597515  36.0837364  60.1566024  57.9748957  36.0049445  59.6397074
  48.3724060  25.4255983  64.3391390  48.0577501  26.1955546  64.0760953
  48.0513993  24.8626239  63.7543617  48.2782979  25.4566252  64.2132740
  58.9390707  35.9196206  55.6339475  58.6336524  36.6524262  55.9952790
  58.2196923  35.5134135  55.3532261  58.7878049  35.9677939  55.6452612
  64.6392499  32.5589206  54.9607819  64.5717000  32.5785165  54.0910405
  64.6248162  33.4019534  55.1863489  64.6271256  32.6862941  54.8660296
  45.9255957  23.8146505  49.9537586  45.0578382  23.8869104  50.0195196
  46.2131161  24.6168584  50.1425561  45.8395705  23.9440652  49.9912353
  55.0488846  23.9624364  58.2848908  55.7942438  23.7734174  57.8712334
  54.6326150  24.4882602  57.7262765  55.0973820  24.0126509  58.1413481
  62.4251117  31.3333593  53.2354413  62.9759038  30.7001662  53.4751505
  62.4095232  31.8648985  53.9269917  62.5036313  31.3182541  53.3733271
  49.0773507  35.1672190  57.7814307  48.5785201  35.8787957  57.8599195
  49.8873732  35.4872856  57.7432469  49.1229614  35.3199038  57.7870875
  56.1279523  29.5729926  52.3459009  55.7844289  28.8520261  52.6966259
  56.2272565  29.3643777  51.5037368  56.0921566  29.4354129  52.2730689
  48.0040565  28.0253234  63.0776605  47.1940341  28.3311014  62.9666447
  48.4815252  28.7458817  63.1929189  47.9544044  28.1767835  63.0783676
  54.6470488  27.4921511  54.2218552  53.8081589  27.5182790  53.9856816
  54.7174856  28.1392246  54.8023899  54.5338882  27.5917637  54.2727669
  44.3384597  33.5615785  57.9476007  44.8505694  33.8400038  57.2984767
  44.0520940  34.3005079  58.3138820  44.3719461  33.7118138  57.9065885
  53.0939767  24.3906888  48.9546168  53.7966119  24.1914636  48.4766126
  52.8283955  23.6182830  49.2615012  53.1586399  24.2469854  48.9291610
  58.5228012  32.6989498  51.5079794  58.4361987  32.8544924  52.3614573
  58.0678492  33.3427573  51.1339199  58.4431269  32.8165253  51.5786901
  47.8568323  25.6542173  58.0077049  47.6651520  25.6697308  58.8576472
  48.7066919  25.8505847  57.9843704  47.9544045  25.6856524  58.1300344
  42.2415236  28.1833155  55.9860865  42.1000728  27.3317095  56.1105373
  42.5255799  28.2261815  55.1623071  42.2623082  28.0632905  55.8828489
  52.3953828  30.0200245  50.1305354  52.1488542  29.9395996  50.9642142
  52.7238951  29.2353713  49.9367881  52.4075072  29.8926510  50.2252877
  56.2901877  36.7283604  53.9192135  56.1516236  37.4264650  54.4240877
  55.5101875  36.5732261  53.5628317  56.1545104  36.8083771  53.9418409
  54.6279962  33.0279980  60.1714516  54.6228001  32.1559796  60.1756943
  55.3340956  33.2268149  59.6983972  54.7324966  32.9283854  60.1021552
  48.3550855  32.7556963  59.5428337  48.4994231  33.3358172  58.9071447
  48.7026504  33.1333260  60.2478191  48.4278317  32.8977667  59.5527332
  50.5270773  31.9547132  57.3253468  49.7794087  32.1478146  56.9201746
  50.6812298  31.1292351  57.0877589  50.4393200  31.8612243  57.2298874
  50.7672550  25.8497682  58.2148872  51.2245164  26.5821657  58.3421664
  50.8428879  25.4264148  58.9736128  50.8463520  25.8954921  58.3449948
  43.0105541  26.0963502  59.3038316  42.4747731  25.4843860  59.6199083
  43.0723306  26.6711638  59.9571982  42.9401174  26.0910430  59.4473742
  55.2399876  19.0287558  52.0842715  55.3583444  19.4864021  51.3510018
  55.0662051  18.2232819  51.7978932  55.2319047  18.9781330  51.9343649
  48.6454928  27.8399786  55.0590696  47.8551002  27.6591247  55.3808032
  49.0415551  27.0626739  55.0420990  48.5871804  27.6987247  55.1043244
  51.1592758  30.3160046  59.5414195  51.0951899  31.1770002  59.4134332
  51.2989946  29.9992039  58.7409746  51.1708228  30.3960212  59.4042408
  55.5390549  37.0904767  65.0978646  56.3525414  36.8189916  65.2583778
  55.3785515  36.7912307  64.2938842  55.6360497  37.0059693  65.0024052
  52.8162711  27.7738424  58.0374034  53.0304680  27.1349339  57.4837388
  52.1996610  28.2184248  57.6081896  52.7568040  27.7448568  57.8924465
  54.9801799  29.3827490  58.9757341  54.1678481  29.0753380  59.0570514
  55.4391733  28.9026490  59.5400053  54.9282184  29.2663982  59.0711935
  52.2077440  20.8838360  53.0261377  51.3370997  20.8577081  52.9794686
  52.4617781  20.7115552  52.2087222  52.1171000  20.8548504  52.8981514
  52.0755306  30.7887561  63.7586043  52.5454938  31.4129677  64.1453917
  52.1217187  30.1204537  64.3179258  52.1523182  30.7822241  63.8986115
  49.2326580  22.8944588  54.4834847  48.7165069  22.2024780  54.6086426
  48.6720509  23.5615366  54.4297446  49.0733093  22.8907846  54.4940913
  51.3018813  23.4337549  56.3127700  50.9150567  23.4586580  57.0941230
  50.8151751  22.8679227  55.8602216  51.1731322  23.3533299  56.3615603
  55.5511793  38.1511058  60.3701486  56.1891513  37.6571253  60.0363942
  54.9085884  38.0788458  59.7853713  55.5506019  38.0670066  60.2343841
  57.2768793  30.0000203  54.9367402  56.8496401  29.9126552  54.1815501
  56.6394846  30.1077979  55.5222246  57.1198400  30.0032863  54.9112843
  50.9675955  20.3204534  58.6037960  51.5969073  20.8564834  58.3259030
  51.1361818  20.2281893  59.4551525  51.0853750  20.3865896  58.6886488
  50.7689870  25.1075729  60.8764371  51.5963299  24.8360878  60.9322986
  50.7897716  25.9036570  61.2328189  50.8942720  25.1855483  60.9379554
  55.6066049  38.8430866  57.0106843  56.3958428  38.4919931  57.1308925
  55.7809647  39.6567254  56.7483477  55.7486331  38.9116723  56.9894711
  54.4599874  22.8540422  51.5723261  54.6649467  22.7862730  52.4180259
  54.1326298  23.6599244  51.5044439  54.4415122  22.9626363  51.6882917
  49.1576025  30.1820991  53.3132229  48.8539162  29.6276979  53.9142637
  48.4555446  30.3613201  52.8260264  49.0092235  30.1265773  53.3301935
  57.7133561  23.4072187  51.0526027  57.1007875  23.8942589  51.4379759
  57.8097736  22.7315678  51.5963678  57.6371459  23.3790495  51.1904885
  51.7152642  25.1635028  46.1523526  52.1696389  25.3345588  46.8771371
  52.1892688  24.5503139  45.7521302  51.8520962  25.0985913  46.1997288
  45.6328791  25.8085352  56.1494282  46.0930272  25.8824281  56.8869406
  45.6784897  26.6066606  55.7994104  45.7079346  25.9379499  56.2067039
  47.2812140  26.4752046  60.7166309  46.8897705  25.8285394  61.1522087
  47.4498003  27.0663482  61.3360565  47.2483051  26.4666314  60.8729015
  61.3558589  34.4789124  56.4803543  61.4141713  34.9275772  57.2263520
  60.7225057  34.8887936  56.0433623  61.2709884  34.6062858  56.5256091
  54.9957684  40.0992665  52.9158289  54.7977373  40.5883480  52.2214501
  54.3745395  40.3033907  53.4942423  54.8745248  40.2009204  52.8981512
  50.9745238  23.6627821  52.2900395  50.1281283  23.8350629  52.1641745
  50.9716370  22.8577165  52.6266223  50.8492388  23.5688850  52.3211522
  52.0443538  27.4403036  53.1562453  51.5703492  26.9144798  53.6667764
  52.4161674  26.8932508  52.5877314  52.0293427  27.2819032  53.1477600
  42.4216568  29.4374542  58.5245999  43.2842181  29.3370251  58.4383328
  42.0908351  28.8569252  57.9631571  42.5001765  29.3366169  58.4291404
  58.3080269  32.5005411  54.5669233  58.0678492  31.6611826  54.5711660
  58.7872276  32.5805578  55.2910007  58.3432452  32.3886811  54.6744036
  53.9727038  28.3339590  46.2188207  53.4450056  28.4168334  45.5293915
  54.4322746  29.0757462  46.2152851  53.9628888  28.4560253  46.1162902
  60.3085456  29.2806868  52.5198492  60.0695226  29.2402703  51.6819277
  60.4719357  30.1278020  52.6464214  60.2975759  29.3998953  52.4151974
  56.9131486  33.6656818  58.4503538  57.6365685  33.2129344  58.2714558
  56.6481448  33.9461483  57.6675865  56.9812759  33.6407786  58.3082253
  45.7818354  28.2616991  55.1856417  45.1571424  28.2735383  54.5782369
  45.4463949  28.7377166  55.8347657  45.6403846  28.3335508  55.1912985
  52.6950275  33.7640696  56.5998553  52.0807269  33.2198746  56.8947188
  53.2117560  33.2504932  56.1204369  52.6805938  33.6077105  56.5722781
  45.0509100  29.8710139  57.4031285  45.2102586  29.1153463  57.8083007
  44.8701993  30.4201079  58.0572023  45.0474459  29.8403953  57.5593991
  52.9929403  22.0371375  57.9582075  52.4969964  22.2335049  57.2673641
  53.7498465  22.4364043  57.7870876  53.0316227  22.1249108  57.8302212
  50.2632282  25.7113721  54.5485385  50.2874769  25.1773833  53.8598165
  50.5143756  25.2031029  55.2110976  50.3042201  25.5574624  54.5450030
  46.5433605  24.4384539  53.9291130  46.5831976  24.9393745  54.6425837
  45.7183269  24.5294932  53.6597053  46.4273130  24.5266355  53.9941668
  48.7263217  34.0045279  62.0311424  47.8758848  34.1416993  62.1669069
  48.8891345  33.2709057  62.4759126  48.6247081  33.9159380  62.1167023
  47.9647968  30.9545049  56.2265029  47.1339898  31.1218867  56.0200277
  47.9099485  30.5780999  57.0113914  47.8337383  30.9234780  56.3113557
  45.7731751  24.4453942  61.8621439  46.3984455  23.9016074  62.1350872
  45.3182231  23.9648859  61.2929230  45.7980012  24.2943423  61.8183033
  59.3466800  32.6283229  56.9534087  59.9384640  33.2680479  56.9852285
  59.7825794  31.9306265  57.2426154  59.4985231  32.6201579  57.0014920
  51.1760190  37.0500601  57.5791981  50.6685281  37.6036448  58.0232612
  50.8786836  37.1108891  56.7610756  51.0565075  37.1406912  57.5240438
  53.3422372  25.4153921  56.4216644  53.7677444  24.9626447  55.8100171
  52.7279365  24.8613991  56.6981432  53.3151017  25.2667897  56.3721669
  51.7816595  21.8869020  49.8307221  51.1384913  21.7366667  50.3992360
  51.4416002  21.6411366  49.0656326  51.6361672  21.8281143  49.8010236
  56.3715941  29.8428447  49.2537230  55.7007131  30.3858149  49.1250295
  57.0655692  30.3123302  49.0118925  56.3744809  29.9926718  49.1992758
  56.5344069  26.2984331  52.1627603  56.8871679  25.8714054  52.8373402
  55.6758870  26.2135174  52.2928679  56.4593513  26.2229071  52.2822614
  54.5327335  29.5619699  56.1112445  54.5125262  29.3802995  56.9647224
  54.5806535  30.4331718  56.0872029  54.5361976  29.6636238  56.2335740
  52.4773664  36.1506891  62.0360922  52.4369519  35.5056568  61.4506078
  53.2896983  36.0943509  62.3486334  52.5916818  36.0465858  61.9957871
  51.0074328  27.9689850  45.5583829  50.4139167  28.2906847  45.0068396
  51.0449606  27.1230946  45.3504935  50.9248717  27.8914179  45.4466600
  57.9668129  21.4202743  53.0911916  57.4598993  20.7131882  53.0233093
  58.7635563  21.0895931  53.2212992  58.0095368  21.2675894  53.1010911
  53.8832145  27.9269355  48.9885579  53.6545838  27.9502056  48.1463937
  54.1430221  27.1026822  49.1080590  53.8878333  27.8085435  48.8810777
  48.1651373  29.7803828  58.5910679  47.6530276  29.1725011  58.9495711
  47.9930869  30.4960420  59.0584655  48.0641010  29.7967127  58.7126903
  46.9376907  26.4645901  50.2839775  47.4134273  26.8262981  49.6489956
  46.4365507  27.1202369  50.5639918  46.9342266  26.6140090  50.2316516
  60.1688269  35.9367669  46.0752780  60.5521875  36.6859025  46.3050877
  59.3732382  36.1833489  45.8164769  60.1082051  36.0837363  46.0710354
  52.0420443  27.7028073  61.0312935  52.5991874  27.4741882  60.3991400
  51.7181508  28.4633738  60.7548147  52.0766854  27.7811909  60.8969432
  39.9119152  31.1288269  56.5001531  39.3645872  30.4588914  56.6182399
  40.7011531  30.7618117  56.5644998  39.9471336  30.9753255  56.5270232
  49.7603561  30.7895726  61.9964942  50.5114888  31.1047403  62.3104496
  49.9526137  30.5874897  61.1698864  49.8994975  30.8063108  61.9208338
  56.6088851  26.9169292  49.2388738  56.6083077  26.7617949  50.0973014
  56.4045031  27.7632279  49.1830123  56.5788629  27.0189913  49.3576677
  38.6706122  30.3409077  53.6547554  38.4927883  29.8885686  54.3802470
  38.3825144  31.1435238  53.8386032  38.6019075  30.3931634  53.7891057
  54.3329703  31.5966794  52.8924944  54.8283368  30.8789789  52.8528965
  53.5229479  31.2937592  52.7779431  54.2873596  31.4464440  52.8698670
  56.3981522  34.3470481  55.5802073  56.8236593  33.8244903  55.0272498
  56.0338442  34.9451319  55.0590696  56.4068124  34.3580709  55.4211083
  55.0737106  39.6706059  64.0895303  55.1834071  38.8814620  64.4452050
  55.4028002  39.5811995  63.2869641  55.1389512  39.5411912  64.0237693
  49.9029616  22.8332216  58.8661326  50.0357522  22.0363210  59.1942301
  50.2874769  23.3598619  59.4459601  49.9785945  22.7932133  59.0004828
  53.6234068  37.8522680  58.6730923  53.0755014  37.2280564  58.4050989
  54.0847096  38.0416952  57.9575003  53.6101277  37.7881730  58.5281354
  52.9761971  19.7562542  55.4642419  52.1707935  19.6460272  55.7810257
  52.8468707  19.8574998  54.6072285  52.8382104  19.7546213  55.3850459
  56.4327932  25.9208034  56.0582116  55.8490921  26.4217241  55.6459683
  56.7532226  25.4137591  55.4246439  56.3941107  25.9199869  55.9040623
  47.5618063  22.8291391  57.1139219  48.1062476  22.4882518  57.7043561
  47.6154999  23.6876853  57.2560504  47.6507182  22.9046651  57.2221093
  53.1892394  38.8573753  55.2040265  54.0090768  38.7136719  55.4656560
  52.9086472  39.4819951  55.7456702  53.2689137  38.9284105  55.3228204
  69.6606044  46.5138604  48.1683141  69.6300049  47.3683241  48.3401410
  70.2587393  46.2133897  48.7269285  69.7443202  46.5955101  48.2757943
  62.8605729  45.6014255  52.9236071  62.0043625  45.7622754  52.9745188
  62.9073383  44.7306319  52.9441132  62.7404841  45.4965057  52.9342137
  57.2446869  55.1376973  48.6873303  56.4929768  54.7592512  48.4589348
  57.6932880  55.1695407  47.9392113  57.1996536  55.0862580  48.5430805
  66.1699446  51.8700781  62.5296527  66.8766213  51.3752812  62.6583462
  66.3587381  52.3109862  61.7999185  66.3027351  51.8619131  62.4405573
  62.2376120  57.5116611  50.0569962  62.6215499  58.0803510  49.5174737
  62.1735261  56.7866122  49.5775778  62.2849547  57.4892075  49.9063824
  65.7057550  47.6606299  55.5667723  66.2513510  48.3391386  55.6261693
  65.6474426  47.5193760  54.7069304  65.7773464  47.7398301  55.4479784
  58.8231625  55.1495365  50.9536075  58.9241988  54.3395719  51.2633203
  58.2273370  55.0552312  50.3235754  58.7504164  55.0160393  50.9062314
  67.4822619  49.0890906  46.4401451  67.3662145  49.8398592  46.8693589
  68.2778505  48.8314860  46.6897538  67.5827208  49.1625753  46.5405542
  58.6632365  60.0672954  52.3550931  59.3069820  60.5086119  52.7447090
  58.9888620  59.2626381  52.2681190  58.8064193  60.0138149  52.3996409
  59.3652944  53.0784929  47.7270793  59.6868785  53.6190137  47.1232101
  60.0125041  52.5081701  47.8593083  59.5078999  53.0744105  47.6577829
  61.6042588  51.4671369  47.7984971  62.0436223  50.8588470  48.2439744
  61.4547251  51.0878743  47.0270436  61.6464053  51.3209840  47.7504139
  59.0714231  50.0615381  55.0003797  59.7163233  49.5687824  54.6814745
  59.3116008  50.2040168  55.8269875  59.2024816  50.0092823  55.0753330
  61.6100322  52.9070287  54.6510689  61.8923565  52.1121693  54.4297445
  62.3386483  53.3850874  54.6715750  61.7589886  52.8604884  54.6213705
  59.5881516  40.4493321  51.8926454  59.2584846  40.9004465  51.2230153
  58.9126518  40.3709484  52.4399461  59.4391952  40.5044456  51.8749678
  65.2051924  49.8198551  44.7515741  65.1203219  50.6759517  44.8965309
  65.6936308  49.5442875  45.4197900  65.2640822  49.9055872  44.8717822
  66.7957924  36.4378844  50.1376065  66.4811365  37.1282322  50.5696487
  66.2784865  36.3823626  49.4361566  66.6722394  36.5313732  50.0973014
  66.1370358  46.4383345  46.2513476  65.6081829  46.6542978  46.9110782
  66.6595377  47.1319483  46.1714445  66.1358810  46.5726482  46.3369075
  71.5918410  52.0129649  51.6246520  70.7616114  52.2240293  51.7879937
  71.5427663  51.1866704  51.3488804  71.4625146  51.9219256  51.6083886
  53.5813994  56.0501323  51.8544615  53.0981572  56.7751812  51.8304199
  54.3937312  56.3477453  51.9654773  53.6304742  56.2003676  51.8671894
  59.6528148  54.8433503  54.4594430  59.1355090  54.4840918  53.8555738
  60.3502539  54.3195678  54.4700496  59.6793729  54.7131191  54.3724688
  63.3091740  55.2928317  60.4210603  63.3975086  55.1054458  61.2688813
  63.7381453  54.6465747  60.0215449  63.3853842  55.1691325  60.4882354
  60.8762200  54.5759477  59.4028265  60.3133035  54.1632087  59.9267926
  61.6383223  54.5012383  59.8221408  60.9056648  54.5036878  59.5421265
  56.4358191  56.5657499  52.0064895  57.1378770  56.0509488  52.0637652
  56.3555674  56.8931650  52.8111770  56.5281952  56.5371725  52.1337687
  71.0872369  44.6600050  55.4196942  70.2500790  44.7302237  55.6544536
  71.0560600  44.6624545  54.5471244  70.9590651  44.6710277  55.3256490
  57.4837098  46.8033086  61.1345310  57.6557601  46.6938980  61.9830592
  58.0206455  47.4487491  60.8976502  57.5882102  46.8825087  61.2250407
  56.3861670  53.1764726  55.8163809  56.9259895  53.0335857  56.4867181
  55.7031616  53.5761477  56.1847835  56.3653824  53.2144397  55.9698230
  61.8294254  37.9202339  47.1076539  62.5580414  37.7418294  46.6614695
  61.9189147  38.7620419  47.3183717  61.9500916  38.0186217  47.0730057
  65.8102555  48.8555726  51.0108833  66.5660070  49.2887241  51.0497742
  65.9164879  48.2060496  51.5843469  65.9372725  48.8233210  51.1006859
  68.8482726  52.6829004  51.7611236  68.4117958  52.6865746  52.5170207
  68.5145641  53.3634503  51.3290813  68.7345346  52.7841459  51.8092069
  63.4211799  54.7237336  63.0854386  64.2052216  54.8368184  63.4510128
  63.2208394  53.8978474  63.2813072  63.5077825  54.6184056  63.1688772
  68.7680209  39.7242831  54.0040664  69.4106117  39.7940936  54.5902579
  69.0203229  39.0572054  53.5020206  68.9002341  39.6369180  54.0167943
  63.5782193  56.6347439  56.7320842  62.7797438  56.3946939  56.9894711
  64.0268204  56.6861831  57.4787890  63.5256804  56.6069830  56.8805766
  62.8703880  52.6980055  42.9611796  63.2855028  52.3665079  42.2696292
  62.0395809  52.4648957  42.8331933  62.8091888  52.6151311  42.8402644
  68.2691903  50.4175306  50.3942862  68.5047492  50.5620505  49.5669713
  68.4181466  51.1817714  50.7874376  68.3257706  50.5514360  50.3306466
  70.0982359  49.2576972  48.2312466  70.4290576  49.7904612  47.6252561
  70.6715447  49.3115860  48.8874417  70.2316038  49.3446541  48.2390248
  62.6382929  50.3807883  64.6241030  61.8455910  50.6951395  64.8093650
  62.7531857  50.5959352  63.7861815  62.5378340  50.4591720  64.5279365
  65.3114248  47.1041875  48.9136046  65.4061103  47.8431169  49.3675671
  64.6873092  46.6759350  49.3470610  65.2323279  47.1503195  49.0444193
  63.5666722  50.2828087  59.5626327  64.1405584  49.6455331  59.7174891
  63.4881526  50.2832170  58.6935984  63.6399957  50.1893199  59.4572738
  65.5637270  48.9490614  42.1472998  65.4817432  49.0192802  43.0127985
  66.2016990  49.5120358  41.9556739  65.6457107  49.0429585  42.2462947
  58.9230441  48.7151352  51.6147524  58.6649685  47.8823087  51.5878824
  58.9778924  48.9408965  50.7740025  58.8930219  48.6249124  51.4867661
  64.0031491  40.8179803  51.7151617  63.2987818  40.3288989  51.8735536
  64.0516465  40.8302277  50.8440061  63.9061543  40.7469451  51.6090957
  61.5638442  44.7412464  56.9604797  61.1752874  44.3166682  56.3056989
  60.8993140  44.9894614  57.4681824  61.4085369  44.7151185  56.9392665
  71.2061711  44.4987469  49.7352627  70.9498276  43.6867410  49.5450510
  72.0491025  44.5065036  49.5082815  71.2927736  44.3799466  49.6737445
  65.3864803  38.4387093  54.4728782  65.7675315  37.7565264  54.8596656
  64.5828088  38.1496695  54.2904446  65.3241265  38.2954141  54.5032838
  68.8886870  51.6537065  59.5711180  68.6525507  50.8225130  59.4523241
  69.5330099  51.6022672  60.1566024  68.9481541  51.5234753  59.6397074
  58.5385288  52.4432586  50.2853916  59.1759235  52.2044334  50.8305710
  58.9640360  52.6469745  49.5507077  58.6961454  52.4383596  50.2571074
  53.2297931  54.6820923  54.1688220  53.2702076  54.9535774  53.3408000
  53.7892455  55.2062831  54.5846008  53.3181276  54.7996678  54.1080108
  59.3456644  40.9441291  64.3391390  59.0310085  41.7140854  64.0760953
  59.0246576  40.3811547  63.7543617  59.2515563  40.9751560  64.2132740
  69.9123291  51.4381514  55.6339475  69.6069108  52.1709570  55.9952790
  69.1929506  51.0319443  55.3532261  69.7610633  51.4863247  55.6452612
  60.9206760  52.9205009  51.9647703  60.9945768  52.7580181  52.8189553
  61.7376266  53.1095198  51.7208184  61.0523119  52.9241751  52.0545728
  75.6125083  48.0774514  54.9607819  75.5449583  48.0970473  54.0910405
  75.5980745  48.9204841  55.1863489  75.6003839  48.2048249  54.8660296
  66.0221429  39.4809672  58.2848908  66.7675021  39.2919482  57.8712334
  65.6058734  40.0067910  57.7262765  66.0706404  39.5311817  58.1413481
  73.3983700  46.8518900  53.2354413  73.9491622  46.2186969  53.4751505
  73.3827816  47.3834293  53.9269917  73.4768897  46.8367849  53.3733271
  60.0506091  50.6857498  57.7814307  59.5517785  51.3973265  57.8599195
  60.8606315  51.0058164  57.7432469  60.0962198  50.8384346  57.7870875
  57.4017261  57.8607134  49.7621326  57.1817557  57.5704489  50.5547993
  57.1811783  57.2022089  49.2339238  57.3364856  57.7206843  49.8010235
  67.1012106  45.0915234  52.3459009  66.7576872  44.3705569  52.6966259
  67.2005149  44.8829085  51.5037368  67.0654149  44.9539437  52.2730689
  59.5685217  59.2336524  48.5452018  60.2209275  58.7012966  48.7743044
  58.8710826  58.8805176  48.9319892  59.5615935  59.1026047  48.6364186
  67.5625135  51.5540938  47.8882997  68.1283168  52.2134148  47.8041540
  66.9153039  51.8990636  48.3599400  67.5503892  51.7022879  47.9455754
  58.9773149  43.5438542  63.0776605  58.1672925  43.8496322  62.9666447
  59.4547836  44.2644124  63.1929189  58.9276628  43.6953143  63.0783676
  57.8364709  52.7584263  53.3259508  57.3145462  52.8984555  54.0111373
  58.2238729  51.9994927  53.5161625  57.8168410  52.6669787  53.4560584
  64.0331714  54.4979722  47.3120077  63.7918390  53.7647583  46.9047142
  64.2133047  55.0466579  46.6586410  64.0239338  54.4702114  47.1550300
  59.2631034  49.7888282  48.7240999  59.0673817  50.3963017  48.1301302
  59.4865380  49.0956226  48.2432673  59.2665675  49.7765808  48.5657080
  65.6203072  43.0106819  54.2218552  64.7814172  43.0368098  53.9856816
  65.6907439  43.6577554  54.8023899  65.5071465  43.1102945  54.2727669
  64.0672350  39.9092196  48.9546168  64.7698703  39.7099944  48.4766126
  63.8016539  39.1368138  49.2615012  64.1318982  39.7655162  48.9291610
  69.4960596  48.2174806  51.5079794  69.4094570  48.3730232  52.3614573
  69.0411076  48.8612881  51.1339199  69.4163852  48.3350561  51.5786901
  58.8300906  41.1727481  58.0077049  58.6384103  41.1882615  58.8576472
  59.6799502  41.3691155  57.9843704  58.9276628  41.2041832  58.1300344
  63.3686412  45.5385553  50.1305354  63.1221126  45.4581304  50.9642142
  63.6971535  44.7539021  49.9367881  63.3807655  45.4111818  50.2252877
  67.2634461  52.2468912  53.9192135  67.1248820  52.9449958  54.4240877
  66.4834458  52.0917569  53.5628317  67.1277687  52.3269079  53.9418409
  65.6012546  48.5465287  60.1714516  65.5960584  47.6745104  60.1756943
  66.3073540  48.7453457  59.6983972  65.7057550  48.4469162  60.1021552
  59.3283439  48.2742271  59.5428337  59.4726815  48.8543479  58.9071447
  59.6759088  48.6518568  60.2478191  59.4010900  48.4162975  59.5527332
  61.5003356  47.4732440  57.3253468  60.7526670  47.6663454  56.9201746
  61.6544882  46.6477659  57.0877589  61.4125784  47.3797551  57.2298874
  58.4011194  56.4645043  56.4089363  58.5500758  55.9047959  55.7562768
  59.1811196  56.5437045  56.7921882  58.5385288  56.3930609  56.3686313
  68.7587833  51.6047166  44.6808634  68.3794642  50.8184304  44.6737923
  68.0954079  52.1534023  44.5380278  68.6046308  51.5691990  44.6589431
  60.9264495  56.6359686  57.6873854  60.8508166  55.9668497  58.2424643
  60.8554354  57.3377474  58.2014520  60.9045102  56.6404593  57.8450702
  61.7405133  41.3682990  58.2148872  62.1977747  42.1006965  58.3421664
  61.8161462  40.9449456  58.9736128  61.8196103  41.4140229  58.3449948
  66.2132459  34.5472866  52.0842715  66.3316027  35.0049329  51.3510018
  66.0394635  33.7418127  51.7978932  66.2051630  34.4966638  51.9343649
  61.5834742  55.1560685  48.5197460  62.3484633  54.8870329  48.1980124
  61.4812832  54.6710695  49.2367523  61.6816237  55.0450250  48.5777288
  59.6187511  43.3585094  55.0590696  58.8283586  43.1776554  55.3808032
  60.0148134  42.5812047  55.0420990  59.5604388  43.2172555  55.1043244
  64.1053402  52.1872869  40.4997410  64.8726387  52.2472994  40.0903261
  63.6584711  51.6153310  40.0153728  64.1526829  52.1109444  40.3675120
  65.0031198  50.9927525  52.7850142  64.3276199  50.7612757  53.2863529
  65.0123574  50.3848707  52.1592247  64.9049702  50.8686450  52.7666294
  62.1325342  45.8345353  59.5414195  62.0684483  46.6955310  59.4134332
  62.2722529  45.5177347  58.7409746  62.1440812  45.9145520  59.4042408
  67.0047932  53.8492657  45.0160320  67.0867770  54.6559643  44.6921771
  67.4897674  53.8688616  45.7401093  67.0885090  53.9713319  45.0747218
  60.8144435  48.5277493  53.6830398  60.3906685  48.7281992  52.9469416
  60.6389291  47.6806341  53.7954698  60.7255316  48.4326274  53.5904088
  60.3156129  60.0428006  56.1451855  60.8052059  59.3438795  55.9627520
  59.7440361  59.7451876  56.7327912  60.3040659  59.8954229  56.2052896
  66.5123132  52.6090075  65.0978646  67.3257998  52.3375224  65.2583778
  66.3518099  52.3097615  64.2938842  66.6093081  52.5245001  65.0024052
  60.8092475  53.7904779  45.2691762  60.8785295  52.9319318  45.4084762
  61.5880930  54.0076660  44.9410786  60.9345325  53.6957643  45.2408919
  63.7895294  43.2923732  58.0374034  64.0037264  42.6534647  57.4837388
  63.1729194  43.7369556  57.6081896  63.7300624  43.2633876  57.8924465
  65.1999962  56.2142481  49.4828255  64.8079754  55.9109196  48.7651121
  65.3553035  57.0511571  49.2933209  65.1653552  56.2926317  49.3484752
  65.9534382  44.9012798  58.9757341  65.1411064  44.5938688  59.0570514
  66.4124317  44.4211798  59.5400053  65.9014767  44.7849290  59.0711935
  65.3639637  52.7792469  49.4234285  65.0054292  52.9507112  50.1998318
  64.8778348  53.2405675  48.8662284  65.2398334  52.8731441  49.4559555
  63.1810023  36.4023668  53.0261377  62.3103581  36.3762389  52.9794686
  63.4350364  36.2300860  52.2087222  63.0903583  36.3733812  52.8981514
  63.0487890  46.3072869  63.7586043  63.5187521  46.9314985  64.1453917
  63.0949770  45.6389844  64.3179258  63.1255766  46.3007549  63.8986115
  60.2059164  38.4129896  54.4834847  59.6897652  37.7210088  54.6086426
  59.6453092  39.0800673  54.4297446  60.0465677  38.4093154  54.4940913
  62.2751397  38.9522856  56.3127700  61.8883150  38.9771888  57.0941230
  61.7884334  38.3864535  55.8602216  62.1463906  38.8718607  56.3615603
  66.5244376  53.6696365  60.3701486  67.1624097  53.1756561  60.0363942
  65.8818468  53.5973766  59.7853713  66.5238603  53.5855374  60.2343841
  68.2501377  45.5185511  54.9367402  67.8228985  45.4311860  54.1815501
  67.6127430  45.6263287  55.5222246  68.0930984  45.5218171  54.9112843
  61.9408539  35.8389842  58.6037960  62.5701657  36.3750142  58.3259030
  62.1094401  35.7467201  59.4551525  62.0586333  35.9051204  58.6886488
  61.7422454  40.6261037  60.8764371  62.5695883  40.3546186  60.9322986
  61.7630300  41.4221878  61.2328189  61.8675304  40.7040791  60.9379554
  66.5798633  54.3616174  57.0106843  67.3691011  54.0105238  57.1308925
  66.7542231  55.1752562  56.7483477  66.7218915  54.4302031  56.9894711
  56.3191943  47.7724899  54.0634632  55.4779950  47.6728774  54.2713526
  56.5281951  48.5420380  54.4148953  56.2256636  47.8716943  54.1461947
  65.4332457  38.3725730  51.5723261  65.6382051  38.3048038  52.4180259
  65.1058881  39.1784552  51.5044439  65.4147705  38.4811671  51.6882917
  60.1308608  45.7006299  53.3132229  59.8271746  45.1462287  53.9142637
  59.4288029  45.8798509  52.8260264  59.9824818  45.6451081  53.3301935
  58.1926959  52.9156019  58.0204327  58.0847314  52.9258081  58.8866385
  58.4022741  53.7410800  57.8309281  58.2077070  53.0397094  58.1208419
  68.6866145  38.9257495  51.0526027  68.0740459  39.4127897  51.4379759
  68.7830320  38.2500986  51.5963678  68.6104043  38.8975803  51.1904885
  56.2100751  50.1668662  55.4826265  55.6188685  50.8078160  55.4529280
  56.9721775  50.5906279  55.4557564  56.2349012  50.3244500  55.4741412
  56.6061374  41.3270659  56.1494282  57.0662856  41.4009589  56.8869406
  56.6517481  42.1251914  55.7994104  56.6811929  41.4564807  56.2067039
  58.2544724  41.9937354  60.7166309  57.8630289  41.3470701  61.1522087
  58.4230587  42.5848790  61.3360565  58.2215634  41.9851622  60.8729015
  72.3291173  49.9974431  56.4803543  72.3874297  50.4461080  57.2263520
  71.6957640  50.4073244  56.0433623  72.2442468  50.1248166  56.5256091
  65.9690268  55.6177973  52.9158289  65.7709956  56.1068788  52.2214501
  65.3477979  55.8219215  53.4942423  65.8477832  55.7194512  52.8981512
  61.9477821  39.1813129  52.2900395  61.1013866  39.3535937  52.1641745
  61.9448954  38.3762473  52.6266223  61.8224971  39.0874158  52.3211522
  63.0176122  42.9588343  53.1562453  62.5436076  42.4330106  53.6667764
  63.3894258  42.4117816  52.5877314  63.0026011  42.8004340  53.1477600
  69.2812852  48.0190719  54.5669233  69.0411075  47.1797134  54.5711660
  69.7604860  48.0990886  55.2910007  69.3165036  47.9072119  54.6744036
  64.9459621  43.8524898  46.2188207  64.4182640  43.9353642  45.5293915
  65.4055330  44.5942770  46.2152851  64.9361472  43.9745560  46.1162902
  71.2818039  44.7992176  52.5198492  71.0427809  44.7588010  51.6819277
  71.4451941  45.6463328  52.6464214  71.2708343  44.9184261  52.4151974
  67.8864070  49.1842126  58.4503538  68.6098268  48.7314652  58.2714558
  67.6214032  49.4646791  57.6675865  67.9545343  49.1593094  58.3082253
  64.4996704  52.4228462  45.3497864  65.2230903  52.8886575  45.2062437
  64.0597295  52.4902071  44.5995461  64.5412396  52.5012298  45.2182645
  63.6682859  49.2826004  56.5998553  63.0539852  48.7384054  56.8947188
  64.1850144  48.7690240  56.1204369  63.6538521  49.1262413  56.5722781
  62.9079156  50.3530274  54.3342851  62.4806764  49.7279993  53.9008287
  62.9004101  50.0705196  55.1601859  62.8438297  50.2183055  54.3922679
  63.9661986  37.5556683  57.9582075  63.4702548  37.7520357  57.2673641
  64.7231048  37.9549351  57.7870876  64.0048811  37.6434416  57.8302212
  61.2364866  41.2299028  54.5485385  61.2607353  40.6959141  53.8598165
  61.4876339  40.7216337  55.2110976  61.2774785  41.0759932  54.5450030
  57.5166188  39.9569847  53.9291130  57.5564560  40.4579053  54.6425837
  56.6915853  40.0480240  53.6597053  57.4005714  40.0451663  53.9941668
  59.6995801  49.5230587  62.0311424  58.8491432  49.6602301  62.1669069
  59.8623929  48.7894365  62.4759126  59.5979665  49.4344688  62.1167023
  58.9380551  46.4730357  56.2265029  58.1072481  46.6404174  56.0200277
  58.8832069  46.0966307  57.0113914  58.8069966  46.4420088  56.3113557
  56.7464335  39.9639249  61.8621439  57.3717038  39.4201382  62.1350872
  56.2914815  39.4834167  61.2929230  56.7712595  39.8128731  61.8183033
  70.3199383  48.1468536  56.9534087  70.9117224  48.7865787  56.9852285
  70.7558378  47.4491573  57.2426154  70.4717815  48.1386887  57.0014920
  62.1492773  52.5685909  57.5791981  61.6417864  53.1221756  58.0232612
  61.8519420  52.6294199  56.7610756  62.0297658  52.6592220  57.5240438
  64.3154956  40.9339228  56.4216644  64.7410027  40.4811755  55.8100171
  63.7011949  40.3799299  56.6981432  64.2883601  40.7853205  56.3721669
  64.7600554  56.4849167  45.5095925  64.0429863  56.3110029  45.0443162
  65.4107291  56.2501739  44.9771411  64.7502404  56.4244959  45.3625143
  62.7549178  37.4054328  49.8307221  62.1117496  37.2551975  50.3992360
  62.4148585  37.1596674  49.0656326  62.6094256  37.3466451  49.8010236
  67.3448525  45.3613755  49.2537230  66.6739715  45.9043457  49.1250295
  68.0388275  45.8308610  49.0118925  67.3477392  45.5112026  49.1992758
  61.3935259  57.5010467  54.4848988  61.1700913  56.7429296  54.8533014
  60.9045102  57.5308488  53.7629428  61.2878708  57.3932692  54.4325729
  67.5076652  41.8169639  52.1627603  67.8604262  41.3899362  52.8373402
  66.6491454  41.7320482  52.2928679  67.4326097  41.7414379  52.2822614
  65.5059918  45.0805007  56.1112445  65.4857845  44.8988302  56.9647224
  65.5539119  45.9517026  56.0872029  65.5094559  45.1821546  56.2335740
  63.4506248  51.6692199  62.0360922  63.4102103  51.0241876  61.4506078
  64.2629566  51.6128817  62.3486334  63.5649402  51.5651166  61.9957871
  60.0413716  57.7210925  51.9386073  59.6274114  57.0585055  51.5489914
  60.7261090  57.8688784  51.4181767  60.0812087  57.6451583  51.8042570
  63.4079010  56.8801010  52.6909689  63.0095293  56.9903281  51.9230510
  62.7930229  57.0883077  53.2736249  63.2577899  56.9274578  52.6640989
  68.9400712  36.9388051  53.0911916  68.4331577  36.2317190  53.0233093
  69.7368146  36.6081239  53.2212992  68.9827952  36.7861202  53.1010911
  64.8564728  43.4454663  48.9885579  64.6278421  43.4687364  48.1463937
  65.1162804  42.6212130  49.1080590  64.8610916  43.3270743  48.8810777
  59.1383957  45.2989136  58.5910679  58.6262860  44.6910319  58.9495711
  58.9663453  46.0145728  59.0584655  59.0373594  45.3152435  58.7126903
  53.9849671  43.7426711  61.2413041  53.8152262  44.4028086  60.6961248
  53.5415621  43.9533272  61.9625530  53.8949005  43.8712693  61.2674671
  71.1420852  51.4552977  46.0752780  71.5254458  52.2044333  46.3050877
  70.3464966  51.7018797  45.8164769  71.0814635  51.6022671  46.0710354
  63.0153027  43.2213381  61.0312935  63.5724457  42.9927190  60.3991400
  62.6914092  43.9819046  60.7548147  63.0499437  43.2997217  60.8969432
  60.7336144  46.3081034  61.9964942  61.4847471  46.6232711  62.3104496
  60.9258721  46.1060205  61.1698864  60.8727558  46.3248416  61.9208338
  67.5821434  42.4354600  49.2388738  67.5815661  42.2803257  50.0973014
  67.3777615  43.2817587  49.1830123  67.5521212  42.5375221  49.3576677
  65.3062287  47.1152102  52.8924944  65.8015952  46.3975097  52.8528965
  64.4962062  46.8122900  52.7779431  65.2606180  46.9649748  52.8698670
  67.3714105  49.8655789  55.5802073  67.7969177  49.3430211  55.0272498
  67.0071025  50.4636627  55.0590696  67.3800708  49.8766016  55.4211083
  57.0068185  58.1620007  54.3399419  57.3214744  58.9756395  54.3477200
  57.4161599  57.7770226  55.0081578  57.1136283  58.2248709  54.4403510
  63.9592705  53.5790054  51.9103231  64.4303883  54.2930316  52.0793216
  64.2952883  52.9788804  52.4463100  64.0787820  53.5961518  52.0135607
  66.0469689  55.1891367  64.0895303  66.1566655  54.3999928  64.4452050
  66.3760586  55.0997303  63.2869641  66.1122095  55.0597220  64.0237693
  60.8762200  38.3517524  58.8661326  61.0090105  37.5548518  59.1942301
  61.2607353  38.8783927  59.4459601  60.9518529  38.3117441  59.0004828
  64.5966651  53.3707988  58.6730923  64.0487597  52.7465871  58.4050989
  65.0579680  53.5602260  57.9575003  64.5833861  53.3067038  58.5281354
  63.9494555  35.2747850  55.4642419  63.1440519  35.1645580  55.7810257
  63.8201290  35.3760306  54.6072285  63.8114688  35.2731520  55.3850459
  67.4060515  41.4393342  56.0582116  66.8223504  41.9402549  55.6459683
  67.7264810  40.9322898  55.4246439  67.3673691  41.4385177  55.9040623
  58.5350647  38.3476699  57.1139219  59.0795060  38.0067826  57.7043561
  58.5887582  39.2062161  57.2560504  58.6239766  38.4231959  57.2221093
  54.3481205  52.1093115  53.9878027  54.9526063  52.0688949  53.3591848
  54.1408518  52.9564267  54.0182083  54.4070103  52.2281118  53.8994144
  64.1624977  54.3759061  55.2040265  64.9823351  54.2322027  55.4656560
  63.8819055  55.0005259  55.7456702  64.2421721  54.4469413  55.3228204
  73.8338313  61.1199563  52.9236071  72.9776208  61.2808061  52.9745188
  73.8805966  60.2491627  52.9441132  73.7137424  61.0150365  52.9342137
  68.2179452  70.6562281  48.6873303  67.4662352  70.2777819  48.4589348
  68.6665464  70.6880715  47.9392113  68.1729119  70.6047888  48.5430805
  76.6790134  63.1791607  55.5667723  77.2246094  63.8576694  55.6261693
  76.6207010  63.0379068  54.7069304  76.7506048  63.2583609  55.4479784
  69.7964209  70.6680673  50.9536075  69.8974571  69.8581027  51.2633203
  69.2005954  70.5737620  50.3235754  69.7236747  70.5345701  50.9062314
  62.9929253  66.6900960  50.5788409  62.7579437  65.8568612  50.4720678
  63.1314894  66.9705626  49.7649610  62.9784915  66.6084463  50.4430764
  65.2919340  58.8586690  53.4772717  64.6724372  58.2679338  53.3082732
  65.1903204  59.4498126  52.8437040  65.1857016  58.8590773  53.3577706
  70.3385528  68.5970237  47.7270793  70.6601369  69.1375445  47.1232101
  70.9857624  68.0267009  47.8593083  70.4811583  68.5929412  47.6577829
  72.3887236  60.5986232  47.8105180  73.0867401  60.7774360  48.3026643
  72.7039568  60.0756572  47.1875569  72.5382573  60.5480004  47.7907190
  65.0188473  62.4038972  55.7216286  64.8947170  62.9901418  56.3566105
  65.6706758  61.9099168  56.0228561  65.0962123  62.4177777  55.8602215
  72.5775171  66.9856677  47.7984971  73.0168807  66.3773778  48.2439744
  72.4279834  66.6064051  47.0270436  72.6196637  66.8395148  47.7504139
  70.0446814  65.5800689  55.0003797  70.6895817  65.0873132  54.6814745
  70.2848591  65.7225476  55.8269875  70.1757399  65.5278131  55.0753330
  72.5832906  68.4255595  54.6510689  72.8656149  67.6307001  54.4297445
  73.3119066  68.9036182  54.6715750  72.7322469  68.3790192  54.6213705
  70.5614100  55.9678629  51.8926454  70.2317430  56.4189772  51.2230153
  69.8859101  55.8894792  52.4399461  70.4124536  56.0229764  51.8749678
  76.1784508  65.3383859  44.7515741  76.0935803  66.1944825  44.8965309
  76.6668891  65.0628183  45.4197900  76.2373405  65.4241180  44.8717822
  77.7690507  51.9564152  50.1376065  77.4543948  52.6467630  50.5696487
  77.2517449  51.9008934  49.4361566  77.6454978  52.0499040  50.0973014
  77.1102941  61.9568653  46.2513476  76.5814413  62.1728286  46.9110782
  77.6327961  62.6504791  46.1714445  77.1091394  62.0911790  46.3369075
  69.0002549  65.8531869  45.0520944  68.4159764  66.3581901  45.4586808
  68.5972644  65.6274256  44.3117536  68.8541853  65.8940118  45.0025969
  64.5546578  71.5686631  51.8544615  64.0714156  72.2937120  51.8304199
  65.3669896  71.8662761  51.9654773  64.6037325  71.7188984  51.8671894
  70.6260732  70.3618811  54.4594430  70.1087673  70.0026226  53.8555738
  71.3235123  69.8380986  54.4700496  70.6526313  70.2316499  54.3724688
  73.4579763  62.0997522  43.5289864  73.6975767  62.3075505  42.7165207
  73.7795604  61.2955030  43.6378809  73.5416921  62.0111623  43.4250417
  68.7670054  54.0290917  47.3749402  69.5216022  54.3969234  47.1366452
  68.5897588  54.4030472  48.1428582  68.8524532  54.1389105  47.4534291
  67.4090775  72.0842807  52.0064895  68.1111354  71.5694796  52.0637652
  67.3288258  72.4116958  52.8111770  67.5014535  72.0557033  52.1337687
  68.4569681  62.3218393  61.1345310  68.6290185  62.2124288  61.9830592
  68.9939039  62.9672799  60.8976502  68.5614685  62.4010395  61.2250407
  67.1227118  56.4361236  44.0727515  66.9402691  56.6533117  43.2468508
  67.9852731  56.5500249  44.1286130  67.2231708  56.4851134  43.9582002
  66.7341550  68.2749159  51.5150503  67.5730450  68.5072091  51.5624265
  66.7653319  67.4053470  51.4457538  66.8623268  68.1806105  51.5115148
  67.3594253  68.6950034  55.8163809  67.8992478  68.5521165  56.4867181
  66.6764199  69.0946784  56.1847835  67.3386407  68.7329705  55.9698230
  72.8026837  53.4387647  47.1076539  73.5312998  53.2603602  46.6614695
  72.8921730  54.2805727  47.3183717  72.9233499  53.5371525  47.0730057
  76.7835138  64.3741034  51.0108833  77.5392653  64.8072549  51.0497742
  76.8897463  63.7245804  51.5843469  76.9105309  64.3418518  51.1006859
  62.7631398  64.9150325  55.9698230  62.4969814  64.0989441  56.1289220
  62.7769962  64.9603480  55.0993746  62.7256121  64.8007229  55.8651712
  66.6689145  59.7135409  42.5849988  65.9547322  59.4273588  42.9972421
  67.1533114  60.0532035  43.2256376  66.6348509  59.7217059  42.7405623
  67.5130005  58.4528703  58.6165238  66.8201801  57.9825682  58.8625969
  68.1290332  58.2267007  59.1906945  67.5014535  58.3495835  58.7374390
  73.8436463  68.2165363  42.9611796  74.2587612  67.8850387  42.2696292
  73.0128393  67.9834265  42.8331933  73.7824472  68.1336619  42.8402644
  63.1724812  65.7009104  53.2509974  62.9900385  65.6755990  52.3982267
  63.9074481  66.1708042  53.2898883  63.2538876  65.7670466  53.1307893
  66.2370564  62.4194107  59.7592083  66.9610536  62.4047137  60.2456978
  66.3386700  63.1289462  59.2614051  66.3588773  62.5218810  59.7570870
  76.2846832  62.6227183  48.9136046  76.3793686  63.3616477  49.3675671
  75.6605676  62.1944658  49.3470610  76.2055862  62.6688503  49.0444193
  63.1395722  62.5802605  53.4009041  63.7169225  62.4439055  54.0401286
  62.4409784  62.1238389  53.6554625  63.1216744  62.4924871  53.5331331
  76.5369853  64.4675922  42.1472998  76.4550016  64.5378109  43.0127985
  77.1749574  65.0305666  41.9556739  76.6189691  64.5614893  42.2462947
  69.8963024  64.2336660  51.6147524  69.6382269  63.4008395  51.5878824
  69.9511507  64.4594273  50.7740025  69.8662802  64.1434432  51.4867661
  74.9764075  56.3365111  51.7151617  74.2720401  55.8474296  51.8735536
  75.0249049  56.3487585  50.8440061  74.8794126  56.2654759  51.6090957
  68.8697737  61.7874423  52.1012419  68.2947328  61.9466591  52.7376380
  68.4933413  61.1509832  51.6380870  68.7300549  61.7172236  52.1266977
  72.5371025  60.2597772  56.9604797  72.1485458  59.8351990  56.3056989
  71.8725724  60.5079922  57.4681824  72.3817953  60.2336493  56.9392665
  58.6154555  61.4314497  50.1156860  58.7014807  61.0546366  50.8970390
  59.2430353  61.0574943  49.6376818  58.7211106  61.3199980  50.1602337
  76.3597387  53.9572401  54.4728782  76.7407899  53.2750572  54.8596656
  75.5560671  53.6682003  54.2904446  76.2973849  53.8139449  54.5032838
  73.6409964  64.4896377  45.1581604  74.4550602  64.7811269  45.0464376
  73.5769105  63.8356239  44.5839897  73.7512703  64.4361571  45.0570442
  69.5117872  67.9617894  50.2853916  70.1491819  67.7229642  50.8305710
  69.9372943  68.1655053  49.5507077  69.6694038  67.9568904  50.2571074
  64.2030514  70.2006231  54.1688220  64.2434659  70.4721082  53.3408000
  64.7625038  70.7248139  54.5846008  64.2913860  70.3181986  54.1080108
  70.1520687  63.1820184  44.6228806  70.5365840  62.9627891  45.3745351
  69.9032307  64.0083129  44.7529882  70.1722759  63.2718330  44.7529882
  70.3189227  56.4626599  64.3391390  70.0042668  57.2326162  64.0760953
  69.9979160  55.8996855  63.7543617  70.2248146  56.4936868  64.2132740
  71.8939344  68.4390317  51.9647703  71.9678352  68.2765489  52.8189553
  72.7108850  68.6280506  51.7208184  72.0255702  68.4427059  52.0545728
  65.6545100  68.7848179  48.9942146  64.8283218  69.0309917  48.8676425
  65.7157092  68.7060260  49.8604204  65.5419267  68.8093128  49.1031091
  67.8721124  54.8517121  49.9537586  67.0043550  54.9239720  50.0195196
  68.1596328  55.6539199  50.1425561  67.7860872  54.9811268  49.9912353
  76.9954013  54.9994980  58.2848908  77.7407605  54.8104790  57.8712334
  76.5791318  55.5253218  57.7262765  77.0438987  55.0497125  58.1413481
  70.4343929  71.4025060  46.6961176  70.7242228  71.0114041  45.9720403
  71.1647410  71.5841765  47.1366451  70.5850814  71.3718874  46.6543983
  71.0238675  66.2042806  57.7814307  70.5250368  66.9158573  57.8599195
  71.8338899  66.5243472  57.7432469  71.0694781  66.3569654  57.7870875
  68.3749845  73.3792442  49.7621326  68.1550140  73.0889797  50.5547993
  68.1544367  72.7207397  49.2339238  68.3097439  73.2392151  49.8010235
  67.2866792  65.4665759  52.0277027  66.9980041  64.8403230  52.5622755
  68.1550140  65.4086046  52.0941708  67.3727044  65.3653303  52.1167982
  78.0744690  60.6100542  52.3459009  77.7309456  59.8890877  52.6966259
  78.1737733  60.4014393  51.5037368  78.0386733  60.4724745  52.2730689
  67.4899066  67.1061010  47.9519393  68.2445034  67.4874049  48.1654855
  66.8969678  67.5572153  48.4066089  67.5135779  67.2289837  48.0502271
  69.9505733  59.0623850  63.0776605  69.1405508  59.3681630  62.9666447
  70.4280419  59.7829432  63.1929189  69.9009211  59.2138451  63.0783676
  68.8097292  68.2769571  53.3259508  68.2878046  68.4169863  54.0111373
  69.1971313  67.5180235  53.5161625  68.7900993  68.1855095  53.4560584
  65.7988476  58.3275380  47.3954463  65.5113272  57.9576650  46.6586410
  66.4858944  58.7970235  47.1338168  65.8577374  58.3422349  47.2469538
  70.2363618  65.3073590  48.7240999  70.0406400  65.9148325  48.1301302
  70.4597963  64.6141534  48.2432673  70.2398259  65.2951116  48.5657080
  68.6342148  62.1928328  48.8421867  69.3564800  62.3569486  48.3825673
  68.1550141  62.9137993  48.7361207  68.6705878  62.3226558  48.7587481
  76.5935655  58.5292127  54.2218552  75.7546756  58.5553406  53.9856816
  76.6640023  59.1762862  54.8023899  76.4804049  58.6288253  54.2727669
  66.2849765  64.5986400  57.9476007  66.7970861  64.8770654  57.2984767
  65.9986107  65.3375694  58.3138820  66.3184628  64.7488754  57.9065885
  75.0404934  55.4277504  48.9546168  75.7431286  55.2285252  48.4766126
  74.7749122  54.6553446  49.2615012  75.1051566  55.2840470  48.9291610
  63.3716671  59.1056592  48.2439744  63.4732807  59.9082754  48.5720719
  64.1672558  58.9043928  47.9462824  63.5044576  59.1942491  48.2475099
  69.8033490  56.6912789  58.0077049  69.6116687  56.7067923  58.8576472
  70.6532086  56.8876463  57.9843704  69.9009212  56.7227140  58.1300344
  64.1880403  59.2203770  55.9860865  64.0465895  58.3687711  56.1105373
  64.4720966  59.2632431  55.1623071  64.2088249  59.1003520  55.8828489
  74.3418995  61.0570861  50.1305354  74.0953710  60.9766612  50.9642142
  74.6704118  60.2724329  49.9367881  74.3540239  60.9297126  50.2252877
  70.3016023  63.7927579  59.5428337  70.4459398  64.3728787  58.9071447
  70.6491671  64.1703876  60.2478191  70.3743484  63.9348283  59.5527332
  72.4735940  62.9917748  57.3253468  71.7259254  63.1848762  56.9201746
  72.6277465  62.1662967  57.0877589  72.3858368  62.8982859  57.2298874
  72.7137717  56.8868298  58.2148872  73.1710331  57.6192273  58.3421664
  72.7894046  56.4634764  58.9736128  72.7928687  56.9325536  58.3449948
  64.9570708  57.1334118  59.3038316  64.4212898  56.5214476  59.6199083
  65.0188473  57.7082254  59.9571982  64.8866341  57.1281046  59.4473742
  77.1865043  50.0658174  52.0842715  77.3048611  50.5234637  51.3510018
  77.0127219  49.2603435  51.7978932  77.1784214  50.0151946  51.9343649
  72.5567325  70.6745993  48.5197460  73.3217216  70.4055637  48.1980124
  72.4545415  70.1896003  49.2367523  72.6548821  70.5635557  48.5777288
  70.5920095  58.8770402  55.0590696  69.8016170  58.6961862  55.3808032
  70.9880718  58.0997355  55.0420990  70.5336971  58.7357863  55.1043244
  75.0785986  67.7058177  40.4997410  75.8458971  67.7658302  40.0903261
  74.6317295  67.1338618  40.0153728  75.1259413  67.6294752  40.3675120
  75.9763781  66.5112832  52.7850142  75.3008783  66.2798065  53.2863529
  75.9856157  65.9034015  52.1592247  75.8782286  66.3871758  52.7666294
  73.1057925  61.3530661  59.5414195  73.0417066  62.2140618  59.4134332
  73.2455113  61.0362655  58.7409746  73.1173395  61.4330828  59.4042408
  71.7877019  64.0462801  53.6830398  71.3639268  64.2467300  52.9469416
  71.6121874  63.1991649  53.7954698  71.6987900  63.9511582  53.5904088
  67.0759464  64.5414852  49.1158370  67.2324083  64.4761655  49.9714362
  67.4160057  65.3163405  48.9037050  67.1492699  64.6464050  49.2112964
  73.6138609  63.9172736  47.9851734  74.1554154  63.4143117  48.4490354
  73.9285168  63.8637930  47.1741219  73.7403006  63.8352157  47.9335546
  71.7825058  69.3090087  45.2691762  71.8517879  68.4504626  45.4084762
  72.5613513  69.5261968  44.9410786  71.9077908  69.2142951  45.2408919
  74.7627878  58.8109040  58.0374034  74.9769848  58.1719954  57.4837388
  74.1461777  59.2554864  57.6081896  74.7033207  58.7819184  57.8924465
  63.6493726  61.7249803  49.4319137  64.0292690  62.1434348  48.7679405
  63.0749090  62.3063258  49.7387981  63.6205050  61.8727661  49.3795878
  76.9266966  60.4198105  58.9757341  76.1143648  60.1123996  59.0570514
  77.3856901  59.9397106  59.5400053  76.8747351  60.3034598  59.0711935
  76.3372221  68.2977777  49.4234285  75.9786875  68.4692420  50.1998318
  75.8510931  68.7590983  48.8662284  76.2130918  68.3916748  49.4559555
  74.1542607  51.9208976  53.0261377  73.2836165  51.8947697  52.9794686
  74.4082948  51.7486168  52.2087222  74.0636167  51.8919120  52.8981514
  71.1260586  63.9776943  41.9634520  71.4153111  64.7541825  42.2378094
  71.2132385  63.4665674  42.6649019  71.1814842  64.0168861  42.1077018
  71.1791747  53.9315204  54.4834847  70.6630236  53.2395396  54.6086426
  70.6185676  54.5985981  54.4297446  71.0198260  53.9278462  54.4940913
  73.2483981  54.4708164  56.3127700  72.8615734  54.4957196  57.0941230
  72.7616918  53.9049843  55.8602216  73.1196490  54.3903915  56.3615603
  72.9141122  51.3575150  58.6037960  73.5434240  51.8935450  58.3259030
  73.0826985  51.2652509  59.4551525  73.0318917  51.4236512  58.6886488
  72.7155037  56.1446345  60.8764371  73.5428467  55.8731493  60.9322986
  72.7362883  56.9407186  61.2328189  72.8407887  56.2226099  60.9379554
  67.2924527  63.2910207  54.0634632  66.4512534  63.1914082  54.2713526
  67.5014535  64.0605688  54.4148953  67.1989220  63.3902251  54.1461947
  64.7700094  60.9129744  51.8919383  64.3756792  60.9872756  51.1169492
  64.2140211  61.2987691  52.4427744  64.6302906  60.9811519  51.8587042
  76.4065041  53.8911038  51.5723261  76.6114634  53.8233346  52.4180259
  76.0791465  54.6969860  51.5044439  76.3880289  53.9996979  51.6882917
  71.1041192  61.2191607  53.3132229  70.8004329  60.6647595  53.9142637
  70.4020613  61.3983817  52.8260264  70.9557402  61.1636389  53.3301935
  70.1607289  58.5292126  47.8776931  70.4367023  57.8111039  47.4654499
  70.7605958  59.1277046  47.6698037  70.2900554  58.5112497  47.7857692
  69.1659543  68.4341327  58.0204327  69.0579898  68.4443389  58.8866385
  69.3755324  69.2596108  57.8309281  69.1809654  68.5582402  58.1208419
  73.6617810  56.2005644  46.1523526  74.1161556  56.3716204  46.8771371
  74.1357855  55.5873754  45.7521302  73.7986130  56.1356529  46.1997288
  67.1833335  65.6853970  55.4826265  66.5921268  66.3263468  55.4529280
  67.9454358  66.1091587  55.4557564  67.2081596  65.8429808  55.4741412
  67.5793958  56.8455967  56.1494282  68.0395439  56.9194897  56.8869406
  67.6250064  57.6437221  55.7994104  67.6544513  56.9750115  56.2067039
  69.2277307  57.5122662  60.7166309  68.8362873  56.8656009  61.1522087
  69.3963170  58.1034098  61.3360565  69.1948218  57.5036930  60.8729015
  71.0030830  62.9048178  47.2568533  71.7472874  63.2922454  47.4951483
  71.1491526  62.0605603  47.4209021  71.1341415  62.8378651  47.3162503
  72.9210405  54.6998437  52.2900395  72.0746450  54.8721245  52.1641745
  72.9181537  53.8947781  52.6266223  72.7957555  54.6059466  52.3211522
  73.9908705  58.4773651  53.1562453  73.5168660  57.9515413  53.6667764
  74.3626841  57.9303124  52.5877314  73.9758594  58.3189648  53.1477600
  64.3681736  60.4745158  58.5245999  65.2307349  60.3740867  58.4383328
  64.0373519  59.8939867  57.9631571  64.4466932  60.3736785  58.4291404
  75.9192205  59.3710206  46.2188207  75.3915224  59.4538950  45.5293915
  76.3787913  60.1128077  46.2152851  75.9094055  59.4930868  46.1162902
  67.7283521  59.2987607  55.1856417  67.1036592  59.3105999  54.5782369
  67.3929116  59.7747782  55.8347657  67.5869013  59.3706124  55.1912985
  67.9125270  57.6412726  41.2429102  67.5638075  58.2932451  41.7060651
  67.4321716  57.6269839  40.5152973  67.7895514  57.7355779  41.2040193
  64.4409197  67.3588067  56.6260181  63.9109122  66.6680506  56.6755156
  64.7134290  67.3498253  55.7972890  64.4033919  67.2555199  56.5107597
  75.4729288  67.9413770  45.3497864  76.1963486  68.4071883  45.2062437
  75.0329879  68.0087379  44.5995461  75.5144980  68.0197606  45.2182645
  74.6415443  64.8011312  56.5998553  74.0272436  64.2569362  56.8947188
  75.1582728  64.2875548  56.1204369  74.6271105  64.6447721  56.5722781
  73.8811740  65.8715582  54.3342851  73.4539348  65.2465300  53.9008287
  73.8736684  65.5890504  55.1601859  73.8170881  65.7368362  54.3922679
  66.9974267  60.9080755  57.4031285  67.1567754  60.1524079  57.8083007
  66.8167160  61.4571694  58.0572023  66.9939626  60.8774569  57.5593991
  74.9394570  53.0741990  57.9582075  74.4435131  53.2705665  57.2673641
  75.6963632  53.4734659  57.7870876  74.9781395  53.1619724  57.8302212
  72.2097449  56.7484336  54.5485385  72.2339937  56.2144449  53.8598165
  72.4608923  56.2401645  55.2110976  72.2507368  56.5945240  54.5450030
  59.7205039  64.0315831  53.9828529  59.6148488  63.9862676  53.1180613
  58.9705259  64.3769612  54.2642814  59.5940642  64.0756740  53.8965859
  68.4898772  55.4755155  53.9291130  68.5297143  55.9764361  54.6425837
  67.6648436  55.5665548  53.6597053  68.3738298  55.5636971  53.9941668
  69.9113135  61.9915664  56.2265029  69.0805065  62.1589482  56.0200277
  69.8564652  61.6151615  57.0113914  69.7802550  61.9605396  56.3113557
  67.7196918  55.4824557  61.8621439  68.3449622  54.9386690  62.1350872
  67.2647398  55.0019475  61.2929230  67.7445179  55.3314039  61.8183033
  68.2849179  60.2671256  46.7555146  68.4252140  60.7643720  47.4583788
  68.7831712  59.5657550  46.8969360  68.3790260  60.2373235  46.8806725
  68.3149401  61.1338367  44.0847723  68.9494481  61.7298792  44.0197185
  68.3975012  60.8341825  44.8993593  68.4205952  61.1779275  44.1950810
  69.8928384  57.0652342  44.0593165  70.2144225  56.5855425  43.4052427
  70.1555328  57.8751988  43.8683977  69.9794410  57.1142240  43.9348657
  75.2887539  56.4524536  56.4216644  75.7142611  55.9997063  55.8100171
  74.6744532  55.8984607  56.6981432  75.2616185  56.3038513  56.3721669
  64.8202389  63.3306208  47.3537269  65.3294619  63.9270715  47.7348575
  65.2936661  63.0632181  46.6713689  64.9645765  63.3792023  47.3091792
  73.7281762  52.9239636  49.8307221  73.0850080  52.7737283  50.3992360
  73.3881169  52.6781981  49.0656326  73.5826839  52.8651759  49.8010236
  67.1792921  59.9662466  50.2210450  66.4604910  60.3826599  50.4883313
  67.5505283  60.5316705  49.6702088  67.1284853  60.1111748  50.1793257
  76.4792502  60.5990315  56.1112445  76.4590429  60.4173610  56.9647224
  76.5271702  61.4702334  56.0872029  76.4827143  60.7006853  56.2335740
  72.9539495  59.0060466  45.5583829  72.3604335  59.3277463  45.0068396
  72.9914773  58.1601562  45.3504935  72.8713884  58.9284794  45.4466600
  75.8297312  58.9639971  48.9885579  75.6011005  58.9872672  48.1463937
  76.0895388  58.1397438  49.1080590  75.8343500  58.8456051  48.8810777
  70.1116540  60.8174444  58.5910679  69.5995443  60.2095627  58.9495711
  69.9396036  61.5331036  59.0584655  70.0106177  60.8337743  58.7126903
  64.9582255  59.2612019  61.2413041  64.7884845  59.9213394  60.6961248
  64.5148205  59.4718580  61.9625530  64.8681589  59.3898001  61.2674671
  68.8842074  57.5016517  50.2839775  69.3599441  57.8633597  49.6489956
  68.3830674  58.1572985  50.5639918  68.8807433  57.6510706  50.2316516
  73.9885611  58.7398688  61.0312935  74.5457041  58.5112498  60.3991400
  73.6646676  59.5004354  60.7548147  74.0232021  58.8182525  60.8969432
  61.8584320  62.1658885  56.5001531  61.3111039  61.4959530  56.6182399
  62.6476698  61.7988733  56.5644998  61.8936503  62.0123871  56.5270232
  70.9268728  59.6457717  43.6513159  71.3067692  59.6637346  42.8664274
  70.1861324  60.0911706  43.5304006  70.8737565  59.7139491  43.5176727
  78.5554018  57.9539908  49.2388738  78.5548244  57.7988565  50.0973014
  78.3510198  58.8002895  49.1830123  78.5253796  58.0560529  49.3576677
  60.6171289  61.3779692  53.6547554  60.4393050  60.9256301  54.3802470
  60.3290311  62.1805854  53.8386032  60.5484242  61.4302250  53.7891057
  76.2794870  62.6337410  52.8924944  76.7748535  61.9160405  52.8528965
  75.4694646  62.3308208  52.7779431  76.2338763  62.4835056  52.8698670
  71.7253482  66.4835223  45.0421949  70.9164804  66.1601897  44.9955258
  72.2328390  65.7768445  44.9750198  71.6803148  66.3316539  45.0252243
  62.3543759  63.9107416  50.7669313  61.4889278  63.8993107  50.6552084
  62.4542575  63.7237639  51.6140452  62.2417926  63.8813477  50.8758258
  67.9800769  73.6805315  54.3399419  68.2947328  74.4941703  54.3477200
  68.3894182  73.2955534  55.0081578  68.0868867  73.7434017  54.4403510
  74.9325288  69.0975362  51.9103231  75.4036467  69.8115624  52.0793216
  75.2685467  68.4974112  52.4463100  75.0520403  69.1146826  52.0135607
  71.8494783  53.8702832  58.8661326  71.9822689  53.0733826  59.1942301
  72.2339936  54.3969235  59.4459601  71.9251112  53.8302749  59.0004828
  74.9227139  50.7933158  55.4642419  74.1173102  50.6830888  55.7810257
  74.7933874  50.8945614  54.6072285  74.7847271  50.7916828  55.3850459
  78.3793099  56.9578650  56.0582116  77.7956088  57.4587857  55.6459683
  78.6997393  56.4508206  55.4246439  78.3406274  56.9570485  55.9040623
  70.9187898  55.8719245  46.3340790  71.7403593  56.0417558  46.0922485
  70.4557549  56.0266506  45.6107088  70.9719060  55.9200978  46.1912435
  69.5083230  53.8662007  57.1139219  70.0527643  53.5253134  57.7043561
  69.5620166  54.7247469  57.2560504  69.5972350  53.9417267  57.2221093
  65.3213789  67.6278423  53.9878027  65.9258646  67.5874257  53.3591848
  65.1141101  68.4749575  54.0182083  65.3802686  67.7466426  53.8994144
  60.5565071  66.6113041  53.8576950  60.4589349  65.8009312  54.1667007
  61.3393941  66.5904834  53.4723218  60.6581208  66.4880131  53.8463813
  34.9932526   1.0384488  35.6213350  34.2415425   0.6600027  35.3929395
  35.4418537   1.0702922  34.8732160  34.9482192   0.9870096  35.4770852
  40.4457485   1.4609858  31.0498897  40.1108854   2.1386780  30.6143119
  40.9584356   1.0715169  30.4615768  40.4723067   1.5034436  30.8985688
  39.9861777   3.4124127  36.9910008  40.3701156   3.9811025  36.4514784
  39.9220918   2.6873637  36.5115824  40.0335204   3.3899590  36.8403871
  36.5717282   1.0502881  37.8876122  36.6727645   0.2403235  38.1973250
  35.9759027   0.9559827  37.2575801  36.4989820   0.9167909  37.8402361
  36.4118021   5.9680470  39.2890978  37.0555477   6.4093634  39.6787137
  36.7374277   5.1633896  39.2021237  36.5549850   5.9145665  39.3336456
  29.7682326  -2.9276833  37.5128456  29.5332510  -3.7609180  37.4060725
  29.9067967  -2.6472167  36.6989657  29.7537989  -3.0093329  37.3770811
  37.1138601  -1.0207555  34.6610840  37.4354442  -0.4802348  34.0572148
  37.7610698  -1.5910784  34.7933130  37.2564656  -1.0248380  34.5917875
  31.3299651   1.9508838  38.7884662  30.8467229   2.6759328  38.7644246
  32.1422969   2.2484968  38.8994820  31.3790398   2.1011192  38.8011941
  37.4013805   0.7441019  41.3934476  36.8840746   0.3848434  40.7895785
  38.0988196   0.2203193  41.4040543  37.4279386   0.6138707  41.3064735
  41.0577397   1.1935833  47.3550650  41.1460743   1.0061973  48.2028860
  41.4867109   0.5473262  46.9555496  41.1339499   1.0698840  47.4222401
  38.6247857   0.4766993  46.3368312  38.0618691   0.0639603  46.8607973
  39.3868880   0.4019898  46.7561455  38.6542305   0.4044393  46.4761312
  34.1843848   2.4665014  38.9404942  34.8864427   1.9517003  38.9977698
  34.1041331   2.7939165  39.7451817  34.2767608   2.4379240  39.0677734
  33.5094623  -1.3428634  38.4490550  34.3483523  -1.1105701  38.4964312
  33.5406393  -2.2124323  38.3797585  33.6376341  -1.4371688  38.4455195
  34.1347326  -0.9227759  42.7503855  34.6745551  -1.0656628  43.4207228
  33.4517273  -0.5231008  43.1187882  34.1139480  -0.8848088  42.9038277
  41.1697456   0.6244852  50.0194433  41.9537873   0.7375700  50.3850175
  40.9694051  -0.2014011  50.2153119  41.2563481   0.5191571  50.1028819
  41.3267849   2.5354954  43.6660889  40.5283095   2.2954454  43.9234757
  41.7753861   2.5869347  44.4127936  41.2742461   2.5077345  43.8145813
  29.9477885  -3.9168689  40.1850021  29.7653458  -3.9421803  39.3322313
  30.6827554  -3.4469751  40.2238930  30.0291949  -3.8507326  40.0647940
  36.2870945  -1.6559899  37.2193963  36.9244892  -1.8948151  37.7645757
  36.7126017  -1.4522740  36.4847124  36.4447111  -1.6608888  37.1911121
  30.9783587   0.5828438  41.1028267  31.0187733   0.8543289  40.2748047
  31.5378111   1.1070346  41.5186055  31.0666933   0.7004193  41.0420155
  38.6692417  -1.1787476  38.8987750  38.7431425  -1.3412304  39.7529599
  39.4861923  -0.9897286  38.6548231  38.8008776  -1.1750734  38.9885775
  32.4298174  -0.8329613  35.9282193  31.6036291  -0.5867876  35.8016472
  32.4910165  -0.9117532  36.7944251  32.3172341  -0.8084664  36.0371137
  37.2097003   1.7847267  33.6301223  37.4995301   1.3936248  32.9060450
  37.9400483   1.9663972  34.0706498  37.3603887   1.7541081  33.5884030
  35.1502918   3.7614650  36.6961373  34.9303214   3.4712004  37.4888040
  34.9297440   3.1029605  36.1679285  35.0850512   3.6214358  36.7350281
  37.3170874   5.1344039  35.4792065  37.9694932   4.6020482  35.7083091
  36.6196483   4.7812692  35.8659939  37.3101592   5.0033562  35.5704233
  34.2652139  -2.5116783  34.8859439  35.0198107  -2.1303744  35.0994902
  33.6722751  -2.0605639  35.3406136  34.2888852  -2.3887956  34.9842318
  35.5850365  -1.3408222  40.2599555  35.0631119  -1.2007930  40.9451419
  35.9724386  -2.0997557  40.4501672  35.5654066  -1.4322698  40.3900631
  41.7817370   0.3987238  34.2460123  41.5404046  -0.3344902  33.8387188
  41.9618703   0.9474095  33.5926457  41.7724994   0.3709629  34.0890346
  36.1496851   2.3652558  43.3429410  36.2986415   1.8055474  42.6902815
  36.9296853   2.4444560  43.7261929  36.2870944   2.2938124  43.3026359
  38.6750151   2.5367201  44.6213901  38.5993823   1.8676012  45.1764689
  38.6040011   3.2384990  45.1354567  38.6530758   2.5412109  44.7790749
  39.3320398   1.0568200  35.4537507  40.0970289   0.7877844  35.1320171
  39.2298488   0.5718211  36.1707570  39.4301894   0.9457765  35.5117335
  38.0641786   5.9435521  43.0791902  38.5537716   5.2446310  42.8967566
  37.4926018   5.6459391  43.6667959  38.0526316   5.7961745  43.1392943
  38.5578132  -0.3087705  32.2031808  38.6270952  -1.1673167  32.3424809
  39.3366587  -0.0915824  31.8750833  38.6830982  -0.4034841  32.1748966
  42.9485619   2.1149996  36.4168302  42.5565411   1.8116711  35.6991168
  43.1038691   2.9519086  36.2273255  42.9139209   2.1933833  36.2824799
  35.9412616  -1.1836465  44.9544374  35.8332971  -1.1734403  45.8206432
  36.1508398  -0.3581685  44.7649328  35.9562727  -1.0595391  45.0548466
  43.7175924   1.5185489  39.8498336  43.5195613   2.0076303  39.1554547
  43.0963635   1.7226730  40.4282469  43.5963489   1.6202027  39.8321559
  31.2162270  -2.2589725  43.5600228  30.6862195  -2.9497286  43.6095203
  31.4887364  -2.2679540  42.7312936  31.1786993  -2.3622594  43.4447644
  26.4958112  -5.5861961  40.9168576  26.3901562  -5.6315117  40.0520660
  25.7458332  -5.2408181  41.1982861  26.3693715  -5.5421053  40.8305906
  39.8978430  -1.5306576  44.5132028  39.3903521  -0.9770729  44.9572659
  39.6005076  -1.4698286  43.6950803  39.7783315  -1.4400265  44.4580485
  42.5086210   2.3856682  32.4435972  41.7915520   2.2117544  31.9783209
  43.1592948   2.1509254  31.9111458  42.4988061   2.3252474  32.2965189
  39.1420915   3.4017982  41.4189035  38.9186570   2.6436812  41.7873061
  38.6530759   3.4316004  40.6969475  39.0364364   3.2940207  41.3665776
  37.7899372   3.6218441  38.8726120  37.3759771   2.9592571  38.4829961
  38.4746747   3.7696299  38.3521814  37.8297744   3.5459099  38.7382617
  41.1564666   2.7808526  39.6249736  40.7580950   2.8910796  38.8570556
  40.5415886   2.9890592  40.2076296  41.0063556   2.8282094  39.5981036
  34.7553842   4.0627522  41.2739466  35.0700401   4.8763911  41.2817247
  35.1647255   3.6777741  41.9421625  34.8621940   4.1256225  41.3743557
  43.7955346   1.0898882  51.0235350  43.9052312   0.3007443  51.3792097
  44.1246243   1.0004819  50.2209688  43.8607752   0.9604735  50.9577740
  32.0966862  -1.9899369  40.9218074  32.7011719  -2.0303535  40.2931895
  31.8894175  -1.1428217  40.9522130  32.1555759  -1.8711367  40.8334190
  41.9110634   0.2766576  42.1380311  42.7309008   0.1329542  42.3996607
  41.6304712   0.9012775  42.6796749  41.9907378   0.3476928  42.2568251
  27.3318144  -3.0064752  40.7916997  27.2342422  -3.8168480  41.1007054
  28.1147014  -3.0272958  40.4063265  27.4334281  -3.1297662  40.7803860
  58.3824285   7.9331428  35.1023188  58.3518289   8.7876064  35.2741457
  58.9805633   7.6326720  35.6609331  58.4661442   8.0147924  35.2097990
  51.5823969   7.0207079  39.8576118  50.7261865   7.1815577  39.9085235
  51.6291623   6.1499143  39.8781179  51.4623081   6.9157880  39.8682184
  54.8917686  13.2893604  49.4636574  55.5984453  12.7945635  49.5923509
  55.0805621  13.7302686  48.7339232  55.0245592  13.2811955  49.3745620
  51.4190069  16.9795166  31.0498897  51.0841438  17.6572088  30.6143119
  51.9316939  16.5900477  30.4615768  51.4455650  17.0219744  30.8985688
  50.9594360  18.9309435  36.9910008  51.3433740  19.4996333  36.4514784
  50.8953502  18.2058945  36.5115824  51.0067788  18.9084898  36.8403871
  54.4275790   9.0799122  42.5007770  54.9731751   9.7584209  42.5601739
  54.3692667   8.9386583  41.6409351  54.4991705   9.1591124  42.3819830
  56.2040859  10.5083730  33.3741498  56.0880385  11.2591416  33.8033636
  56.9996746  10.2507683  33.6237585  56.3045449  10.5818576  33.4745589
  40.7414910  12.5908475  37.5128456  40.5065094  11.7576128  37.4060725
  40.8800550  12.8713141  36.6989657  40.7270572  12.5091979  37.3770811
  43.0404997   4.7594206  40.4112764  42.4210029   4.1686853  40.2422778
  42.9388861   5.3505641  39.7777087  42.9342673   4.7598288  40.2917753
  50.1372893   6.4993748  34.7445227  50.8353057   6.6781875  35.2366690
  50.4525225   5.9764087  34.1215616  50.2868230   6.4487520  34.7247237
  42.7674130   8.3046487  42.6556333  42.6432827   8.8908933  43.2906151
  43.4192415   7.8106683  42.9568608  42.8447779   8.3185292  42.7942262
  47.7932471  11.4808204  41.9343844  48.4381474  10.9880648  41.6154792
  48.0334248  11.6232991  42.7609922  47.9243056  11.4285647  42.0093377
  50.3318562  14.3263110  41.5850736  50.6141805  13.5314516  41.3637492
  51.0604723  14.8043698  41.6055797  50.4808126  14.2797707  41.5553751
  48.3099756   1.8686144  38.8266501  47.9803086   2.3197288  38.1570200
  47.6344758   1.7902308  39.3739508  48.1610193   1.9237279  38.8089725
  53.9270165  11.2391374  31.6855787  53.8421460  12.0952341  31.8305356
  54.4154548  10.9635698  32.3537947  53.9859062  11.3248695  31.8057869
  54.8588598   7.8576168  33.1853523  54.3300069   8.0735802  33.8450829
  55.3813618   8.5512306  33.1054492  54.8577051   7.9919305  33.2709122
  60.3136651  13.4322472  38.5586567  59.4834354  13.6433116  38.7219984
  60.2645903  12.6059527  38.2828851  60.1843386  13.3412079  38.5423932
  46.7488206  11.7539385  31.9860990  46.1645421  12.2589416  32.3926854
  46.3458301  11.5281772  31.2457582  46.6027509  11.7947633  31.9366016
  52.0309980  16.7121141  47.3550650  52.1193326  16.5247281  48.2028860
  52.4599693  16.0658570  46.9555496  52.1072083  16.5884148  47.4222401
  51.2065420   8.0005037  30.4629911  51.4461424   8.2083021  29.6505254
  51.5281261   7.1962546  30.5718856  51.2902578   7.9119138  30.3590464
  59.8090609   6.0792873  42.3536988  58.9719030   6.1495060  42.5884583
  59.7778840   6.0817368  41.4811291  59.6808891   6.0903100  42.2596536
  46.2055338   8.2225909  48.0685357  46.3775842   8.1131803  48.9170638
  46.7424696   8.8680314  47.8316549  46.3100342   8.3017910  48.1590454
  44.8712775   2.3368752  31.0067562  44.6888348   2.5540632  30.1808555
  45.7338388   2.4507764  31.0626176  44.9717364   2.3858650  30.8922049
  54.5320795  10.2748550  37.9448880  55.2878310  10.7080064  37.9837789
  54.6383119   9.6253319  38.5183516  54.6590965  10.2426034  38.0346905
  57.5700966  14.1021827  38.6951283  57.1336198  14.1058569  39.4510254
  57.2363881  14.7827326  38.2630860  57.4563586  14.2034283  38.7432115
  52.1430040  16.1430160  50.0194433  52.9270456  16.2561008  50.3850175
  51.9426634  15.3171297  50.2153119  52.2296065  16.0376879  50.1028819
  40.5117055  10.8157840  42.9038277  40.2455470   9.9996957  43.0629267
  40.5255619  10.8610995  42.0333792  40.4741777  10.7014745  42.7991759
  44.4174802   5.6142924  29.5190035  43.7032979   5.3281104  29.9312468
  44.9018771   5.9539550  30.1596423  44.3834165   5.6224574  29.6745670
  45.2615661   4.3536218  45.5505285  44.5687458   3.8833198  45.7966016
  45.8775989   4.1274523  46.1246992  45.2500191   4.2503350  45.6714437
  60.7045312  10.8202747  37.5870920  61.3661746  10.2593415  37.4866828
  60.0636724  10.3254778  37.9123611  60.7074180  10.6639156  37.6203260
  51.5922120  14.1172878  29.8951843  52.0073268  13.7857902  29.2036339
  50.7614050  13.8841780  29.7671980  51.5310129  14.0344134  29.7742691
  40.9210469  11.6016619  40.1850021  40.7386042  11.5763505  39.3322313
  41.6560138  12.0715557  40.2238930  41.0024533  11.6677981  40.0647940
  56.9910143  11.8368129  37.3282909  57.2265732  11.9813328  36.5009759
  57.1399707  12.6010537  37.7214422  57.0475946  11.9707184  37.2646513
  43.9856220   8.3201622  46.6932130  44.7096193   8.3054653  47.1797025
  44.0872357   9.0296977  46.1954098  44.1074429   8.4226325  46.6910917
  58.8200600  10.6769795  35.1652513  59.1508817  11.2097435  34.5592607
  59.3933688  10.7308683  35.8214464  58.9534279  10.7639364  35.1730294
  51.3601170  11.8000707  51.5581077  50.5674151  12.1144219  51.7433697
  51.4750097  12.0152175  50.7201862  51.2596580  11.8784543  51.4619412
  54.0332489   8.5234698  35.8476093  54.1279343   9.2623992  36.3015718
  53.4091332   8.0952173  36.2810657  53.9541519   8.5696018  35.9784240
  52.2884963  11.7020910  46.4966374  52.8623824  11.0648155  46.6514938
  52.2099766  11.7024993  45.6276031  52.3618197  11.6086022  46.3912784
  40.8881379   8.4810120  40.3349088  41.4654882   8.3446571  40.9741333
  40.1895441   8.0245904  40.5894672  40.8702400   8.3932386  40.4671377
  54.2855510  10.3683438  29.0813045  54.2035673  10.4385625  29.9468032
  54.9235231  10.9313182  28.8896785  54.3675347  10.4622409  29.1802994
  47.6448681  10.1344176  38.5487571  47.3867926   9.3015910  38.5218870
  47.6997164  10.3601789  37.7080071  47.6148459  10.0441947  38.4207708
  46.6183393   7.6881938  39.0352466  46.0432985   7.8474106  39.6716427
  46.2419070   7.0517347  38.5720916  46.4786206   7.6179751  39.0607024
  50.2856682   6.1605287  43.8944844  49.8971115   5.7359505  43.2397035
  49.6211380   6.4087437  44.4021871  50.1303610   6.1344008  43.8732712
  36.3640212   7.3322013  37.0496906  36.4500464   6.9553881  37.8310436
  36.9916010   6.9582458  36.5716865  36.4696763   7.2207495  37.0942384
  51.3895620  10.3903892  32.0921651  52.2036259  10.6818785  31.9804423
  51.3254762   9.7363754  31.5179944  51.4998359  10.3369087  31.9910488
  57.6105110  13.0729888  46.5051227  57.3743748  12.2417953  46.3863287
  58.2548339  13.0215495  47.0906071  57.6699781  12.9427576  46.5737120
  47.9006344   9.0827699  31.5568853  48.2851496   8.8635406  32.3085398
  47.6517964   9.9090645  31.6869929  47.9208416   9.1725845  31.6869929
  48.0674884   2.3634114  51.2731437  47.7528325   3.1333677  51.0101000
  47.7464817   1.8004370  50.6883664  47.9733803   2.3944383  51.1472787
  58.6341531  12.8574337  42.5679521  58.3287348  13.5902394  42.9292837
  57.9147747  12.4512266  42.2872307  58.4828873  12.9056070  42.5792658
  64.3343323   9.4967337  41.8947866  64.2667823   9.5163297  41.0250452
  64.3198986  10.3397665  42.1203536  64.3222080   9.6241072  41.8000342
  43.4030757  14.6855695  35.9282193  42.5768875  14.9317432  35.8016472
  43.4642748  14.6067776  36.7944251  43.2904924  14.7100644  36.0371137
  45.6206781   0.7524636  36.8877633  44.7529206   0.8247235  36.9535242
  45.9081985   1.5546715  37.0765608  45.5346529   0.8818783  36.9252400
  62.1201941   8.2711724  40.1694460  62.6709862   7.6379793  40.4091552
  62.1046056   8.8027116  40.8609964  62.1987137   8.2560672  40.3073318
  48.7724331  12.1050321  44.7154353  48.2736025  12.8166089  44.7939242
  49.5824556  12.4250988  44.6772516  48.8180438  12.2577170  44.7210922
  45.0352449  11.3673274  38.9617074  44.7465698  10.7410745  39.4962802
  45.9035797  11.3093561  39.0281755  45.1212701  11.2660818  39.0508029
  55.8230347   6.5108057  39.2799056  55.4795113   5.7898393  39.6306306
  55.9223389   6.3021909  38.4377414  55.7872390   6.3732261  39.2070736
  56.2843376  12.9733761  34.8223044  56.8501409  13.6326971  34.7381587
  55.6371279  13.3183460  35.2939446  56.2722132  13.1215703  34.8795801
  47.6991389   4.9631365  50.0116652  46.8891165   5.2689145  49.9006494
  48.1766076   5.6836948  50.1269236  47.6494868   5.1145967  50.0123723
  43.5474133   4.2282895  34.3294509  43.2598929   3.8584166  33.5926457
  44.2344601   4.6977750  34.0678214  43.6063030   4.2429864  34.1809585
  52.7549954  15.9172546  34.2460123  52.5136630  15.1840406  33.8387188
  52.9351287  16.4659403  33.5926457  52.7457578  15.8894937  34.0890346
  46.3827805   8.0935843  35.7761914  47.1050457   8.2577001  35.3165720
  45.9035797   8.8145508  35.6701254  46.4191535   8.2234073  35.6927528
  54.3421312   4.4299642  41.1558599  53.5032413   4.4560921  40.9196862
  54.4125679   5.0770378  41.7363946  54.2289706   4.5295768  41.2067716
  44.0335421  10.4993916  44.8816054  44.5456518  10.7778169  44.2324814
  43.7471764  11.2383210  45.2478867  44.0670284  10.6496269  44.8405932
  58.2178836   9.6367629  38.4419841  58.1312811   9.7923055  39.2954620
  57.7629316  10.2805704  38.0679246  58.1382093   9.7543384  38.5126948
  41.1202328   5.0064108  35.1779790  41.2218464   5.8090269  35.5060766
  41.9158214   4.8051443  34.8802871  41.2530233   5.0950006  35.1815146
  47.5519147   2.5920304  44.9417096  47.3602344   2.6075439  45.7916519
  48.4017743   2.7883979  44.9183750  47.6494869   2.6234656  45.0640390
  41.9366060   5.1211286  42.9200912  41.7951552   4.2695226  43.0445420
  42.2206623   5.1639946  42.0963118  41.9573906   5.0011036  42.8168536
  52.0904652   6.9578376  37.0645400  51.8439366   6.8774127  37.8982189
  52.4189775   6.1731844  36.8707928  52.1025896   6.8304641  37.1592923
  55.9852701  13.6661735  40.8532182  55.8467060  14.3642781  41.3580924
  55.2052699  13.5110392  40.4968363  55.8495928  13.7461902  40.8758456
  54.3230786   9.9658111  47.1054563  54.3178825   9.0937927  47.1096990
  55.0291780  10.1646280  46.6324019  54.4275790   9.8661985  47.0361599
  48.0501679   9.6935095  46.4768383  48.1945055  10.2736303  45.8411493
  48.3977328  10.0711391  47.1818238  48.1229141   9.8355799  46.4867378
  50.2221597   8.8925263  44.2593515  49.4744911   9.0856277  43.8541793
  50.3763122   8.0670483  44.0217636  50.1344024   8.7990374  44.1638921
  57.4806074  13.0239989  31.6148681  57.1012882  12.2377127  31.6077970
  56.8172319  13.5726846  31.4720325  57.3264549  12.9884813  31.5929478
  50.4623374   2.7875814  45.1488919  50.9195988   3.5199788  45.2761711
  50.5379703   2.3642279  45.9076175  50.5414344   2.8333052  45.2789995
  42.7056365   3.0341633  46.2378362  42.1698554   2.4221992  46.5539130
  42.7674130   3.6089769  46.8912029  42.6351998   3.0288561  46.3813789
  48.3405752   4.7777918  41.9930743  47.5501826   4.5969378  42.3148079
  48.7366374   4.0004870  41.9761037  48.2822628   4.6365379  42.0383291
  52.8271642  13.6065692  27.4337456  53.5944628  13.6665817  27.0243308
  52.3802951  13.0346133  26.9493775  52.8745070  13.5302268  27.3015167
  53.7249438  12.4120348  39.7190189  53.0494440  12.1805580  40.2203576
  53.7341814  11.8041531  39.0932294  53.6267943  12.2879273  39.7006341
  50.8543582   7.2538177  46.4754242  50.7902723   8.1148133  46.3474378
  50.9940770   6.9370170  45.6749793  50.8659052   7.3338343  46.3382455
  55.7266173  15.2685480  31.9500367  55.8086010  16.0752466  31.6261818
  56.2115915  15.2881439  32.6741140  55.8103330  15.3906143  32.0087265
  49.5362676   9.9470316  40.6170445  49.1124925  10.1474815  39.8809463
  49.3607531   9.0999164  40.7294744  49.4473556   9.8519098  40.5244135
  44.8245121  10.4422368  36.0498417  44.9809740  10.3769170  36.9054409
  45.1645714  11.2170920  35.8377097  44.8978356  10.5471566  36.1453011
  51.3624265   9.8180251  34.9191780  51.9039811   9.3150632  35.3830401
  51.6770824   9.7645446  34.1081266  51.4888663   9.7359672  34.8675592
  55.2341373  14.0282898  52.0318693  56.0476238  13.7568047  52.1923825
  55.0736339  13.7290438  51.2278888  55.3311321  13.9437824  51.9364098
  52.5113535   4.7116556  44.9714081  52.7255504   4.0727470  44.4177435
  51.8947434   5.1562379  44.5421943  52.4518864   4.6826699  44.8264512
  53.9218203  17.6335304  36.4168302  53.5297994  17.3302019  35.6991168
  54.0771275  18.4704394  36.2273255  53.8871793  17.7119141  36.2824799
  41.3979382   7.6257318  36.3659184  41.7778347   8.0441863  35.7019452
  40.8234747   8.2070774  36.6728028  41.3690707   7.7735177  36.3135925
  54.6752623   6.3205621  45.9097388  53.8629305   6.0131511  45.9910561
  55.1342557   5.8404621  46.4740100  54.6233008   6.2042113  46.0051982
  54.0857877  14.1985293  36.3574332  53.7272532  14.3699936  37.1338365
  53.5996588  14.6598498  35.8002331  53.9616574  14.2924264  36.3899601
  48.8746243   9.8784458  28.8974567  49.1638768  10.6549341  29.1718141
  48.9618042   9.3673190  29.5989066  48.9300499   9.9176377  29.0417064
  51.7706130   7.7265692  50.6926090  52.2405761   8.3507809  51.0793964
  51.8168010   7.0582668  51.2519305  51.8474006   7.7200372  50.8326162
  55.2462617  15.0889189  47.3041533  55.8842337  14.5949384  46.9703989
  54.6036708  15.0166589  46.7193760  55.2456843  15.0048197  47.1683888
  56.9719617   6.9378335  41.8707449  56.5447225   6.8504683  41.1155548
  56.3345670   7.0456110  42.4562293  56.8149224   6.9410995  41.8452890
  55.3016873  15.7808997  43.9446890  56.0909252  15.4298062  44.0648971
  55.4760471  16.5945385  43.6823524  55.4437155  15.8494854  43.9234758
  45.0410184   9.1917723  40.9974679  44.1998190   9.0921597  41.2053573
  45.2500192   9.9613203  41.3488999  44.9474876   9.2909766  41.0801994
  42.5185751   6.8137260  38.8259429  42.1242449   6.8880271  38.0509539
  41.9625868   7.1995206  39.3767791  42.3788563   6.8819034  38.7927089
  48.8526849   7.1199122  40.2472276  48.5489986   6.5655110  40.8482684
  48.1506269   7.2991332  39.7600310  48.7043059   7.0643904  40.2641982
  47.9092946   4.4299642  34.8116978  48.1852680   3.7118554  34.3994546
  48.5091615   5.0284562  34.6038084  48.0386210   4.4120012  34.7197739
  44.9318992  11.5861485  42.4166312  44.3406925  12.2270983  42.3869327
  45.6940015  12.0099102  42.3897611  44.9567252  11.7437323  42.4081459
  45.3279614   2.7463483  43.0834329  45.7881096   2.8202412  43.8209453
  45.3735721   3.5444737  42.7334151  45.4030170   2.8757630  43.1407086
  46.9762964   3.4130178  47.6506356  46.5848529   2.7663525  48.0862134
  47.1448827   4.0041613  48.2700612  46.9433875   3.4044446  47.8069062
  61.0509413  11.4167255  43.4143590  61.1092537  11.8653903  44.1603566
  60.4175881  11.8266068  42.9773670  60.9660708  11.5440989  43.4596138
  54.6908508  17.0370797  39.8498336  54.4928197  17.5261611  39.1554547
  54.0696219  17.2412038  40.4282469  54.5696072  17.1387335  39.8321559
  48.7516486   8.8055693  34.1908580  49.4958531   9.1929970  34.4291530
  48.8977182   7.9613119  34.3549068  48.8827071   8.7386166  34.2502550
  51.7394362   4.3781167  40.0902500  51.2654316   3.8522929  40.6007811
  52.1112498   3.8310640  39.5217361  51.7244251   4.2197163  40.0817647
  42.1167392   6.3752673  45.4586045  42.9793005   6.2748383  45.3723375
  41.7859175   5.7947383  44.8971618  42.1952589   6.2744300  45.3631451
  58.0031093   9.4383542  41.5009280  57.7629316   8.5989958  41.5051707
  58.4823100   9.5183709  42.2250054  58.0383276   9.3264942  41.6084082
  53.6677862   5.2717721  33.1528253  53.1400880   5.3546465  32.4633962
  54.1273570   6.0135593  33.1492898  53.6579712   5.3938384  33.0502949
  60.0036280   6.2185000  39.4538539  59.7646050   6.1780834  38.6159324
  60.1670181   7.0656152  39.5804260  59.9926583   6.3377085  39.3492021
  56.6082310  10.6034949  45.3843584  57.3316509  10.1507475  45.2054604
  56.3432272  10.8839615  44.6015912  56.6763583  10.5785917  45.2422300
  45.4769178   5.1995122  42.1196464  44.8522248   5.2113514  41.5122416
  45.1414773   5.6755298  42.7687704  45.3354670   5.2713639  42.1253032
  45.6610927   3.5420241  28.1769149  45.3123731   4.1939966  28.6400698
  45.1807373   3.5277354  27.4493020  45.5381171   3.6363294  28.1380240
  42.1894854  13.2595583  43.5600228  41.6594778  12.5688021  43.6095203
  42.4619947  13.2505768  42.7312936  42.1519576  13.1562714  43.4447644
  53.2214944  13.8421285  32.2837910  53.9449143  14.3079398  32.1402484
  52.7815535  13.9094895  31.5335507  53.2630637  13.9205122  32.1522692
  52.3901099  10.7018827  43.5338600  51.7758092  10.1576877  43.8287235
  52.9068384  10.1883064  43.0544416  52.3756762  10.5455236  43.5062828
  51.6297397  11.7723097  41.2682898  51.2025005  11.1472816  40.8348334
  51.6222341  11.4898019  42.0941905  51.5656538  11.6375878  41.3262726
  44.7459924   6.8088270  44.3371332  44.9053410   6.0531594  44.7423054
  44.5652817   7.3579210  44.9912070  44.7425283   6.7782084  44.4934038
  49.9583106   2.6491852  41.4825432  49.9825593   2.1151964  40.7938212
  50.2094580   2.1409161  42.1451023  49.9993025   2.4952756  41.4790077
  37.4690696   9.9323347  40.9168576  37.3634145   9.8870191  40.0520660
  36.7190916  10.2777127  41.1982861  37.3426299   9.9764255  40.8305906
  46.2384428   1.3762670  40.8631176  46.2782800   1.8771877  41.5765884
  45.4134093   1.4673064  40.5937100  46.1223954   1.4644486  40.9281715
  48.4214041  10.9423410  48.9651471  47.5709672  11.0795124  49.1009116
  48.5842169  10.2087188  49.4099173  48.3197905  10.8537511  49.0507070
  47.6598792   7.8923180  43.1605075  46.8290722   8.0596998  42.9540324
  47.6050309   7.5159131  43.9453961  47.5288207   7.8612911  43.2453604
  45.4682575   1.3832073  48.7961486  46.0935278   0.8394205  49.0690918
  45.0133055   0.9026990  48.2269277  45.4930836   1.2321554  48.7523080
  46.0334836   6.1678771  33.6895193  46.1737797   6.6651236  34.3923835
  46.5317368   5.4665066  33.8309407  46.1275917   6.1380750  33.8146772
  46.0635058   7.0345882  31.0187770  46.6980138   7.6306307  30.9537232
  46.1460669   6.7349340  31.8333640  46.1691609   7.0786791  31.1290857
  59.0417624   9.5661360  43.8874134  59.6335464  10.2058610  43.9192332
  59.4776618   8.8684396  44.1766201  59.1936055   9.5579710  43.9354967
  47.6414041   2.9659858  30.9933212  47.9629882   2.4862940  30.3392474
  47.9040985   3.7759504  30.8024024  47.7280066   3.0149756  30.8688704
  50.8711014  13.9878732  44.5132028  50.3636105  14.5414579  44.9572659
  50.5737660  14.0487022  43.6950803  50.7515899  14.0785043  44.4580485
  42.5688046   9.2313723  34.2877316  43.0780275   9.8278231  34.6688622
  43.0422318   8.9639697  33.6053736  42.7131422   9.2799539  34.2431839
  53.4818794  17.9041990  32.4435972  52.7648104  17.7302852  31.9783209
  54.1325532  17.6694562  31.9111458  53.4720644  17.8437782  32.2965189
  56.0666765   6.7806578  36.1877277  55.3957955   7.3236281  36.0590342
  56.7606515   7.2501434  35.9458971  56.0695633   6.9304850  36.1332804
  44.9278578   5.8669982  37.1550496  44.2090567   6.2834114  37.4223360
  45.2990940   6.4324220  36.6042135  44.8770509   6.0119263  37.1133303
  54.2278158   6.4997831  43.0452492  54.2076086   6.3181126  43.8987271
  54.2757359   7.3709849  43.0212076  54.2312800   6.6014369  43.1675787
  52.1724488  13.0885023  48.9700969  52.1320343  12.4434700  48.3846125
  52.9847807  13.0321640  49.2826381  52.2867642  12.9843989  48.9297918
  52.1297250  18.2993834  39.6249736  51.7313533  18.4096104  38.8570556
  51.5148470  18.5075900  40.2076296  51.9796139  18.3467402  39.5981036
  50.7025152   4.9067982  32.4923876  50.1089991   5.2284978  31.9408443
  50.7400430   4.0609077  32.2844982  50.6199541   4.8292310  32.3806647
  53.5782969   4.8647486  35.9225626  53.3496662   4.8880188  35.0803984
  53.8381045   4.0404953  36.0420637  53.5829157   4.7463566  35.8150824
  47.8602197   6.7181959  45.5250726  47.3481100   6.1103142  45.8835758
  47.6881693   7.4338552  45.9924702  47.7591834   6.7345258  45.6466950
  42.7067912   5.1619534  48.1753088  42.5370502   5.8220909  47.6301295
  42.2633862   5.3726096  48.8965577  42.6167245   5.2905517  48.2014718
  46.6327731   3.4024032  37.2179822  47.1085097   3.7641112  36.5830003
  46.1316331   4.0580500  37.4979965  46.6293090   3.5518221  37.1656563
  59.8639093  12.8745800  33.0092827  60.2472698  13.6237157  33.2390924
  59.0683206  13.1211620  32.7504816  59.8032875  13.0215494  33.0050400
  51.7371267   4.6406204  47.9652982  52.2942698   4.4120013  47.3331447
  51.4132332   5.4011869  47.6888194  51.7717678   4.7190040  47.8309479
  39.6069976   8.0666400  43.4341578  39.0596696   7.3967046  43.5522446
  40.3962354   7.6996248  43.4985045  39.6422160   7.9131386  43.4610279
  49.4554385   7.7273857  48.9304989  50.2065712   8.0425534  49.2444543
  49.6476961   7.5253028  48.1038911  49.5945799   7.7441239  48.8548385
  48.6754384   5.5465232  30.5853206  49.0553349   5.5644861  29.8004320
  47.9346980   5.9919221  30.4644053  48.6223222   5.6147007  30.4516774
  38.3656946   7.2787208  40.5887601  38.1878707   6.8263817  41.3142517
  38.0775968   8.0813369  40.7726079  38.2969899   7.3309766  40.7231104
  54.0280527   8.5344925  39.8264991  54.5234192   7.8167920  39.7869012
  53.2180303   8.2315723  39.7119478  53.9824420   8.3842571  39.8038717
  49.4739138  12.3842738  31.9761996  48.6650461  12.0609412  31.9295305
  49.9814047  11.6775961  31.9090244  49.4288805  12.2324055  31.9592290
  40.1029416   9.8114932  37.7009360  39.2374935   9.8000622  37.5892131
  40.2028232   9.6245154  38.5480499  39.9903583   9.7820993  37.8098304
  56.0932346  11.2848613  42.5142120  56.5187417  10.7623035  41.9612545
  55.7289266  11.8829450  41.9930743  56.1018948  11.2958840  42.3551130
  52.6810945  14.9982877  38.8443278  53.1522123  15.7123140  39.0133263
  53.0171124  14.3981627  39.3803147  52.8006060  15.0154341  38.9475653
  54.7687930  16.6084190  51.0235350  54.8784895  15.8192751  51.3792097
  55.0978826  16.5190126  50.2209688  54.8340336  16.4790043  50.9577740
  53.3184892  14.7900811  45.6070970  52.7705837  14.1658695  45.3391035
  53.7797920  14.9795083  44.8915050  53.3052101  14.7259861  45.4621401
  48.6673555   1.7726760  33.2680837  49.4889249   1.9425073  33.0262532
  48.2043206   1.9274021  32.5447135  48.7204717   1.8208493  33.1252482
  43.0699446  13.5285939  40.9218074  43.6744303  13.4881773  40.2931895
  42.8626758  14.3757091  40.9522130  43.1288343  13.6473941  40.8334190
  52.8843218  15.7951884  42.1380311  53.7041592  15.6514850  42.3996607
  52.6037295  16.4198083  42.6796749  52.9639961  15.8662236  42.2568251
  38.3050728  12.5120556  40.7916997  38.2075006  11.7016828  41.1007054
  39.0879598  12.4912350  40.4063265  38.4066864  12.3887646  40.7803860
  69.3556868  23.4516735  35.1023188  69.3250873  24.3061372  35.2741457
  69.9538217  23.1512028  35.6609331  69.4394026  23.5333232  35.2097990
  62.5556553  22.5392386  39.8576118  61.6994449  22.7000885  39.9085235
  62.6024207  21.6684450  39.8781179  62.4355664  22.4343188  39.8682184
  65.8650270  28.8078912  49.4636574  66.5717037  28.3130943  49.5923509
  66.0538205  29.2487994  48.7339232  65.9978175  28.7997262  49.3745620
  62.3922653  32.4980474  31.0498897  62.0574021  33.1757395  30.6143119
  62.9049523  32.1085785  30.4615768  62.4188234  32.5405052  30.8985688
  61.9326944  34.4494743  36.9910008  62.3166323  35.0181641  36.4514784
  61.8686085  33.7244253  36.5115824  61.9800371  34.4270206  36.8403871
  65.4008374  24.5984430  42.5007770  65.9464334  25.2769517  42.5601739
  65.3425250  24.4571891  41.6409351  65.4724288  24.6776432  42.3819830
  58.5182449  32.0873497  37.8876122  58.6192812  31.2773850  38.1973250
  57.9224194  31.9930443  37.2575801  58.4454988  31.9538525  37.8402361
  67.1773443  26.0269037  33.3741498  67.0612969  26.7776724  33.8033636
  67.9729329  25.7692991  33.6237585  67.2778032  26.1003884  33.4745589
  54.0137581  20.2779514  40.4112764  53.3942612  19.6872161  40.2422778
  53.9121444  20.8690949  39.7777087  53.9075256  20.2783596  40.2917753
  59.0603768  30.0163061  34.6610840  59.3819609  30.5568268  34.0572148
  59.7075865  29.4459832  34.7933130  59.2029823  30.0122236  34.5917875
  61.1105476  22.0179055  34.7445227  61.8085641  22.1967183  35.2366690
  61.4257809  21.4949395  34.1215616  61.2600813  21.9672828  34.7247237
  53.7406714  23.8231795  42.6556333  53.6165411  24.4094241  43.2906151
  54.3924998  23.3291991  42.9568608  53.8180363  23.8370600  42.7942262
  61.2993412  28.4049501  34.7325018  61.7387047  27.7966601  35.1779791
  61.1498075  28.0256874  33.9610483  61.3414877  28.2587972  34.6844186
  58.7665055  26.9993512  41.9343844  59.4114057  26.5065955  41.6154792
  59.0066832  27.1418299  42.7609922  58.8975640  26.9470955  42.0093377
  61.3051146  29.8448418  41.5850736  61.5874389  29.0499824  41.3637492
  62.0337306  30.3229006  41.6055797  61.4540710  29.7983015  41.5553751
  59.2832340  17.3871452  38.8266501  58.9535670  17.8382596  38.1570200
  58.6077342  17.3087615  39.3739508  59.1342776  17.4422587  38.8089725
  64.9002748  26.7576682  31.6855787  64.8154043  27.6137648  31.8305356
  65.3887131  26.4821006  32.3537947  64.9591646  26.8434003  31.8057869
  66.4908748  13.3756975  37.0716112  66.1762189  14.0660454  37.5036534
  65.9735689  13.3201757  36.3701613  66.3673218  13.4691864  37.0313061
  65.8321181  23.3761476  33.1853523  65.3032653  23.5921109  33.8450829
  66.3546201  24.0697614  33.1054492  65.8309634  23.5104613  33.2709122
  71.2869234  28.9507780  38.5586567  70.4566937  29.1618424  38.7219984
  71.2378487  28.1244835  38.2828851  71.1575970  28.8597387  38.5423932
  57.7220789  27.2724693  31.9860990  57.1378004  27.7774724  32.3926854
  57.3190884  27.0467080  31.2457582  57.5760093  27.3132941  31.9366016
  59.3478972  31.7811635  41.3934476  58.8305914  31.4219050  40.7895785
  60.0453363  31.2573809  41.4040543  59.3744553  31.6509323  41.3064735
  63.0042564  32.2306449  47.3550650  63.0925910  32.0432589  48.2028860
  63.4332276  31.5843878  46.9555496  63.0804666  32.1069456  47.4222401
  60.5713024  31.5137609  46.3368312  60.0083859  31.1010218  46.8607973
  61.3334047  31.4390514  46.7561455  60.6007472  31.4415009  46.4761312
  62.1798004  23.5190345  30.4629911  62.4194007  23.7268329  29.6505254
  62.5013845  22.7147853  30.5718856  62.2635162  23.4304446  30.3590464
  57.4888294  15.4483741  34.3089449  58.2434262  15.8162058  34.0706499
  57.3115829  15.8223295  35.0768629  57.5742772  15.5581928  34.3874338
  70.7823193  21.5978181  42.3536988  69.9451614  21.6680368  42.5884583
  70.7511424  21.6002676  41.4811291  70.6541475  21.6088408  42.2596536
  57.1787922  23.7411217  48.0685357  57.3508425  23.6317111  48.9170638
  57.7157279  24.3865622  47.8316549  57.2832926  23.8203218  48.1590454
  55.8445359  17.8554060  31.0067562  55.6620932  18.0725940  30.1808555
  56.7070972  17.9693072  31.0626176  55.9449948  17.9043957  30.8922049
  56.0812494  30.1142857  42.7503855  56.6210719  29.9713988  43.4207228
  55.3982440  30.5139608  43.1187882  56.0604647  30.1522528  42.9038277
  61.5245078  14.8580470  34.0416586  62.2531238  14.6796425  33.5954742
  61.6139971  15.6998550  34.2523764  61.6451740  14.9564349  34.0070103
  65.5053378  25.7933858  37.9448880  66.2610893  26.2265372  37.9837789
  65.6115703  25.1438627  38.5183516  65.6323549  25.7611341  38.0346905
  68.5433550  29.6207135  38.6951283  68.1068781  29.6243877  39.4510254
  68.2096465  30.3012634  38.2630860  68.4296170  29.7219591  38.7432115
  63.1162623  31.6615468  50.0194433  63.9003040  31.7746315  50.3850175
  62.9159218  30.8356605  50.2153119  63.2028649  31.5562187  50.1028819
  51.4849639  26.3343148  42.9038277  51.2188054  25.5182264  43.0629267
  51.4988203  26.3796303  42.0333792  51.4474361  26.2200053  42.7991759
  68.4631032  16.6620963  40.9380711  69.1056941  16.7319067  41.5242626
  68.7154053  15.9950186  40.4360253  68.5953165  16.5747311  40.9507990
  55.3907386  21.1328232  29.5190035  54.6765563  20.8466412  29.9312468
  55.8751354  21.4724858  30.1596423  55.3566749  21.1409882  29.6745670
  56.2348245  19.8721526  45.5505285  55.5420042  19.4018506  45.7966016
  56.8508572  19.6459831  46.1246992  56.2232775  19.7688658  45.6714437
  63.2733017  33.5725570  43.6660889  62.4748262  33.3325070  43.9234757
  63.7219028  33.6239963  44.4127936  63.2207628  33.5447961  43.8145813
  71.6777896  26.3388055  37.5870920  72.3394330  25.7778723  37.4866828
  71.0369308  25.8440085  37.9123611  71.6806763  26.1824464  37.6203260
  62.5654704  29.6358186  29.8951843  62.9805852  29.3043210  29.2036339
  61.7346633  29.4027088  29.7671980  62.5042712  29.5529442  29.7742691
  67.9642726  27.3553437  37.3282909  68.1998316  27.4998636  36.5009759
  68.1132290  28.1195845  37.7214422  68.0208530  27.4892492  37.2646513
  54.9588804  23.8386930  46.6932130  55.6828776  23.8239961  47.1797025
  55.0604940  24.5482285  46.1954098  55.0807013  23.9411633  46.6910917
  69.7933183  26.1955103  35.1652513  70.1241400  26.7282743  34.5592607
  70.3666271  26.2493991  35.8214464  69.9266862  26.2824672  35.1730294
  62.3333753  27.3186015  51.5581077  61.5406734  27.6329526  51.7433697
  62.4482681  27.5337483  50.7201862  62.2329164  27.3969851  51.4619412
  65.0065072  24.0420006  35.8476093  65.1011927  24.7809300  36.3015718
  64.3823916  23.6137481  36.2810657  64.9274102  24.0881326  35.9784240
  63.2617546  27.2206218  46.4966374  63.8356408  26.5833463  46.6514938
  63.1832350  27.2210301  45.6276031  63.3350781  27.1271330  46.3912784
  65.2588094  25.8868746  29.0813045  65.1768256  25.9570933  29.9468032
  65.8967814  26.4498489  28.8896785  65.3407931  25.9807717  29.1802994
  58.6181265  25.6529483  38.5487571  58.3600509  24.8201218  38.5218870
  58.6729748  25.8787096  37.7080071  58.5881043  25.5627255  38.4207708
  63.6982315  17.7557934  38.6491664  62.9938642  17.2667120  38.8075583
  63.7467289  17.7680409  37.7780108  63.6012367  17.6847582  38.5431003
  57.5915977  23.2067246  39.0352466  57.0165568  23.3659414  39.6716427
  57.2151653  22.5702655  38.5720916  57.4518789  23.1365059  39.0607024
  61.2589266  21.6790595  43.8944844  60.8703698  21.2544813  43.2397035
  60.5943964  21.9272745  44.4021871  61.1036193  21.6529316  43.8732712
  70.9012535  21.4365600  36.6692674  70.6449100  20.6245541  36.4790557
  71.7441849  21.4443167  36.4422862  70.9878560  21.3177597  36.6077491
  65.0815627  15.3765224  41.4068828  65.4626139  14.6943395  41.7936703
  64.2778911  15.0874826  41.2244493  65.0192089  15.2332273  41.4372884
  62.3628204  25.9089200  32.0921651  63.1768843  26.2004093  31.9804423
  62.2987345  25.2549062  31.5179944  62.4730943  25.8554395  31.9910488
  68.5837694  28.5915196  46.5051227  68.3476331  27.7603261  46.3863287
  69.2280923  28.5400803  47.0906071  68.6432365  28.4612884  46.5737120
  58.2336112  29.3810717  37.2193963  58.8710059  29.1422465  37.7645757
  58.6591184  29.5847876  36.4847124  58.3912278  29.3761727  37.1911121
  58.8738927  24.6013007  31.5568853  59.2584080  24.3820714  32.3085398
  58.6250547  25.4275952  31.6869929  58.8941000  24.6911153  31.6869929
  59.0407468  17.8819422  51.2731437  58.7260909  18.6518985  51.0101000
  58.7197400  17.3189678  50.6883664  58.9466387  17.9129691  51.1472787
  69.6074115  28.3759645  42.5679521  69.3019932  29.1087702  42.9292837
  68.8880330  27.9697574  42.2872307  69.4561457  28.4241378  42.5792658
  60.6157584  29.8583140  38.8987750  60.6896592  29.6958312  39.7529599
  61.4327090  30.0473329  38.6548231  60.7473943  29.8619882  38.9885775
  75.3075907  25.0152645  41.8947866  75.2400407  25.0348605  41.0250452
  75.2931569  25.8582973  42.1203536  75.2954663  25.1426380  41.8000342
  56.5939365  16.2709944  36.8877633  55.7261790  16.3432543  36.9535242
  56.8814569  17.0732023  37.0765608  56.5079113  16.4004091  36.9252400
  65.7172253  16.4187803  45.2188955  66.4625845  16.2297614  44.8052380
  65.3009558  16.9446041  44.6602811  65.7657228  16.4689949  45.0753528
  59.1562170  32.8217883  33.6301223  59.4460468  32.4306864  32.9060450
  59.8865651  33.0034588  34.0706498  59.3069054  32.7911697  33.5884030
  73.0934524  23.7897032  40.1694460  73.6442446  23.1565101  40.4091552
  73.0778640  24.3212424  40.8609964  73.1719720  23.7745980  40.3073318
  59.7456915  27.6235629  44.7154353  59.2468609  28.3351397  44.7939242
  60.5557139  27.9436295  44.6772516  59.7913022  27.7762477  44.7210922
  56.0085033  26.8858582  38.9617074  55.7198281  26.2596053  39.4962802
  56.8768381  26.8278869  39.0281755  56.0945284  26.7846126  39.0508029
  66.7962930  22.0293365  39.2799056  66.4527696  21.3083700  39.6306306
  66.8955973  21.8207216  38.4377414  66.7604973  21.8917569  39.2070736
  59.2636041  36.1714655  35.4792065  59.9160099  35.6391098  35.7083091
  58.5661650  35.8183308  35.8659939  59.2566759  36.0404178  35.5704233
  56.2117306  28.5253833  34.8859439  56.9663274  28.9066872  35.0994902
  55.6187919  28.9764977  35.3406136  56.2354020  28.6482660  34.9842318
  67.2575959  28.4919069  34.8223044  67.8233992  29.1512279  34.7381587
  66.6103863  28.8368767  35.2939446  67.2454716  28.6401011  34.8795801
  58.6723973  20.4816673  50.0116652  57.8623749  20.7874453  49.9006494
  59.1498660  21.2022256  50.1269236  58.6227452  20.6331274  50.0123723
  57.5315533  29.6962394  40.2599555  57.0096286  29.8362686  40.9451419
  57.9189553  28.9373059  40.4501672  57.5119233  29.6047918  40.3900631
  54.5206717  19.7468203  34.3294509  54.2331512  19.3769473  33.5926457
  55.2077185  20.2163058  34.0678214  54.5795614  19.7615172  34.1809585
  63.7282538  31.4357854  34.2460123  63.4869213  30.7025714  33.8387188
  63.9083870  31.9844711  33.5926457  63.7190162  31.4080245  34.0890346
  58.9581858  26.7266413  35.6581046  58.7624641  27.3341148  35.0641349
  59.1816204  26.0334357  35.1772720  58.9616499  26.7143939  35.4997127
  57.3560388  23.6121151  35.7761914  58.0783040  23.7762309  35.3165720
  56.8768381  24.3330816  35.6701254  57.3924119  23.7419381  35.6927528
  65.3153896  19.9484950  41.1558599  64.4764996  19.9746229  40.9196862
  65.3858263  20.5955685  41.7363946  65.2022289  20.0481076  41.2067716
  55.0068005  26.0179224  44.8816054  55.5189102  26.2963477  44.2324814
  54.7204347  26.7568518  45.2478867  55.0402868  26.1681577  44.8405932
  63.7623174  16.8470327  35.8886215  64.4649527  16.6478075  35.4106173
  63.4967363  16.0746269  36.1955058  63.8269806  16.7033293  35.8631657
  69.1911420  25.1552937  38.4419841  69.1045394  25.3108363  39.2954620
  68.7361900  25.7991012  38.0679246  69.1114676  25.2728692  38.5126948
  52.0934911  20.5249416  35.1779790  52.1951048  21.3275577  35.5060766
  52.8890798  20.3236751  34.8802871  52.2262817  20.6135314  35.1815146
  58.5251730  18.1105612  44.9417096  58.3334927  18.1260747  45.7916519
  59.3750326  18.3069287  44.9183750  58.6227452  18.1419963  45.0640390
  52.9098643  20.6396594  42.9200912  52.7684135  19.7880534  43.0445420
  53.1939207  20.6825254  42.0963118  52.9306489  20.5196344  42.8168536
  63.0637236  22.4763684  37.0645400  62.8171950  22.3959435  37.8982189
  63.3922359  21.6917152  36.8707928  63.0758479  22.3489949  37.1592923
  66.9585284  29.1847043  40.8532182  66.8199644  29.8828089  41.3580924
  66.1785282  29.0295700  40.4968363  66.8228511  29.2647210  40.8758456
  65.2963370  25.4843419  47.1054563  65.2911408  24.6123235  47.1096990
  66.0024363  25.6831588  46.6324019  65.4008374  25.3847293  47.0361599
  59.0234263  25.2120402  46.4768383  59.1677639  25.7921611  45.8411493
  59.3709911  25.5896699  47.1818238  59.0961724  25.3541107  46.4867378
  61.1954180  24.4110571  44.2593515  60.4477494  24.6041585  43.8541793
  61.3495706  23.5855790  44.0217636  61.1076608  24.3175682  44.1638921
  58.0962018  33.4023174  43.3429410  58.2451582  32.8426090  42.6902815
  58.8762020  33.4815176  43.7261929  58.2336112  33.3308740  43.3026359
  68.4538657  28.5425297  31.6148681  68.0745466  27.7562435  31.6077970
  67.7904903  29.0912154  31.4720325  68.2997132  28.5070121  31.5929478
  60.6215319  33.5737817  44.6213901  60.5458990  32.9046628  45.1764689
  60.5505178  34.2755605  45.1354567  60.5995925  33.5782725  44.7790749
  61.4355957  18.3061122  45.1488919  61.8928571  19.0385096  45.2761711
  61.5112286  17.8827587  45.9076175  61.5146927  18.3518360  45.2789995
  53.6788949  18.5526941  46.2378362  53.1431138  17.9407299  46.5539130
  53.7406713  19.1275077  46.8912029  53.6084581  18.5473869  46.3813789
  65.9083283  11.4850997  39.0182762  66.0266851  11.9427460  38.2850064
  65.7345459  10.6796258  38.7318979  65.9002454  11.4344769  38.8683695
  61.2785566  32.0938816  35.4537507  62.0435457  31.8248460  35.1320171
  61.1763655  31.6088826  36.1707570  61.3767061  31.9828381  35.5117335
  59.3138335  20.2963226  41.9930743  58.5234410  20.1154686  42.3148079
  59.7098958  19.5190178  41.9761037  59.2555211  20.1550686  42.0383291
  63.8004226  29.1251000  27.4337456  64.5677211  29.1851125  27.0243308
  63.3535535  28.5531441  26.9493775  63.8477653  29.0487576  27.3015167
  64.6982022  27.9305656  39.7190189  64.0227023  27.6990888  40.2203576
  64.7074398  27.3226839  39.0932294  64.6000526  27.8064581  39.7006341
  61.8276166  22.7723485  46.4754242  61.7635307  23.6333441  46.3474378
  61.9673353  22.4555478  45.6749793  61.8391636  22.8523651  46.3382455
  66.6998756  30.7870788  31.9500367  66.7818594  31.5937774  31.6261818
  67.1848498  30.8066747  32.6741140  66.7835914  30.9091450  32.0087265
  60.5095259  25.4655624  40.6170445  60.0857509  25.6660123  39.8809463
  60.3340115  24.6184472  40.7294744  60.4206140  25.3704405  40.5244135
  55.7977704  25.9607675  36.0498417  55.9542324  25.8954478  36.9054409
  56.1378297  26.7356228  35.8377097  55.8710939  26.0656874  36.1453011
  62.3356849  25.3365559  34.9191780  62.8772394  24.8335940  35.3830401
  62.6503408  25.2830754  34.1081266  62.4621246  25.2544980  34.8675592
  66.2073956  29.5468206  52.0318693  67.0208822  29.2753355  52.1923825
  66.0468923  29.2475746  51.2278888  66.3043905  29.4623132  51.9364098
  60.5043299  30.7282911  32.2031808  60.5736119  29.8697449  32.3424809
  61.2831754  30.9454791  31.8750833  60.6296149  30.6335775  32.1748966
  63.4846118  20.2301864  44.9714081  63.6988088  19.5912778  44.4177435
  62.8680018  20.6747687  44.5421943  63.4251448  20.2012007  44.8264512
  64.8950786  33.1520612  36.4168302  64.5030578  32.8487327  35.6991168
  65.0503859  33.9889702  36.2273255  64.8604376  33.2304449  36.2824799
  52.3711966  23.1442626  36.3659184  52.7510931  23.5627171  35.7019452
  51.7967331  23.7256082  36.6728028  52.3423291  23.2920485  36.3135925
  65.6485206  21.8390929  45.9097388  64.8361888  21.5316819  45.9910561
  66.1075141  21.3589929  46.4740100  65.5965591  21.7227421  46.0051982
  65.0590461  29.7170601  36.3574332  64.7005116  29.8885244  37.1338365
  64.5729172  30.1783806  35.8002331  64.9349158  29.8109572  36.3899601
  62.8760847  13.3401799  39.9601424  62.0054405  13.3140520  39.9134733
  63.1301188  13.1678991  39.1427269  62.7854407  13.3111943  39.8321560
  59.8478826  25.3969766  28.8974567  60.1371351  26.1734649  29.1718141
  59.9350625  24.8858498  29.5989066  59.9033083  25.4361684  29.0417064
  62.7438714  23.2451000  50.6926090  63.2138345  23.8693117  51.0793964
  62.7900594  22.5767976  51.2519305  62.8206590  23.2385680  50.8326162
  59.9009988  15.3508028  41.4174894  59.3848476  14.6588219  41.5426473
  59.3403916  16.0178805  41.3637493  59.7416501  15.3471285  41.4280960
  61.9702221  15.8900988  43.2467747  61.5833974  15.9150019  44.0281276
  61.4835158  15.3242666  42.7942263  61.8414730  15.8096738  43.2955650
  66.2195200  30.6074497  47.3041533  66.8574921  30.1134692  46.9703989
  65.5769292  30.5351897  46.7193760  66.2189427  30.5233505  47.1683888
  67.9452200  22.4563643  41.8707449  67.5179809  22.3689991  41.1155548
  67.3078253  22.5641418  42.4562293  67.7881808  22.4596302  41.8452890
  61.6359363  12.7767973  45.5378006  62.2652481  13.3128273  45.2599077
  61.8045225  12.6845332  46.3891572  61.7537157  12.8429335  45.6226535
  61.4373278  17.5639168  47.8104418  62.2646707  17.2924317  47.8663032
  61.4581124  18.3600010  48.1668236  61.5626128  17.6418922  47.8719601
  66.2749457  31.2994305  43.9446890  67.0641835  30.9483370  44.0648971
  66.4493055  32.1130693  43.6823524  66.4169739  31.3680162  43.9234758
  56.0142767  24.7103031  40.9974679  55.1730774  24.6106905  41.2053573
  56.2232775  25.4798511  41.3488999  55.9207460  24.8095074  41.0801994
  53.4918334  22.3322568  38.8259429  53.0975032  22.4065579  38.0509539
  52.9358451  22.7180514  39.3767791  53.3521147  22.4004342  38.7927089
  65.1283281  15.3103862  38.5063308  65.3332875  15.2426169  39.3520305
  64.8009705  16.1162683  38.4384486  65.1098529  15.4189802  38.6222963
  59.8259432  22.6384430  40.2472276  59.5222570  22.0840418  40.8482684
  59.1238853  22.8176640  39.7600310  59.6775642  22.5829212  40.2641982
  57.8877783  29.8534151  44.9544374  57.7798138  29.8636213  45.8206432
  58.0973565  30.6788931  44.7649328  57.9027894  29.9775225  45.0548466
  68.3816969  15.8635626  37.9866074  67.7691282  16.3506028  38.3719806
  68.4781144  15.1879117  38.5303725  68.3054867  15.8353935  38.1244932
  62.3836050  17.6198467  33.0863573  62.8379796  17.7909027  33.8111418
  62.8576096  17.0066578  32.6861349  62.5204370  17.5549352  33.1337335
  55.9051575  27.1046793  42.4166312  55.3139509  27.7456291  42.3869327
  56.6672599  27.5284410  42.3897611  55.9299836  27.2622631  42.4081459
  56.3012198  18.2648791  43.0834329  56.7613680  18.3387720  43.8209453
  56.3468305  19.0630045  42.7334151  56.3762753  18.3942938  43.1407086
  57.9495548  18.9315486  47.6506356  57.5581113  18.2848833  48.0862134
  58.1181411  19.5226921  48.2700612  57.9166458  18.9229753  47.8069062
  72.0241997  26.9352563  43.4143590  72.0825121  27.3839211  44.1603566
  71.3908464  27.3451375  42.9773670  71.9393292  27.0626297  43.4596138
  65.6641092  32.5556105  39.8498336  65.4660780  33.0446919  39.1554547
  65.0428803  32.7597346  40.4282469  65.5428656  32.6572643  39.8321559
  59.7249070  24.3241001  34.1908580  60.4691115  24.7115278  34.4291530
  59.8709766  23.4798427  34.3549068  59.8559655  24.2571474  34.2502550
  61.6428645  16.1191260  39.2240442  60.7964690  16.2914068  39.0981792
  61.6399778  15.3140604  39.5606270  61.5175795  16.0252289  39.2551569
  62.7126946  19.8966475  40.0902500  62.2386900  19.3708237  40.6007811
  63.0845082  19.3495948  39.5217361  62.6976835  19.7382471  40.0817647
  53.0899976  21.8937981  45.4586045  53.9525589  21.7933691  45.3723375
  52.7591759  21.3132691  44.8971618  53.1685172  21.7929608  45.3631451
  68.9763676  24.9568850  41.5009280  68.7361899  24.1175265  41.5051707
  69.4555683  25.0369017  42.2250054  69.0115860  24.8450250  41.6084082
  64.6410445  20.7903029  33.1528253  64.1133464  20.8731773  32.4633962
  65.1006154  21.5320901  33.1492898  64.6312296  20.9123692  33.0502949
  70.9768863  21.7370308  39.4538539  70.7378633  21.6966142  38.6159324
  71.1402765  22.5841460  39.5804260  70.9659167  21.8562393  39.3492021
  67.5814893  26.1220257  45.3843584  68.3049092  25.6692783  45.2054604
  67.3164856  26.4024923  44.6015912  67.6496167  26.0971225  45.2422300
  56.4501762  20.7180430  42.1196464  55.8254832  20.7298822  41.5122416
  56.1147357  21.1940605  42.7687704  56.3087254  20.7898947  42.1253032
  56.6343511  19.0605549  28.1769149  56.2856315  19.7125274  28.6400698
  56.1539956  19.0462662  27.4493020  56.5113754  19.1548602  28.1380240
  53.1627437  28.7780890  43.5600228  52.6327362  28.0873329  43.6095203
  53.4352531  28.7691076  42.7312936  53.1252160  28.6748022  43.4447644
  64.1947528  29.3606593  32.2837910  64.9181727  29.8264706  32.1402484
  63.7548119  29.4280202  31.5335507  64.2363220  29.4390430  32.1522692
  63.3633683  26.2204135  43.5338600  62.7490676  25.6762185  43.8287235
  63.8800968  25.7068372  43.0544416  63.3489345  26.0640544  43.5062828
  62.6029980  27.2908405  41.2682898  62.1757588  26.6658124  40.8348334
  62.5954925  27.0083327  42.0941905  62.5389121  27.1561186  41.3262726
  63.6612810  14.4934814  44.8922122  63.1653371  14.6898488  44.2013688
  64.4181872  14.8927482  44.7210923  63.6999635  14.5812548  44.7642258
  60.9315690  18.1677160  41.4825432  60.9558177  17.6337272  40.7938212
  61.1827163  17.6594468  42.1451023  60.9725609  18.0138064  41.4790077
  57.2117012  16.8947978  40.8631176  57.2515384  17.3957184  41.5765884
  56.3866677  16.9858372  40.5937100  57.0956538  16.9829794  40.9281715
  59.3946625  26.4608718  48.9651471  58.5442255  26.5980432  49.1009116
  59.5574753  25.7272496  49.4099173  59.2930488  26.3722819  49.0507070
  58.6331375  23.4108488  43.1605075  57.8023305  23.5782306  42.9540324
  58.5782893  23.0344439  43.9453961  58.5020790  23.3798219  43.2453604
  56.4415159  16.9017381  48.7961486  57.0667862  16.3579513  49.0690918
  55.9865639  16.4212298  48.2269277  56.4663419  16.7506862  48.7523080
  57.0067419  21.6864079  33.6895193  57.1470380  22.1836543  34.3923835
  57.5049952  20.9850374  33.8309407  57.1008500  21.6566058  33.8146772
  57.0367642  22.5531190  31.0187770  57.6712721  23.1491615  30.9537232
  57.1193252  22.2534648  31.8333640  57.1424193  22.5972098  31.1290857
  70.0150207  25.0846668  43.8874134  70.6068048  25.7243918  43.9192332
  70.4509202  24.3869704  44.1766201  70.1668639  25.0765018  43.9354967
  58.6146625  18.4845166  30.9933212  58.9362466  18.0048248  30.3392474
  58.8773568  19.2944812  30.8024024  58.7012650  18.5335064  30.8688704
  61.8443597  29.5064040  44.5132028  61.3368688  30.0599887  44.9572659
  61.5470243  29.5672330  43.6950803  61.7248482  29.5970351  44.4580485
  64.0105779  17.8717360  43.3556691  64.4360851  17.4189886  42.7440217
  63.3962773  17.3177430  43.6321479  63.9834425  17.7231336  43.3061716
  53.5420630  24.7499031  34.2877316  54.0512859  25.3463539  34.6688622
  54.0154902  24.4825005  33.6053736  53.6864005  24.7984846  34.2431839
  64.4551378  33.4227298  32.4435972  63.7380687  33.2488160  31.9783209
  65.1058115  33.1879870  31.9111458  64.4453228  33.3623090  32.2965189
  62.4500002  14.3432459  36.7647268  61.8068320  14.1930106  37.3332407
  62.1099409  14.0974805  35.9996373  62.3045080  14.2844582  36.7350283
  67.0399349  22.2991886  36.1877277  66.3690539  22.8421589  36.0590342
  67.7339099  22.7686742  35.9458971  67.0428216  22.4490157  36.1332804
  61.0886083  34.4388598  41.4189035  60.8651737  33.6807428  41.7873061
  60.5995926  34.4686619  40.6969475  60.9829532  34.3310823  41.3665776
  67.2027476  18.7547770  39.0967650  67.5555086  18.3277493  39.7713449
  66.3442278  18.6698613  39.2268726  67.1276921  18.6792511  39.2162660
  55.9011161  21.3855290  37.1550496  55.1823150  21.8019422  37.4223360
  56.2723524  21.9509528  36.6042135  55.8503093  21.5304571  37.1133303
  65.2010742  22.0183138  43.0452492  65.1808669  21.8366434  43.8987271
  65.2489943  22.8895157  43.0212076  65.2045383  22.1199677  43.1675787
  63.1457072  28.6070330  48.9700969  63.1052927  27.9620007  48.3846125
  63.9580390  28.5506948  49.2826381  63.2600225  28.5029297  48.9297918
  59.7364539  34.6589056  38.8726120  59.3224938  33.9963187  38.4829961
  60.4211914  34.8066915  38.3521814  59.7762911  34.5829715  38.7382617
  63.1029834  33.8179142  39.6249736  62.7046117  33.9281412  38.8570556
  62.4881053  34.0261208  40.2076296  62.9528723  33.8652710  39.5981036
  61.6757736  20.4253289  32.4923876  61.0822575  20.7470286  31.9408443
  61.7133013  19.5794385  32.2844982  61.5932125  20.3477618  32.3806647
  68.6351536  13.8766182  40.0251962  68.1282401  13.1695321  39.9573140
  69.4318970  13.5459371  40.1553039  68.6778776  13.7239333  40.0350957
  64.5515552  20.3832794  35.9225626  64.3229245  20.4065495  35.0803984
  64.8113628  19.5590261  36.0420637  64.5561740  20.2648874  35.8150824
  58.8334781  22.2367267  45.5250726  58.3213684  21.6288450  45.8835758
  58.6614277  22.9523860  45.9924702  58.7324418  22.2530566  45.6466950
  53.6800495  20.6804842  48.1753088  53.5103086  21.3406217  47.6301295
  53.2366445  20.8911404  48.8965577  53.5899829  20.8090824  48.2014718
  57.6060315  18.9209340  37.2179822  58.0817681  19.2826420  36.5830003
  57.1048914  19.5765808  37.4979965  57.6025674  19.0703529  37.1656563
  70.8371676  28.3931108  33.0092827  71.2205282  29.1422465  33.2390924
  70.0415790  28.6396928  32.7504816  70.7765459  28.5400802  33.0050400
  62.7103851  20.1591512  47.9652982  63.2675281  19.9305321  47.3331447
  62.3864916  20.9197177  47.6888194  62.7450261  20.2375348  47.8309479
  60.4286968  23.2459165  48.9304989  61.1798295  23.5610842  49.2444543
  60.6209545  23.0438336  48.1038911  60.5678382  23.2626547  48.8548385
  59.6486968  21.0650540  30.5853206  60.0285933  21.0830169  29.8004320
  58.9079564  21.5104529  30.4644053  59.5955806  21.1332315  30.4516774
  67.2772258  19.3732731  36.1728784  67.2766485  19.2181388  37.0313061
  67.0728438  20.2195718  36.1170170  67.2472036  19.4753352  36.2916724
  65.0013110  24.0530233  39.8264991  65.4966776  23.3353228  39.7869012
  64.1912886  23.7501031  39.7119478  64.9557004  23.9027879  39.8038717
  60.4471722  27.9028046  31.9761996  59.6383045  27.5794720  31.9295305
  60.9546631  27.1961268  31.9090244  60.4021389  27.7509363  31.9592290
  67.0664929  26.8033921  42.5142120  67.4920001  26.2808342  41.9612545
  66.7021849  27.4014758  41.9930743  67.0751532  26.8144148  42.3551130
  63.6543529  30.5168185  38.8443278  64.1254707  31.2308447  39.0133263
  63.9903707  29.9166935  39.3803147  63.7738644  30.5339649  38.9475653
  65.7420513  32.1269498  51.0235350  65.8517479  31.3378059  51.3792097
  66.0711410  32.0375434  50.2209688  65.8072919  31.9975351  50.9577740
  60.5713024  15.2895655  45.8001372  60.7040929  14.4926649  46.1282348
  60.9558176  15.8162058  46.3799648  60.6469353  15.2495572  45.9344875
  64.2917475  30.3086119  45.6070970  63.7438421  29.6844003  45.3391035
  64.7530504  30.4980391  44.8915050  64.2784685  30.2445169  45.4621401
  63.6445379  12.2125982  42.3982466  62.8391343  12.1023711  42.7150304
  63.5152114  12.3138437  41.5412331  63.5065512  12.2109652  42.3190506
  67.1011339  18.3771473  42.9922162  66.5174328  18.8780680  42.5799730
  67.4215633  17.8701030  42.3586486  67.0624515  18.3763308  42.8380670
  59.6406139  17.2912068  33.2680837  60.4621833  17.4610381  33.0262532
  59.1775789  17.4459329  32.5447135  59.6937301  17.3393801  33.1252482
  58.2301470  15.2854831  44.0479266  58.7745883  14.9445957  44.6383608
  58.2838406  16.1440292  44.1900551  58.3190590  15.3610090  44.1561139
  54.0432029  29.0471247  40.9218074  54.6476887  29.0067081  40.2931895
  53.8359342  29.8942399  40.9522130  54.1020927  29.1659249  40.8334190
  63.8575801  31.3137192  42.1380311  64.6774175  31.1700158  42.3996607
  63.5769879  31.9383391  42.6796749  63.9372545  31.3847544  42.2568251
  73.5289137  38.0577694  39.8576118  72.6727032  38.2186193  39.9085235
  73.5756790  37.1869758  39.8781179  73.4088248  37.9528496  39.8682184
  67.9130276  47.5940412  35.6213350  67.1613176  47.2155951  35.3929395
  68.3616288  47.6258846  34.8732160  67.8679943  47.5426019  35.4770852
  76.8382853  44.3264220  49.4636574  77.5449620  43.8316251  49.5923509
  77.0270789  44.7673302  48.7339232  76.9710759  44.3182570  49.3745620
  73.3655236  48.0165782  31.0498897  73.0306605  48.6942703  30.6143119
  73.8782107  47.6271093  30.4615768  73.3920817  48.0590360  30.8985688
  72.9059527  49.9680050  36.9910008  73.2898907  50.5366949  36.4514784
  72.8418669  49.2429561  36.5115824  72.9532955  49.9455514  36.8403871
  76.3740958  40.1169738  42.5007770  76.9196918  40.7954825  42.5601739
  76.3157834  39.9757199  41.6409351  76.4456872  40.1961740  42.3819830
  69.4915032  47.6058804  37.8876122  69.5925395  46.7959158  38.1973250
  68.8956778  47.5115751  37.2575801  69.4187571  47.4723833  37.8402361
  69.3315772  52.5236394  39.2890978  69.9753228  52.9649558  39.6787137
  69.6572028  51.7189820  39.2021237  69.4747601  52.4701588  39.3336456
  64.9870164  35.7964822  40.4112764  64.3675196  35.2057469  40.2422778
  64.8854028  36.3876257  39.7777087  64.8807840  35.7968904  40.2917753
  70.0336352  45.5348368  34.6610840  70.3552193  46.0753576  34.0572148
  70.6808448  44.9645140  34.7933130  70.1762407  45.5307544  34.5917875
  72.0838060  37.5364363  34.7445227  72.7818225  37.7152491  35.2366690
  72.3990392  37.0134703  34.1215616  72.2333397  37.4858136  34.7247237
  72.2725995  43.9234808  34.7325018  72.7119631  43.3151909  35.1779791
  72.1230658  43.5442182  33.9610483  72.3147461  43.7773280  34.6844186
  69.7397638  42.5178820  41.9343844  70.3846641  42.0251263  41.6154792
  69.9799415  42.6603607  42.7609922  69.8708223  42.4656262  42.0093377
  72.2783730  45.3633726  41.5850736  72.5606972  44.5685132  41.3637492
  73.0069890  45.8414314  41.6055797  72.4273293  45.3168323  41.5553751
  70.2564923  32.9056760  38.8266501  69.9268253  33.3567904  38.1570200
  69.5809925  32.8272923  39.3739508  70.1075360  32.9607895  38.8089725
  75.8735332  42.2761990  31.6855787  75.7886627  43.1322956  31.8305356
  76.3619715  42.0006314  32.3537947  75.9324229  42.3619311  31.8057869
  77.4641331  28.8942283  37.0716112  77.1494772  29.5845762  37.5036534
  76.9468273  28.8387065  36.3701613  77.3405802  28.9877172  37.0313061
  76.8053765  38.8946784  33.1853523  76.2765236  39.1106417  33.8450829
  77.3278785  39.5882922  33.1054492  76.8042218  39.0289921  33.2709122
  68.6953373  42.7910001  31.9860990  68.1110588  43.2960032  32.3926854
  68.2923468  42.5652388  31.2457582  68.5492677  42.8318249  31.9366016
  64.2497401  48.5064762  38.7884662  63.7664980  49.2315251  38.7644246
  65.0620720  48.8040892  38.8994820  64.2988149  48.6567115  38.8011941
  70.3211556  47.2996942  41.3934476  69.8038497  46.9404357  40.7895785
  71.0185947  46.7759117  41.4040543  70.3477137  47.1694630  41.3064735
  73.9775147  47.7491757  47.3550650  74.0658493  47.5617897  48.2028860
  74.4064860  47.1029186  46.9555496  74.0537250  47.6254764  47.4222401
  71.5445607  47.0322917  46.3368312  70.9816442  46.6195526  46.8607973
  72.3066631  46.9575822  46.7561455  71.5740056  46.9600317  46.4761312
  73.1530587  39.0375653  30.4629911  73.3926591  39.2453636  29.6505254
  73.4746428  38.2333161  30.5718856  73.2367745  38.9489754  30.3590464
  68.4620878  30.9669048  34.3089449  69.2166846  31.3347366  34.0706499
  68.2848412  31.3408603  35.0768629  68.5475356  31.0767236  34.3874338
  67.1041599  49.0220938  38.9404942  67.8062178  48.5072927  38.9977698
  67.0239082  49.3495089  39.7451817  67.1965359  48.9935164  39.0677734
  68.1520505  39.2596525  48.0685357  68.3241009  39.1502419  48.9170638
  68.6889863  39.9050930  47.8316549  68.2565509  39.3388526  48.1590454
  66.8177942  33.3739367  31.0067562  66.6353515  33.5911248  30.1808555
  67.6803555  33.4878380  31.0626176  66.9182532  33.4229265  30.8922049
  67.0545077  45.6328165  42.7503855  67.5943302  45.4899296  43.4207228
  66.3715023  46.0324916  43.1187882  67.0337231  45.6707836  42.9038277
  72.4977661  30.3765778  34.0416586  73.2263822  30.1981733  33.5954742
  72.5872554  31.2183858  34.2523764  72.6184323  30.4749657  34.0070103
  76.4785962  41.3119166  37.9448880  77.2343477  41.7450680  37.9837789
  76.5848286  40.6623935  38.5183516  76.6056133  41.2796649  38.0346905
  74.0895207  47.1800776  50.0194433  74.8735623  47.2931623  50.3850175
  73.8891801  46.3541913  50.2153119  74.1761232  47.0747495  50.1028819
  66.3639969  36.6513540  29.5190035  65.6498146  36.3651720  29.9312468
  66.8483938  36.9910166  30.1596423  66.3299333  36.6595190  29.6745670
  67.2080829  35.3906834  45.5505285  66.5152625  34.9203814  45.7966016
  67.8241156  35.1645138  46.1246992  67.1965359  35.2873966  45.6714437
  74.2465600  49.0910878  43.6660889  73.4480846  48.8510378  43.9234757
  74.6951612  49.1425271  44.4127936  74.1940211  49.0633269  43.8145813
  73.5387287  45.1543494  29.8951843  73.9538436  44.8228518  29.2036339
  72.7079217  44.9212396  29.7671980  73.4775296  45.0714750  29.7742691
  65.9321388  39.3572238  46.6932130  66.6561360  39.3425269  47.1797025
  66.0337524  40.0667593  46.1954098  66.0539597  39.4596941  46.6910917
  73.3066337  42.8371323  51.5581077  72.5139318  43.1514834  51.7433697
  73.4215264  43.0522791  50.7201862  73.2061748  42.9155159  51.4619412
  75.9797656  39.5605314  35.8476093  76.0744510  40.2994608  36.3015718
  75.3556499  39.1322789  36.2810657  75.9006686  39.6066634  35.9784240
  74.2350130  42.7391526  46.4966374  74.8088991  42.1018771  46.6514938
  74.1564933  42.7395609  45.6276031  74.3083365  42.6456638  46.3912784
  76.2320677  41.4054053  29.0813045  76.1500840  41.4756241  29.9468032
  76.8700398  41.9683797  28.8896785  76.3140515  41.4993025  29.1802994
  69.5913848  41.1714791  38.5487571  69.3333093  40.3386526  38.5218870
  69.6462331  41.3972404  37.7080071  69.5613626  41.0812563  38.4207708
  74.6714899  33.2743242  38.6491664  73.9671225  32.7852428  38.8075583
  74.7199873  33.2865717  37.7780108  74.5744950  33.2032890  38.5431003
  68.5648561  38.7252554  39.0352466  67.9898152  38.8844722  39.6716427
  68.1884237  38.0887963  38.5720916  68.4251373  38.6550367  39.0607024
  72.2321849  37.1975903  43.8944844  71.8436282  36.7730121  43.2397035
  71.5676548  37.4458053  44.4021871  72.0768777  37.1714624  43.8732712
  76.0548211  30.8950532  41.4068828  76.4358722  30.2128703  41.7936703
  75.2511495  30.6060134  41.2244493  75.9924672  30.7517580  41.4372884
  73.3360787  41.4274508  32.0921651  74.1501426  41.7189401  31.9804423
  73.2719929  40.7734370  31.5179944  73.4463526  41.3739703  31.9910488
  69.2068696  44.8996025  37.2193963  69.8442643  44.6607773  37.7645757
  69.6323767  45.1033184  36.4847124  69.3644862  44.8947035  37.1911121
  69.8471511  40.1198315  31.5568853  70.2316663  39.9006022  32.3085398
  69.5983131  40.9461260  31.6869929  69.8673583  40.2096461  31.6869929
  70.0140051  33.4004730  51.2731437  69.6993492  34.1704293  51.0101000
  69.6929984  32.8374986  50.6883664  69.9198970  33.4314999  51.1472787
  71.5890168  45.3768448  38.8987750  71.6629176  45.2143620  39.7529599
  72.4059674  45.5658637  38.6548231  71.7206526  45.3805190  38.9885775
  67.5671948  31.7895252  36.8877633  66.6994374  31.8617851  36.9535242
  67.8547152  32.5917331  37.0765608  67.4811696  31.9189399  36.9252400
  76.6904837  31.9373111  45.2188955  77.4358429  31.7482921  44.8052380
  76.2742141  32.4631349  44.6602811  76.7389811  31.9875256  45.0753528
  70.1294753  48.3403191  33.6301223  70.4193052  47.9492172  32.9060450
  70.8598234  48.5219896  34.0706498  70.2801638  48.3097005  33.5884030
  70.7189499  43.1420937  44.7154353  70.2201192  43.8536705  44.7939242
  71.5289723  43.4621603  44.6772516  70.7645605  43.2947785  44.7210922
  68.0700669  50.3170573  36.6961373  67.8500964  50.0267928  37.4888040
  67.8495191  49.6585528  36.1679285  68.0048263  50.1770282  36.7350281
  77.7695514  37.5478673  39.2799056  77.4260280  36.8269008  39.6306306
  77.8688556  37.3392524  38.4377414  77.7337557  37.4102876  39.2070736
  70.2368625  51.6899963  35.4792065  70.8892683  51.1576406  35.7083091
  69.5394233  51.3368616  35.8659939  70.2299343  51.5589486  35.5704233
  69.6456557  36.0001981  50.0116652  68.8356332  36.3059761  49.9006494
  70.1231243  36.7207564  50.1269236  69.5960035  36.1516582  50.0123723
  68.5048116  45.2147702  40.2599555  67.9828870  45.3547994  40.9451419
  68.8922136  44.4558367  40.4501672  68.4851817  45.1233226  40.3900631
  65.4939300  35.2653511  34.3294509  65.2064096  34.8954781  33.5926457
  66.1809768  35.7348366  34.0678214  65.5528197  35.2800480  34.1809585
  74.7015121  46.9543161  34.2460123  74.4601797  46.2211022  33.8387188
  74.8816454  47.5030018  33.5926457  74.6922745  46.9265553  34.0890346
  69.9314442  42.2451721  35.6581046  69.7357224  42.8526456  35.0641349
  70.1548787  41.5519665  35.1772720  69.9349083  42.2329247  35.4997127
  68.3292972  39.1306459  35.7761914  69.0515624  39.2947617  35.3165720
  67.8500965  39.8516124  35.6701254  68.3656702  39.2604689  35.6927528
  76.2886479  35.4670258  41.1558599  75.4497580  35.4931537  40.9196862
  76.3590847  36.1140993  41.7363946  76.1754873  35.5666384  41.2067716
  65.9800588  41.5364532  44.8816054  66.4921685  41.8148785  44.2324814
  65.6936931  42.2753826  45.2478867  66.0135452  41.6866885  44.8405932
  74.7355758  32.3655635  35.8886215  75.4382110  32.1663383  35.4106173
  74.4699946  31.5931577  36.1955058  74.8002390  32.2218601  35.8631657
  63.0667495  36.0434723  35.1779790  63.1683631  36.8460885  35.5060766
  63.8623382  35.8422059  34.8802871  63.1995400  36.1320622  35.1815146
  69.4984314  33.6290920  44.9417096  69.3067511  33.6446055  45.7916519
  70.3482910  33.8254594  44.9183750  69.5960036  33.6605271  45.0640390
  63.8831227  36.1581902  42.9200912  63.7416719  35.3065842  43.0445420
  64.1671790  36.2010562  42.0963118  63.9039073  36.0381652  42.8168536
  74.0369819  37.9948992  37.0645400  73.7904534  37.9144743  37.8982189
  74.3654942  37.2102460  36.8707928  74.0491063  37.8675257  37.1592923
  77.9317868  44.7032351  40.8532182  77.7932227  45.4013397  41.3580924
  77.1517866  44.5481008  40.4968363  77.7961095  44.7832518  40.8758456
  76.2695953  41.0028727  47.1054563  76.2643992  40.1308543  47.1096990
  76.9756947  41.2016896  46.6324019  76.3740957  40.9032601  47.0361599
  69.9966847  40.7305710  46.4768383  70.1410222  41.3106919  45.8411493
  70.3442495  41.1082007  47.1818238  70.0694308  40.8726414  46.4867378
  72.1686764  39.9295879  44.2593515  71.4210078  40.1226893  43.8541793
  72.3228289  39.1041098  44.0217636  72.0809191  39.8360990  44.1638921
  69.0694601  48.9208482  43.3429410  69.2184165  48.3611398  42.6902815
  69.8494604  49.0000484  43.7261929  69.2068695  48.8494048  43.3026359
  71.5947902  49.0923125  44.6213901  71.5191573  48.4231936  45.1764689
  71.5237761  49.7940913  45.1354567  71.5728509  49.0968032  44.7790749
  72.4088541  33.8246430  45.1488919  72.8661155  34.5570404  45.2761711
  72.4844870  33.4012895  45.9076175  72.4879511  33.8703668  45.2789995
  64.6521532  34.0712249  46.2378362  64.1163722  33.4592607  46.5539130
  64.7139297  34.6460385  46.8912029  64.5817165  34.0659177  46.3813789
  76.8815867  27.0036305  39.0182762  76.9999435  27.4612768  38.2850064
  76.7078043  26.1981566  38.7318979  76.8735038  26.9530077  38.8683695
  72.2518149  47.6124124  35.4537507  73.0168040  47.3433768  35.1320171
  72.1496239  47.1274134  36.1707570  72.3499645  47.5013689  35.5117335
  70.2870919  35.8148533  41.9930743  69.4966994  35.6339994  42.3148079
  70.6831542  35.0375486  41.9761037  70.2287795  35.6735994  42.0383291
  74.7736810  44.6436308  27.4337456  75.5409795  44.7036433  27.0243308
  74.3268119  44.0716749  26.9493775  74.8210237  44.5672883  27.3015167
  75.6714605  43.4490964  39.7190189  74.9959607  43.2176196  40.2203576
  75.6806981  42.8412147  39.0932294  75.5733110  43.3249889  39.7006341
  72.8008749  38.2908793  46.4754242  72.7367890  39.1518749  46.3474378
  72.9405937  37.9740786  45.6749793  72.8124219  38.3708959  46.3382455
  77.6731340  46.3056096  31.9500367  77.7551177  47.1123082  31.6261818
  78.1581082  46.3252055  32.6741140  77.7568498  46.4276758  32.0087265
  71.4827843  40.9840932  40.6170445  71.0590092  41.1845431  39.8809463
  71.3072698  40.1369780  40.7294744  71.3938724  40.8889713  40.5244135
  70.9839536  52.4991445  43.0791902  71.4735467  51.8002234  42.8967566
  70.4123769  52.2015315  43.6667959  70.9724066  52.3517669  43.1392943
  66.7710288  41.4792983  36.0498417  66.9274907  41.4139786  36.9054409
  67.1110881  42.2541536  35.8377097  66.8443523  41.5842181  36.1453011
  73.3089433  40.8550867  34.9191780  73.8504978  40.3521248  35.3830401
  73.6235992  40.8016062  34.1081266  73.4353830  40.7730288  34.8675592
  77.1806540  45.0653514  52.0318693  77.9941405  44.7938663  52.1923825
  77.0201506  44.7661054  51.2278888  77.2776488  44.9808440  51.9364098
  71.4775882  46.2468218  32.2031808  71.5468703  45.3882757  32.3424809
  72.2564337  46.4640099  31.8750833  71.6028732  46.1521082  32.1748966
  74.4578702  35.7487171  44.9714081  74.6720672  35.1098086  44.4177435
  73.8412601  36.1932995  44.5421943  74.3984031  35.7197315  44.8264512
  75.8683370  48.6705920  36.4168302  75.4763162  48.3672635  35.6991168
  76.0236442  49.5075010  36.2273255  75.8336960  48.7489756  36.2824799
  63.3444549  38.6627934  36.3659184  63.7243514  39.0812479  35.7019452
  62.7699914  39.2441390  36.6728028  63.3155874  38.8105793  36.3135925
  76.6217790  37.3576237  45.9097388  75.8094472  37.0502127  45.9910561
  77.0807725  36.8775237  46.4740100  76.5698175  37.2412729  46.0051982
  76.0323045  45.2355909  36.3574332  75.6737699  45.4070551  37.1338365
  75.5461755  45.6969114  35.8002331  75.9081742  45.3294880  36.3899601
  73.8493431  28.8587107  39.9601424  72.9786989  28.8325828  39.9134733
  74.1033772  28.6864299  39.1427269  73.7586991  28.8297251  39.8321560
  70.8211410  40.9155074  28.8974567  71.1103935  41.6919956  29.1718141
  70.9083209  40.4043805  29.5989066  70.8765666  40.9546992  29.0417064
  73.7171297  38.7636308  50.6926090  74.1870929  39.3878424  51.0793964
  73.7633178  38.0953284  51.2519305  73.7939173  38.7570988  50.8326162
  70.8742571  30.8693336  41.4174894  70.3581060  30.1773527  41.5426473
  70.3136500  31.5364113  41.3637493  70.7149084  30.8656593  41.4280960
  72.9434805  31.4086296  43.2467747  72.5566558  31.4335327  44.0281276
  72.4567742  30.8427974  42.7942263  72.8147313  31.3282046  43.2955650
  77.1927784  46.1259805  47.3041533  77.8307505  45.6320000  46.9703989
  76.5501876  46.0537205  46.7193760  77.1922011  46.0418813  47.1683888
  72.6091946  28.2953281  45.5378006  73.2385064  28.8313581  45.2599077
  72.7777809  28.2030640  46.3891572  72.7269741  28.3614643  45.6226535
  72.4105861  33.0824476  47.8104418  73.2379291  32.8109625  47.8663032
  72.4313707  33.8785317  48.1668236  72.5358711  33.1604230  47.8719601
  66.9875351  40.2288339  40.9974679  66.1463358  40.1292213  41.2053573
  67.1965359  40.9983819  41.3488999  66.8940044  40.3280382  41.0801994
  64.4650918  37.8507875  38.8259429  64.0707616  37.9250887  38.0509539
  63.9091035  38.2365822  39.3767791  64.3253730  37.9189650  38.7927089
  76.1015865  30.8289170  38.5063308  76.3065458  30.7611477  39.3520305
  75.7742289  31.6347991  38.4384486  76.0831113  30.9375110  38.6222963
  70.7992016  38.1569738  40.2472276  70.4955153  37.6025726  40.8482684
  70.0971437  38.3361948  39.7600310  70.6508226  38.1014520  40.2641982
  69.8558113  35.4670258  34.8116978  70.1317847  34.7489170  34.3994546
  70.4556782  36.0655177  34.6038084  69.9851378  35.4490628  34.7197739
  68.8610367  45.3719458  44.9544374  68.7530722  45.3821521  45.8206432
  69.0706148  46.1974239  44.7649328  68.8760478  45.4960533  45.0548466
  73.3568633  33.1383775  33.0863573  73.8112380  33.3094335  33.8111418
  73.8308679  32.5251886  32.6861349  73.4936954  33.0734660  33.1337335
  67.2744782  33.7834099  43.0834329  67.7346263  33.8573028  43.8209453
  67.3200888  34.5815353  42.7334151  67.3495337  33.9128246  43.1407086
  68.9228131  34.4500793  47.6506356  68.5313697  33.8034141  48.0862134
  69.0913994  35.0412229  48.2700612  68.8899042  34.4415061  47.8069062
  76.6373675  48.0741412  39.8498336  76.4393364  48.5632227  39.1554547
  76.0161386  48.2782654  40.4282469  76.5161240  48.1757951  39.8321559
  70.6981653  39.8426309  34.1908580  71.4423698  40.2300586  34.4291530
  70.8442350  38.9983735  34.3549068  70.8292239  39.7756782  34.2502550
  72.6161229  31.6376568  39.2240442  71.7697274  31.8099376  39.0981792
  72.6132361  30.8325912  39.5606270  72.4908379  31.5437597  39.2551569
  73.6859529  35.4151783  40.0902500  73.2119484  34.8893545  40.6007811
  74.0577665  34.8681255  39.5217361  73.6709418  35.2567779  40.0817647
  64.0632559  37.4123289  45.4586045  64.9258172  37.3118999  45.3723375
  63.7324342  36.8317999  44.8971618  64.1417756  37.3114916  45.3631451
  75.6143029  36.3088337  33.1528253  75.0866048  36.3917081  32.4633962
  76.0738737  37.0506209  33.1492898  75.6044879  36.4309000  33.0502949
  67.4234345  36.2365738  42.1196464  66.7987416  36.2484130  41.5122416
  67.0879940  36.7125913  42.7687704  67.2819837  36.3084255  42.1253032
  67.6076094  34.5790857  28.1769149  67.2588898  35.2310582  28.6400698
  67.1272540  34.5647970  27.4493020  67.4846338  34.6733910  28.1380240
  75.1680111  44.8791901  32.2837910  75.8914310  45.3450014  32.1402484
  74.7280702  44.9465510  31.5335507  75.2095804  44.9575737  32.1522692
  74.3366267  41.7389443  43.5338600  73.7223260  41.1947493  43.8287235
  74.8533551  41.2253679  43.0544416  74.3221929  41.5825852  43.5062828
  73.5762564  42.8093713  41.2682898  73.1490172  42.1843432  40.8348334
  73.5687508  42.5268635  42.0941905  73.5121705  42.6746494  41.3262726
  66.6925091  37.8458886  44.3371332  66.8518578  37.0902210  44.7423054
  66.5117984  38.3949826  44.9912070  66.6890450  37.8152700  44.4934038
  74.6345394  30.0120122  44.8922122  74.1385955  30.2083796  44.2013688
  75.3914456  30.4112790  44.7210923  74.6732218  30.0997855  44.7642258
  71.9048273  33.6862468  41.4825432  71.9290761  33.1522580  40.7938212
  72.1559747  33.1779776  42.1451023  71.9458192  33.5323372  41.4790077
  68.1849596  32.4133286  40.8631176  68.2247967  32.9142492  41.5765884
  67.3599260  32.5043679  40.5937100  68.0689122  32.5015102  40.9281715
  70.3679209  41.9794026  48.9651471  69.5174839  42.1165740  49.1009116
  70.5307336  41.2457804  49.4099173  70.2663072  41.8908127  49.0507070
  69.6063959  38.9293796  43.1605075  68.7755889  39.0967614  42.9540324
  69.5515476  38.5529746  43.9453961  69.4753374  38.8983527  43.2453604
  67.4147742  32.4202689  48.7961486  68.0400446  31.8764821  49.0690918
  66.9598222  31.9397606  48.2269277  67.4396003  32.2692170  48.7523080
  67.9800003  37.2049387  33.6895193  68.1202964  37.7021851  34.3923835
  68.4782536  36.5035682  33.8309407  68.0741084  37.1751366  33.8146772
  68.0100225  38.0716498  31.0187770  68.6445305  38.6676923  30.9537232
  68.0925836  37.7719956  31.8333640  68.1156776  38.1157406  31.1290857
  69.5879208  34.0030474  30.9933212  69.9095049  33.5233556  30.3392474
  69.8506152  34.8130120  30.8024024  69.6745233  34.0520372  30.8688704
  72.8176181  45.0249348  44.5132028  72.3101272  45.5785195  44.9572659
  72.5202827  45.0857638  43.6950803  72.6981066  45.1155659  44.4580485
  74.9838363  33.3902668  43.3556691  75.4093435  32.9375194  42.7440217
  74.3695356  32.8362738  43.6321479  74.9567008  33.2416644  43.3061716
  75.4283961  48.9412606  32.4435972  74.7113271  48.7673468  31.9783209
  76.0790699  48.7065178  31.9111458  75.4185812  48.8808398  32.2965189
  73.4232586  29.8617767  36.7647268  72.7800904  29.7115414  37.3332407
  73.0831993  29.6160113  35.9996373  73.2777663  29.8029890  36.7350283
  78.0131932  37.8177194  36.1877277  77.3423122  38.3606896  36.0590342
  78.7071683  38.2872050  35.9458971  78.0160800  37.9675465  36.1332804
  72.0618666  49.9573906  41.4189035  71.8384321  49.1992735  41.7873061
  71.5728509  49.9871927  40.6969475  71.9562115  49.8496131  41.3665776
  78.1760060  34.2733078  39.0967650  78.5287670  33.8462801  39.7713449
  77.3174861  34.1883921  39.2268726  78.1009504  34.1977818  39.2162660
  66.8743745  36.9040598  37.1550496  66.1555734  37.3204730  37.4223360
  67.2456107  37.4694836  36.6042135  66.8235677  37.0489879  37.1133303
  76.1743326  37.5368446  43.0452492  76.1541253  37.3551742  43.8987271
  76.2222526  38.4080465  43.0212076  76.1777967  37.6384985  43.1675787
  74.1189656  44.1255638  48.9700969  74.0785510  43.4805315  48.3846125
  74.9312974  44.0692256  49.2826381  74.2332809  44.0214605  48.9297918
  70.7097123  50.1774364  38.8726120  70.2957522  49.5148495  38.4829961
  71.3944497  50.3252223  38.3521814  70.7495495  50.1015022  38.7382617
  74.0762417  49.3364450  39.6249736  73.6778700  49.4466720  38.8570556
  73.4613637  49.5446516  40.2076296  73.9261306  49.3838018  39.5981036
  72.6490319  35.9438597  32.4923876  72.0555158  36.2655594  31.9408443
  72.6865597  35.0979693  32.2844982  72.5664708  35.8662926  32.3806647
  75.5248136  35.9018102  35.9225626  75.2961829  35.9250803  35.0803984
  75.7846212  35.0775569  36.0420637  75.5294324  35.7834182  35.8150824
  69.8067364  37.7552575  45.5250726  69.2946267  37.1473758  45.8835758
  69.6346860  38.4709168  45.9924702  69.7057001  37.7715874  45.6466950
  64.6533079  36.1990150  48.1753088  64.4835669  36.8591525  47.6301295
  64.2099029  36.4096712  48.8965577  64.5632413  36.3276132  48.2014718
  68.5792898  34.4394648  37.2179822  69.0550265  34.8011728  36.5830003
  68.0781498  35.0951116  37.4979965  68.5758257  34.5888837  37.1656563
  73.6836435  35.6776820  47.9652982  74.2407865  35.4490629  47.3331447
  73.3597500  36.4382485  47.6888194  73.7182845  35.7560656  47.8309479
  71.4019552  38.7644473  48.9304989  72.1530879  39.0796150  49.2444543
  71.5942128  38.5623644  48.1038911  71.5410966  38.7811855  48.8548385
  70.6219551  36.5835848  30.5853206  71.0018516  36.6015477  29.8004320
  69.8812147  37.0289837  30.4644053  70.5688389  36.6517623  30.4516774
  78.2504842  34.8918039  36.1728784  78.2499068  34.7366696  37.0313061
  78.0461022  35.7381026  36.1170170  78.2204620  34.9938660  36.2916724
  75.9745694  39.5715541  39.8264991  76.4699359  38.8538536  39.7869012
  75.1645470  39.2686339  39.7119478  75.9289587  39.4213187  39.8038717
  71.4204306  43.4213354  31.9761996  70.6115628  43.0980028  31.9295305
  71.9279214  42.7146576  31.9090244  71.3753972  43.2694671  31.9592290
  78.0397513  42.3219229  42.5142120  78.4652584  41.7993650  41.9612545
  77.6754433  42.9200066  41.9930743  78.0484115  42.3329456  42.3551130
  67.6751593  50.6183446  41.2739466  67.9898152  51.4319834  41.2817247
  68.0845006  50.2333665  41.9421625  67.7819691  50.6812148  41.3743557
  74.6276112  46.0353493  38.8443278  75.0987291  46.7493755  39.0133263
  74.9636291  45.4352243  39.3803147  74.7471227  46.0524957  38.9475653
  76.7153097  47.6454806  51.0235350  76.8250062  46.8563367  51.3792097
  77.0443994  47.5560742  50.2209688  76.7805503  47.5160659  50.9577740
  71.5445607  30.8080963  45.8001372  71.6773513  30.0111957  46.1282348
  71.9290760  31.3347366  46.3799648  71.6201936  30.7680880  45.9344875
  75.2650059  45.8271427  45.6070970  74.7171005  45.2029311  45.3391035
  75.7263087  46.0165699  44.8915050  75.2517268  45.7630477  45.4621401
  74.6177962  27.7311289  42.3982466  73.8123926  27.6209019  42.7150304
  74.4884698  27.8323745  41.5412331  74.4798095  27.7294960  42.3190506
  78.0743923  33.8956781  42.9922162  77.4906912  34.3965988  42.5799730
  78.3948217  33.3886338  42.3586486  78.0357098  33.8948616  42.8380670
  70.6138722  32.8097376  33.2680837  71.4354417  32.9795689  33.0262532
  70.1508373  32.9644637  32.5447135  70.6669884  32.8579109  33.1252482
  69.2034054  30.8040138  44.0479266  69.7478467  30.4631265  44.6383608
  69.2570990  31.6625600  44.1900551  69.2923173  30.8795398  44.1561139
  74.8308385  46.8322500  42.1380311  75.6506759  46.6885466  42.3996607
  74.5502463  47.4568699  42.6796749  74.9105128  46.9032852  42.2568251
  73.6612660  59.1464399  37.5128456  73.4262845  58.3132051  37.4060725
  73.7998301  59.4269065  36.6989657  73.6468323  59.0647902  37.3770811
  75.9602748  51.3150130  40.4112764  75.3407779  50.7242777  40.2422778
  75.8586611  51.9061565  39.7777087  75.8540423  51.3154212  40.2917753
  75.6871881  54.8602411  42.6556333  75.5630578  55.4464857  43.2906151
  76.3390165  54.3662607  42.9568608  75.7645530  54.8741216  42.7942262
  75.2229985  64.0250070  38.7884662  74.7397563  64.7500559  38.7644246
  76.0353303  64.3226200  38.8994820  75.2720733  64.1752423  38.8011941
  77.7910526  48.8924675  31.0067562  77.6086099  49.1096556  30.1808555
  78.6536139  49.0063688  31.0626176  77.8915115  48.9414573  30.8922049
  77.4024958  60.7312598  38.4490550  78.2413857  60.9635530  38.4964312
  77.4336727  59.8616909  38.3797585  77.5306675  60.6369544  38.4455195
  78.0277661  61.1513473  42.7503855  78.5675886  61.0084604  43.4207228
  77.3447607  61.5510224  43.1187882  78.0069815  61.1893144  42.9038277
  73.4314806  57.3713764  42.9038277  73.1653221  56.5552880  43.0629267
  73.4453370  57.4166919  42.0333792  73.3939528  57.2570668  42.7991759
  77.3372553  52.1698848  29.5190035  76.6230730  51.8837028  29.9312468
  77.8216521  52.5095474  30.1596423  77.3031916  52.1780498  29.6745670
  73.8408219  58.1572543  40.1850021  73.6583793  58.1319429  39.3322313
  74.5757888  58.6271481  40.2238930  73.9222283  58.2233905  40.0647940
  76.9053971  54.8757546  46.6932130  77.6293943  54.8610577  47.1797025
  77.0070108  55.5852901  46.1954098  77.0272180  54.9782249  46.6910917
  73.8079130  55.0366044  40.3349088  74.3852632  54.9002494  40.9741333
  73.1093192  54.5801828  40.5894672  73.7900151  54.9488310  40.4671377
  69.2837963  53.8877937  37.0496906  69.3698215  53.5109805  37.8310436
  69.9113760  53.5138382  36.5716865  69.3894514  53.7763419  37.0942384
  74.8713922  62.6569670  41.1028267  74.9118067  62.9284521  40.2748047
  75.4308446  63.1811578  41.5186055  74.9597268  62.7745425  41.0420155
  76.3228508  61.2411619  35.9282193  75.4966626  61.4873356  35.8016472
  76.3840499  61.1623699  36.7944251  76.2102675  61.2656568  36.0371137
  76.4671884  50.7838819  34.3294509  76.1796679  50.4140089  33.5926457
  77.1542352  51.2533674  34.0678214  76.5260781  50.7985788  34.1809585
  76.9533172  57.0549839  44.8816054  77.4654269  57.3334093  44.2324814
  76.6669515  57.7939134  45.2478867  76.9868035  57.2052193  44.8405932
  74.0400078  51.5620031  35.1779790  74.1416215  52.3646193  35.5060766
  74.8355965  51.3607367  34.8802871  74.1727984  51.6505930  35.1815146
  74.8563810  51.6767210  42.9200912  74.7149302  50.8251150  43.0445420
  75.1404374  51.7195870  42.0963118  74.8771657  51.5566960  42.8168536
  75.6254116  49.5897557  46.2378362  75.0896305  48.9777915  46.5539130
  75.6871880  50.1645693  46.8912029  75.5549748  49.5844485  46.3813789
  77.7442872  56.9978291  36.0498417  77.9007491  56.9325094  36.9054409
  78.0843465  57.7726844  35.8377097  77.8176106  57.1027489  36.1453011
  74.3177133  54.1813242  36.3659184  74.6976098  54.5997787  35.7019452
  73.7432498  54.7626697  36.6728028  74.2888458  54.3291101  36.3135925
  77.9607935  55.7473646  40.9974679  77.1195941  55.6477521  41.2053573
  78.1697943  56.5169127  41.3488999  77.8672627  55.8465690  41.0801994
  75.4383502  53.3693183  38.8259429  75.0440199  53.4436195  38.0509539
  74.8823618  53.7551130  39.3767791  75.2986314  53.4374958  38.7927089
  77.8516742  58.1417409  42.4166312  77.2604676  58.7826907  42.3869327
  78.6137766  58.5655026  42.3897611  77.8765003  58.2993247  42.4081459
  78.2477365  49.3019407  43.0834329  78.7078847  49.3758336  43.8209453
  78.2933472  50.1000661  42.7334151  78.3227921  49.4313554  43.1407086
  75.0365143  52.9308597  45.4586045  75.8990756  52.8304306  45.3723375
  74.7056926  52.3503307  44.8971618  75.1150339  52.8300224  45.3631451
  78.3966929  51.7551046  42.1196464  77.7719999  51.7669438  41.5122416
  78.0612524  52.2311221  42.7687704  78.2552421  51.8269563  42.1253032
  78.5808678  50.0976165  28.1769149  78.2321482  50.7495890  28.6400698
  78.1005124  50.0833278  27.4493020  78.4578922  50.1919218  28.1380240
  75.1092605  59.8151506  43.5600228  74.5792529  59.1243945  43.6095203
  75.3817698  59.8061692  42.7312936  75.0717327  59.7118638  43.4447644
  77.6657674  53.3644194  44.3371332  77.8251161  52.6087518  44.7423054
  77.4850568  53.9135134  44.9912070  77.6623033  53.3338008  44.4934038
  70.3888447  56.4879270  40.9168576  70.2831896  56.4426115  40.0520660
  69.6388667  56.8333051  41.1982861  70.2624050  56.5320179  40.8305906
  75.4885797  55.7869647  34.2877316  75.9978026  56.3834154  34.6688622
  75.9620069  55.5195621  33.6053736  75.6329172  55.8355462  34.2431839
  77.8476328  52.4225905  37.1550496  77.1288318  52.8390038  37.4223360
  78.2188691  52.9880144  36.6042135  77.7968260  52.5675187  37.1133303
  75.6265663  51.7175458  48.1753088  75.4568253  52.3776833  47.6301295
  75.1831612  51.9282019  48.8965577  75.5364996  51.8461440  48.2014718
  72.5267727  54.6222324  43.4341578  71.9794446  53.9522969  43.5522446
  73.3160105  54.2552172  43.4985045  72.5619911  54.4687310  43.4610279
  71.2854697  53.8343132  40.5887601  71.1076458  53.3819741  41.3142517
  70.9973719  54.6369293  40.7726079  71.2167650  53.8865689  40.7231104
  73.0227166  56.3670855  37.7009360  72.1572686  56.3556546  37.5892131
  73.1225982  56.1801078  38.5480499  72.9101333  56.3376917  37.8098304
  75.9897196  60.0841862  40.9218074  76.5942054  60.0437697  40.2931895
  75.7824509  60.9313014  40.9522130  76.0486094  60.2029865  40.8334190
  71.2248479  59.0676480  40.7916997  71.1272757  58.2572751  41.1007054
  72.0077348  59.0468273  40.4063265  71.3264615  58.9443570  40.7803860
  56.6348517   9.0133236  22.5553397  55.8831416   8.6348774  22.3269442
  57.0834528   9.0451669  21.8072207  56.5898184   8.9618843  22.4110899
  62.0873477   9.4358605  17.9838944  61.7524845  10.1135527  17.5483166
  62.6000347   9.0463916  17.3955815  62.1139058   9.4783183  17.8325735
  61.6277768  11.3872874  23.9250055  62.0117147  11.9559772  23.3854830
  61.5636909  10.6622384  23.4455871  61.6751195  11.3648337  23.7743918
  58.2133273   9.0251628  24.8216169  58.3143636   8.2151982  25.1313297
  57.6175018   8.9308574  24.1915848  58.1405812   8.8916656  24.7742407
  58.0534012  13.9429217  26.2231025  58.6971468  14.3842381  26.6127183
  58.3790268  13.1382643  26.1361284  58.1965841  13.8894412  26.2676502
  51.4098317   5.0471914  24.4468503  51.1748502   4.2139567  24.3400771
  51.5483958   5.3276580  23.6329704  51.3953980   4.9655418  24.3110858
  58.7554592   6.9541192  21.5950887  59.0770433   7.4946399  20.9912195
  59.4026689   6.3837963  21.7273177  58.8980647   6.9500367  21.5257922
  61.0001970   6.7826549  28.5190783  61.2825213   5.9877955  28.2977539
  61.7288130   7.2607137  28.5395844  61.1491534   6.7361146  28.4893798
  52.9715642   9.9257585  25.7224709  52.4883220  10.6508075  25.6984292
  53.7838960  10.2233715  25.8334867  53.0206390  10.0759939  25.7351988
  59.0429796   8.7189766  28.3274523  58.5256738   8.3597181  27.7235831
  59.7404187   8.1951940  28.3380589  59.0695377   8.5887454  28.2404782
  62.6993388   9.1684580  34.2890696  62.7876734   8.9810720  35.1368907
  63.1283100   8.5222009  33.8895543  62.7755490   9.0447588  34.3562448
  60.2663848   8.4515740  33.2708359  59.7034682   8.0388350  33.7948020
  61.0284871   8.3768645  33.6901502  60.2958296   8.3793140  33.4101359
  55.8259839  10.4413761  25.8744989  56.5280418   9.9265750  25.9317745
  55.7457322  10.7687912  26.6791864  55.9183600  10.4127987  26.0017781
  55.1510615   6.6320113  25.3830597  55.9899514   6.8643046  25.4304358
  55.1822384   5.7624424  25.3137632  55.2792332   6.5377059  25.3795241
  55.7763318   7.0520988  29.6843902  56.3161542   6.9092119  30.3547275
  55.0933264   7.4517739  30.0527928  55.7555471   7.0900659  29.8378324
  62.8113447   8.5993599  36.9534480  63.5953864   8.7124447  37.3190222
  62.6110042   7.7734736  37.1493166  62.8979473   8.4940318  37.0368866
  51.1800463   3.2721279  29.8378324  50.9138878   2.4560396  29.9969314
  51.1939027   3.3174434  28.9673839  51.1425185   3.1578184  29.7331806
  62.9683840  10.5103701  30.6000936  62.1699086  10.2703201  30.8574804
  63.4169852  10.5618094  31.3467983  62.9158452  10.4826092  30.7485860
  51.5893876   4.0580058  27.1190068  51.4069449   4.0326944  26.2662360
  52.3243545   4.5278996  27.1578977  51.6707940   4.1241421  26.9987986
  57.9286936   6.3188848  24.1534010  58.5660883   6.0800596  24.6985803
  58.3542008   6.5226007  23.4187171  58.0863102   6.3139859  24.1251167
  52.6199578   8.5577185  28.0368314  52.6603724   8.8292036  27.2088093
  53.1794103   9.0819093  28.4526102  52.7082924   8.6752940  27.9760202
  60.3108408   6.7961271  25.8327796  60.3847416   6.6336443  26.6869646
  61.1277914   6.9851461  25.5888278  60.4424767   6.7998013  25.9225822
  54.0714165   7.1419134  22.8622240  53.2452282   7.3880871  22.7356519
  54.1326156   7.0631215  23.7284298  53.9588332   7.1664083  22.9711184
  58.8512994   9.7596014  20.5641270  59.1411292   9.3684995  19.8400496
  59.5816475   9.9412719  21.0046545  59.0019878   9.7289828  20.5224077
  56.7918909  11.7363397  23.6301419  56.5719205  11.4460751  24.4228086
  56.5713431  11.0778352  23.1019332  56.7266504  11.5963105  23.6690328
  58.9586865  13.1092787  22.4132112  59.6110923  12.5769229  22.6423138
  58.2612474  12.7561439  22.7999986  58.9517583  12.9782309  22.5044280
  55.9068130   5.4631964  21.8199486  56.6614098   5.8445003  22.0334949
  55.3138743   5.9143108  22.2746183  55.9304843   5.5860792  21.9182365
  57.2266357   6.6340525  27.1939602  56.7047110   6.7740817  27.8791466
  57.6140377   5.8751190  27.3841719  57.2070057   6.5426049  27.3240678
  63.4233361   8.3735985  21.1800170  63.1820037   7.6403845  20.7727235
  63.6034694   8.9222842  20.5266504  63.4140985   8.3458376  21.0230393
  57.7912842  10.3401305  30.2769457  57.9402406   9.7804221  29.6242861
  58.5712844  10.4193307  30.6601976  57.9286936  10.2686871  30.2366406
  60.3166143  10.5115948  31.5553948  60.2409814   9.8424759  32.1104736
  60.2456002  11.2133737  32.0694614  60.2946749  10.5160856  31.7130796
  60.9736389   9.0316947  22.3877554  61.7386281   8.7626591  22.0660218
  60.8714479   8.5466958  23.1047617  61.0717885   8.9206512  22.4457381
  59.7057777  13.9184268  30.0131949  60.1953707  13.2195057  29.8307613
  59.1342009  13.6208138  30.6008006  59.6942307  13.7710492  30.0732989
  60.1994123   7.6661042  19.1371855  60.2686943   6.8075580  19.2764856
  60.9782578   7.8832923  18.8090880  60.3246973   7.5713906  19.1089012
  64.5901610  10.0898743  23.3508348  64.1981402   9.7865458  22.6331215
  64.7454682  10.9267833  23.1613302  64.5555200  10.1682580  23.2164846
  65.9700281   8.2372436  30.8786937  66.7592659   7.8861501  30.9989018
  66.1443879   9.0508824  30.6163570  66.1120563   8.3058293  30.8574805
  57.5828607   6.7912282  31.8884421  57.4748962   6.8014344  32.7546479
  57.7924389   7.6167062  31.6989375  57.5978718   6.9153357  31.9888512
  55.6002399   4.0424924  29.3506358  55.0090332   4.6834422  29.3209373
  56.3623423   4.4662541  29.3237658  55.6250660   4.2000763  29.3421506
  65.3591915   9.4934236  26.7838383  65.1611604   9.9825050  26.0894594
  64.7379627   9.6975477  27.3622516  65.2379480   9.5950774  26.7661606
  52.8578261   5.7159022  30.4940275  52.3278186   5.0251461  30.5435249
  53.1303355   5.7069207  29.6652983  52.8202984   5.6126153  30.3787691
  48.1374104   2.3886786  27.8508623  48.0317553   2.3433630  26.9860707
  47.3874324   2.7340566  28.1322908  48.0109706   2.4327694  27.7645953
  61.5394421   6.4442171  31.4472075  61.0319512   6.9978018  31.8912705
  61.2421067   6.5050461  30.6290849  61.4199306   6.5348482  31.3920532
  64.1502202  10.3605429  19.3776018  63.4331511  10.1866291  18.9123256
  64.8008939  10.1258001  18.8451504  64.1404052  10.3001221  19.2305236
  60.7836906  11.3766729  28.3529082  60.5602561  10.6185559  28.7213108
  60.2946750  11.4064751  27.6309521  60.6780356  11.2688954  28.3005823
  59.4315363  11.5967188  25.8066166  59.0175762  10.9341318  25.4170008
  60.1162738  11.7445046  25.2861861  59.4713735  11.5207846  25.6722664
  62.7980658  10.7557273  26.5589783  62.3996941  10.8659543  25.7910603
  62.1831877  10.9639339  27.1416343  62.6479547  10.8030841  26.5321082
  56.3969833  12.0376269  28.2079512  56.7116392  12.8512658  28.2157294
  56.8063246  11.6526488  28.8761672  56.5037931  12.1004972  28.3083604
  63.3494353   7.4546316  25.7783324  63.8205531   8.1686579  25.9473310
  63.6854531   6.8545066  26.3143194  63.4689468   7.4717780  25.8815700
  65.4371337   9.0647629  37.9575396  65.5468303   8.2756190  38.3132144
  65.7662234   8.9753566  37.1549734  65.5023743   8.9353482  37.8917787
  53.7382853   5.9849378  27.8558121  54.3427711   5.9445212  27.2271942
  53.5310166   6.8320530  27.8862177  53.7971750   6.1037380  27.7674237
  63.5526625   8.2515323  29.0720358  64.3724999   8.1078289  29.3336653
  63.2720703   8.8761522  29.6136796  63.6323369   8.3225675  29.1908298
  48.9734135   4.9683995  27.7257044  48.8758414   4.1580267  28.0347101
  49.7563005   4.9475789  27.3403312  49.0750272   4.8451085  27.7143907
  73.2239961  14.9955826  26.7916165  72.3677856  15.1564324  26.8425282
  73.2707614  14.1247890  26.8121226  73.1039072  14.8906627  26.8022231
  67.6081100  24.5318543  22.5553397  66.8564000  24.1534082  22.3269442
  68.0567112  24.5636977  21.8072207  67.5630767  24.4804151  22.4110899
  76.5333677  21.2642351  36.3976621  77.2400444  20.7694382  36.5263556
  76.7221613  21.7051433  35.6679279  76.6661583  21.2560702  36.3085667
  73.0606060  24.9543913  17.9838944  72.7257429  25.6320835  17.5483166
  73.5732931  24.5649224  17.3955815  73.0871641  24.9968491  17.8325735
  72.6010351  26.9058182  23.9250055  72.9849731  27.4745080  23.3854830
  72.5369493  26.1807692  23.4455871  72.6483779  26.8833645  23.7743918
  76.0691782  17.0547870  29.4347817  76.6147742  17.7332956  29.4941786
  76.0108658  16.9135330  28.5749398  76.1407696  17.1339871  29.3159877
  69.1865856  24.5436936  24.8216169  69.2876219  23.7337290  25.1313297
  68.5907602  24.4493882  24.1915848  69.1138395  24.4101964  24.7742407
  77.8456850  18.4832477  20.3081544  77.7296376  19.2340163  20.7373682
  78.6412737  18.2256430  20.5577631  77.9461440  18.5567324  20.4085636
  69.0266596  29.4614525  26.2231025  69.6704052  29.9027689  26.6127183
  69.3522852  28.6567951  26.1361284  69.1698425  29.4079720  26.2676502
  62.3830901  20.5657222  24.4468503  62.1481085  19.7324875  24.3400771
  62.5216541  20.8461888  23.6329704  62.3686563  20.4840726  24.3110858
  64.6820988  12.7342953  27.3452810  64.0626020  12.1435600  27.1762825
  64.5804852  13.3254388  26.7117134  64.5758664  12.7347035  27.2257800
  69.7287176  22.4726500  21.5950887  70.0503017  23.0131707  20.9912195
  70.3759272  21.9023271  21.7273177  69.8713231  22.4685675  21.5257922
  71.7788884  14.4742495  21.6785273  72.4769049  14.6530622  22.1706737
  72.0941216  13.9512834  21.0555663  71.9284221  14.4236267  21.6587284
  64.4090121  16.2795234  29.5896379  64.2848818  16.8657680  30.2246198
  65.0608406  15.7855430  29.8908654  64.4863771  16.2934039  29.7282309
  71.9676819  20.8612940  21.6665065  72.4070455  20.2530040  22.1119838
  71.8181482  20.4820313  20.8950530  72.0098285  20.7151411  21.6184232
  69.4348462  19.4556951  28.8683890  70.0797465  18.9629395  28.5494839
  69.6750239  19.5981738  29.6949969  69.5659047  19.4034394  28.9433424
  71.9734554  22.3011857  28.5190783  72.2557796  21.5063263  28.2977539
  72.7020714  22.7792445  28.5395844  72.1224117  22.2546454  28.4893798
  69.9515747   9.8434891  25.7606548  69.6219077  10.2946035  25.0910247
  69.2760749   9.7651055  26.3079555  69.8026184   9.8986026  25.7429771
  75.5686156  19.2140121  18.6195834  75.4837451  20.0701088  18.7645403
  76.0570539  18.9384445  19.2877993  75.6275053  19.2997442  18.7397916
  76.5004589  15.8324915  20.1193569  75.9716060  16.0484549  20.7790876
  77.0229609  16.5261054  20.0394539  76.4993042  15.9668052  20.2049169
  68.3904197  19.7288132  18.9201037  67.8061412  20.2338163  19.3266901
  67.9874292  19.5030519  18.1797629  68.2443501  19.7696380  18.8706063
  63.9448225  25.4442893  25.7224709  63.4615804  26.1693383  25.6984292
  64.7571544  25.7419023  25.8334867  63.9938973  25.5945247  25.7351988
  70.0162379  24.2375074  28.3274523  69.4989321  23.8782489  27.7235831
  70.7136771  23.7137248  28.3380589  70.0427961  24.1072762  28.2404782
  73.6725971  24.6869888  34.2890696  73.7609317  24.4996028  35.1368907
  74.1015684  24.0407317  33.8895543  73.7488074  24.5632895  34.3562448
  71.2396431  23.9701048  33.2708359  70.6767266  23.5573658  33.7948020
  72.0017455  23.8953953  33.6901502  71.2690880  23.8978448  33.4101359
  66.7992423  25.9599069  25.8744989  67.5013002  25.4451058  25.9317745
  66.7189906  26.2873220  26.6791864  66.8916183  25.9313295  26.0017781
  67.8471329  16.1974656  35.0025404  68.0191833  16.0880550  35.8510685
  68.3840687  16.8429061  34.7656596  67.9516333  16.2766657  35.0930500
  66.5128766  10.3117499  17.9407609  66.3304339  10.5289379  17.1148602
  67.3754379  10.4256511  17.9966223  66.6133356  10.3607397  17.8262096
  66.1243198  22.1505421  25.3830597  66.9632097  22.3828354  25.4304358
  66.1554967  21.2809732  25.3137632  66.2524916  22.0562367  25.3795241
  66.7495901  22.5706296  29.6843902  67.2894126  22.4277427  30.3547275
  66.0665847  22.9703047  30.0527928  66.7288055  22.6085967  29.8378324
  76.1736786  18.2497297  24.8788927  76.9294301  18.6828811  24.9177835
  76.2799110  17.6002066  25.4523563  76.3006957  18.2174781  24.9686952
  73.7846031  24.1178907  36.9534480  74.5686447  24.2309755  37.3190222
  73.5842625  23.2920044  37.1493166  73.8712056  24.0125626  37.0368866
  62.1533046  18.7906587  29.8378324  61.8871461  17.9745704  29.9969314
  62.1671610  18.8359742  28.9673839  62.1157768  18.6763492  29.7331806
  66.0590793  13.5891671  16.4530082  65.3448970  13.3029851  16.8652514
  66.5434762  13.9288297  17.0936469  66.0250156  13.5973321  16.6085717
  66.9031653  12.3284965  32.4845331  66.2103449  11.8581945  32.7306063
  67.5191980  12.1023270  33.0587039  66.8916182  12.2252097  32.6054484
  73.9416424  26.0289009  30.6000936  73.1431670  25.7888509  30.8574804
  74.3902436  26.0803402  31.3467983  73.8891035  26.0011400  30.7485860
  73.2338111  22.0921625  16.8291890  73.6489260  21.7606649  16.1376386
  72.4030041  21.8590527  16.7012027  73.1726120  22.0092881  16.7082737
  62.5626460  19.5765366  27.1190068  62.3802033  19.5512252  26.2662360
  63.2976129  20.0464304  27.1578977  62.6440524  19.6426728  26.9987986
  65.6272211  16.2950369  33.6272177  66.3512184  16.2803400  34.1137071
  65.7288348  17.0045724  33.1294145  65.7490421  16.3975072  33.6250963
  73.0017161  19.7749454  38.4921124  72.2090142  20.0892966  38.6773743
  73.1166088  19.9900922  37.6541908  72.9012571  19.8533290  38.3959458
  75.6748480  16.4983445  22.7816140  75.7695334  17.2372739  23.2355765
  75.0507323  16.0700920  23.2150704  75.5957510  16.5444765  22.9124287
  73.9300954  19.6769657  33.4306420  74.5039815  19.0396902  33.5854984
  73.8515757  19.6773740  32.5616078  74.0034189  19.5834769  33.3252831
  69.2864672  18.1092923  25.4827618  69.0283917  17.2764657  25.4558917
  69.3413155  18.3350536  24.6420118  69.2564450  18.0190694  25.3547755
  68.2599384  15.6630685  25.9692513  67.6848976  15.8222853  26.6056474
  67.8835061  15.0266094  25.5060963  68.1202197  15.5928498  25.9947071
  71.9272673  14.1354034  30.8284891  71.5387106  13.7108252  30.1737082
  71.2627371  14.3836184  31.3361918  71.7719601  14.1092755  30.8072759
  58.0056203  15.3070760  23.9836953  58.0916455  14.9302628  24.7650483
  58.6332001  14.9331205  23.5056911  58.1112754  15.1956242  24.0282430
  73.0311611  18.3652639  19.0261698  73.8452250  18.6567532  18.9144469
  72.9670753  17.7112501  18.4519991  73.1414350  18.3117834  18.9250535
  68.9019520  21.8374156  24.1534010  69.5393467  21.5985904  24.6985803
  69.3274591  22.0411315  23.4187171  69.0595686  21.8325167  24.1251167
  69.5422335  17.0576446  18.4908899  69.9267487  16.8384153  19.2425445
  69.2933955  17.8839392  18.6209976  69.5624407  17.1474592  18.6209976
  69.7090875  10.3382861  38.2071484  69.3944316  11.1082424  37.9441046
  69.3880808   9.7753117  37.6223711  69.6149794  10.3693130  38.0812834
  71.2840992  22.3146579  25.8327796  71.3580000  22.1521751  26.6869646
  72.1010498  22.5036769  25.5888278  71.4157350  22.3183321  25.9225822
  65.0446748  22.6604442  22.8622240  64.2184866  22.9066179  22.7356519
  65.1058739  22.5816523  23.7284298  64.9320915  22.6849391  22.9711184
  67.2622772   8.7273383  23.8217680  66.3945197   8.7995982  23.8875289
  67.5497976   9.5295462  24.0105655  67.1762520   8.8567530  23.8592447
  69.8245577  25.2781322  20.5641270  70.1143876  24.8870303  19.8400496
  70.5549058  25.4598027  21.0046545  69.9752462  25.2475136  20.5224077
  70.4140322  20.0799068  31.6494400  69.9152016  20.7914836  31.7279289
  71.2240547  20.3999735  31.6112563  70.4596429  20.2325917  31.6550969
  67.7651493  27.2548705  23.6301419  67.5451788  26.9646059  24.4228086
  67.5446015  26.5963660  23.1019332  67.6999087  27.1148413  23.6690328
  66.6768440  19.3422021  25.8957121  66.3881689  18.7159492  26.4302848
  67.5451788  19.2842308  25.9621802  66.7628692  19.2409565  25.9848076
  77.4646338  14.4856804  26.2139103  77.1211104  13.7647140  26.5646353
  77.5639380  14.2770656  25.3717461  77.4288381  14.3481008  26.1410783
  69.9319449  28.6278094  22.4132112  70.5843507  28.0954537  22.6423138
  69.2345057  28.2746747  22.7999986  69.9250167  28.4967617  22.5044280
  66.8800713  20.9817272  21.8199486  67.6346681  21.3630311  22.0334949
  66.2871326  21.4328416  22.2746183  66.9037427  21.1046099  21.9182365
  77.9259367  20.9482508  21.7563091  78.4917400  21.6075718  21.6721634
  77.2787270  21.2932207  22.2279493  77.9138123  21.0964450  21.8135848
  69.3407380  12.9380112  36.9456698  68.5307156  13.2437892  36.8346541
  69.8182067  13.6585695  37.0609283  69.2910859  13.0894714  36.9463770
  68.1998940  22.1525833  27.1939602  67.6779694  22.2926125  27.8791466
  68.5872960  21.3936498  27.3841719  68.1802641  22.0611357  27.3240678
  65.1890124  12.2031642  21.2634556  64.9014920  11.8332913  20.5266504
  65.8760592  12.6726497  21.0018261  65.2479021  12.2178612  21.1149632
  74.3965945  23.8921293  21.1800170  74.1552621  23.1589153  20.7727235
  74.5767278  24.4408150  20.5266504  74.3873569  23.8643684  21.0230393
  69.6265266  19.1829852  22.5921093  69.4308048  19.7904587  21.9981396
  69.8499611  18.4897796  22.1112767  69.6299907  19.1707378  22.4337173
  68.0243796  16.0684590  22.7101961  68.7466448  16.2325748  22.2505767
  67.5451788  16.7894255  22.6041301  68.0607526  16.1982820  22.6267575
  75.9837303  12.4048389  28.0898646  75.1448404  12.4309668  27.8536909
  76.0541671  13.0519125  28.6703993  75.8705697  12.5044515  28.1407763
  65.6751412  18.4742663  31.8156101  66.1872509  18.7526916  31.1664861
  65.3887755  19.2131957  32.1818914  65.7086276  18.6245016  31.7745979
  62.7618319  12.9812855  22.1119837  62.8634455  13.7839016  22.4400813
  63.5574205  12.7800191  21.8142918  62.8946224  13.0698753  22.1155193
  69.1935138  10.5669051  31.8757142  69.0018335  10.5824186  32.7256566
  70.0433734  10.7632726  31.8523797  69.2910860  10.5983403  31.9980437
  63.5782051  13.0960033  29.8540959  63.4367543  12.2443973  29.9785467
  63.8622614  13.1388693  29.0303165  63.5989897  12.9759783  29.7508583
  73.7320643  14.9327123  23.9985447  73.4855357  14.8522874  24.8322236
  74.0605766  14.1480591  23.8047975  73.7441887  14.8053388  24.0932970
  77.6268692  21.6410482  27.7872228  77.4883051  22.3391528  28.2920971
  76.8468690  21.4859139  27.4308410  77.4911919  21.7210649  27.8098503
  75.9646777  17.9406858  34.0394610  75.9594816  17.0686674  34.0437037
  76.6707771  18.1395027  33.5664066  76.0691781  17.8410732  33.9701645
  69.6917670  17.6683842  33.4108430  69.8361046  18.2485050  32.7751540
  70.0393319  18.0460138  34.1158285  69.7645132  17.8104546  33.4207425
  71.8637588  16.8674010  31.1933562  71.1160902  17.0605024  30.7881840
  72.0179113  16.0419230  30.9557683  71.7760015  16.7739121  31.0978968
  68.7645425  25.8586613  30.2769457  68.9134989  25.2989529  29.6242861
  69.5445428  25.9378615  30.6601976  68.9019519  25.7872179  30.2366406
  71.2898726  26.0301256  31.5553948  71.2142397  25.3610067  32.1104736
  71.2188585  26.7319044  32.0694614  71.2679333  26.0346164  31.7130796
  72.1039365  10.7624561  32.0828966  72.5611979  11.4948535  32.2101758
  72.1795694  10.3391026  32.8416221  72.1830335  10.8081799  32.2130042
  64.3472356  11.0090380  33.1718409  63.8114546  10.3970739  33.4879177
  64.4090121  11.5838516  33.8252076  64.2767989  11.0037308  33.3153836
  71.9468973  24.5502255  22.3877554  72.7118864  24.2811899  22.0660218
  71.8447063  24.0652266  23.1047617  72.0450468  24.4391820  22.4457381
  69.9821743  12.7526665  28.9270790  69.1917818  12.5718125  29.2488125
  70.3782366  11.9753617  28.9101084  69.9238619  12.6114126  28.9723338
  75.3665429  20.3869095  26.6530235  74.6910431  20.1554327  27.1543623
  75.3757805  19.7790278  26.0272341  75.2683934  20.2628020  26.6346388
  72.4959573  15.2286924  33.4094289  72.4318714  16.0896880  33.2814425
  72.6356761  14.9118917  32.6089840  72.5075043  15.3087090  33.2722501
  77.3682164  23.2434227  18.8840413  77.4502001  24.0501213  18.5601864
  77.8531906  23.2630186  19.6081187  77.4519322  23.3654890  18.9427312
  71.1778667  17.9219063  27.5510491  70.7540916  18.1223562  26.8149510
  71.0023522  17.0747911  27.6634791  71.0889548  17.8267845  27.4584181
  70.6790360  29.4369576  30.0131949  71.1686291  28.7380365  29.8307613
  70.1074593  29.1393446  30.6008006  70.6674890  29.2895800  30.0732989
  66.4661112  18.4171115  22.9838464  66.6225731  18.3517917  23.8394456
  66.8061705  19.1919667  22.7717144  66.5394347  18.5220313  23.0793058
  73.0040256  17.7928998  21.8531827  73.5455802  17.2899379  22.3170448
  73.3186816  17.7394193  21.0421312  73.1304654  17.7108419  21.8015639
  76.8757364  22.0031645  38.9658739  77.6892229  21.7316794  39.1263872
  76.7152330  21.7039185  38.1618935  76.9727312  21.9186571  38.8704145
  71.1726706  23.1846350  19.1371855  71.2419527  22.3260888  19.2764856
  71.9515161  23.4018231  18.8090880  71.2979556  23.0899214  19.1089012
  74.1529526  12.6865303  31.9054128  74.3671495  12.0476217  31.3517482
  73.5363425  13.1311126  31.4761989  74.0934855  12.6575446  31.7604559
  75.5634194  25.6084051  23.3508348  75.1713986  25.3050766  22.6331215
  75.7187266  26.4453141  23.1613302  75.5287784  25.6867888  23.2164846
  63.0395373  15.6006065  23.2999231  63.4194338  16.0190610  22.6359498
  62.4650738  16.1819521  23.6068074  63.0106698  15.7483924  23.2475972
  76.3168614  14.2954368  32.8437435  75.5045296  13.9880258  32.9250607
  76.7758548  13.8153368  33.4080147  76.2648999  14.1790860  32.9392029
  75.7273869  22.1734040  23.2914379  75.3688523  22.3448683  24.0678411
  75.2412579  22.6347245  22.7342378  75.6032565  22.2673011  23.3239648
  70.5162234  17.8533205  15.8314613  70.8054759  18.6298088  16.1058188
  70.6034033  17.3421937  16.5329113  70.5716490  17.8925124  15.9757111
  73.4122121  15.7014439  37.6266137  73.8821753  16.3256556  38.0134011
  73.4584002  15.0331415  38.1859352  73.4889997  15.6949120  37.7666208
  76.8878608  23.0637936  34.2381580  77.5258328  22.5698131  33.9044036
  76.2452699  22.9915336  33.6533807  76.8872834  22.9796944  34.1023935
  78.6135608  14.9127082  28.8047496  78.1863216  14.8253430  28.0495595
  77.9761661  15.0204857  29.3902340  78.4565215  14.9159742  28.7792937
  76.9432865  23.7557744  30.8786937  77.7325243  23.4046809  30.9989018
  77.1176462  24.5694132  30.6163570  77.0853146  23.8243601  30.8574805
  66.6826175  17.1666470  27.9314725  65.8414182  17.0670344  28.1393619
  66.8916183  17.9361950  28.2829046  66.5890868  17.2658513  28.0142040
  64.1601742  14.7886007  25.7599476  63.7658440  14.8629019  24.9849586
  63.6041859  15.1743953  26.3107838  64.0204554  14.8567781  25.7267136
  70.4942840  15.0947869  27.1812323  70.1905977  14.5403857  27.7822731
  69.7922261  15.2740079  26.6940357  70.3459050  15.0392651  27.1982029
  69.5508937  12.4048389  21.7457025  69.8268671  11.6867301  21.3334592
  70.1507606  13.0033309  21.5378131  69.6802202  12.3868759  21.6537786
  68.5561191  22.3097590  31.8884421  68.4481546  22.3199652  32.7546479
  68.7656972  23.1352370  31.6989375  68.5711302  22.4338664  31.9888512
  66.5734983  19.5610232  29.3506358  65.9822916  20.2019730  29.3209373
  67.3356006  19.9847849  29.3237658  66.5983243  19.7186070  29.3421506
  66.9695606  10.7212230  30.0174376  67.4297087  10.7951159  30.7549500
  67.0151712  11.5193484  29.6674197  67.0446161  10.8506377  30.0747132
  68.6178955  11.3878925  34.5846403  68.2264520  10.7412272  35.0202181
  68.7864818  11.9790360  35.2040658  68.5849866  11.3793193  34.7409109
  76.3324499  25.0119544  26.7838383  76.1344188  25.5010358  26.0894594
  75.7112210  25.2160785  27.3622516  76.2112063  25.1136082  26.7661606
  70.3932477  16.7804440  21.1248627  71.1374522  17.1678717  21.3631577
  70.5393174  15.9361866  21.2889115  70.5243063  16.7134913  21.1842597
  73.3810353  12.3529914  27.0242546  72.9070308  11.8271676  27.5347857
  73.7528489  11.8059387  26.4557408  73.3660242  12.1945910  27.0157694
  63.7583383  14.3501420  32.3926092  64.6208996  14.2497130  32.3063422
  63.4275166  13.7696130  31.8311664  63.8368580  14.2493047  32.2971498
  67.1185169  13.1743869  29.0536510  66.4938240  13.1862261  28.4462463
  66.7830764  13.6504045  29.7027751  66.9770661  13.2462386  29.0593079
  67.3026918  11.5168988  15.1109195  66.9539722  12.1688713  15.5740745
  66.8223364  11.5026101  14.3833067  67.1797162  11.6112042  15.0720287
  63.8310845  21.2344330  30.4940275  63.3010769  20.5436768  30.5435249
  64.1035938  21.2254515  29.6652983  63.7935567  21.1311461  30.3787691
  74.8630935  21.8170032  19.2177957  75.5865134  22.2828145  19.0742531
  74.4231526  21.8843642  18.4675554  74.9046628  21.8953869  19.0862739
  74.0317090  18.6767574  30.4678646  73.4174084  18.1325624  30.7627282
  74.5484375  18.1631811  29.9884462  74.0172753  18.5203983  30.4402875
  73.2713388  19.7471844  28.2022945  72.8440996  19.1221563  27.7688380
  73.2638332  19.4646766  29.0281952  73.2072529  19.6124625  28.2602772
  66.3875915  14.7837017  31.2711379  66.5469401  14.0280341  31.6763101
  66.2068808  15.3327957  31.9252117  66.3841274  14.7530831  31.4274085
  71.5999097  10.6240599  28.4165479  71.6241585  10.0900711  27.7278259
  71.8510571  10.1157908  29.0791070  71.6409016  10.4701503  28.4130124
  59.1106687  17.9072094  27.8508623  59.0050136  17.8618938  26.9860707
  58.3606907  18.2525874  28.1322908  58.9842290  17.9513002  27.7645953
  67.8800420   9.3511417  27.7971223  67.9198791   9.8520624  28.5105931
  67.0550084   9.4421811  27.5277146  67.7639945   9.4393233  27.8621761
  70.0630032  18.9172157  35.8991518  69.2125663  19.0543871  36.0349163
  70.2258160  18.1835935  36.3439220  69.9613896  18.8286258  35.9847117
  69.3014783  15.8671927  30.0945122  68.4706713  16.0345745  29.8880370
  69.2466300  15.4907878  30.8794008  69.1704198  15.8361658  30.1793650
  67.1098566   9.3580820  35.7301533  67.7351270   8.8142953  36.0030965
  66.6549046   8.8775737  35.1609323  67.1346827   9.2070301  35.6863127
  67.6750827  14.1427518  20.6235240  67.8153788  14.6399983  21.3263881
  68.1733360  13.4413813  20.7649454  67.7691908  14.1129497  20.7486819
  67.7051049  15.0094629  17.9527817  68.3396129  15.6055054  17.8877279
  67.7876660  14.7098087  18.7673687  67.8107600  15.0535538  18.0630903
  69.2830032  10.9408605  17.9273259  69.6045873  10.4611687  17.2732521
  69.5456976  11.7508251  17.7364070  69.3696057  10.9898503  17.8028751
  72.5127005  21.9627479  31.4472075  72.0052096  22.5163326  31.8912705
  72.2153651  22.0235769  30.6290849  72.3931890  22.0533790  31.3920532
  64.2104037  17.2062470  21.2217363  64.7196266  17.8026978  21.6028668
  64.6838309  16.9388444  20.5393782  64.3547413  17.2548286  21.1771886
  75.1234785  25.8790737  19.3776018  74.4064095  25.7051599  18.9123256
  75.7741523  25.6443309  18.8451504  75.1136636  25.8186529  19.2305236
  77.7082756  14.7555325  23.1217323  77.0373946  15.2985028  22.9930389
  78.4022507  15.2250181  22.8799018  77.7111624  14.9053597  23.0672851
  71.7569490  26.8952037  28.3529082  71.5335144  26.1370867  28.7213108
  71.2679333  26.9250059  27.6309521  71.6512939  26.7874262  28.3005823
  66.5694569  13.8418729  24.0890543  65.8506558  14.2582861  24.3563407
  66.9406931  14.4072967  23.5382181  66.5186501  13.9868010  24.0473350
  75.8694150  14.4746578  29.9792539  75.8492077  14.2929873  30.8327318
  75.9173350  15.3458596  29.9552123  75.8728791  14.5763116  30.1015834
  73.8140479  21.0633770  35.9041015  73.7736334  20.4183447  35.3186171
  74.6263798  21.0070387  36.2166428  73.9283633  20.9592736  35.8637965
  70.4047947  27.1152495  25.8066166  69.9908346  26.4526626  25.4170008
  71.0895321  27.2630354  25.2861861  70.4446319  27.0393154  25.6722664
  73.7713241  26.2742581  26.5589783  73.3729524  26.3844851  25.7910603
  73.1564461  26.4824647  27.1416343  73.6212130  26.3216149  26.5321082
  72.3441143  12.8816729  19.4263923  71.7505982  13.2033725  18.8748490
  72.3816421  12.0357824  19.2185029  72.2615532  12.8041057  19.3146694
  75.2198960  12.8396233  22.8565673  74.9912653  12.8628935  22.0144031
  75.4797036  12.0153700  22.9760683  75.2245148  12.7212313  22.7490871
  69.5018188  14.6930706  32.4590773  68.9897091  14.0851889  32.8175804
  69.3297684  15.4087299  32.9264749  69.4007825  14.7094005  32.5806997
  64.3483903  13.1368281  35.1093135  64.1786493  13.7969656  34.5641342
  63.9049853  13.3474843  35.8305624  64.2583236  13.2654264  35.1354764
  68.2743722  11.3772779  24.1519869  68.7501089  11.7389859  23.5170050
  67.7732322  12.0329247  24.4320011  68.2709081  11.5266968  24.0996610
  73.3787259  12.6154951  34.8993029  73.9358689  12.3868760  34.2671494
  73.0548324  13.3760616  34.6228241  73.4133669  12.6938787  34.7649526
  61.2485967  16.0415147  30.3681625  60.7012687  15.3715793  30.4862493
  62.0378346  15.6744995  30.4325092  61.2838151  15.8880133  30.3950325
  71.0970376  15.7022604  35.8645036  71.8481703  16.0174281  36.1784590
  71.2892952  15.5001775  35.0378958  71.2361790  15.7189986  35.7888432
  70.3170375  13.5213979  17.5193253  70.6969340  13.5393608  16.7344367
  69.5762971  13.9667968  17.3984100  70.2639213  13.5895754  17.3856821
  60.0072937  15.2535955  27.5227648  59.8294698  14.8012564  28.2482563
  59.7191959  16.0562116  27.7066125  59.9385890  15.3058513  27.6571151
  75.6696518  16.5093672  26.7605038  76.1650183  15.7916667  26.7209058
  74.8596294  16.2064470  26.6459525  75.6240411  16.3591318  26.7378764
  71.1155129  20.3591485  18.9102043  70.3066452  20.0358159  18.8635352
  71.6230038  19.6524708  18.8430291  71.0704796  20.2072802  18.8932337
  61.7445407  17.7863679  24.6349407  60.8790926  17.7749369  24.5232178
  61.8444223  17.5993901  25.4820546  61.6319574  17.7569740  24.7438351
  77.7348337  19.2597360  29.4482167  78.1603408  18.7371782  28.8952592
  77.3705257  19.8578197  28.9270790  77.7434939  19.2707587  29.2891177
  67.3702417  27.5561577  28.2079512  67.6848976  28.3697966  28.2157294
  67.7795830  27.1711796  28.8761672  67.4770515  27.6190280  28.3083604
  74.3226936  22.9731624  25.7783324  74.7938114  23.6871887  25.9473310
  74.6587115  22.3730374  26.3143194  74.4422051  22.9903088  25.8815700
  76.4103921  24.5832937  37.9575396  76.5200886  23.7941498  38.3132144
  76.7394817  24.4938874  37.1549734  76.4756327  24.4538790  37.8917787
  74.9600883  22.7649558  32.5411017  74.4121829  22.1407442  32.2731082
  75.4213911  22.9543830  31.8255096  74.9468092  22.7008608  32.3961448
  70.3089546   9.7475507  20.2020884  71.1305240   9.9173820  19.9602579
  69.8459197   9.9022768  19.4787182  70.3620708   9.7957240  20.0592528
  64.7115437  21.5034686  27.8558121  65.3160294  21.4630520  27.2271942
  64.5042749  22.3505838  27.8862177  64.7704334  21.6222688  27.7674237
  74.5259209  23.7700631  29.0720358  75.3457583  23.6263597  29.3336653
  74.2453287  24.3946830  29.6136796  74.6055952  23.8410983  29.1908298
  59.9466719  20.4869303  27.7257044  59.8490997  19.6765575  28.0347101
  60.7295589  20.4661097  27.3403312  60.0482856  20.3636393  27.7143907
  73.3563484  36.0842530  24.4468503  73.1213669  35.2510182  24.3400771
  73.4949125  36.3647196  23.6329704  73.3419147  36.0026034  24.3110858
  75.6553572  28.2528261  27.3452810  75.0358603  27.6620908  27.1762825
  75.5537435  28.8439696  26.7117134  75.5491247  28.2532343  27.2257800
  75.3822705  31.7980542  29.5896379  75.2581402  32.3842988  30.2246198
  76.0340989  31.3040738  29.8908654  75.4596354  31.8119347  29.7282309
  74.9180809  40.9628201  25.7224709  74.4348387  41.6878691  25.6984292
  75.7304127  41.2604331  25.8334867  74.9671557  41.1130555  25.7351988
  77.7725006  41.4784377  25.8744989  78.4745586  40.9636366  25.9317745
  77.6922489  41.8058528  26.6791864  77.8648767  41.4498603  26.0017781
  77.4861350  25.8302807  17.9407609  77.3036923  26.0474687  17.1148602
  78.3486963  25.9441819  17.9966223  77.5865939  25.8792704  17.8262096
  77.0975782  37.6690729  25.3830597  77.9364681  37.9013662  25.4304358
  77.1287551  36.7995040  25.3137632  77.2257499  37.5747675  25.3795241
  77.7228485  38.0891604  29.6843902  78.2626710  37.9462735  30.3547275
  77.0398431  38.4888355  30.0527928  77.7020639  38.1271275  29.8378324
  73.1265630  34.3091895  29.8378324  72.8604045  33.4931011  29.9969314
  73.1404194  34.3545050  28.9673839  73.0890352  34.1948800  29.7331806
  77.0323377  29.1076979  16.4530082  76.3181554  28.8215159  16.8652514
  77.5167345  29.4473605  17.0936469  76.9982740  29.1158629  16.6085717
  77.8764236  27.8470273  32.4845331  77.1836033  27.3767253  32.7306063
  78.4924563  27.6208578  33.0587039  77.8648766  27.7437405  32.6054484
  73.5359043  35.0950674  27.1190068  73.3534617  35.0697560  26.2662360
  74.2708712  35.5649612  27.1578977  73.6173107  35.1612036  26.9987986
  76.6004795  31.8135677  33.6272177  77.3244767  31.7988708  34.1137071
  76.7020932  32.5231032  33.1294145  76.7223004  31.9160380  33.6250963
  73.5029954  31.9744175  27.2689135  74.0803456  31.8380626  27.9081380
  72.8044015  31.5179959  27.5234719  73.4850975  31.8866441  27.4011424
  68.9788787  30.8256068  23.9836953  69.0649039  30.4487936  24.7650483
  69.6064584  30.4516513  23.5056911  69.0845338  30.7141550  24.0282430
  74.5664746  39.5947801  28.0368314  74.6068891  39.8662652  27.2088093
  75.1259270  40.1189709  28.4526102  74.6548092  39.7123556  27.9760202
  76.0179332  38.1789750  22.8622240  75.1917450  38.4251487  22.7356519
  76.0791323  38.1001831  23.7284298  75.9053499  38.2034699  22.9711184
  78.2355356  24.2458691  23.8217680  77.3677781  24.3181290  23.8875289
  78.5230560  25.0480770  24.0105655  78.1495104  24.3752838  23.8592447
  78.7384076  42.7734012  23.6301419  78.5184372  42.4831367  24.4228086
  78.5178599  42.1148967  23.1019332  78.6731671  42.6333721  23.6690328
  77.6501024  34.8607329  25.8957121  77.3614272  34.2344800  26.4302848
  78.5184372  34.8027616  25.9621802  77.7361276  34.7594873  25.9848076
  77.8533297  36.5002580  21.8199486  78.6079265  36.8815619  22.0334949
  77.2603910  36.9513724  22.2746183  77.8770011  36.6231407  21.9182365
  76.1622708  27.7216950  21.2634556  75.8747503  27.3518221  20.5266504
  76.8493176  28.1911805  21.0018261  76.2211605  27.7363919  21.1149632
  76.6483996  33.9927971  31.8156101  77.1605093  34.2712224  31.1664861
  76.3620339  34.7317265  32.1818914  76.6818859  34.1430324  31.7745979
  73.7350902  28.4998163  22.1119837  73.8367039  29.3024324  22.4400813
  74.5306789  28.2985498  21.8142918  73.8678808  28.5884061  22.1155193
  74.5514634  28.6145341  29.8540959  74.4100126  27.7629281  29.9785467
  74.8355198  28.6574001  29.0303165  74.5722480  28.4945091  29.7508583
  75.3204940  26.5275688  33.1718409  74.7847129  25.9156047  33.4879177
  75.3822704  27.1023824  33.8252076  75.2500572  26.5222616  33.3153836
  77.4393695  33.9356422  22.9838464  77.5958315  33.8703225  23.8394456
  77.7794289  34.7104975  22.7717144  77.5126930  34.0405621  23.0793058
  74.0127957  31.1191373  23.2999231  74.3926922  31.5375918  22.6359498
  73.4383322  31.7004829  23.6068074  73.9839282  31.2669232  23.2475972
  77.6558759  32.6851778  27.9314725  76.8146765  32.5855652  28.1393619
  77.8648766  33.4547258  28.2829046  77.5623451  32.7843821  28.0142040
  75.1334325  30.3071315  25.7599476  74.7391023  30.3814326  24.9849586
  74.5774442  30.6929261  26.3107838  74.9937138  30.3753089  25.7267136
  77.5467566  35.0795540  29.3506358  76.9555500  35.7205038  29.3209373
  78.3088590  35.5033157  29.3237658  77.5715827  35.2371378  29.3421506
  77.9428189  26.2397538  30.0174376  78.4029671  26.3136467  30.7549500
  77.9884296  27.0378792  29.6674197  78.0178745  26.3691685  30.0747132
  74.7315967  29.8686728  32.3926092  75.5941580  29.7682438  32.3063422
  74.4007750  29.2881438  31.8311664  74.8101163  29.7678355  32.2971498
  78.0917753  28.6929177  29.0536510  77.4670823  28.7047569  28.4462463
  77.7563348  29.1689353  29.7027751  77.9503245  28.7647694  29.0593079
  78.2759502  27.0354296  15.1109195  77.9272306  27.6874021  15.5740745
  77.7955947  27.0211409  14.3833067  78.1529746  27.1297349  15.0720287
  74.8043428  36.7529637  30.4940275  74.2743353  36.0622076  30.5435249
  75.0768522  36.7439823  29.6652983  74.7668151  36.6496769  30.3787691
  77.3608498  30.3022325  31.2711379  77.5201985  29.5465649  31.6763101
  77.1801392  30.8513265  31.9252117  77.3573857  30.2716139  31.4274085
  70.0839271  33.4257402  27.8508623  69.9782720  33.3804246  26.9860707
  69.3339491  33.7711182  28.1322908  69.9574874  33.4698310  27.7645953
  78.0831150  24.8766128  35.7301533  78.7083853  24.3328260  36.0030965
  77.6281630  24.3961045  35.1609323  78.1079410  24.7255609  35.6863127
  75.1836621  32.7247778  21.2217363  75.6928850  33.3212286  21.6028668
  75.6570893  32.4573752  20.5393782  75.3279996  32.7733594  21.1771886
  77.5427152  29.3604037  24.0890543  76.8239141  29.7768169  24.3563407
  77.9139515  29.9258275  23.5382181  77.4919084  29.5053318  24.0473350
  75.3216486  28.6553589  35.1093135  75.1519077  29.3154964  34.5641342
  74.8782436  28.8660151  35.8305624  75.2315820  28.7839572  35.1354764
  72.2218551  31.5600455  30.3681625  71.6745270  30.8901101  30.4862493
  73.0110929  31.1930303  30.4325092  72.2570735  31.4065441  30.3950325
  70.9805520  30.7721263  27.5227648  70.8027282  30.3197872  28.2482563
  70.6924543  31.5747424  27.7066125  70.9118474  30.8243821  27.6571151
  72.7177990  33.3048986  24.6349407  71.8523510  33.2934677  24.5232178
  72.8176806  33.1179209  25.4820546  72.6052157  33.2755048  24.7438351
  78.3435000  43.0746885  28.2079512  78.6581559  43.8883274  28.2157294
  78.7528414  42.6897104  28.8761672  78.4503098  43.1375587  28.3083604
  75.6848020  37.0219994  27.8558121  76.2892878  36.9815828  27.2271942
  75.4775333  37.8691146  27.8862177  75.7436918  37.1407996  27.7674237
  70.9199303  36.0054611  27.7257044  70.8223581  35.1950883  28.0347101
  71.7028172  35.9846404  27.3403312  71.0215439  35.8821701  27.7143907
   4.5125252  22.7471205  60.9608455   4.4819256  23.6015841  61.1326724
   5.1106601  22.4466497  61.5194598   4.5962410  22.8287701  61.0683257
   2.3341827  25.3223507  59.2326764   2.2181353  26.0731193  59.6618902
   3.1297713  25.0647460  59.4822851   2.4346416  25.3958353  59.3330856
   0.9889565  22.6715945  59.0438789   0.4601037  22.8875579  59.7036096
   1.5114585  23.3652083  58.9639759   0.9878018  22.8059082  59.1294389
   6.4437618  28.2462249  64.4171834   5.6135321  28.4572893  64.5805250
   6.3946871  27.4199304  64.1414117   6.3144354  28.1551856  64.4009199
   3.7001934  28.9161604  64.5536550   3.2637165  28.9198346  65.3095521
   3.3664849  29.5967103  64.1216127   3.5864553  29.0174060  64.6017382
   6.8346280  25.6342524  63.4456187   7.4962714  25.0733192  63.3452095
   6.1937692  25.1394555  63.7708878   6.8375147  25.4778933  63.4788527
   3.1211110  26.6507906  63.1868176   3.3566700  26.7953105  62.3595026
   3.2700674  27.4150314  63.5799689   3.1776914  26.7846961  63.1231779
   4.9501567  25.4909572  61.0237779   5.2809784  26.0237212  60.4177874
   5.5234655  25.5448460  61.6799730   5.0835246  25.5779141  61.0315561
   2.4144343  27.7873538  60.6808311   2.9802376  28.4466748  60.5966854
   1.7672247  28.1323237  61.1524713   2.4023100  27.9355480  60.7381068
   3.6107041  27.8379766  57.4733948   3.2313850  27.0516904  57.4663237
   2.9473287  28.3866623  57.3305592   3.4565516  27.8024590  57.4514745
   1.8567140  30.0825257  57.8085633   1.9386977  30.8892243  57.4847084
   2.3416882  30.1021216  58.5326407   1.9404298  30.2045920  57.8672532
   5.9940060  27.6885577  58.8678094   6.3773666  28.4376934  59.0976191
   5.1984174  27.9351397  58.6090083   5.9333842  27.8355271  58.8635667
  15.4857836  38.2656512  60.9608455  15.4551840  39.1201149  61.1326724
  16.0839184  37.9651805  61.5194598  15.5694994  38.3473009  61.0683257
   8.6857521  37.3532163  65.7161385   7.8295416  37.5140662  65.7670502
   8.7325174  36.4824227  65.7366446   8.5656632  37.2482965  65.7267451
   3.0698660  46.8894881  61.4798617   2.3181560  46.5110420  61.2514662
   3.5184672  46.9213315  60.7317427   3.0248327  46.8380488  61.3356119
  11.9951237  43.6218689  75.3221841  12.7018004  43.1270720  75.4508776
  12.1839173  44.0627771  74.5924499  12.1279143  43.6137039  75.2330887
   8.5223620  47.3120251  56.9084164   8.1874989  47.9897172  56.4728386
   9.0350491  46.9225562  56.3201035   8.5489201  47.3544829  56.7570955
  11.5309342  39.4124207  68.3593037  12.0765302  40.0909294  68.4187006
  11.4726218  39.2711668  67.4994618  11.6025256  39.4916209  68.2405097
   4.6483416  46.9013274  63.7461389   4.7493779  46.0913627  64.0558517
   4.0525162  46.8070220  63.1161068   4.5755955  46.7678302  63.6987627
  13.3074410  40.8408814  59.2326764  13.1913936  41.5916501  59.6618902
  14.1030297  40.5832768  59.4822851  13.4079000  40.9143661  59.3330856
   4.4884156  51.8190863  65.1476245   5.1321612  52.2604027  65.5372403
   4.8140412  51.0144289  65.0606504   4.6315985  51.7656057  65.1921722
   5.1904736  44.8302838  60.5196107   5.5120577  45.3708045  59.9157415
   5.8376832  44.2599609  60.6518397   5.3330791  44.8262013  60.4503142
   7.2406444  36.8318832  60.6030494   7.9386609  37.0106960  61.0951957
   7.5558776  36.3089172  59.9800883   7.3901781  36.7812605  60.5832504
   7.4294379  43.2189277  60.5910285   7.8688015  42.6106378  61.0365058
   7.2799042  42.8396651  59.8195750   7.4715845  43.0727749  60.5429452
   4.8966022  41.8133289  67.7929110   5.5415025  41.3205732  67.4740059
   5.1367799  41.9558076  68.6195189   5.0276607  41.7610732  67.8678644
   7.4352114  44.6588195  67.4436003   7.7175356  43.8639601  67.2222759
   8.1638274  45.1368783  67.4641064   7.5841677  44.6122792  67.4139018
   5.4133307  32.2011229  64.6851768   5.0836637  32.6522373  64.0155467
   4.7378309  32.1227392  65.2324775   5.2643744  32.2562364  64.6674991
  11.0303716  41.5716459  57.5441054  10.9455011  42.4277425  57.6890623
  11.5188099  41.2960783  58.2123213  11.0892613  41.6573780  57.6643136
  12.6209715  28.1896752  62.9301379  12.3063156  28.8800231  63.3621801
  12.1036657  28.1341534  62.2286879  12.4974186  28.2831641  62.8898328
  11.9622149  38.1901253  59.0438789  11.4333620  38.4060886  59.7036096
  12.4847169  38.8837391  58.9639759  11.9610602  38.3244390  59.1294389
  17.4170202  43.7647557  64.4171834  16.5867905  43.9758201  64.5805250
  17.3679454  42.9384612  64.1414117  17.2876937  43.6737164  64.4009199
   3.8521757  42.0864470  57.8446257   3.2678972  42.5914501  58.2512121
   3.4491852  41.8606857  57.1042849   3.7061061  42.1272718  57.7951283
   5.4779939  46.5951412  67.2519743   4.9606881  46.2358827  66.6481051
   6.1754331  46.0713586  67.2625809   5.5045521  46.4649100  67.1650002
   9.1343531  47.0446226  73.2135916   9.2226877  46.8572366  74.0614127
   9.5633244  46.3983655  72.8140763   9.2105634  46.9209233  73.2807668
   8.3098971  38.3330122  56.3215178   8.5494975  38.5408106  55.5090521
   8.6314812  37.5287630  56.4304122   8.3936129  38.2444223  56.2175731
   3.6189261  30.2623518  60.1674716   4.3735230  30.6301835  59.9291766
   3.4416796  30.6363072  60.9353895   3.7043740  30.3721705  60.2459604
   2.2609983  48.3175407  64.7990209   2.9630562  47.8027396  64.8562965
   2.1807466  48.6449558  65.6037084   2.3533743  48.2889633  64.9263001
  16.9124160  36.4117958  68.2122255  16.0752581  36.4820145  68.4469850
  16.8812391  36.4142453  67.3396557  16.7842443  36.4228185  68.1181803
   1.9746326  32.6693837  56.8652829   1.7921899  32.8865717  56.0393822
   2.8371939  32.7832849  56.9211443   2.0750916  32.7183734  56.7507316
   1.5860758  44.5081759  64.3075817   2.4249657  44.7404692  64.3549578
   1.6172527  43.6386070  64.2382852   1.7142476  44.4138705  64.3040461
   2.2113461  44.9282634  68.6089122   2.7511686  44.7853765  69.2792495
   1.5283407  45.3279385  68.9773148   2.1905615  44.9662305  68.7623544
   7.6546045  29.6720247  59.9001853   8.3832206  29.4936202  59.4540009
   7.7440938  30.5138327  60.1109031   7.7752707  29.7704126  59.8655370
  11.6354346  40.6073635  63.8034147  12.3911861  41.0405149  63.8423055
  11.7416670  39.9578404  64.3768783  11.7624517  40.5751118  63.8932172
  14.6734517  44.4346912  64.5536550  14.2369749  44.4383654  65.3095521
  14.3397433  45.1152411  64.1216127  14.5597137  44.5359368  64.6017382
  14.5932000  31.4760740  66.7965978  15.2357908  31.5458844  67.3827893
  14.8455021  30.8089963  66.2945519  14.7254132  31.3887088  66.8093257
   1.5208353  35.9468009  55.3775302   0.8066530  35.6606189  55.7897734
   2.0052322  36.2864635  56.0181689   1.4867716  35.9549659  55.5330937
   9.4033984  48.3865347  69.5246156   8.6049230  48.1464847  69.7820024
   9.8519996  48.4379740  70.2713203   9.3508595  48.3587738  69.6731080
  17.8078863  41.1527832  63.4456187  18.4695297  40.5918500  63.3452095
  17.1670275  40.6579862  63.7708878  17.8107731  40.9964241  63.4788527
   8.6955671  44.4497963  55.7537110   9.1106820  44.1182987  55.0621606
   7.8647601  44.2166865  55.6257247   8.6343680  44.3669219  55.6327957
  14.0943694  42.1693214  63.1868176  14.3299283  42.3138413  62.3595026
  14.2433258  42.9335622  63.5799689  14.1509497  42.3032269  63.1231779
  15.9234151  41.0094880  61.0237779  16.2542368  41.5422520  60.4177874
  16.4967239  41.0633768  61.6799730  16.0567830  41.0964449  61.0315561
  11.1366040  38.8559783  61.7061360  11.2312894  39.5949077  62.1600985
  10.5124883  38.4277258  62.1395924  11.0575070  38.9021103  61.8369507
   9.3918514  42.0345995  72.3551640   9.9657375  41.3973240  72.5100204
   9.3133317  42.0350078  71.4861298   9.4651749  41.9411107  72.2498051
  11.3889061  40.7008523  54.9398312  11.3069224  40.7710710  55.8053299
  12.0268782  41.2638266  54.7482052  11.4708899  40.7947494  55.0388261
   4.7482232  40.4669260  64.4072838   4.4901477  39.6340995  64.3804137
   4.8030715  40.6926873  63.5665338   4.7182010  40.3767032  64.2792975
   9.8283283  32.5697711  64.5076930   9.1239609  32.0806897  64.6660850
   9.8768257  32.5820186  63.6365375   9.7313334  32.4987359  64.4016270
   3.7216944  38.0207023  64.8937733   3.1466536  38.1799191  65.5301694
   3.3452621  37.3842432  64.4306183   3.5819757  37.9504836  64.9192291
   7.3890233  36.4930372  69.7530111   7.0004666  36.0684590  69.0982302
   6.7244931  36.7412522  70.2607138   7.2337161  36.4669093  69.7317979
  17.0313502  36.2505377  62.5277941  16.7750067  35.4385318  62.3375824
  17.8742816  36.2582944  62.3008128  17.1179528  36.1317374  62.4662758
  11.2116595  30.1905001  67.2654095  11.5927106  29.5083172  67.6521969
  10.4079879  29.9014603  67.0829760  11.1493056  30.0472050  67.2958151
   8.4929171  40.7228977  57.9506918   9.3069810  41.0143870  57.8389689
   8.4288313  40.0688839  57.3765211   8.6031910  40.6694172  57.8495755
  14.7138662  43.4054973  72.3636494  14.4777299  42.5743038  72.2448554
  15.3581890  43.3540580  72.9491338  14.7733332  43.2752661  72.4322387
   4.3637080  44.1950494  63.0779230   5.0011027  43.9562242  63.6231023
   4.7892151  44.3987653  62.3432391   4.5213246  44.1901504  63.0496387
   5.0039895  39.4152784  57.4154119   5.3885047  39.1960491  58.1670665
   4.7551515  40.2415729  57.5455196   5.0241967  39.5050930  57.5455196
  15.7375082  43.1899422  68.4264788  15.4320899  43.9227479  68.7878104
  15.0181298  42.7837351  68.1457574  15.5862424  43.2381155  68.4377925
   6.7458552  44.6722917  64.7573016   6.8197560  44.5098089  65.6114866
   7.5628058  44.8613106  64.5133498   6.8774910  44.6759659  64.8471042
  21.4376874  39.8292422  67.7533132  21.3701375  39.8488382  66.8835719
  21.4232537  40.6722750  67.9788803  21.4255631  39.9566157  67.6585609
   2.7240332  31.0849721  62.7462900   1.8562757  31.1572320  62.8120509
   3.0115536  31.8871800  62.9350875   2.6380080  31.2143868  62.7837667
  11.8473221  31.2327580  71.0774222  12.5926813  31.0437391  70.6637647
  11.4310525  31.7585818  70.5188078  11.8958195  31.2829726  70.9338795
   5.2863137  47.6357660  59.4886490   5.5761436  47.2446641  58.7645716
   6.0166618  47.8174365  59.9291765   5.4370022  47.6051474  59.4469297
  19.2235492  38.6036809  66.0279727  19.7743413  37.9704878  66.2676819
  19.2079607  39.1352201  66.7195231  19.3020688  38.5885757  66.1658585
   5.8757882  42.4375406  70.5739620   5.3769576  43.1491174  70.6524509
   6.6858107  42.7576072  70.5357783   5.9213989  42.5902254  70.5796189
   3.2269053  49.6125042  62.5546639   3.0069348  49.3222397  63.3473306
   3.0063575  48.9539997  62.0264552   3.1616647  49.4724751  62.5935548
   2.1386000  41.6998359  64.8202341   1.8499249  41.0735830  65.3548068
   3.0069348  41.6418646  64.8867022   2.2246252  41.5985903  64.9093296
  12.9263898  36.8433142  65.1384323  12.5828664  36.1223477  65.4891573
  13.0256940  36.6346993  64.2962681  12.8905941  36.7057346  65.0656003
   5.3937009  50.9854432  61.3377332   6.0461067  50.4530875  61.5668358
   4.6962617  50.6323085  61.7245206   5.3867727  50.8543955  61.4289500
   2.3418273  43.3393610  60.7444706   3.0964241  43.7206649  60.9580169
   1.7488886  43.7904754  61.1991403   2.3654987  43.4622437  60.8427585
  13.3876927  43.3058846  60.6808311  13.9534960  43.9652056  60.5966854
  12.7404830  43.6508544  61.1524713  13.3755683  43.4540788  60.7381068
   3.6616500  44.5102171  66.1184822   3.1397254  44.6502463  66.8036686
   4.0490520  43.7512836  66.3086939   3.6420201  44.4187695  66.2485898
   9.8583505  46.2497631  60.1045390   9.6170181  45.5165491  59.6972455
  10.0384838  46.7984488  59.4511724   9.8491129  46.2220022  59.9475613
   5.0882826  41.5406190  61.5166313   4.8925608  42.1480925  60.9226616
   5.3117171  40.8474134  61.0357987   5.0917467  41.5283716  61.3582393
   3.4861356  38.4260928  61.6347181   4.2084008  38.5902086  61.1750987
   3.0069348  39.1470593  61.5286521   3.5225086  38.5559158  61.5512795
  11.4454863  34.7624727  67.0143866  10.6065964  34.7886006  66.7782129
  11.5159231  35.4095462  67.5949213  11.3323257  34.8620853  67.0652983
   9.8924142  31.6610104  61.7471482  10.5950494  31.4617852  61.2691440
   9.6268330  30.8886046  62.0540325   9.9570774  31.5173070  61.7216923
  15.3212387  39.9692714  64.3005108  15.2346362  40.1248140  65.1539886
  14.8662867  40.6130789  63.9264513  15.2415644  40.0868469  64.3712214
   9.1938203  37.2903461  62.9230667   8.9472917  37.2099212  63.7567456
   9.5223326  36.5056929  62.7293195   9.2059447  37.1629726  63.0178190
  13.0886252  43.9986820  66.7117448  12.9500611  44.6967866  67.2166191
  12.3086250  43.8435477  66.3553630  12.9529479  44.0786987  66.7343723
  11.4264337  40.2983196  72.9639830  11.4212376  39.4263012  72.9682257
  12.1325331  40.4971365  72.4909286  11.5309341  40.1987070  72.8946865
   5.1535230  40.0260179  72.3353650   5.2978606  40.6061388  71.6996760
   5.5010879  40.4036476  73.0403505   5.2262692  40.1680884  72.3452645
   7.3255148  39.2250348  70.1178782   6.5778462  39.4181362  69.7127060
   7.4796673  38.3995567  69.8802903   7.2377575  39.1315459  70.0224188
   4.2262985  48.2162951  69.2014677   4.3752549  47.6565867  68.5488082
   5.0062988  48.2954953  69.5847196   4.3637079  48.1448517  69.1611626
  14.5839625  43.3565074  57.4733948  14.2046434  42.5702212  57.4663237
  13.9205870  43.9051931  57.3305592  14.4298100  43.3209898  57.4514745
   6.7516286  48.3877594  70.4799168   6.6759957  47.7186405  71.0349956
   6.6806145  49.0895382  70.9939834   6.7296893  48.3922502  70.6376016
  12.0384251  26.2990774  64.8768029  12.1567819  26.7567237  64.1435331
  11.8646426  25.4936035  64.5904246  12.0303422  26.2484546  64.7268962
   5.4439303  35.1103003  67.8516010   4.6535378  34.9294463  68.1733345
   5.8399926  34.3329955  67.8346304   5.3856179  34.9690463  67.8968558
   9.9305194  43.9390777  53.2922723  10.6978179  43.9990902  52.8828575
   9.4836503  43.3671218  52.8079042   9.9778621  43.8627353  53.1600434
  10.8282989  42.7445433  65.5775456  10.1527991  42.5130665  66.0788843
  10.8375365  42.1366616  64.9517561  10.7301494  42.6204358  65.5591608
   7.9577133  37.5863262  72.3339509   7.8936274  38.4473218  72.2059645
   8.0974321  37.2695255  71.5335060   7.9692603  37.6663428  72.1967721
  12.8299724  45.6010565  57.8085633  12.9119561  46.4077551  57.4847084
  13.3149466  45.6206524  58.5326407  12.9136882  45.7231227  57.8672532
   6.6396227  40.2795401  66.4755711   6.2158476  40.4799900  65.7394730
   6.4641082  39.4324249  66.5880011   6.5507108  40.1844182  66.3829402
   1.9278672  40.7747452  61.9083684   2.0843291  40.7094255  62.7639676
   2.2679265  41.5496005  61.6962364   2.0011907  40.8796651  62.0038278
   8.4657817  40.1505336  60.7777047   9.0073362  39.6475717  61.2415668
   8.7804376  40.0970531  59.9666532   8.5922214  40.0684757  60.7260859
  12.3374924  44.3607983  77.8903959  13.1509789  44.0893132  78.0509092
  12.1769890  44.0615523  77.0864155  12.4344872  44.2762909  77.7949365
   6.6344266  45.5422688  58.0617075   6.7037087  44.6837226  58.2010076
   7.4132721  45.7594568  57.7336100   6.7597116  45.4475551  58.0334232
   9.6147086  35.0441640  70.8299348   9.8289055  34.4052555  70.2762702
   8.9980985  35.4887464  70.4007209   9.5552415  35.0151784  70.6849779
  11.0251754  47.9660389  62.2753568  10.6331546  47.6627104  61.5576435
  11.1804826  48.8029479  62.0858522  10.9905344  48.0444226  62.1410066
  11.7786174  36.6530706  71.7682655  10.9662856  36.3456596  71.8495827
  12.2376108  36.1729706  72.3325367  11.7266559  36.5367198  71.8637249
  11.1891429  44.5310378  62.2159599  10.8306083  44.7025021  62.9923631
  10.7030139  44.9923583  61.6587598  11.0650125  44.6249349  62.2484868
   9.0061815  28.1541576  65.8186690   8.1355372  28.1280297  65.7720000
   9.2602156  27.9818768  65.0012536   8.9155375  28.1251720  65.6906827
   5.9779794  40.2109543  54.7559833   6.2672319  40.9874426  55.0303408
   6.0651593  39.6998275  55.4574333   6.0334050  40.2501461  54.9002331
   6.0310955  30.1647805  67.2760161   5.5149444  29.4727996  67.4011740
   5.4704884  30.8318582  67.2222760   5.8717468  30.1611062  67.2866227
  12.3496168  45.4214274  73.1626800  12.9875888  44.9274469  72.8289256
  11.7070259  45.3491674  72.5779027  12.3490394  45.3373282  73.0269155
  14.0753168  37.2703420  67.7292716  13.6480776  37.1829768  66.9740815
  13.4379221  37.3781195  68.3147560  13.9182775  37.2736079  67.7038157
  12.4050425  46.1134082  69.8032157  13.1942803  45.7623147  69.9234238
  12.5794022  46.9270470  69.5408790  12.5470706  46.1819939  69.7820025
   2.1443735  39.5242808  66.8559946   1.3031742  39.4246682  67.0638839
   2.3533743  40.2938288  67.2074266   2.0508428  39.6234851  66.9387260
  11.2584249  30.1243639  64.3648575  11.4633842  30.0565946  65.2105572
  10.9310673  30.9302460  64.2969753  11.2399497  30.2329579  64.4808230
   5.9560400  37.4524207  66.1057543   5.6523537  36.8980195  66.7067951
   5.2539821  37.6316417  65.6185577   5.8076610  37.3968989  66.1227249
   5.0126497  34.7624727  60.6702245   5.2886231  34.0443639  60.2579812
   5.6125166  35.3609647  60.4623351   5.1419762  34.7445097  60.5783006
  14.5117936  30.6775403  63.8451341  13.8992250  31.1645805  64.2305072
  14.6082111  30.0018894  64.3888992  14.4355834  30.6493712  63.9830199
   8.5137017  32.4338244  58.9448840   8.9680764  32.6048804  59.6696684
   8.9877063  31.8206355  58.5446616   8.6505338  32.3689129  58.9922601
   2.0352543  41.9186570  68.2751578   1.4440476  42.5596068  68.2454593
   2.7973566  42.3424187  68.2482878   2.0600803  42.0762408  68.2666726
  18.1542964  41.7492340  69.2728857  18.2126088  42.1978988  70.0188833
  17.5209432  42.1591152  68.8358937  18.0694259  41.8766074  69.3181405
  11.7942059  47.3695882  65.7083603  11.5961748  47.8586696  65.0139814
  11.1729770  47.5737123  66.2867736  11.6729623  47.4712420  65.6906826
   5.8550037  39.1380778  60.0493847   6.5992082  39.5255055  60.2876797
   6.0010734  38.2938204  60.2134335   5.9860623  39.0711251  60.1087817
   7.7729613  30.9331037  65.0825709   6.9265658  31.1053845  64.9567058
   7.7700745  30.1280381  65.4191537   7.6476763  30.8392066  65.1136836
   8.8427913  34.7106252  65.9487766   8.3687868  34.1848014  66.4593077
   9.2146049  34.1635725  65.3802628   8.8277802  34.5522248  65.9402914
  15.1064644  39.7708627  67.3594547  14.8662867  38.9315042  67.3636973
  15.5856651  39.8508794  68.0835320  15.1416827  39.6590027  67.4669349
  10.7711413  35.6042806  59.0113520  10.2434432  35.6871550  58.3219229
  11.2307121  36.3460678  59.0078165  10.7613263  35.7263469  58.9088215
  17.1069831  36.5510085  65.3123806  16.8679601  36.5105919  64.4744591
  17.2703732  37.3981237  65.4389527  17.0960134  36.6702170  65.2077288
  13.7115861  40.9360034  71.2428851  14.4350060  40.4832560  71.0639871
  13.4465823  41.2164700  70.4601179  13.7797134  40.9111002  71.1007567
   2.5802729  35.5320207  67.9781730   1.9555800  35.5438599  67.3707683
   2.2448324  36.0080382  68.6272971   2.4388221  35.6038724  67.9838299
   2.7644478  33.8745326  54.0354415   2.4157282  34.5265051  54.4985965
   2.2840924  33.8602439  53.3078287   2.6414722  33.9688379  53.9965507
  10.3248495  44.1746370  58.1423177  11.0482694  44.6404483  57.9987751
   9.8849086  44.2419979  57.3920774  10.3664188  44.2530207  58.0107959
   9.4934650  41.0343912  69.3923866   8.8791644  40.4901962  69.6872502
  10.0101935  40.5208149  68.9129682   9.4790313  40.8780321  69.3648095
   8.7330948  42.1048182  67.1268165   8.3058556  41.4797901  66.6933600
   8.7255892  41.8223104  67.9527172   8.6690089  41.9700963  67.1847992
   7.0616657  32.9816937  67.3410699   7.0859145  32.4477049  66.6523479
   7.3128131  32.4734245  68.0036290   7.1026576  32.8277841  67.3375344
   3.3417980  31.7087755  66.7216443   3.3816351  32.2096961  67.4351151
   2.5167644  31.7998149  66.4522366   3.2257506  31.7969571  66.7866981
   4.7632343  38.2248265  69.0190342   3.9324273  38.3922083  68.8125590
   4.7083860  37.8484216  69.8039228   4.6321758  38.1937996  69.1038870
   3.1368387  36.5003856  59.5480460   3.2771348  36.9976320  60.2509101
   3.6350920  35.7990151  59.6894674   3.2309468  36.4705835  59.6732039
   3.1668609  37.3670967  56.8773037   3.8013689  37.9631392  56.8122499
   3.2494220  37.0674425  57.6918907   3.2725160  37.4111875  56.9876123
  16.1451175  39.8986445  69.7459401  16.7369015  40.5383695  69.7777599
  16.5810169  39.2009481  70.0351468  16.2969606  39.8904795  69.7940234
   4.7447592  33.2984943  56.8518479   5.0663433  32.8188025  56.1977741
   5.0074536  34.1084589  56.6609290   4.8313617  33.3474841  56.7273971
   7.9744565  44.3203817  70.3717295   7.4669656  44.8739664  70.8157925
   7.6771211  44.3812107  69.5536069   7.8549450  44.4110128  70.3165752
  10.1406747  32.6857137  69.2141958  10.5661819  32.2329663  68.6025484
   9.5263740  32.1317207  69.4906745  10.1135392  32.5371113  69.1646983
  10.5852345  48.2367075  58.3021238   9.8681655  48.0627937  57.8368476
  11.2359083  48.0019647  57.7696724  10.5754196  48.1762867  58.1550456
   8.5800970  29.1572236  62.6232535   7.9369288  29.0069883  63.1917673
   8.2400377  28.9114582  61.8581639   8.4346047  29.0984359  62.5935550
  13.1700316  37.1131663  62.0462543  12.4991506  37.6561366  61.9175609
  13.8640067  37.5826519  61.8044238  13.1729184  37.2629934  61.9918071
   7.2187050  49.2528375  67.2774302   6.9952704  48.4947205  67.6458328
   6.7296893  49.2826396  66.5554741   7.1130499  49.1450600  67.2251043
  13.3328444  33.5687547  64.9552917  13.6856054  33.1417270  65.6298715
  12.4743245  33.4838390  65.0853993  13.2577888  33.4932288  65.0747927
   2.0312129  36.1995067  63.0135763   1.3124118  36.6159199  63.2808627
   2.4024491  36.7649305  62.4627401   1.9804061  36.3444348  62.9718570
  11.3311710  36.8322915  68.9037759  11.3109637  36.6506211  69.7572538
  11.3790910  37.7034934  68.8797343  11.3346351  36.9339454  69.0261054
   9.2758039  43.4210107  74.8286235   9.2353894  42.7759784  74.2431391
  10.0881358  43.3646725  75.1411648   9.3901193  43.3169074  74.7883185
   5.8665507  49.4728833  64.7311386   5.4525906  48.8102964  64.3415228
   6.5512881  49.6206692  64.2107081   5.9063879  49.3969492  64.5967884
   9.2330801  48.6318919  65.4835003   8.8347084  48.7421189  64.7155823
   8.6182021  48.8400985  66.0661563   9.0829690  48.6792487  65.4566302
   7.8058703  35.2393066  58.3509143   7.2123542  35.5610063  57.7993710
   7.8433981  34.3934162  58.1430249   7.7233092  35.1617395  58.2391914
  14.7652504  28.6905959  65.8837229  14.2583369  27.9835098  65.8158407
  15.5619938  28.3599148  66.0138306  14.8079743  28.5379110  65.8936224
  10.6816520  35.1972571  61.7810893  10.4530213  35.2205272  60.9389251
  10.9414596  34.3730038  61.9005903  10.6862708  35.0788651  61.6736091
   3.7361282  33.7349117  63.0765089   4.2118649  34.0966197  62.4415270
   3.2349882  34.3905585  63.3565231   3.7326641  33.8843306  63.0241830
  16.9672644  43.2070885  58.8678094  17.3506250  43.9562242  59.0976191
  16.1716757  43.4536705  58.6090083  16.9066426  43.3540579  58.8635667
   5.7787935  35.8790317  56.4438473   6.1586900  35.8969946  55.6589587
   5.0380531  36.3244306  56.3229320   5.7256773  35.9472092  56.3102041
  13.4073226  34.1872508  62.0314051  13.4067452  34.0321165  62.8898328
  13.2029406  35.0335495  61.9755437  13.3773004  34.2893129  62.1501991
  11.1314078  38.8670010  65.6850258  11.6267743  38.1493005  65.6454278
  10.3213854  38.5640808  65.5704745  11.0857971  38.7167656  65.6623984
   6.5772689  42.7167823  57.8347263   5.7684012  42.3934497  57.7880572
   7.0847598  42.0101045  57.7675511   6.5322356  42.5649140  57.8177557
  13.1965897  41.6173698  68.3727387  13.6220968  41.0948119  67.8197812
  12.8322817  42.2154535  67.8516010  13.2052499  41.6283925  68.2136397
   2.8319977  49.9137915  67.1324732   3.1466536  50.7274304  67.1402514
   3.2413390  49.5288134  67.8006892   2.9388075  49.9766617  67.2328824
   9.7844496  45.3307962  64.7028544  10.2555674  46.0448224  64.8718530
  10.1204675  44.7306712  65.2388414   9.9039611  45.3479426  64.8060920
  10.4218443  45.1225896  71.4656237   9.8739389  44.4983780  71.1976302
  10.8831471  45.3120168  70.7500316  10.4085652  45.0584946  71.3206668
  13.2312307  33.1911250  68.8507429  12.6475296  33.6920457  68.4384997
  13.5516601  32.6840807  68.2171753  13.1925482  33.1903085  68.6965936
   5.7707106  32.1051845  59.1266104   6.5922800  32.2750158  58.8847799
   5.3076757  32.2599106  58.4032402   5.8238268  32.1533578  58.9837748
   9.9876769  46.1276969  67.9965578  10.8075143  45.9839935  68.2581873
   9.7070847  46.7523168  68.5382016  10.0673512  46.1987321  68.1153518
  26.4590419  53.7841820  60.9608455  26.4284424  54.6386457  61.1326724
  27.0571768  53.4837113  61.5194598  26.5427577  53.8658317  61.0683257
  19.6590104  52.8717471  65.7161385  18.8028000  53.0325970  65.7670502
  19.7057758  52.0009535  65.7366446  19.5389216  52.7668273  65.7267451
  14.0431244  62.4080189  61.4798617  13.2914143  62.0295728  61.2514662
  14.4917256  62.4398623  60.7317427  13.9980911  62.3565796  61.3356119
  22.9683821  59.1403997  75.3221841  23.6750588  58.6456028  75.4508776
  23.1571756  59.5813079  74.5924499  23.1011726  59.1322347  75.2330887
  19.4956204  62.8305559  56.9084164  19.1607572  63.5082480  56.4728386
  20.0083074  62.4410870  56.3201035  19.5221785  62.8730137  56.7570955
  19.0360495  64.7819827  62.8495275  19.4199874  65.3506726  62.3100050
  18.9719636  64.0569338  62.3701091  19.0833922  64.7595291  62.6989138
  22.5041925  54.9309515  68.3593037  23.0497885  55.6094602  68.4187006
  22.4458801  54.7896976  67.4994618  22.5757839  55.0101517  68.2405097
  15.6216000  62.4198581  63.7461389  15.7226363  61.6098935  64.0558517
  15.0257745  62.3255528  63.1161068  15.5488539  62.2863610  63.6987627
  24.2806994  56.3594122  59.2326764  24.1646520  57.1101809  59.6618902
  25.0762880  56.1018076  59.4822851  24.3811583  56.4328969  59.3330856
  15.4616740  67.3376171  65.1476245  16.1054195  67.7789335  65.5372403
  15.7872995  66.5329597  65.0606504  15.6048568  67.2841365  65.1921722
   8.8181044  58.4418868  63.3713723   8.5831229  57.6086520  63.2645991
   8.9566685  58.7223534  62.5574924   8.8036707  58.3602371  63.2356078
  11.1171132  50.6104599  66.2698030  10.4976163  50.0197246  66.1008045
  11.0154995  51.2016034  65.6362354  11.0108807  50.6108681  66.1503020
  16.1637319  60.3488145  60.5196107  16.4853160  60.8893353  59.9157415
  16.8109416  59.7784917  60.6518397  16.3063375  60.3447321  60.4503142
  18.2139027  52.3504140  60.6030494  18.9119192  52.5292268  61.0951957
  18.5291360  51.8274480  59.9800883  18.3634365  52.2997912  60.5832504
  10.8440265  54.1556880  68.5141599  10.7198962  54.7419326  69.1491418
  11.4958549  53.6617076  68.8153874  10.9213914  54.1695685  68.6527529
  18.4026963  58.7374585  60.5910285  18.8420598  58.1291686  61.0365058
  18.2531626  58.3581959  59.8195750  18.4448428  58.5913057  60.5429452
  15.8698606  57.3318597  67.7929110  16.5147608  56.8391040  67.4740059
  16.1100383  57.4743384  68.6195189  16.0009191  57.2796039  67.8678644
  18.4084697  60.1773503  67.4436003  18.6907940  59.3824909  67.2222759
  19.1370858  60.6554091  67.4641064  18.5574261  60.1308100  67.4139018
  16.3865891  47.7196537  64.6851768  16.0569221  48.1707681  64.0155467
  15.7110893  47.6412700  65.2324775  16.2376327  47.7747672  64.6674991
  22.0036299  57.0901767  57.5441054  21.9187594  57.9462733  57.6890623
  22.4920683  56.8146091  58.2123213  22.0625197  57.1759088  57.6643136
  23.5942299  43.7082060  62.9301379  23.2795740  44.3985539  63.3621801
  23.0769240  43.6526842  62.2286879  23.4706769  43.8016949  62.8898328
  22.9354733  53.7086561  59.0438789  22.4066204  53.9246194  59.7036096
  23.4579752  54.4022699  58.9639759  22.9343186  53.8429698  59.1294389
  28.3902785  59.2832865  64.4171834  27.5600489  59.4943509  64.5805250
  28.3412038  58.4569920  64.1414117  28.2609521  59.1922472  64.4009199
  14.8254340  57.6049778  57.8446257  14.2411556  58.1099809  58.2512121
  14.4224436  57.3792165  57.1042849  14.6793644  57.6458026  57.7951283
  10.3798369  63.3204539  64.6469929   9.8965947  64.0455028  64.6229512
  11.1921687  63.6180669  64.7580087  10.4289117  63.4706892  64.6597208
  16.4512523  62.1136719  67.2519743  15.9339465  61.7544134  66.6481051
  17.1486914  61.5898894  67.2625809  16.4778104  61.9834407  67.1650002
  20.1076115  62.5631534  73.2135916  20.1959461  62.3757674  74.0614127
  20.5365828  61.9168963  72.8140763  20.1838217  62.4394541  73.2807668
  19.2831555  53.8515430  56.3215178  19.5227558  54.0593413  55.5090521
  19.6047396  53.0472938  56.4304122  19.3668713  53.7629531  56.2175731
  14.5921845  45.7808825  60.1674716  15.3467813  46.1487143  59.9291766
  14.4149380  46.1548380  60.9353895  14.6776323  45.8907013  60.2459604
  13.2342566  63.8360715  64.7990209  13.9363146  63.3212704  64.8562965
  13.1540049  64.1634866  65.6037084  13.3266327  63.8074941  64.9263001
  27.8856744  51.9303266  68.2122255  27.0485165  52.0005453  68.4469850
  27.8544975  51.9327761  67.3396557  27.7575026  51.9413493  68.1181803
  14.2821473  54.0736302  73.9270624  14.4541977  53.9642196  74.7755905
  14.8190830  54.7190707  73.6901816  14.3866477  54.1528303  74.0175720
  12.9478910  48.1879144  56.8652829  12.7654483  48.4051025  56.0393822
  13.8104523  48.3018157  56.9211443  13.0483499  48.2369042  56.7507316
  12.5593342  60.0267067  64.3075817  13.3982241  60.2589999  64.3549578
  12.5905111  59.1571378  64.2382852  12.6875059  59.9324013  64.3040461
  13.1846045  60.4467942  68.6089122  13.7244270  60.3039073  69.2792495
  12.5015991  60.8464693  68.9773148  13.1638199  60.4847613  68.7623544
  18.6278629  45.1905555  59.9001853  19.3564789  45.0121510  59.4540009
  18.7173522  46.0323635  60.1109031  18.7485291  45.2889434  59.8655370
  22.6086930  56.1258942  63.8034147  23.3644445  56.5590457  63.8423055
  22.7149254  55.4763712  64.3768783  22.7357100  56.0936426  63.8932172
  25.6467101  59.9532220  64.5536550  25.2102333  59.9568962  65.3095521
  25.3130016  60.6337719  64.1216127  25.5329721  60.0544676  64.6017382
  25.5664584  46.9946048  66.7965978  26.2090492  47.0644152  67.3827893
  25.8187604  46.3275270  66.2945519  25.6986716  46.9072396  66.8093257
  12.4940937  51.4653317  55.3775302  11.7799114  51.1791497  55.7897734
  12.9784905  51.8049943  56.0181689  12.4600300  51.4734967  55.5330937
  13.3381796  50.2046611  71.4090551  12.6453593  49.7343591  71.6551283
  13.9542123  49.9784915  71.9832259  13.3266326  50.1013743  71.5299704
  20.3766568  63.9050655  69.5246156  19.5781813  63.6650155  69.7820024
  20.8252579  63.9565048  70.2713203  20.3241179  63.8773046  69.6731080
  28.7811447  56.6713140  63.4456187  29.4427881  56.1103808  63.3452095
  28.1402859  56.1765170  63.7708878  28.7840314  56.5149549  63.4788527
  19.6688255  59.9683271  55.7537110  20.0839403  59.6368295  55.0621606
  18.8380184  59.7352173  55.6257247  19.6076263  59.8854527  55.6327957
   8.9976603  57.4527012  66.0435288   8.8152177  57.4273898  65.1907580
   9.7326272  57.9225950  66.0824197   9.0790667  57.5188374  65.9233207
  25.0676278  57.6878522  63.1868176  25.3031867  57.8323721  62.3595026
  25.2165841  58.4520930  63.5799689  25.1242081  57.8217576  63.1231779
  12.0622355  54.1712015  72.5517397  12.7862327  54.1565046  73.0382291
  12.1638492  54.8807370  72.0539365  12.1840564  54.2736718  72.5496183
  26.8966734  56.5280188  61.0237779  27.2274951  57.0607828  60.4177874
  27.4699822  56.5819076  61.6799730  27.0300413  56.6149757  61.0315561
  22.1098623  54.3745091  61.7061360  22.2045478  55.1134385  62.1600985
  21.4857467  53.9462566  62.1395924  22.0307654  54.4206411  61.8369507
  20.3651097  57.5531303  72.3551640  20.9389959  56.9158547  72.5100204
  20.2865901  57.5535386  71.4861298  20.4384332  57.4596415  72.2498051
   8.9647514  54.3320513  66.1934355   9.5421016  54.1956964  66.8326600
   8.2661575  53.8756297  66.4479939   8.9468535  54.2442779  66.3256644
  22.3621645  56.2193830  54.9398312  22.2801807  56.2896018  55.8053299
  23.0001365  56.7823574  54.7482052  22.4441482  56.3132802  55.0388261
  15.7214816  55.9854568  64.4072838  15.4634060  55.1526303  64.3804137
  15.7763299  56.2112181  63.5665338  15.6914594  55.8952340  64.2792975
  20.8015866  48.0883019  64.5076930  20.0972193  47.5992205  64.6660850
  20.8500840  48.1005494  63.6365375  20.7045918  48.0172667  64.4016270
  14.6949528  53.5392331  64.8937733  14.1199119  53.6984499  65.5301694
  14.3185204  52.9027740  64.4306183  14.5552340  53.4690144  64.9192291
  18.3622817  52.0115680  69.7530111  17.9737249  51.5869898  69.0982302
  17.6977515  52.2597830  70.2607138  18.2069744  51.9854401  69.7317979
  28.0046086  51.7690685  62.5277941  27.7482651  50.9570626  62.3375824
  28.8475400  51.7768252  62.3008128  28.0912111  51.6502682  62.4662758
   4.4406347  53.1832406  62.9082173   4.5266599  52.8064274  63.6895703
   5.0682144  52.8092851  62.4302131   4.5462898  53.0717888  62.9527651
  22.1849178  45.7090309  67.2654095  22.5659690  45.0268480  67.6521969
  21.3812463  45.4199911  67.0829760  22.1225640  45.5657357  67.2958151
  19.4661755  56.2414285  57.9506918  20.2802394  56.5329178  57.8389689
  19.4020896  55.5874147  57.3765211  19.5764494  56.1879479  57.8495755
  25.6871245  58.9240281  72.3636494  25.4509883  58.0928346  72.2448554
  26.3314474  58.8725888  72.9491338  25.7465916  58.7937969  72.4322387
  15.3369663  59.7135802  63.0779230  15.9743610  59.4747550  63.6231023
  15.7624735  59.9172961  62.3432391  15.4945829  59.7086812  63.0496387
  15.9772478  54.9338092  57.4154119  16.3617631  54.7145799  58.1670665
  15.7284099  55.7601037  57.5455196  15.9974551  55.0236238  57.5455196
  16.1441019  48.2144507  77.1316704  15.8294460  48.9844070  76.8686266
  15.8230951  47.6514763  76.5468931  16.0499938  48.2454776  77.0058054
  26.7107666  58.7084730  68.4264788  26.4053483  59.4412786  68.7878104
  25.9913881  58.3022659  68.1457574  26.5595008  58.7566463  68.4377925
  17.7191135  60.1908225  64.7573016  17.7930143  60.0283397  65.6114866
  18.5360642  60.3798414  64.5133498  17.8507494  60.1944967  64.8471042
  32.4109458  55.3477730  67.7533132  32.3433958  55.3673689  66.8835719
  32.3965120  56.1908058  67.9788803  32.3988214  55.4751465  67.6585609
  11.4796892  60.5366088  61.7867460  10.6535010  60.7827825  61.6601739
  11.5408883  60.4578169  62.6529518  11.3671059  60.5611037  61.8956404
  13.6972916  46.6035029  62.7462900  12.8295341  46.6757628  62.8120509
  13.9848120  47.4057108  62.9350875  13.6112664  46.7329176  62.7837667
  22.8205804  46.7512888  71.0774222  23.5659396  46.5622698  70.6637647
  22.4043109  47.2771126  70.5188078  22.8690779  46.8015033  70.9338795
  16.2595721  63.1542968  59.4886490  16.5494019  62.7631949  58.7645716
  16.9899202  63.3359673  59.9291765  16.4102605  63.1236782  59.4469297
  30.1968075  54.1222117  66.0279727  30.7475997  53.4890186  66.2676819
  30.1812191  54.6537509  66.7195231  30.2753272  54.1071065  66.1658585
  16.8490466  57.9560714  70.5739620  16.3502160  58.6676482  70.6524509
  17.6590690  58.2761380  70.5357783  16.8946573  58.1087562  70.5796189
  14.2001636  65.1310350  62.5546639  13.9801932  64.8407705  63.3473306
  13.9796159  64.4725305  62.0264552  14.1349231  64.9910059  62.5935548
  13.1118584  57.2183667  64.8202341  12.8231832  56.5921138  65.3548068
  13.9801932  57.1603954  64.8867022  13.1978836  57.1171211  64.9093296
  23.8996481  52.3618450  65.1384323  23.5561247  51.6408785  65.4891573
  23.9989524  52.1532301  64.2962681  23.8638524  52.2242653  65.0656003
  16.3669592  66.5039740  61.3377332  17.0193650  65.9716183  61.5668358
  15.6695201  66.1508393  61.7245206  16.3600310  66.3729263  61.4289500
  13.3150857  58.8578918  60.7444706  14.0696825  59.2391957  60.9580169
  12.7221470  59.3090062  61.1991403  13.3387571  58.9807745  60.8427585
  24.3609511  58.8244154  60.6808311  24.9267543  59.4837364  60.5966854
  23.7137414  59.1693852  61.1524713  24.3488267  58.9726096  60.7381068
  15.7757524  50.8141758  75.8701919  14.9657300  51.1199538  75.7591761
  16.2532211  51.5347341  75.9854503  15.7261003  50.9656359  75.8708990
  14.6349084  60.0287479  66.1184822  14.1129837  60.1687771  66.8036686
  15.0223104  59.2698144  66.3086939  14.6152785  59.9373003  66.2485898
  11.6240268  50.0793288  60.1879776  11.3365063  49.7094558  59.4511724
  12.3110736  50.5488143  59.9263481  11.6829165  50.0940257  60.0394852
  20.8316089  61.7682938  60.1045390  20.5902765  61.0350799  59.6972455
  21.0117422  62.3169795  59.4511724  20.8223713  61.7405330  59.9475613
  16.0615409  57.0591498  61.5166313  15.8658192  57.6666233  60.9226616
  16.2849755  56.3659442  61.0357987  16.0650050  57.0469024  61.3582393
  14.4593939  53.9446236  61.6347181  15.1816591  54.1087394  61.1750987
  13.9801932  54.6655901  61.5286521  14.4957670  54.0744466  61.5512795
  22.4187447  50.2810035  67.0143866  21.5798547  50.3071314  66.7782129
  22.4891814  50.9280770  67.5949213  22.3055840  50.3806161  67.0652983
  20.8656725  47.1795412  61.7471482  21.5683078  46.9803160  61.2691440
  20.6000914  46.4071354  62.0540325  20.9303357  47.0358378  61.7216923
  26.2944971  55.4878022  64.3005108  26.2078945  55.6433448  65.1539886
  25.8395451  56.1316097  63.9264513  26.2148227  55.6053777  64.3712214
   9.1968462  50.8574500  61.0365057   9.2984599  51.6600662  61.3646033
   9.9924349  50.6561836  60.7388138   9.3296368  50.9460399  61.0400413
  15.6285281  48.4430697  70.8002362  15.4368478  48.4585832  71.6501786
  16.4783877  48.6394371  70.7769017  15.7261003  48.4745048  70.9225657
  10.0132194  50.9721679  68.7786179   9.8717686  50.1205619  68.9030687
  10.2972758  51.0150339  67.9548385  10.0340040  50.8521429  68.6753803
  20.1670787  52.8088769  62.9230667  19.9205501  52.7284520  63.7567456
  20.4955910  52.0242237  62.7293195  20.1792030  52.6815034  63.0178190
  24.0618836  59.5172128  66.7117448  23.9233195  60.2153174  67.2166191
  23.2818833  59.3620785  66.3553630  23.9262062  59.5972295  66.7343723
  22.3996921  55.8168504  72.9639830  22.3944959  54.9448320  72.9682257
  23.1057915  56.0156673  72.4909286  22.5041925  55.7172378  72.8946865
  16.1267814  55.5445487  72.3353650  16.2711190  56.1246696  71.6996760
  16.4743463  55.9221784  73.0403505  16.1995275  55.6866191  72.3452645
  18.2987731  54.7435656  70.1178782  17.5511045  54.9366670  69.7127060
  18.4529257  53.9180875  69.8802903  18.2110159  54.6500767  70.0224188
  15.1995569  63.7348259  69.2014677  15.3485133  63.1751175  68.5488082
  15.9795571  63.8140261  69.5847196  15.3369663  63.6633825  69.1611626
  25.5572208  58.8750382  57.4733948  25.1779017  58.0887520  57.4663237
  24.8938454  59.4237239  57.3305592  25.4030683  58.8395206  57.4514745
  17.7248870  63.9062902  70.4799168  17.6492541  63.2371713  71.0349956
  17.6538729  64.6080690  70.9939834  17.7029477  63.9107809  70.6376016
  18.5389508  48.6386207  71.0074186  18.9962123  49.3710181  71.1346978
  18.6145837  48.2152672  71.7661441  18.6180478  48.6843445  71.1375262
  10.7822500  48.8852026  72.0963629  10.2464689  48.2732384  72.4124397
  10.8440264  49.4600162  72.7497296  10.7118132  48.8798954  72.2399056
  23.0116834  41.8176082  64.8768029  23.1300402  42.2752545  64.1435331
  22.8379010  41.0121343  64.5904246  23.0036005  41.7669854  64.7268962
  18.3819117  62.4263901  61.3122774  19.1469008  62.1573545  60.9905438
  18.2797207  61.9413911  62.0292837  18.4800612  62.3153466  61.3702601
  16.4171886  50.6288310  67.8516010  15.6267961  50.4479771  68.1733345
  16.8132509  49.8515263  67.8346304  16.3588763  50.4875771  67.8968558
  20.9037777  59.4576085  53.2922723  21.6710762  59.5176210  52.8828575
  20.4569086  58.8856526  52.8079042  20.9511204  59.3812660  53.1600434
  21.8015573  58.2630741  65.5775456  21.1260574  58.0315973  66.0788843
  21.8107949  57.6551924  64.9517561  21.7034077  58.1389666  65.5591608
  18.9309717  53.1048570  72.3339509  18.8668858  53.9658526  72.2059645
  19.0706904  52.7880563  71.5335060  18.9425187  53.1848736  72.1967721
  23.8032307  61.1195873  57.8085633  23.8852145  61.9262859  57.4847084
  24.2882049  61.1391832  58.5326407  23.8869465  61.2416535  57.8672532
  17.6128811  55.7980709  66.4755711  17.1891060  55.9985208  65.7394730
  17.4373666  54.9509557  66.5880011  17.5239691  55.7029490  66.3829402
  12.9011255  56.2932760  61.9083684  13.0575875  56.2279563  62.7639676
  13.2411849  57.0681313  61.6962364  12.9744490  56.3981958  62.0038278
  19.4390400  55.6690644  60.7777047  19.9805946  55.1661025  61.2415668
  19.7536959  55.6155839  59.9666532  19.5654797  55.5870065  60.7260859
  23.3107508  59.8793291  77.8903959  24.1242373  59.6078440  78.0509092
  23.1502474  59.5800831  77.0864155  23.4077456  59.7948217  77.7949365
  17.6076850  61.0607995  58.0617075  17.6769670  60.2022534  58.2010076
  18.3865305  61.2779876  57.7336100  17.7329700  60.9660859  58.0334232
  20.5879669  50.5626948  70.8299348  20.8021639  49.9237863  70.2762702
  19.9713569  51.0072772  70.4007209  20.5284999  50.5337092  70.6849779
  21.9984337  63.4845697  62.2753568  21.6064129  63.1812412  61.5576435
  22.1537410  64.3214787  62.0858522  21.9637927  63.5629533  62.1410066
   9.4745517  53.4767711  62.2244451   9.8544482  53.8952256  61.5604718
   8.9000882  54.0581166  62.5313294   9.4456842  53.6245570  62.1721192
  22.7518757  52.1716014  71.7682655  21.9395439  51.8641904  71.8495827
  23.2108692  51.6915014  72.3325367  22.6999142  52.0552506  71.8637249
  22.1624012  60.0495686  62.2159599  21.8038667  60.2210328  62.9923631
  21.6762723  60.5108891  61.6587598  22.0382709  60.1434657  62.2484868
  19.9794398  43.6726884  65.8186690  19.1087956  43.6465605  65.7720000
  20.2334739  43.5004076  65.0012536  19.8887958  43.6437028  65.6906827
  16.9512378  55.7294851  54.7559833  17.2404902  56.5059733  55.0303408
  17.0384176  55.2183582  55.4574333  17.0066634  55.7686769  54.9002331
  19.8472265  53.5776085  76.5511357  20.3171896  54.2018201  76.9379231
  19.8934145  52.9093061  77.1104572  19.9240141  53.5710765  76.6911428
  17.0043539  45.6833113  67.2760161  16.4882027  44.9913304  67.4011740
  16.4437468  46.3503890  67.2222760  16.8450052  45.6796370  67.2866227
  19.0735772  46.2226073  69.1053013  18.6867525  46.2475104  69.8866543
  18.5868709  45.6567751  68.6527530  18.9448281  46.1421823  69.1540917
  23.3228752  60.9399582  73.1626800  23.9608472  60.4459777  72.8289256
  22.6802843  60.8676982  72.5779027  23.3222978  60.8558590  73.0269155
  25.0485752  52.7888727  67.7292716  24.6213360  52.7015076  66.9740815
  24.4111805  52.8966503  68.3147560  24.8915359  52.7921387  67.7038157
  18.7392914  43.1093058  71.3963273  19.3686032  43.6453358  71.1184344
  18.9078777  43.0170417  72.2476839  18.8570708  43.1754420  71.4811801
  18.5406829  47.8964253  73.6689685  19.3680258  47.6249402  73.7248299
  18.5614675  48.6925094  74.0253503  18.6659679  47.9744007  73.7304868
  23.3783008  61.6319390  69.8032157  24.1675386  61.2808455  69.9234238
  23.5526606  62.4455778  69.5408790  23.5203290  61.7005247  69.7820025
  13.1176319  55.0428116  66.8559946  12.2764325  54.9431990  67.0638839
  13.3266326  55.8123596  67.2074266  13.0241011  55.1420159  66.9387260
  10.5951885  52.6647652  64.6844696  10.2008583  52.7390664  63.9094806
  10.0392002  53.0505599  65.2353058  10.4554698  52.7329427  64.6512356
  22.2316832  45.6428947  64.3648575  22.4366426  45.5751254  65.2105572
  21.9043256  46.4487768  64.2969753  22.2132080  45.7514887  64.4808230
  16.9292983  52.9709515  66.1057543  16.6256121  52.4165503  66.7067951
  16.2272404  53.1501725  65.6185577  16.7809193  52.9154297  66.1227249
  15.9859080  50.2810035  60.6702245  16.2618815  49.5628947  60.2579812
  16.5857750  50.8794954  60.4623351  16.1152345  50.2630405  60.5783006
  25.4850520  46.1960711  63.8451341  24.8724834  46.6831113  64.2305072
  25.5814695  45.5204202  64.3888992  25.4088418  46.1679019  63.9830199
  19.4869601  47.9523552  58.9448840  19.9413348  48.1234112  59.6696684
  19.9609647  47.3391663  58.5446616  19.6237921  47.8874437  58.9922601
  13.0085126  57.4371878  68.2751578  12.4173060  58.0781376  68.2454593
  13.7706150  57.8609495  68.2482878  13.0333387  57.5947716  68.2666726
  13.4045749  48.5973876  68.9419596  13.8647231  48.6712805  69.6794720
  13.4501856  49.3955130  68.5919417  13.4796305  48.7268023  68.9992352
  15.0529099  49.2640570  73.5091623  14.6614664  48.6173918  73.9447401
  15.2214962  49.8552006  74.1285878  15.0200009  49.2554838  73.6654329
  29.1275548  57.2677648  69.2728857  29.1858672  57.7164296  70.0188833
  28.4942016  57.6776460  68.8358937  29.0426843  57.3951382  69.3181405
  22.7674643  62.8881189  65.7083603  22.5694331  63.3772004  65.0139814
  22.1462354  63.0922431  66.2867736  22.6462207  62.9897728  65.6906826
  16.8282621  54.6566086  60.0493847  17.5724666  55.0440363  60.2876797
  16.9743317  53.8123512  60.2134335  16.9593206  54.5896559  60.1087817
  18.7462196  46.4516345  65.0825709  17.8998242  46.6239153  64.9567058
  18.7433329  45.6465689  65.4191537  18.6209346  46.3577374  65.1136836
  19.8160497  50.2291560  65.9487766  19.3420451  49.7033322  66.4593077
  20.1878633  49.6821032  65.3802628  19.8010386  50.0707556  65.9402914
  10.1933527  52.2263066  71.3171312  11.0559140  52.1258775  71.2308642
   9.8625310  51.6457776  70.7556884  10.2718723  52.1254693  71.2216718
  26.0797227  55.2893935  67.3594547  25.8395450  54.4500350  67.3636973
  26.5589235  55.3694102  68.0835320  26.1149411  55.1775335  67.4669349
  21.7443996  51.1228114  59.0113520  21.2167015  51.2056858  58.3219229
  22.2039705  51.8645986  59.0078165  21.7345847  51.2448777  58.9088215
  28.0802414  52.0695392  65.3123806  27.8412184  52.0291227  64.4744591
  28.2436316  52.9166544  65.4389527  28.0692718  52.1887477  65.2077288
  24.6848445  56.4545342  71.2428851  25.4082643  56.0017868  71.0639871
  24.4198407  56.7350007  70.4601179  24.7529718  56.4296310  71.1007567
  13.5535313  51.0505515  67.9781730  12.9288383  51.0623907  67.3707683
  13.2180908  51.5265690  68.6272971  13.4120805  51.1224032  67.9838299
  13.7377062  49.3930634  54.0354415  13.3889866  50.0450359  54.4985965
  13.2573507  49.3787747  53.3078287  13.6147306  49.4873687  53.9965507
  21.2981079  59.6931678  58.1423177  22.0215278  60.1589791  57.9987751
  20.8581670  59.7605287  57.3920774  21.3396771  59.7715514  58.0107959
  20.4667234  56.5529220  69.3923866  19.8524227  56.0087270  69.6872502
  20.9834519  56.0393456  68.9129682  20.4522896  56.3965629  69.3648095
  19.7063531  57.6233490  67.1268165  19.2791139  56.9983209  66.6933600
  19.6988476  57.3408412  67.9527172  19.6422672  57.4886271  67.1847992
  12.8226058  52.6598663  70.1956599  12.9819545  51.9041987  70.6008321
  12.6418952  53.2089603  70.8497337  12.8191417  52.6292477  70.3519305
  20.7646361  44.8259899  70.7507388  20.2686923  45.0223573  70.0598955
  21.5215423  45.2252567  70.5796190  20.8033186  44.9137632  70.6227525
  18.0349241  48.5002245  67.3410699  18.0591728  47.9662357  66.6523479
  18.2860715  47.9919553  68.0036290  18.0759160  48.3463149  67.3375344
  14.3150563  47.2273063  66.7216443  14.3548935  47.7282269  67.4351151
  13.4900228  47.3183456  66.4522366  14.1990089  47.3154879  66.7866981
  15.7364927  53.7433573  69.0190342  14.9056856  53.9107391  68.8125590
  15.6816444  53.3669523  69.8039228  15.6054341  53.7123304  69.1038870
  13.5448710  47.2342466  74.6546753  14.1701413  46.6904598  74.9276185
  13.0899190  46.7537383  74.0854543  13.5696970  47.0831947  74.6108347
  14.1100970  52.0189164  59.5480460  14.2503931  52.5161628  60.2509101
  14.6083503  51.3175459  59.6894674  14.2042051  51.9891143  59.6732039
  14.1401193  52.8856275  56.8773037  14.7746272  53.4816700  56.8122499
  14.2226804  52.5859733  57.6918907  14.2457744  52.9297183  56.9876123
  27.1183759  55.4171753  69.7459401  27.7101599  56.0569003  69.7777599
  27.5542753  54.7194789  70.0351468  27.2702190  55.4090103  69.7940234
  15.7180176  48.8170251  56.8518479  16.0396017  48.3373333  56.1977741
  15.9807119  49.6269897  56.6609290  15.8046201  48.8660149  56.7273971
  18.9477148  59.8389125  70.3717295  18.4402239  60.3924972  70.8157925
  18.6503795  59.8997415  69.5536069  18.8282033  59.9295436  70.3165752
  21.1139331  48.2042445  69.2141958  21.5394402  47.7514971  68.6025484
  20.4996324  47.6502515  69.4906745  21.0867976  48.0556421  69.1646983
  10.6454181  55.0824116  60.1462583  11.1546410  55.6788623  60.5273888
  11.1188453  54.8150090  59.4639002  10.7897556  55.1309931  60.1017106
  21.5584929  63.7552383  58.3021238  20.8414238  63.5813245  57.8368476
  22.2091666  63.5204955  57.7696724  21.5486779  63.6948175  58.1550456
  19.5533553  44.6757544  62.6232535  18.9101871  44.5255191  63.1917673
  19.2132960  44.4299890  61.8581639  19.4078631  44.6169667  62.5935550
  24.1432900  52.6316971  62.0462543  23.4724090  53.1746673  61.9175609
  24.8372650  53.1011827  61.8044238  24.1461767  52.7815242  61.9918071
  18.1919634  64.7713683  67.2774302  17.9685288  64.0132512  67.6458328
  17.7029477  64.8011704  66.5554741  18.0863083  64.6635908  67.2251043
  24.3061027  49.0872855  64.9552917  24.6588637  48.6602578  65.6298715
  23.4475829  49.0023698  65.0853993  24.2310472  49.0117595  65.0747927
  13.0044712  51.7180375  63.0135763  12.2856701  52.1344507  63.2808627
  13.3757075  52.2834613  62.4627401  12.9536644  51.8629656  62.9718570
  22.3044293  52.3508223  68.9037759  22.2842220  52.1691519  69.7572538
  22.3523494  53.2220242  68.8797343  22.3078934  52.4524762  69.0261054
  20.2490623  58.9395415  74.8286235  20.2086478  58.2945092  74.2431391
  21.0613941  58.8832033  75.1411648  20.3633777  58.8354382  74.7883185
  16.8398091  64.9914141  64.7311386  16.4258489  64.3288272  64.3415228
  17.5245465  65.1392000  64.2107081  16.8796462  64.9154799  64.5967884
  20.2063385  64.1504227  65.4835003  19.8079668  64.2606497  64.7155823
  19.5914604  64.3586293  66.0661563  20.0562274  64.1977795  65.4566302
  18.7791287  50.7578374  58.3509143  18.1856126  51.0795371  57.7993710
  18.8166564  49.9119470  58.1430249  18.6965676  50.6802703  58.2391914
  25.7385087  44.2091267  65.8837229  25.2315952  43.5020406  65.8158407
  26.5352521  43.8784456  66.0138306  25.7812327  44.0564418  65.8936224
  21.6549103  50.7157879  61.7810893  21.4262796  50.7390580  60.9389251
  21.9147180  49.8915346  61.9005903  21.6595291  50.5973959  61.6736091
  15.9368332  52.5692352  71.3835993  15.4247235  51.9613535  71.7421025
  15.7647828  53.2848945  71.8509969  15.8357969  52.5855651  71.5052217
  14.7093866  49.2534425  63.0765089  15.1851232  49.6151505  62.4415270
  14.2082465  49.9090893  63.3565231  14.7059225  49.4028614  63.0241830
  27.9405227  58.7256193  58.8678094  28.3238833  59.4747549  59.0976191
  27.1449341  58.9722013  58.6090083  27.8799010  58.8725887  58.8635667
  19.8137402  50.4916597  73.8238249  20.3708832  50.2630406  73.1916714
  19.4898467  51.2522262  73.5473461  19.8483812  50.5700433  73.6894746
  17.5320519  53.5784250  74.7890256  18.2831846  53.8935927  75.1029810
  17.7243096  53.3763421  73.9624178  17.6711934  53.5951632  74.7133652
  16.7520519  51.3975625  56.4438473  17.1319484  51.4155254  55.6589587
  16.0113115  51.8429614  56.3229320  16.6989357  51.4657400  56.3102041
  24.3805810  49.7057816  62.0314051  24.3800036  49.5506473  62.8898328
  24.1761990  50.5520803  61.9755437  24.3505587  49.8078437  62.1501991
   6.4423080  53.1297601  66.4472868   6.2644842  52.6774210  67.1727783
   6.1542103  53.9323762  66.6311345   6.3736034  53.1820158  66.5816371
  22.1046662  54.3855318  65.6850258  22.6000327  53.6678313  65.6454278
  21.2946437  54.0826116  65.5704745  22.0590555  54.2352964  65.6623984
  17.5505273  58.2353131  57.8347263  16.7416596  57.9119805  57.7880572
  18.0580182  57.5286353  57.7675511  17.5054940  58.0834448  57.8177557
   8.1795550  55.6625324  63.5594627   7.3141070  55.6511015  63.4477398
   8.2794366  55.4755547  64.4065766   8.0669717  55.6331386  63.6683571
  24.1698480  57.1359006  68.3727387  24.5953552  56.6133427  67.8197812
  23.8055400  57.7339843  67.8516010  24.1785083  57.1469233  68.2136397
  13.8052560  65.4323223  67.1324732  14.1199119  66.2459611  67.1402514
  14.2145974  65.0473442  67.8006892  13.9120658  65.4951925  67.2328824
  20.7577080  60.8493270  64.7028544  21.2288258  61.5633532  64.8718530
  21.0937258  60.2492020  65.2388414  20.8772195  60.8664734  64.8060920
  17.6746575  45.6220740  71.6586639  17.8074480  44.8251734  71.9867615
  18.0591728  46.1487143  72.2384915  17.7502904  45.5820657  71.7930142
  21.3951026  60.6411204  71.4656237  20.8471972  60.0169088  71.1976302
  21.8564055  60.8305476  70.7500316  21.3818236  60.5770254  71.3206668
  20.7478930  42.5451066  68.2567732  19.9424894  42.4348796  68.5735571
  20.6185665  42.6463522  67.3997598  20.6099063  42.5434737  68.1775773
  24.2044891  48.7096558  68.8507429  23.6207879  49.2105765  68.4384997
  24.5249185  48.2026115  68.2171753  24.1658066  48.7088393  68.6965936
  16.7439690  47.6237153  59.1266104  17.5655384  47.7935466  58.8847799
  16.2809341  47.7784414  58.4032402  16.7970852  47.6718886  58.9837748
  15.3335022  45.6179915  69.9064533  15.8779435  45.2771042  70.4968875
  15.3871957  46.4765377  70.0485817  15.4224141  45.6935175  70.0146406
  11.1465580  59.3796331  66.7803341  11.7510438  59.3392166  66.1517162
  10.9392893  60.2267483  66.8107397  11.2054478  59.4984334  66.6919457
  20.9609352  61.6462277  67.9965578  21.7807726  61.5025243  68.2581873
  20.6803430  62.2708475  68.5382016  21.0406096  61.7172629  68.1153518
  37.4323003  69.3027128  60.9608455  37.4017007  70.1571765  61.1326724
  38.0304352  69.0022421  61.5194598  37.5160161  69.3843625  61.0683257
  30.6322688  68.3902779  65.7161385  29.7760583  68.5511278  65.7670502
  30.6790341  67.5194843  65.7366446  30.5121799  68.2853581  65.7267451
  33.4774509  70.4494823  68.3593037  34.0230469  71.1279910  68.4187006
  33.4191385  70.3082284  67.4994618  33.5490423  70.5286825  68.2405097
  35.2539577  71.8779430  59.2326764  35.1379103  72.6287116  59.6618902
  36.0495464  71.6203384  59.4822851  35.3544167  71.9514277  59.3330856
  22.0903715  66.1289907  66.2698030  21.4708747  65.5382554  66.1008045
  21.9887579  66.7201342  65.6362354  21.9841391  66.1293989  66.1503020
  27.1369903  75.8673453  60.5196107  27.4585744  76.4078661  59.9157415
  27.7841999  75.2970225  60.6518397  27.2795958  75.8632629  60.4503142
  29.1871611  67.8689448  60.6030494  29.8851776  68.0477576  61.0951957
  29.5023943  67.3459788  59.9800883  29.3366948  67.8183220  60.5832504
  21.8172848  69.6742188  68.5141599  21.6931545  70.2604634  69.1491418
  22.4691133  69.1802384  68.8153874  21.8946498  69.6880993  68.6527529
  29.3759546  74.2559893  60.5910285  29.8153182  73.6476994  61.0365058
  29.2264209  73.8767267  59.8195750  29.4181012  74.1098364  60.5429452
  26.8431189  72.8503905  67.7929110  27.4880192  72.3576348  67.4740059
  27.0832966  72.9928692  68.6195189  26.9741774  72.7981347  67.8678644
  29.3817281  75.6958811  67.4436003  29.6640524  74.9010217  67.2222759
  30.1103441  76.1739398  67.4641064  29.5306844  75.6493408  67.4139018
  27.3598475  63.2381845  64.6851768  27.0301805  63.6892989  64.0155467
  26.6843476  63.1598008  65.2324775  27.2108911  63.2932980  64.6674991
  32.9768883  72.6087075  57.5441054  32.8920178  73.4648041  57.6890623
  33.4653266  72.3331399  58.2123213  33.0357780  72.6944396  57.6643136
  34.5674882  59.2267368  62.9301379  34.2528323  59.9170846  63.3621801
  34.0501824  59.1712150  62.2286879  34.4439353  59.3202256  62.8898328
  33.9087316  69.2271869  59.0438789  33.3798788  69.4431502  59.7036096
  34.4312336  69.9208007  58.9639759  33.9075769  69.3615006  59.1294389
  39.3635369  74.8018173  64.4171834  38.5333072  75.0128817  64.5805250
  39.3144621  73.9755228  64.1414117  39.2342104  74.7107780  64.4009199
  25.7986924  73.1235086  57.8446257  25.2144139  73.6285117  58.2512121
  25.3957019  72.8977472  57.1042849  25.6526228  73.1643334  57.7951283
  30.2564138  69.3700738  56.3215178  30.4960142  69.5778721  55.5090521
  30.5779979  68.5658246  56.4304122  30.3401296  69.2814839  56.2175731
  25.5654429  61.2994133  60.1674716  26.3200397  61.6672450  59.9291766
  25.3881963  61.6733688  60.9353895  25.6508907  61.4092321  60.2459604
  38.8589327  67.4488574  68.2122255  38.0217748  67.5190761  68.4469850
  38.8277558  67.4513069  67.3396557  38.7307610  67.4598801  68.1181803
  25.2554056  69.5921610  73.9270624  25.4274560  69.4827504  74.7755905
  25.7923414  70.2376015  73.6901816  25.3599060  69.6713611  74.0175720
  23.9211493  63.7064452  56.8652829  23.7387066  63.9236333  56.0393822
  24.7837106  63.8203465  56.9211443  24.0216083  63.7554350  56.7507316
  23.5325925  75.5452375  64.3075817  24.3714825  75.7775307  64.3549578
  23.5637694  74.6756686  64.2382852  23.6607643  75.4509321  64.3040461
  29.6011212  60.7090863  59.9001853  30.3297373  60.5306818  59.4540009
  29.6906105  61.5508943  60.1109031  29.7217875  60.8074741  59.8655370
  33.5819513  71.6444250  63.8034147  34.3377028  72.0775765  63.8423055
  33.6881838  70.9949020  64.3768783  33.7089684  71.6121734  63.8932172
  36.6199684  75.4717528  64.5536550  36.1834916  75.4754270  65.3095521
  36.2862600  76.1523027  64.1216127  36.5062304  75.5729983  64.6017382
  36.5397167  62.5131355  66.7965978  37.1823076  62.5829460  67.3827893
  36.7920188  61.8460578  66.2945519  36.6719299  62.4257704  66.8093257
  23.4673520  66.9838625  55.3775302  22.7531697  66.6976805  55.7897734
  23.9517489  67.3235251  56.0181689  23.4332884  66.9920275  55.5330937
  24.3114380  65.7231919  71.4090551  23.6186176  65.2528899  71.6551283
  24.9274707  65.4970223  71.9832259  24.2998910  65.6199051  71.5299704
  39.7544030  72.1898448  63.4456187  40.4160465  71.6289116  63.3452095
  39.1135442  71.6950478  63.7708878  39.7572898  72.0334857  63.4788527
  30.6420838  75.4868579  55.7537110  31.0571987  75.1553603  55.0621606
  29.8112768  75.2537481  55.6257247  30.5808847  75.4039835  55.6327957
  19.9709187  72.9712320  66.0435288  19.7884760  72.9459206  65.1907580
  20.7058856  73.4411258  66.0824197  20.0523251  73.0373682  65.9233207
  36.0408861  73.2063830  63.1868176  36.2764450  73.3509029  62.3595026
  36.1898425  73.9706238  63.5799689  36.0974664  73.3402884  63.1231779
  23.0354939  69.6897323  72.5517397  23.7594911  69.6750354  73.0382291
  23.1371075  70.3992678  72.0539365  23.1573148  69.7922026  72.5496183
  37.8699318  72.0465496  61.0237779  38.2007535  72.5793136  60.4177874
  38.4432406  72.1004384  61.6799730  38.0032997  72.1335065  61.0315561
  33.0831207  69.8930399  61.7061360  33.1778061  70.6319693  62.1600985
  32.4590051  69.4647874  62.1395924  33.0040237  69.9391719  61.8369507
  19.9380097  69.8505821  66.1934355  20.5153600  69.7142271  66.8326600
  19.2394159  69.3941605  66.4479939  19.9201119  69.7628087  66.3256644
  33.3354228  71.7379138  54.9398312  33.2534391  71.8081326  55.8053299
  33.9733949  72.3008882  54.7482052  33.4174066  71.8318109  55.0388261
  26.6947399  71.5039876  64.4072838  26.4366644  70.6711611  64.3804137
  26.7495882  71.7297489  63.5665338  26.6647177  71.4137648  64.2792975
  31.7748450  63.6068327  64.5076930  31.0704776  63.1177513  64.6660850
  31.8233424  63.6190801  63.6365375  31.6778501  63.5357975  64.4016270
  25.6682112  69.0577639  64.8937733  25.0931703  69.2169807  65.5301694
  25.2917788  68.4213048  64.4306183  25.5284924  68.9875452  64.9192291
  29.3355400  67.5300988  69.7530111  28.9469833  67.1055206  69.0982302
  28.6710099  67.7783138  70.2607138  29.1802328  67.5039709  69.7317979
  38.9778669  67.2875993  62.5277941  38.7215234  66.4755934  62.3375824
  39.8207983  67.2953560  62.3008128  39.0644695  67.1687990  62.4662758
  15.4138931  68.7017714  62.9082173  15.4999182  68.3249582  63.6895703
  16.0414728  68.3278159  62.4302131  15.5195482  68.5903196  62.9527651
  33.1581762  61.2275617  67.2654095  33.5392274  60.5453788  67.6521969
  32.3545046  60.9385219  67.0829760  33.0958224  61.0842665  67.2958151
  30.4394339  71.7599593  57.9506918  31.2534977  72.0514485  57.8389689
  30.3753480  71.1059455  57.3765211  30.5497078  71.7064787  57.8495755
  26.3102247  75.2321110  63.0779230  26.9476194  74.9932858  63.6231023
  26.7357318  75.4358269  62.3432391  26.4678413  75.2272120  63.0496387
  26.9505062  70.4523400  57.4154119  27.3350215  70.2331107  58.1670665
  26.7016682  71.2786345  57.5455196  26.9707134  70.5421546  57.5455196
  27.1173602  63.7329815  77.1316704  26.8027043  64.5029378  76.8686266
  26.7963535  63.1700071  76.5468931  27.0232521  63.7640084  77.0058054
  28.6923719  75.7093533  64.7573016  28.7662727  75.5468705  65.6114866
  29.5093225  75.8983722  64.5133498  28.8240077  75.7130275  64.8471042
  24.6705499  62.1220337  62.7462900  23.8027925  62.1942936  62.8120509
  24.9580704  62.9242416  62.9350875  24.5845247  62.2514484  62.7837667
  33.7938388  62.2698196  71.0774222  34.5391980  62.0808006  70.6637647
  33.3775693  62.7956434  70.5188078  33.8423362  62.3200341  70.9338795
  41.1700659  69.6407424  66.0279727  41.7208580  69.0075494  66.2676819
  41.1544774  70.1722817  66.7195231  41.2485855  69.6256373  66.1658585
  27.8223050  73.4746022  70.5739620  27.3234743  74.1861789  70.6524509
  28.6323274  73.7946688  70.5357783  27.8679156  73.6272870  70.5796189
  24.0851167  72.7368975  64.8202341  23.7964416  72.1106446  65.3548068
  24.9534515  72.6789262  64.8867022  24.1711419  72.6356519  64.9093296
  34.8729065  67.8803758  65.1384323  34.5293831  67.1594093  65.4891573
  34.9722108  67.6717609  64.2962681  34.8371108  67.7427961  65.0656003
  24.2883441  74.3764226  60.7444706  25.0429409  74.7577265  60.9580169
  23.6954053  74.8275369  61.1991403  24.3120154  74.4993053  60.8427585
  35.3342094  74.3429462  60.6808311  35.9000127  75.0022672  60.5966854
  34.6869998  74.6879160  61.1524713  35.3220851  74.4911404  60.7381068
  26.7490108  66.3327066  75.8701919  25.9389883  66.6384846  75.7591761
  27.2264794  67.0532648  75.9854503  26.6993586  66.4841667  75.8708990
  25.6081667  75.5472787  66.1184822  25.0862421  75.6873079  66.8036686
  25.9955688  74.7883451  66.3086939  25.5885368  75.4558311  66.2485898
  22.5972851  65.5978596  60.1879776  22.3097647  65.2279866  59.4511724
  23.2843320  66.0673451  59.9263481  22.6561749  65.6125565  60.0394852
  31.8048672  77.2868246  60.1045390  31.5635348  76.5536107  59.6972455
  31.9850005  77.8355103  59.4511724  31.7956296  77.2590638  59.9475613
  27.0347993  72.5776806  61.5166313  26.8390775  73.1851541  60.9226616
  27.2582338  71.8844750  61.0357987  27.0382634  72.5654332  61.3582393
  25.4326523  69.4631544  61.6347181  26.1549175  69.6272702  61.1750987
  24.9534516  70.1841209  61.5286521  25.4690254  69.5929774  61.5512795
  33.3920030  65.7995343  67.0143866  32.5531131  65.8256622  66.7782129
  33.4624398  66.4466078  67.5949213  33.2788424  65.8991469  67.0652983
  31.8389309  62.6980720  61.7471482  32.5415662  62.4988468  61.2691440
  31.5733497  61.9256662  62.0540325  31.9035941  62.5543686  61.7216923
  37.2677554  71.0063330  64.3005108  37.1811529  71.1618756  65.1539886
  36.8128034  71.6501405  63.9264513  37.1880811  71.1239085  64.3712214
  20.1701046  66.3759808  61.0365057  20.2717182  67.1785970  61.3646033
  20.9656933  66.1747144  60.7388138  20.3028951  66.4645707  61.0400413
  26.6017865  63.9616005  70.8002362  26.4101062  63.9771140  71.6501786
  27.4516461  64.1579679  70.7769017  26.6993587  63.9930356  70.9225657
  20.9864778  66.4906987  68.7786179  20.8450270  65.6390927  68.9030687
  21.2705341  66.5335647  67.9548385  21.0072624  66.3706737  68.6753803
  31.1403370  68.3274077  62.9230667  30.8938085  68.2469828  63.7567456
  31.4688493  67.5427545  62.7293195  31.1524614  68.2000342  63.0178190
  35.0351419  75.0357436  66.7117448  34.8965778  75.7338482  67.2166191
  34.2551417  74.8806093  66.3553630  34.8994646  75.1157603  66.7343723
  27.1000398  71.0630795  72.3353650  27.2443773  71.6432004  71.6996760
  27.4476046  71.4407092  73.0403505  27.1727859  71.2051499  72.3452645
  29.2720315  70.2620964  70.1178782  28.5243629  70.4551978  69.7127060
  29.4261840  69.4366183  69.8802903  29.1842743  70.1686075  70.0224188
  36.5304792  74.3935690  57.4733948  36.1511601  73.6072828  57.4663237
  35.8671037  74.9422547  57.3305592  36.3763267  74.3580514  57.4514745
  29.5122092  64.1571514  71.0074186  29.9694706  64.8895489  71.1346978
  29.5878421  63.7337980  71.7661441  29.5913062  64.2028753  71.1375262
  21.7555083  64.4037334  72.0963629  21.2197273  63.7917692  72.4124397
  21.8172848  64.9785470  72.7497296  21.6850716  64.3984262  72.2399056
  33.9849418  57.3361390  64.8768029  34.1032986  57.7937853  64.1435331
  33.8111594  56.5306651  64.5904246  33.9768589  57.2855162  64.7268962
  27.3904470  66.1473618  67.8516010  26.6000545  65.9665078  68.1733345
  27.7865093  65.3700571  67.8346304  27.3321346  66.0061079  67.8968558
  31.8770361  74.9761393  53.2922723  32.6443346  75.0361518  52.8828575
  31.4301670  74.4041834  52.8079042  31.9243788  74.8997968  53.1600434
  32.7748156  73.7816049  65.5775456  32.0993158  73.5501281  66.0788843
  32.7840532  73.1737231  64.9517561  32.6766661  73.6574974  65.5591608
  29.9042300  68.6233878  72.3339509  29.8401441  69.4843834  72.2059645
  30.0439488  68.3065871  71.5335060  29.9157770  68.7034044  72.1967721
  34.7764891  76.6381181  57.8085633  34.8584728  77.4448167  57.4847084
  35.2614633  76.6577140  58.5326407  34.8602049  76.7601843  57.8672532
  28.5861394  71.3166017  66.4755711  28.1623643  71.5170516  65.7394730
  28.4106249  70.4694865  66.5880011  28.4972275  71.2214798  66.3829402
  23.8743839  71.8118068  61.9083684  24.0308458  71.7464871  62.7639676
  24.2144432  72.5866621  61.6962364  23.9477074  71.9167266  62.0038278
  30.4122984  71.1875952  60.7777047  30.9538529  70.6846333  61.2415668
  30.7269543  71.1341147  59.9666532  30.5387381  71.1055373  60.7260859
  28.5809433  76.5793303  58.0617075  28.6502254  75.7207842  58.2010076
  29.3597889  76.7965184  57.7336100  28.7062283  76.4846167  58.0334232
  31.5612253  66.0812256  70.8299348  31.7754223  65.4423171  70.2762702
  30.9446152  66.5258080  70.4007209  31.5017582  66.0522400  70.6849779
  20.4478101  68.9953019  62.2244451  20.8277065  69.4137564  61.5604718
  19.8733465  69.5766474  62.5313294  20.4189425  69.1430878  62.1721192
  33.7251341  67.6901322  71.7682655  32.9128023  67.3827212  71.8495827
  34.1841276  67.2100322  72.3325367  33.6731726  67.5737814  71.8637249
  33.1356596  75.5680994  62.2159599  32.7771250  75.7395636  62.9923631
  32.6495307  76.0294199  61.6587598  33.0115293  75.6619965  62.2484868
  30.9526982  59.1912192  65.8186690  30.0820540  59.1650913  65.7720000
  31.2067323  59.0189384  65.0012536  30.8620542  59.1622336  65.6906827
  27.9244961  71.2480159  54.7559833  28.2137486  72.0245041  55.0303408
  28.0116760  70.7368890  55.4574333  27.9799217  71.2872077  54.9002331
  27.9776122  61.2018420  67.2760161  27.4614611  60.5098612  67.4011740
  27.4170051  61.8689198  67.2222760  27.8182635  61.1981678  67.2866227
  30.0468356  61.7411380  69.1053013  29.6600109  61.7660412  69.8866543
  29.5601293  61.1753059  68.6527530  29.9180865  61.6607131  69.1540917
  36.0218335  68.3074035  67.7292716  35.5945943  68.2200384  66.9740815
  35.3844388  68.4151811  68.3147560  35.8647942  68.3106695  67.7038157
  29.7125497  58.6278366  71.3963273  30.3418615  59.1638666  71.1184344
  29.8811360  58.5355725  72.2476839  29.8303292  58.6939728  71.4811801
  29.5139412  63.4149561  73.6689685  30.3412842  63.1434710  73.7248299
  29.5347258  64.2110402  74.0253503  29.6392262  63.4929315  73.7304868
  24.0908902  70.5613423  66.8559946  23.2496909  70.4617298  67.0638839
  24.2998910  71.3308904  67.2074266  23.9973595  70.6605467  66.9387260
  21.5684469  68.1832960  64.6844696  21.1741167  68.2575972  63.9094806
  21.0124586  68.5690907  65.2353058  21.4287281  68.2514735  64.6512356
  33.2049416  61.1614254  64.3648575  33.4099009  61.0936562  65.2105572
  32.8775840  61.9673076  64.2969753  33.1864664  61.2700195  64.4808230
  27.9025567  68.4894823  66.1057543  27.5988704  67.9350811  66.7067951
  27.2004988  68.6687033  65.6185577  27.7541777  68.4339605  66.1227249
  26.9591664  65.7995342  60.6702245  27.2351398  65.0814255  60.2579812
  27.5590333  66.3980262  60.4623351  27.0884929  65.7815713  60.5783006
  36.4583104  61.7146019  63.8451341  35.8457417  62.2016421  64.2305072
  36.5547278  61.0389510  64.3888992  36.3821001  61.6864327  63.9830199
  30.4602185  63.4708860  58.9448840  30.9145931  63.6419420  59.6696684
  30.9342230  62.8576971  58.5446616  30.5970505  63.4059745  58.9922601
  23.9817710  72.9557186  68.2751578  23.3905643  73.5966684  68.2454593
  24.7438734  73.3794803  68.2482878  24.0065971  73.1133024  68.2666726
  24.3778333  64.1159184  68.9419596  24.8379814  64.1898113  69.6794720
  24.4234439  64.9140438  68.5919417  24.4528888  64.2453331  68.9992352
  26.0261682  64.7825878  73.5091623  25.6347248  64.1359226  73.9447401
  26.1947545  65.3737314  74.1285878  25.9932593  64.7740146  73.6654329
  33.7407226  78.4066497  65.7083603  33.5426915  78.8957312  65.0139814
  33.1194937  78.6107739  66.2867736  33.6194791  78.5083036  65.6906826
  27.8015205  70.1751394  60.0493847  28.5457249  70.5625670  60.2876797
  27.9475901  69.3308820  60.2134335  27.9325790  70.1081867  60.1087817
  29.7194780  61.9701653  65.0825709  28.8730825  62.1424461  64.9567058
  29.7165912  61.1650997  65.4191537  29.5941930  61.8762682  65.1136836
  30.7893080  65.7476867  65.9487766  30.3153035  65.2218630  66.4593077
  31.1611216  65.2006340  65.3802628  30.7742969  65.5892864  65.9402914
  21.1666111  67.7448374  71.3171312  22.0291724  67.6444083  71.2308642
  20.8357894  67.1643083  70.7556884  21.2451307  67.6440001  71.2216718
  37.0529811  70.8079243  67.3594547  36.8128034  69.9685658  67.3636973
  37.5321818  70.8879410  68.0835320  37.0881995  70.6960643  67.4669349
  32.7176580  66.6413422  59.0113520  32.1899599  66.7242166  58.3219229
  33.1772288  67.3831294  59.0078165  32.7078431  66.7634084  58.9088215
  39.0534998  67.5880700  65.3123806  38.8144768  67.5476535  64.4744591
  39.2168899  68.4351852  65.4389527  39.0425301  67.7072785  65.2077288
  24.5267897  66.5690823  67.9781730  23.9020967  66.5809215  67.3707683
  24.1913491  67.0450998  68.6272971  24.3853388  66.6409340  67.9838299
  24.7109645  64.9115942  54.0354415  24.3622450  65.5635667  54.4985965
  24.2306091  64.8973055  53.3078287  24.5879889  65.0058995  53.9965507
  32.2713663  75.2116986  58.1423177  32.9947861  75.6775099  57.9987751
  31.8314254  75.2790595  57.3920774  32.3129355  75.2900822  58.0107959
  31.4399818  72.0714528  69.3923866  30.8256811  71.5272578  69.6872502
  31.9567103  71.5578764  68.9129682  31.4255480  71.9150937  69.3648095
  30.6796115  73.1418798  67.1268165  30.2523723  72.5168517  66.6933600
  30.6721059  72.8593720  67.9527172  30.6155256  73.0071579  67.1847992
  23.7958642  68.1783971  70.1956599  23.9552129  67.4227295  70.6008321
  23.6151536  68.7274911  70.8497337  23.7924001  68.1477785  70.3519305
  31.7378945  60.3445207  70.7507388  31.2419506  60.5408881  70.0598955
  32.4948007  60.7437875  70.5796190  31.7765770  60.4322940  70.6227525
  29.0081824  64.0187552  67.3410699  29.0324312  63.4847665  66.6523479
  29.2593298  63.5104861  68.0036290  29.0491743  63.8648456  67.3375344
  25.2883147  62.7458371  66.7216443  25.3281518  63.2467577  67.4351151
  24.4632811  62.8368764  66.4522366  25.1722673  62.8340187  66.7866981
  26.7097510  69.2618881  69.0190342  25.8789440  69.4292699  68.8125590
  26.6549027  68.8854831  69.8039228  26.5786925  69.2308612  69.1038870
  24.5181293  62.7527773  74.6546753  25.1433997  62.2089906  74.9276185
  24.0631773  62.2722691  74.0854543  24.5429554  62.6017255  74.6108347
  25.0833554  67.5374472  59.5480460  25.2236515  68.0346936  60.2509101
  25.5816087  66.8360766  59.6894674  25.1774635  67.5076451  59.6732039
  25.1133776  68.4041583  56.8773037  25.7478856  69.0002008  56.8122499
  25.1959387  68.1045041  57.6918907  25.2190327  68.4482491  56.9876123
  26.6912759  64.3355559  56.8518479  27.0128600  63.8558641  56.1977741
  26.9539703  65.1455205  56.6609290  26.7778785  64.3845456  56.7273971
  29.9209732  75.3574433  70.3717295  29.4134823  75.9110280  70.8157925
  29.6236378  75.4182723  69.5536069  29.8014617  75.4480744  70.3165752
  32.0871914  63.7227753  69.2141958  32.5126986  63.2700279  68.6025484
  31.4728907  63.1687823  69.4906745  32.0600560  63.5741729  69.1646983
  21.6186764  70.6009424  60.1462583  22.1278994  71.1973931  60.5273888
  22.0921036  70.3335398  59.4639002  21.7630140  70.6495239  60.1017106
  30.5266137  60.1942852  62.6232535  29.8834455  60.0440499  63.1917673
  30.1865544  59.9485198  61.8581639  30.3811214  60.1354975  62.5935550
  35.1165483  68.1502279  62.0462543  34.4456673  68.6931981  61.9175609
  35.8105234  68.6197134  61.8044238  35.1194351  68.3000550  61.9918071
  35.2793611  64.6058163  64.9552917  35.6321221  64.1787886  65.6298715
  34.4208412  64.5209006  65.0853993  35.2043056  64.5302903  65.0747927
  23.9777296  67.2365682  63.0135763  23.2589285  67.6529815  63.2808627
  24.3489658  67.8019921  62.4627401  23.9269228  67.3814964  62.9718570
  33.2776877  67.8693531  68.9037759  33.2574804  67.6876827  69.7572538
  33.3256077  68.7405550  68.8797343  33.2811518  67.9710070  69.0261054
  29.7523870  66.2763682  58.3509143  29.1588710  66.5980679  57.7993710
  29.7899148  65.4304778  58.1430249  29.6698259  66.1988011  58.2391914
  36.7117671  59.7276575  65.8837229  36.2048536  59.0205714  65.8158407
  37.5085105  59.3969763  66.0138306  36.7544910  59.5749726  65.8936224
  32.6281687  66.2343187  61.7810893  32.3995380  66.2575888  60.9389251
  32.8879763  65.4100654  61.9005903  32.6327875  66.1159267  61.6736091
  26.9100915  68.0877660  71.3835993  26.3979818  67.4798843  71.7421025
  26.7380411  68.8034252  71.8509969  26.8090552  68.1040959  71.5052217
  25.6826449  64.7719733  63.0765089  26.1583816  65.1336813  62.4415270
  25.1815049  65.4276201  63.3565231  25.6791808  64.9213922  63.0241830
  38.9137811  74.2441501  58.8678094  39.2971417  74.9932857  59.0976191
  38.1181924  74.4907321  58.6090083  38.8531593  74.3911195  58.8635667
  30.7869986  66.0101905  73.8238249  31.3441416  65.7815714  73.1916714
  30.4631051  66.7707570  73.5473461  30.8216396  66.0885741  73.6894746
  27.7253103  66.9160933  56.4438473  28.1052067  66.9340562  55.6589587
  26.9845699  67.3614922  56.3229320  27.6721940  66.9842708  56.3102041
  17.4155664  68.6482909  66.4472868  17.2377425  68.1959518  67.1727783
  17.1274686  69.4509070  66.6311345  17.3468617  68.7005466  66.5816371
  33.0779245  69.9040626  65.6850258  33.5732910  69.1863621  65.6454278
  32.2679021  69.6011424  65.5704745  33.0323138  69.7538272  65.6623984
  28.5237857  73.7538439  57.8347263  27.7149179  73.4305113  57.7880572
  29.0312766  73.0471661  57.7675511  28.4787523  73.6019756  57.8177557
  19.1528134  71.1810632  63.5594627  18.2873653  71.1696323  63.4477398
  19.2526950  70.9940855  64.4065766  19.0402301  71.1516694  63.6683571
  35.1431064  72.6544313  68.3727387  35.5686136  72.1318735  67.8197812
  34.7787984  73.2525151  67.8516010  35.1517667  72.6654540  68.2136397
  31.7309663  76.3678578  64.7028544  32.2020842  77.0818840  64.8718530
  32.0669842  75.7677328  65.2388414  31.8504778  76.3850042  64.8060920
  28.6479158  61.1406048  71.6586639  28.7807064  60.3437042  71.9867615
  29.0324311  61.6672451  72.2384915  28.7235487  61.1005965  71.7930142
  31.7211514  58.0636374  68.2567732  30.9157477  57.9534104  68.5735571
  31.5918249  58.1648830  67.3997598  31.5831646  58.0620044  68.1775773
  35.1777474  64.2281866  68.8507429  34.5940463  64.7291073  68.4384997
  35.4981768  63.7211423  68.2171753  35.1390649  64.2273701  68.6965936
  27.7172273  63.1422461  59.1266104  28.5387968  63.3120774  58.8847799
  27.2541924  63.2969722  58.4032402  27.7703436  63.1904194  58.9837748
  26.3067605  61.1365223  69.9064533  26.8512018  60.7956350  70.4968875
  26.3604541  61.9950685  70.0485817  26.3956725  61.2120483  70.0146406
  31.9341936  77.1647585  67.9965578  32.7540310  77.0210551  68.2581873
  31.6536014  77.7893783  68.5382016  32.0138679  77.2357937  68.1153518
  38.3331058  78.7567153  64.6851768  38.0034388  79.2078296  64.0155467
  37.6576060  78.6783316  65.2324775  38.1841494  78.8118288  64.6674991
  45.5407466  74.7452676  62.9301379  45.2260907  75.4356154  63.3621801
  45.0234408  74.6897458  62.2286879  45.4171936  74.8387564  62.8898328
  36.5387012  76.8179441  60.1674716  37.2932980  77.1857758  59.9291766
  36.3614547  77.1918996  60.9353895  36.6241491  76.9277629  60.2459604
  34.8944077  79.2249760  56.8652829  34.7119650  79.4421641  56.0393822
  35.7569690  79.3388773  56.9211443  34.9948666  79.2739658  56.7507316
  40.5743796  76.2276171  59.9001853  41.3029956  76.0492126  59.4540009
  40.6638689  77.0694251  60.1109031  40.6950458  76.3260049  59.8655370
  35.6438083  77.6405645  62.7462900  34.7760508  77.7128244  62.8120509
  35.9313287  78.4427723  62.9350875  35.5577831  77.7699792  62.7837667
  42.8121892  78.2166028  61.7471482  43.5148245  78.0173776  61.2691440
  42.5466081  77.4441970  62.0540325  42.8768525  78.0728994  61.7216923
  44.9582002  72.8546698  64.8768029  45.0765570  73.3123161  64.1435331
  44.7844177  72.0491959  64.5904246  44.9501172  72.8040470  64.7268962
  41.9259565  74.7097500  65.8186690  41.0553123  74.6836221  65.7720000
  42.1799907  74.5374692  65.0012536  41.8353125  74.6807644  65.6906827
  41.4334768  78.9894168  58.9448840  41.8878515  79.1604728  59.6696684
  41.9074814  78.3762278  58.5446616  41.5703088  78.9245053  58.9922601
  40.6927364  77.4886961  65.0825709  39.8463409  77.6609769  64.9567058
  40.6898496  76.6836305  65.4191537  40.5674514  77.3947990  65.1136836
  43.6909164  82.1598730  59.0113520  43.1632182  82.2427474  58.3219229
  44.1504872  82.9016601  59.0078165  43.6811014  82.2819392  58.9088215
  37.6645343  79.8540866  56.8518479  37.9861184  79.3743949  56.1977741
  37.9272286  80.6640513  56.6609290  37.7511368  79.9030764  56.7273971
  41.4998721  75.7128160  62.6232535  40.8567039  75.5625807  63.1917673
  41.1598128  75.4670505  61.8581639  41.3543798  75.6540283  62.5935550
  38.6904857  78.6607769  59.1266104  39.5120551  78.8306082  58.8847799
  38.2274508  78.8155030  58.4032402  38.7436019  78.7089502  58.9837748
  15.1808660  15.2034644  47.8948501  15.1502664  16.0579280  48.0666771
  15.7790008  14.9029936  48.4534645  15.2645818  15.2851140  48.0023304
   8.3808345  14.2910295  52.6501432   7.5246240  14.4518793  52.7010549
   8.4275998  13.4202359  52.6706493   8.2607456  14.1861097  52.6607498
   2.7649484  23.8273013  48.4138663   2.0132384  23.4488551  48.1854708
   3.2135496  23.8591446  47.6657474   2.7199151  23.7758620  48.2696166
  11.6902061  20.5596820  62.2561888  12.3968828  20.0648851  62.3848822
  11.8789996  21.0005902  61.5264546  11.8229967  20.5515171  62.1670933
   8.2174444  24.2498382  43.8424210   7.8825813  24.9275304  43.4068433
   8.7301315  23.8603693  43.2541082   8.2440025  24.2922960  43.6911002
   7.7578735  26.2012651  49.7835322   8.1418115  26.7699549  49.2440097
   7.6937877  25.4762161  49.3041138   7.8052163  26.1788114  49.6329185
  11.2260166  16.3502339  55.2933083  11.7716126  17.0287425  55.3527053
  11.1677042  16.2089799  54.4334665  11.2976080  16.4294340  55.1745144
   4.3434240  23.8391405  50.6801436   4.4444603  23.0291759  50.9898564
   3.7475986  23.7448351  50.0501114   4.2706779  23.7056433  50.6327674
  13.0025234  17.7786946  46.1666811  12.8864760  18.5294632  46.5958949
  13.7981121  17.5210899  46.4162898  13.1029824  17.8521793  46.2670903
   4.1834980  28.7568994  52.0816292   4.8272435  29.1982158  52.4712450
   4.5091236  27.9522420  51.9946551   4.3266809  28.7034189  52.1261769
   7.1245203  20.1567409  47.5250332   7.5638839  19.5484509  47.9705105
   6.9749866  19.7774782  46.7535797   7.1666669  20.0105880  47.4769499
   4.5916846  18.7511421  54.7269157   5.2365849  18.2583864  54.4080106
   4.8318623  18.8936207  55.5535236   4.7227431  18.6988863  54.8018690
   7.1302938  21.5966326  54.3776050   7.4126180  20.8017732  54.1562806
   7.8589098  22.0746914  54.3981111   7.2792501  21.5500923  54.3479065
  10.7254540  18.5094590  44.4781101  10.6405835  19.3655557  44.6230670
  11.2138923  18.2338914  45.1463260  10.7843437  18.5951911  44.5983183
  12.3160539   5.1274883  49.8641426  12.0013980   5.8178362  50.2961848
  11.7987481   5.0719665  49.1626926  12.1925010   5.2209772  49.8238375
  11.6572973  15.1279384  45.9778836  11.1284444  15.3439018  46.6376142
  12.1797993  15.8215523  45.8979805  11.6561426  15.2622521  46.0634435
  17.1121026  20.7025689  51.3511881  16.2818729  20.9136332  51.5145297
  17.0630278  19.8762743  51.0754164  16.9827761  20.6115295  51.3349246
   3.5472581  19.0242601  44.7786304   2.9629796  19.5292632  45.1852168
   3.1442676  18.7984988  44.0382896   3.4011885  19.0650849  44.7291329
   5.1730763  23.5329543  54.1859790   4.6557705  23.1736958  53.5821098
   5.8705155  23.0091717  54.1965856   5.1996345  23.4027231  54.0990049
   8.8294355  23.9824357  60.1475963   8.9177701  23.7950497  60.9954173
   9.2584068  23.3361786  59.7480810   8.9056458  23.8587364  60.2147715
   6.3964815  23.2655517  59.1293625   5.8335650  22.8528127  59.6533287
   7.1585839  23.1908422  59.5486769   6.4259264  23.1932917  59.2686626
   8.0049795  15.2708253  43.2555225   8.2445799  15.4786237  42.4430568
   8.3265636  14.4665762  43.3644169   8.0886953  15.1822354  43.1515778
   1.9560807  25.2553538  51.7330255   2.6581386  24.7405527  51.7903012
   1.8758290  25.5827689  52.5377131   2.0484567  25.2267764  51.8603048
  16.6074984  13.3496089  55.1462302  15.7703405  13.4198276  55.3809896
  16.5763215  13.3520584  54.2736604  16.4793267  13.3606316  55.0521850
   1.2811582  21.4459890  51.2415864   2.1200481  21.6782823  51.2889625
   1.3123351  20.5764201  51.1722899   1.4093300  21.3516836  51.2380508
   1.9064285  21.8660765  55.5429169   2.4462510  21.7231896  56.2132541
   1.2234231  22.2657516  55.9113195   1.8856439  21.9040436  55.6963591
  11.3305170  17.5451766  50.7374193  12.0862685  17.9783280  50.7763102
  11.4367494  16.8956535  51.3108829  11.4575341  17.5129250  50.8272219
  14.3685341  21.3725043  51.4876596  13.9320573  21.3761785  52.2435568
  14.0348257  22.0530542  51.0556174  14.2547961  21.4737499  51.5357429
   8.9414415  23.4133376  62.8119747   9.7254831  23.5264224  63.1775489
   8.7411009  22.5874513  63.0078433   9.0280440  23.3080095  62.8954133
  14.2882824   8.4138871  53.7306024  14.9308732   8.4836975  54.3167940
  14.5405845   7.7468094  53.2285566  14.4204956   8.3265219  53.7433304
   1.2159177  12.8846140  42.3115349   0.5017354  12.5984320  42.7237781
   1.7003146  13.2242766  42.9521736   1.1818540  12.8927790  42.4670984
   9.0984808  25.3243478  56.4586202   8.3000054  25.0842978  56.7160071
   9.5470820  25.3757871  57.2053250   9.0459419  25.2965869  56.6071127
  17.5029687  18.0905963  50.3796234  18.1646121  17.5296631  50.2792142
  16.8621099  17.5957994  50.7048925  17.5058555  17.9342372  50.4128574
   8.3906495  21.3876094  42.6877157   8.8057643  21.0561118  41.9961653
   7.5598425  21.1544997  42.5597294   8.3294504  21.3047350  42.5668004
  13.7894518  19.1071345  50.1208222  14.0250107  19.2516544  49.2935073
  13.9384082  19.8713753  50.5139736  13.8460321  19.2410400  50.0571826
  15.6184975  17.9473011  47.9577826  15.9493192  18.4800651  47.3517921
  16.1918063  18.0011899  48.6139777  15.7518654  18.0342580  47.9655608
  10.8316864  15.7937914  48.6401406  10.9263718  16.5327208  49.0941032
  10.2075707  15.3655389  49.0735971  10.7525894  15.8399235  48.7709554
   9.0869338  18.9724127  59.2891687   9.6608199  18.3351371  59.4440251
   9.0084141  18.9728209  58.4201345   9.1602573  18.8789238  59.1838098
  11.0839885  17.6386654  41.8738358  11.0020048  17.7088841  42.7393345
  11.7219606  18.2016398  41.6822099  11.1659722  17.7325625  41.9728308
   4.4433056  17.4047392  51.3412885   4.1852301  16.5719127  51.3144184
   4.4981539  17.6305005  50.5005385   4.4132834  17.3145163  51.2133021
   9.5234106   9.5075842  51.4416977   8.8190433   9.0185028  51.6000896
   9.5719081   9.5198317  50.5705422   9.4264158   9.4365490  51.3356317
   3.4167768  14.9585154  51.8277779   2.8417360  15.1177323  52.4641740
   3.0403445  14.3220563  51.3646230   3.2770581  14.8882967  51.8532338
   7.0841057  13.4308503  56.6870158   6.6955490  13.0062721  56.0322349
   6.4195755  13.6790653  57.1947184   6.9287985  13.4047225  56.6658026
  16.7264326  13.1883508  49.4617988  16.4700891  12.3763450  49.2715871
  17.5693640  13.1961075  49.2348175  16.8130352  13.0695506  49.4002805
  10.9067419   7.1283132  54.1994142  11.2877930   6.4461303  54.5862016
  10.1030703   6.8392734  54.0169807  10.8443880   6.9850181  54.2298198
   8.1879995  17.6607108  44.8846965   9.0020634  17.9522001  44.7729736
   8.1239137  17.0066970  44.3105258   8.2982734  17.6072303  44.7835802
  14.4089485  20.3433104  59.2976540  14.1728123  19.5121169  59.1788601
  15.0532714  20.2918711  59.8831385  14.4684156  20.2130792  59.3662434
   4.0587904  21.1328625  50.0119277   4.6961851  20.8940373  50.5571070
   4.4842975  21.3365784  49.2772437   4.2164070  21.1279636  49.9836434
   4.6990719  16.3530915  44.3494166   5.0835871  16.1338622  45.1010711
   4.4502339  17.1793861  44.4795243   4.7192791  16.4429061  44.4795243
  15.4325906  20.1277553  55.3604835  15.1271723  20.8605610  55.7218151
  14.7132122  19.7215482  55.0797621  15.2813248  20.1759286  55.3717972
   6.4409376  21.6101048  51.6913063   6.5148384  21.4476220  52.5454913
   7.2578882  21.7991238  51.4473545   6.5725734  21.6137790  51.7811089
  21.1327698  16.7670554  54.6873179  21.0652199  16.7866513  53.8175766
  21.1183361  17.6100881  54.9128850  21.1206455  16.8944288  54.5925656
   4.9813961  24.5735791  46.4226537   5.2712260  24.1824772  45.6985763
   5.7117442  24.7552496  46.8631812   5.1320845  24.5429605  46.3809344
  18.9186316  15.5414940  52.9619774  19.4694237  14.9083009  53.2016866
  18.9030431  16.0730333  53.6535278  18.9971512  15.5263888  53.0998632
   5.5708706  19.3753537  57.5079667   5.0720400  20.0869305  57.5864555
   6.3808931  19.6954204  57.4697829   5.6164813  19.5280386  57.5136236
   2.9219877  26.5503174  49.4886686   2.7020172  26.2600528  50.2813353
   2.7014399  25.8918129  48.9604599   2.8567471  26.4102882  49.5275595
   1.8336824  18.6376490  51.7542388   1.5450073  18.0113961  52.2888115
   2.7020172  18.5796777  51.8207068   1.9197076  18.5364034  51.8433342
  12.6214722  13.7811273  52.0724370  12.2779488  13.0601609  52.4231619
  12.7207764  13.5725125  51.2302728  12.5856765  13.6435477  51.9996050
   5.0887833  27.9232563  48.2717379   5.7411891  27.3909006  48.5008405
   4.3913441  27.5701216  48.6585253   5.0818551  27.7922086  48.3629546
   2.0369097  20.2771741  47.6784753   2.7915065  20.6584780  47.8920216
   1.4439710  20.7282885  48.1331449   2.0605811  20.4000568  47.7767631
  13.0827751  20.2436978  47.6148358  13.6485784  20.9030187  47.5306901
  12.4355654  20.5886676  48.0864760  13.0706507  20.3918919  47.6721114
   3.3567324  21.4480302  53.0524868   2.8348078  21.5880594  53.7376733
   3.7441344  20.6890967  53.2426986   3.3371025  21.3565826  53.1825945
   9.5534329  23.1875762  47.0385437   9.3121005  22.4543622  46.6312502
   9.7335662  23.7362619  46.3851770   9.5441953  23.1598153  46.8815660
   4.7833650  18.4784322  48.4506359   4.5876432  19.0859056  47.8566662
   5.0067995  17.7852266  47.9698033   4.7868291  18.4661847  48.2922440
   3.1812180  15.3639059  48.5687228   3.9034832  15.5280218  48.1091034
   2.7020172  16.0848724  48.4626568   3.2175910  15.4937289  48.4852842
  11.1405687  11.7002858  53.9483913  10.3016788  11.7264137  53.7122176
  11.2110055  12.3473594  54.5289259  11.0274081  11.7998984  53.9993030
   0.8319796  17.7697132  57.6741368   1.3440893  18.0481385  57.0250127
   0.5456139  18.5086426  58.0404181   0.8654659  17.9199486  57.6331246
   9.5874966   8.5988235  48.6811529  10.2901318   8.3995984  48.2031487
   9.3219154   7.8264178  48.9880372   9.6521598   8.4551201  48.6556970
  15.0163211  16.9070845  51.2345154  14.9297186  17.0626271  52.0879933
  14.5613691  17.5508921  50.8604560  14.9366468  17.0246600  51.3052261
   8.8889027  14.2281592  49.8570714   8.6423741  14.1477343  50.6907503
   9.2174150  13.4435060  49.6633241   8.9010271  14.1007857  49.9518237
  12.7837076  20.9364951  53.6457495  12.6451435  21.6345997  54.1506238
  12.0037074  20.7813608  53.2893677  12.6480303  21.0165118  53.6683769
  11.1215161  17.2361327  59.8979877  11.1163200  16.3641143  59.9022303
  11.8276155  17.4349496  59.4249333  11.2260165  17.1365201  59.8286912
   4.8486054  16.9638311  59.2693697   4.9929430  17.5439519  58.6336807
   5.1961703  17.3414607  59.9743552   4.9213516  17.1059015  59.2792692
   7.0205972  16.1628479  57.0518829   6.2729286  16.3559493  56.6467107
   7.1747497  15.3373699  56.8142950   6.9328399  16.0693590  56.9564234
   3.9213809  25.1541082  56.1354724   4.0703373  24.5943998  55.4828128
   4.7013811  25.2333084  56.5187243   4.0587903  25.0826648  56.0951673
  14.2790449  20.2943205  44.4073994  13.8997258  19.5080343  44.4003284
  13.6156694  20.8430062  44.2645639  14.1248924  20.2588029  44.3854791
   6.4467110  25.3255725  57.4139215   6.3710781  24.6564536  57.9690003
   6.3756969  26.0273514  57.9279881   6.4247717  25.3300633  57.5716063
   7.1037357  23.8456724  48.2462821   7.8687248  23.5766368  47.9245485
   7.0015447  23.3606735  48.9632883   7.2018852  23.7346289  48.3042648
   5.1390127  12.0481134  54.7856056   4.3486201  11.8672594  55.1073392
   5.5350750  11.2708086  54.7686351   5.0807003  11.9068595  54.8308605
   9.6256017  20.8768908  40.2262770  10.3929003  20.9369033  39.8168622
   9.1787326  20.3049349  39.7419089   9.6729445  20.8005484  40.0940480
  10.5233813  19.6823564  52.5115502   9.8478815  19.4508796  53.0128889
  10.5326189  19.0744747  51.8857607  10.4252318  19.5582489  52.4931655
   7.6527957  14.5241393  59.2679555   7.5887098  15.3851349  59.1399692
   7.7925145  14.2073386  58.4675107   7.6643427  14.6041559  59.1307768
  12.5250548  22.5388696  44.7425680  12.6070385  23.3455682  44.4187131
  13.0100290  22.5584655  45.4666454  12.6087705  22.6609359  44.8012579
   6.3347051  17.2173532  53.4095758   5.9109300  17.4178031  52.6734777
   6.1591906  16.3702380  53.5220058   6.2457931  17.1222314  53.3169448
   5.8358744  28.7324045  55.8717216   6.3254675  28.0334834  55.6892880
   5.2642977  28.4347915  56.4593273   5.8243274  28.5850269  55.9318256
   1.6229496  17.7125584  48.8423731   1.7794115  17.6472386  49.6979723
   1.9630089  18.4874136  48.6302410   1.6962731  17.8174782  48.9378325
   8.1608640  17.0883467  47.7117094   8.7024186  16.5853848  48.1755715
   8.4755199  17.0348662  46.9006579   8.2873038  17.0062888  47.6600906
  12.0325748  21.2986115  64.8244006  12.8460613  21.0271263  64.9849139
  11.8720714  20.9993654  64.0204202  12.1295696  21.2141041  64.7289412
   6.3295090  22.4800819  44.9957122   6.3987910  21.6215357  45.1350122
   7.1083545  22.6972700  44.6676147   6.4547940  22.3853683  44.9674279
   9.3097910  11.9819772  57.7639394   9.5239879  11.3430686  57.2102748
   8.6931809  12.4265596  57.3347256   9.2503239  11.9529915  57.6189826
  10.7202578  24.9038520  49.2093615  10.3282369  24.6005235  48.4916481
  10.8755650  25.7407610  49.0198569  10.6856168  24.9822357  49.0750112
  11.4736998  13.5908837  58.7022702  10.6613680  13.2834727  58.7835874
  11.9326932  13.1107837  59.2665414  11.4217383  13.4745329  58.7977296
  10.8842253  21.4688509  49.1499646  10.5256907  21.6403152  49.9263678
  10.3980963  21.9301714  48.5927644  10.7600949  21.5627480  49.1824915
   5.6730618  17.1487674  41.6899880   5.9623143  17.9252557  41.9643455
   5.7602417  16.6376406  42.3914380   5.7284874  17.1879593  41.8342378
  12.0446992  22.3592405  60.0966847  12.6826712  21.8652600  59.7629303
  11.4021083  22.2869805  59.5119074  12.0441218  22.2751413  59.9609202
  13.7703992  14.2081551  54.6632762  13.3431600  14.1207899  53.9080862
  13.1330045  14.3159326  55.2487606  13.6133599  14.2114211  54.6378204
  12.1001248  23.0512213  56.7372203  12.8893627  22.7001278  56.8574285
  12.2744846  23.8648601  56.4748837  12.2421530  23.1198070  56.7160071
   1.8394559  16.4620939  53.7899992   0.9982565  16.3624813  53.9978886
   2.0484567  17.2316419  54.1414313   1.7459251  16.5612982  53.8727307
  10.9535073   7.0621770  51.2988622  11.1584666   6.9944078  52.1445619
  10.6261497   7.8680591  51.2309799  10.9350321   7.1707710  51.4148277
   5.6511224  14.3902338  53.0397590   5.3474361  13.8358326  53.6407998
   4.9490645  14.5694548  52.5525624   5.5027434  14.3347120  53.0567295
   4.7077321  11.7002858  47.6042292   4.9837055  10.9821770  47.1919859
   5.3075990  12.2987778  47.3963398   4.8370585  11.6823229  47.5123053
   3.7129575  21.6052059  57.7469688   3.6049930  21.6154121  58.6131746
   3.9225356  22.4306839  57.5574641   3.7279686  21.7293134  57.8473779
  14.2068760   7.6153534  50.7791387  13.5943074   8.1023936  51.1645119
  14.3032935   6.9397025  51.3229039  14.1306658   7.5871843  50.9170246
   8.2087841   9.3716375  45.8788887   8.6631588   9.5426936  46.6036731
   8.6827887   8.7584486  45.4786662   8.3456161   9.3067260  45.9262648
   1.7303367  18.8564701  55.2091625   1.1391300  19.4974199  55.1794640
   2.4924390  19.2802318  55.1822925   1.7551627  19.0140540  55.2006772
  17.8493788  18.6870471  56.2068903  17.9076912  19.1357120  56.9528880
  17.2160256  19.0969284  55.7698983  17.7645083  18.8144205  56.2521452
  11.4892883  24.3074013  52.6423650  11.2912572  24.7964827  51.9479861
  10.8680594  24.5115254  53.2207783  11.3680447  24.4090551  52.6246873
   5.5500861  16.0758910  46.9833894   6.2942906  16.4633186  47.2216844
   5.6961558  15.2316335  47.1474382   5.6811446  16.0089382  47.0427864
   8.5378737  11.6484383  52.8827813   8.0638691  11.1226145  53.3933124
   8.9096873  11.1013856  52.3142675   8.5228626  11.4900379  52.8742960
  14.8015468  16.7086759  54.2934594  14.5613691  15.8693174  54.2977020
  15.2807475  16.7886925  55.0175367  14.8367651  16.5968158  54.4009396
  10.4662237  12.5420937  45.9453567   9.9385255  12.6249681  45.2559276
  10.9257945  13.2838809  45.9418212  10.4564087  12.6641600  45.8428262
  16.8020655  13.4888216  52.2463853  16.5630425  13.4484050  51.4084638
  16.9654556  14.3359368  52.3729574  16.7910958  13.6080301  52.1417335
  13.4066685  17.8738165  58.1768898  14.1300884  17.4210691  57.9979918
  13.1416647  18.1542831  57.3941226  13.4747958  17.8489134  58.0347613
   2.2753553  12.4698339  54.9121777   1.6506623  12.4816731  54.3047730
   1.9399148  12.9458514  55.5613017   2.1339045  12.5416856  54.9178346
  10.0199319  21.1124501  45.0763224  10.7433518  21.5782614  44.9327797
   9.5799910  21.1798111  44.3260821  10.0615012  21.1908338  44.9448006
   9.1885474  17.9722043  56.3263913   8.5742468  17.4280094  56.6212548
   9.7052759  17.4586280  55.8469729   9.1741137  17.8158452  56.2988142
   8.4281772  19.0426313  54.0608212   8.0009380  18.4176032  53.6273647
   8.4206716  18.7601235  54.8867219   8.3640913  18.9079094  54.1188039
   6.7567481   9.9195068  54.2750746   6.7809968   9.3855180  53.5863526
   7.0078955   9.4112377  54.9376336   6.7977400   9.7655972  54.2715390
   4.4583167  15.1626396  55.9530389   3.6275097  15.3300214  55.7465637
   4.4034684  14.7862347  56.7379274   4.3272582  15.1316127  56.0378917
   2.8319211  13.4381987  46.4820507   2.9722172  13.9354452  47.1849148
   3.3301744  12.7368282  46.6234720   2.9260292  13.4083966  46.6072086
   2.8619433  14.3049098  43.8113084   3.4964513  14.9009524  43.7462545
   2.9445044  14.0052556  44.6258954   2.9675984  14.3490007  43.9216170
  15.8401999  16.8364576  56.6799448  16.4319839  17.4761827  56.7117646
  16.2760993  16.1387613  56.9691515  15.9920430  16.8282926  56.7280280
   4.4398416  10.2363074  43.7858526   4.7614257   9.7566156  43.1317788
   4.7025360  11.0462720  43.5949337   4.5264441  10.2852972  43.6614018
   7.6695389  21.2581948  57.3057342   7.1620480  21.8117795  57.7497972
   7.3722035  21.3190238  56.4876116   7.5500274  21.3488259  57.2505798
   9.8357571   9.6235268  56.1482005  10.2612642   9.1707794  55.5365531
   9.2214564   9.0695339  56.4246792   9.8086216   9.4749244  56.0987030
  10.2803169  25.1745206  45.2361285   9.5632479  25.0006068  44.7708523
  10.9309907  24.9397778  44.7036771  10.2705020  25.1140998  45.0890503
  12.8651140  14.0509794  48.9802590  12.1942330  14.5939497  48.8515656
  13.5590891  14.5204650  48.7384285  12.8680008  14.2008066  48.9258118
   6.9137874  26.1906506  54.2114349   6.6903528  25.4325336  54.5798375
   6.4247717  26.2204528  53.4894788   6.8081323  26.0828731  54.1591090
  13.0279268  10.5065678  51.8892963  13.3806878  10.0795401  52.5638762
  12.1694069  10.4216522  52.0194040  12.9528712  10.4310419  52.0087974
   1.7262953  13.1373198  49.9475810   1.0074942  13.5537330  50.2148674
   2.0975315  13.7027437  49.3967448   1.6754884  13.2822479  49.9058617
  11.0262534  13.7701047  55.8377806  11.0060461  13.5884342  56.6912585
  11.0741734  14.6413065  55.8137389  11.0297175  13.8717585  55.9601100
   8.9708863  20.3588239  61.7626282   8.9304718  19.7137916  61.1771438
   9.7832182  20.3024856  62.0751694   9.0852017  20.2547206  61.7223231
   5.5616331  26.4106965  51.6651433   5.1476730  25.7481095  51.2755275
   6.2463705  26.5584823  51.1447127   5.6014703  26.3347623  51.5307930
   8.9281625  25.5697050  52.4175050   8.5297908  25.6799320  51.6495870
   8.3132845  25.7779116  53.0001610   8.7780514  25.6170618  52.3906349
   7.5009527  12.1771198  45.2849189   6.9074366  12.4988194  44.7333757
   7.5384805  11.3312293  45.0770296   7.4183916  12.0995526  45.1731961
  14.4603328   5.6284090  52.8177276  13.9534192   4.9213230  52.7498453
  15.2570762   5.2977279  52.9478353  14.5030567   5.4757241  52.8276271
  10.3767344  12.1350702  48.7150940  10.1481037  12.1583404  47.8729298
  10.6365420  11.3108169  48.8345950  10.3813532  12.0166782  48.6076137
   3.4312106  10.6727248  50.0105135   3.9069472  11.0344328  49.3755317
   2.9300706  11.3283716  50.2905278   3.4277465  10.8221437  49.9581876
  16.6623468  20.1449017  45.8018140  17.0457074  20.8940373  46.0316237
  15.8667581  20.3914836  45.5430129  16.6017250  20.2918710  45.7975714
   5.4738759  12.8168448  43.3778519   5.8537724  12.8348077  42.5929634
   4.7331355  13.2622437  43.2569367   5.4207597  12.8850223  43.2442088
  13.1024050  11.1250639  48.9654098  13.1018276  10.9699296  49.8238374
  12.8980230  11.9713627  48.9095484  13.0723828  11.2271260  49.0842037
  10.8264902  15.8048141  52.6190305  11.3218567  15.0871136  52.5794325
  10.0164678  15.5018939  52.5044792  10.7808795  15.6545788  52.5964031
   6.2723513  19.6545955  44.7687309   5.4634836  19.3312628  44.7220619
   6.7798422  18.9479177  44.7015558   6.2273180  19.5027271  44.7517604
  12.8916721  18.5551829  55.3067434  13.3171792  18.0326251  54.7537859
  12.5273641  19.1532666  54.7856057  12.9003323  18.5662056  55.1476443
   2.5270801  26.8516046  54.0664779   2.8417360  27.6652435  54.0742561
   2.9364214  26.4666265  54.7346938   2.6338899  26.9144749  54.1668871
   9.4795320  22.2686093  51.6368591   9.9506498  22.9826356  51.8058576
   9.8155499  21.6684843  52.1728461   9.5990435  22.2857557  51.7400967
  11.5672305  23.8787406  63.8160663  11.6769270  23.0895967  64.1717410
  11.8963201  23.7893343  63.0135001  11.6324711  23.7493259  63.7503054
  10.1169267  22.0604027  58.3996284   9.5690213  21.4361911  58.1316349
  10.5782295  22.2498299  57.6840363  10.1036476  21.9963077  58.2546715
  12.9263131  10.1289382  55.7847476  12.3426120  10.6298588  55.3725043
  13.2467425   9.6218938  55.1511799  12.8876306  10.1281217  55.6305983
   5.4657930   9.0429976  46.0606151   6.2873624   9.2128289  45.8187846
   5.0027581   9.1977237  45.3372448   5.5189092   9.0911709  45.9177795
   9.6827593  23.0655100  54.9305625  10.5025967  22.9218066  55.1921920
   9.4021670  23.6901299  55.4722063   9.7624336  23.1365452  55.0493564
  26.1541243  30.7219952  47.8948501  26.1235248  31.5764588  48.0666771
  26.7522592  30.4215244  48.4534645  26.2378401  30.8036448  48.0023304
  19.3540928  29.8095603  52.6501432  18.4978824  29.9704101  52.7010549
  19.4008582  28.9387667  52.6706493  19.2340040  29.7046404  52.6607498
  13.7382068  39.3458320  48.4138663  12.9864967  38.9673859  48.1854708
  14.1868079  39.3776754  47.6657474  13.6931735  39.2943928  48.2696166
  22.6634645  36.0782128  62.2561888  23.3701412  35.5834159  62.3848822
  22.8522580  36.5191210  61.5264546  22.7962550  36.0700479  62.1670933
  19.1907028  39.7683690  43.8424210  18.8558396  40.4460612  43.4068433
  19.7033898  39.3789001  43.2541082  19.2172609  39.8108268  43.6911002
  18.7311319  41.7197959  49.7835322  19.1150698  42.2884857  49.2440097
  18.6670460  40.9947469  49.3041138  18.7784746  41.6973422  49.6329185
  22.1992749  31.8687647  55.2933083  22.7448709  32.5472733  55.3527053
  22.1409625  31.7275107  54.4334665  22.2708663  31.9479648  55.1745144
  15.3166824  39.3576713  50.6801436  15.4177187  38.5477067  50.9898564
  14.7208569  39.2633659  50.0501114  15.2439363  39.2241741  50.6327674
  23.9757818  33.2972254  46.1666811  23.8597344  34.0479940  46.5958949
  24.7713704  33.0396207  46.4162898  24.0762407  33.3707101  46.2670903
  15.1567564  44.2754302  52.0816292  15.8005019  44.7167466  52.4712450
  15.4823819  43.4707728  51.9946551  15.2999392  44.2219497  52.1261769
   8.5131868  35.3796999  50.3053770   8.2782053  34.5464652  50.1986038
   8.6517509  35.6601665  49.4914970   8.4987531  35.2980503  50.1696124
  10.8121956  27.5482730  53.2038077  10.1926987  26.9575377  53.0348092
  10.7105819  28.1394165  52.5702400  10.7059631  27.5486812  53.0843067
  15.8588143  37.2866277  47.4536154  16.1803984  37.8271484  46.8497462
  16.5060240  36.7163048  47.5858443  16.0014198  37.2825452  47.3843189
  17.9089851  29.2882272  47.5370540  18.6070016  29.4670399  48.0292004
  18.2242184  28.7652611  46.9140930  18.0585189  29.2376044  47.5172550
  10.5391089  31.0935011  55.4481646  10.4149786  31.6797457  56.0831465
  11.1909373  30.5995207  55.7493921  10.6164738  31.1073816  55.5867575
  18.0977787  35.6752717  47.5250332  18.5371422  35.0669817  47.9705105
  17.9482450  35.2960090  46.7535797  18.1399252  35.5291188  47.4769499
  15.5649430  34.2696728  54.7269157  16.2098432  33.7769172  54.4080106
  15.8051207  34.4121515  55.5535236  15.6960015  34.2174171  54.8018690
  18.1035521  37.1151634  54.3776050  18.3858764  36.3203040  54.1562806
  18.8321681  37.5932222  54.3981111  18.2525085  37.0686231  54.3479065
  16.0816715  24.6574668  51.6191815  15.7520045  25.1085812  50.9495514
  15.4061717  24.5790832  52.1664821  15.9327151  24.7125803  51.6015038
  21.6987123  34.0279898  44.4781101  21.6138418  34.8840865  44.6230670
  22.1871506  33.7524222  45.1463260  21.7576021  34.1137219  44.5983183
  23.2893123  20.6460191  49.8641426  22.9746564  21.3363670  50.2961848
  22.7720064  20.5904973  49.1626926  23.1657593  20.7395080  49.8238375
  22.6305556  30.6464692  45.9778836  22.1017028  30.8624326  46.6376142
  23.1530576  31.3400831  45.8979805  22.6294009  30.7807829  46.0634435
  14.5205164  34.5427909  44.7786304  13.9362380  35.0477940  45.1852168
  14.1175259  34.3170296  44.0382896  14.3744468  34.5836157  44.7291329
  10.0749193  40.2582670  51.5809976   9.5916771  40.9833160  51.5569559
  10.8872511  40.5558800  51.6920133  10.1239941  40.4085024  51.5937255
  16.1463347  39.0514851  54.1859790  15.6290289  38.6922266  53.5821098
  16.8437738  38.5277025  54.1965856  16.1728928  38.9212539  54.0990049
  19.8026939  39.5009665  60.1475963  19.8910285  39.3135805  60.9954173
  20.2316651  38.8547094  59.7480810  19.8789041  39.3772672  60.2147715
  17.3697399  38.7840825  59.1293625  16.8068234  38.3713435  59.6533287
  18.1318422  38.7093730  59.5486769  17.3991847  38.7118225  59.2686626
  18.9782379  30.7893561  43.2555225  19.2178382  30.9971545  42.4430568
  19.2998220  29.9851070  43.3644169  19.0619537  30.7007662  43.1515778
  14.2872669  22.7186957  47.1014763  15.0418637  23.0865274  46.8631813
  14.1100204  23.0926511  47.8693942  14.3727147  22.8285145  47.1799651
  12.9293390  40.7738846  51.7330255  13.6313969  40.2590835  51.7903012
  12.8490873  41.1012997  52.5377131  13.0217151  40.7453072  51.8603048
  27.5807568  28.8681397  55.1462302  26.7435989  28.9383584  55.3809896
  27.5495799  28.8705892  54.2736604  27.4525850  28.8791624  55.0521850
  13.9772297  31.0114433  60.8610671  14.1492800  30.9020327  61.7095952
  14.5141654  31.6568838  60.6241863  14.0817301  31.0906434  60.9515767
  12.6429734  25.1257276  43.7992876  12.4605307  25.3429156  42.9733868
  13.5055347  25.2396288  43.8551490  12.7434323  25.1747174  43.6847363
  12.2544166  36.9645198  51.2415864  13.0933065  37.1968131  51.2889625
  12.2855935  36.0949509  51.1722899  12.3825883  36.8702144  51.2380508
  12.8796869  37.3846073  55.5429169  13.4195094  37.2417204  56.2132541
  12.1966815  37.7842824  55.9113195  12.8589023  37.4225744  55.6963591
  18.3229453  22.1283686  46.8341899  19.0515613  21.9499641  46.3880056
  18.4124346  22.9701766  47.0449078  18.4436115  22.2267565  46.7995417
  22.3037754  33.0637074  50.7374193  23.0595269  33.4968588  50.7763102
  22.4100078  32.4141843  51.3108829  22.4307924  33.0314558  50.8272219
  25.3417925  36.8910351  51.4876596  24.9053156  36.8947093  52.2435568
  25.0080840  37.5715850  51.0556174  25.2280545  36.9922807  51.5357429
  19.9146998  38.9318684  62.8119747  20.6987415  39.0449532  63.1775489
  19.7143593  38.1059821  63.0078433  20.0013024  38.8265403  62.8954133
   8.2834014  33.6046364  55.6963591   8.0172429  32.7885481  55.8554581
   8.2972578  33.6499519  54.8259106   8.2458736  33.4903269  55.5917073
  25.2615408  23.9324179  53.7306024  25.9041316  24.0022283  54.3167940
  25.5138428  23.2653402  53.2285566  25.3937540  23.8450527  53.7433304
  12.1891761  28.4031448  42.3115349  11.4749938  28.1169628  42.7237781
  12.6735729  28.7428074  42.9521736  12.1551124  28.4113098  42.4670984
  13.0332620  27.1424742  58.3430598  12.3404417  26.6721722  58.5891330
  13.6492947  26.9163047  58.9172305  13.0217150  27.0391874  58.4639751
  20.0717392  40.8428786  56.4586202  19.2732637  40.6028286  56.7160071
  20.5203403  40.8943179  57.2053250  20.0192003  40.8151177  56.6071127
  19.3639079  36.9061402  42.6877157  19.7790227  36.5746426  41.9961653
  18.5331008  36.6730304  42.5597294  19.3027087  36.8232658  42.5668004
   8.6927427  34.3905143  52.9775335   8.5103001  34.3652029  52.1247627
   9.4277096  34.8604081  53.0164244   8.7741491  34.4566505  52.8573253
  24.7627102  34.6256653  50.1208222  24.9982691  34.7701852  49.2935073
  24.9116665  35.3899061  50.5139736  24.8192905  34.7595708  50.0571826
  11.7573179  31.1090146  59.4857444  12.4813151  31.0943177  59.9722338
  11.8589316  31.8185501  58.9879412  11.8791388  31.2114849  59.4836230
  26.5917558  33.4658319  47.9577826  26.9225775  33.9985959  47.3517921
  27.1650646  33.5197207  48.6139777  26.7251237  33.5527888  47.9655608
  19.1318128  34.5889231  64.3506391  18.3391109  34.9032743  64.5359010
  19.2467056  34.8040699  63.5127175  19.0313539  34.6673067  64.2544725
  21.8049447  31.3123222  48.6401406  21.8996302  32.0512516  49.0941032
  21.1808291  30.8840697  49.0735971  21.7258478  31.3584542  48.7709554
  20.0601921  34.4909434  59.2891687  20.6340783  33.8536679  59.4440251
  19.9816725  34.4913517  58.4201345  20.1335156  34.3974546  59.1838098
   8.6598338  31.2698644  53.1274401   9.2371840  31.1335095  53.7666647
   7.9612399  30.8134428  53.3819986   8.6419359  31.1820910  53.2596691
  22.0572469  33.1571962  41.8738358  21.9752631  33.2274149  42.7393345
  22.6952189  33.7201706  41.6822099  22.1392306  33.2510933  41.9728308
  15.4165640  32.9232700  51.3412885  15.1584884  32.0904434  51.3144184
  15.4714123  33.1490313  50.5005385  15.3865418  32.8330471  51.2133021
  20.4966690  25.0261150  51.4416977  19.7923017  24.5370336  51.6000896
  20.5451664  25.0383625  50.5705422  20.3996742  24.9550798  51.3356317
  14.3900352  30.4770462  51.8277779  13.8149943  30.6362630  52.4641740
  14.0136028  29.8405871  51.3646230  14.2503164  30.4068275  51.8532338
  18.0573641  28.9493811  56.6870158  17.6688073  28.5248029  56.0322349
  17.3928339  29.1975961  57.1947184  17.9020568  28.9232532  56.6658026
  27.6996910  28.7068816  49.4617988  27.4433475  27.8948758  49.2715871
  28.5426224  28.7146383  49.2348175  27.7862935  28.5880813  49.4002805
   4.1357171  30.1210537  49.8422220   4.2217423  29.7442405  50.6235750
   4.7632968  29.7470982  49.3642178   4.2413722  30.0096019  49.8867697
  21.8800002  22.6468440  54.1994142  22.2610514  21.9646611  54.5862016
  21.0763286  22.3578042  54.0169807  21.8176464  22.5035489  54.2298198
  19.1612579  33.1792416  44.8846965  19.9753218  33.4707309  44.7729736
  19.0971720  32.5252278  44.3105258  19.2715318  33.1257611  44.7835802
  25.3822069  35.8618412  59.2976540  25.1460706  35.0306477  59.1788601
  26.0265298  35.8104019  59.8831385  25.4416740  35.7316100  59.3662434
  15.0320487  36.6513933  50.0119277  15.6694434  36.4125681  50.5571070
  15.4575559  36.8551092  49.2772437  15.1896653  36.6464944  49.9836434
   9.7233130  38.8902270  53.8953581   9.7637275  39.1617121  53.0673360
  10.2827654  39.4144178  54.3111369   9.8116475  39.0078025  53.8345469
  15.6723302  31.8716223  44.3494166  16.0568455  31.6523930  45.1010711
  15.4234923  32.6979169  44.4795243  15.6925375  31.9614369  44.4795243
  15.8391843  25.1522638  64.0656751  15.5245284  25.9222201  63.8026313
  15.5181775  24.5892894  63.4808977  15.7450762  25.1832907  63.9398100
  17.4141959  37.1286356  51.6913063  17.4880967  36.9661528  52.5454913
  18.2311465  37.3176546  51.4473545  17.5458318  37.1323098  51.7811089
  11.1747716  37.4744219  48.7207507  10.3485833  37.7205956  48.5941785
  11.2359707  37.3956300  49.5869565  11.0621883  37.4989168  48.8296451
  13.3923740  23.5413160  49.6802947  12.5246165  23.6135759  49.7460556
  13.6798944  24.3435239  49.8690922  13.3063488  23.6707307  49.7177713
  22.5156628  23.6891019  58.0114269  23.2610220  23.5000830  57.5977694
  22.0993933  24.2149257  57.4528125  22.5641603  23.7393165  57.8678842
  15.9546545  40.0921099  46.4226537  16.2444843  39.7010080  45.6985763
  16.6850026  40.2737804  46.8631812  16.1053429  40.0614913  46.3809344
  16.5441290  34.8938845  57.5079667  16.0452984  35.6054613  57.5864555
  17.3541514  35.2139512  57.4697829  16.5897397  35.0465694  57.5136236
  13.8952460  42.0688481  49.4886686  13.6752756  41.7785836  50.2813353
  13.6746982  41.4103437  48.9604599  13.8300055  41.9288190  49.5275595
  12.8069408  34.1561798  51.7542388  12.5182656  33.5299269  52.2888115
  13.6752756  34.0982085  51.8207068  12.8929660  34.0549342  51.8433342
  23.5947305  29.2996581  52.0724370  23.2512071  28.5786917  52.4231619
  23.6940348  29.0910433  51.2302728  23.5589348  29.1620785  51.9996050
  16.0620416  43.4417871  48.2717379  16.7144474  42.9094314  48.5008405
  15.3646025  43.0886524  48.6585253  16.0551134  43.3107394  48.3629546
  13.0101681  35.7957049  47.6784753  13.7647649  36.1770088  47.8920216
  12.4172294  36.2468193  48.1331449  13.0338395  35.9185876  47.7767631
  24.0560334  35.7622285  47.6148358  24.6218367  36.4215495  47.5306901
  23.4088238  36.1071984  48.0864760  24.0439091  35.9104227  47.6721114
  15.4708348  27.7519889  62.8041965  14.6608124  28.0577669  62.6931808
  15.9483035  28.4725472  62.9194549  15.4211827  27.9034491  62.8049036
  14.3299908  36.9665610  53.0524868  13.8080661  37.1065902  53.7376733
  14.7173928  36.2076275  53.2426986  14.3103609  36.8751134  53.1825945
  11.3191092  27.0171419  47.1219823  11.0315887  26.6472690  46.3851770
  12.0061560  27.4866274  46.8603528  11.3779989  27.0318389  46.9734899
  20.5266913  38.7061070  47.0385437  20.2853588  37.9728930  46.6312502
  20.7068245  39.2547927  46.3851770  20.5174537  38.6783461  46.8815660
  15.7566233  33.9969629  48.4506359  15.5609016  34.6044364  47.8566662
  15.9800579  33.3037573  47.9698033  15.7600874  33.9847155  48.2922440
  14.1544763  30.8824367  48.5687228  14.8767415  31.0465525  48.1091034
  13.6752756  31.6034032  48.4626568  14.1908494  31.0122597  48.4852842
  22.1138271  27.2188166  53.9483913  21.2749371  27.2449445  53.7122176
  22.1842638  27.8658902  54.5289259  22.0006664  27.3184292  53.9993030
  11.8052380  33.2882440  57.6741368  12.3173477  33.5666693  57.0250127
  11.5188723  34.0271734  58.0404181  11.8387243  33.4384793  57.6331246
  20.5607549  24.1173543  48.6811529  21.2633902  23.9181291  48.2031487
  20.2951738  23.3449486  48.9880372  20.6254181  23.9736509  48.6556970
   8.8919286  27.7952632  47.9705104   8.9935423  28.5978793  48.2986080
   9.6875173  27.5939968  47.6728185   9.0247192  27.8838530  47.9740459
  15.3236105  25.3808828  57.7342409  15.1319302  25.3963963  58.5841833
  16.1734701  25.5772503  57.7109064  15.4211827  25.4123180  57.8565704
   9.7083018  27.9099810  55.7126226   9.5668510  27.0583750  55.8370734
   9.9923582  27.9528470  54.8888432   9.7290864  27.7899560  55.6093850
  19.8621611  29.7466900  49.8570714  19.6156325  29.6662651  50.6907503
  20.1906734  28.9620368  49.6633241  19.8742854  29.6193165  49.9518237
  23.7569660  36.4550259  53.6457495  23.6184019  37.1531305  54.1506238
  22.9769657  36.2998916  53.2893677  23.6212886  36.5350426  53.6683769
  22.0947745  32.7546635  59.8979877  22.0895783  31.8826451  59.9022303
  22.8008739  32.9534804  59.4249333  22.1992749  32.6550509  59.8286912
  15.8218638  32.4823619  59.2693697  15.9662014  33.0624827  58.6336807
  16.1694287  32.8599915  59.9743552  15.8946099  32.6244323  59.2792692
  17.9938555  31.6813787  57.0518829  17.2461869  31.8744801  56.6467107
  18.1480081  30.8559007  56.8142950  17.9060983  31.5878898  56.9564234
  14.8946393  40.6726390  56.1354724  15.0435957  40.1129306  55.4828128
  15.6746395  40.7518392  56.5187243  15.0320487  40.6011956  56.0951673
  25.2523032  35.8128513  44.4073994  24.8729841  35.0265651  44.4003284
  24.5889278  36.3615370  44.2645639  25.0981507  35.7773337  44.3854791
  17.4199694  40.8441033  57.4139215  17.3443365  40.1749844  57.9690003
  17.3489553  41.5458821  57.9279881  17.3980300  40.8485941  57.5716063
  18.2340332  25.5764338  57.9414232  18.6912946  26.3088312  58.0687025
  18.3096661  25.1530803  58.7001488  18.3131302  25.6221576  58.0715309
  10.4773324  25.8230157  59.0303676   9.9415513  25.2110516  59.3464443
  10.5391088  26.3978293  59.6837343  10.4068956  25.8177085  59.1739103
  22.7067658  18.7554213  51.8108075  22.8251226  19.2130676  51.0775378
  22.5329834  17.9499474  51.5244293  22.6986829  18.7047985  51.6609009
  18.0769941  39.3642032  48.2462821  18.8419832  39.0951676  47.9245485
  17.9748030  38.8792043  48.9632883  18.1751436  39.2531597  48.3042648
  16.1122710  27.5666442  54.7856056  15.3218785  27.3857902  55.1073392
  16.5083333  26.7893394  54.7686351  16.0539586  27.4253903  54.8308605
  21.4966397  35.2008872  52.5115502  20.8211398  34.9694104  53.0128889
  21.5058773  34.5930055  51.8857607  21.3984901  35.0767797  52.4931655
  18.6260541  30.0426701  59.2679555  18.5619682  30.9036657  59.1399692
  18.7657728  29.7258694  58.4675107  18.6376011  30.1226867  59.1307768
  17.3079634  32.7358840  53.4095758  16.8841884  32.9363339  52.6734777
  17.1324490  31.8887688  53.5220058  17.2190515  32.6407622  53.3169448
  16.8091328  44.2509353  55.8717216  17.2987258  43.5520142  55.6892880
  16.2375560  43.9533223  56.4593273  16.7975858  44.1035577  55.9318256
  12.5962079  33.2310892  48.8423731  12.7526699  33.1657694  49.6979723
  12.9362673  34.0059444  48.6302410  12.6695314  33.3360090  48.9378325
  19.1341224  32.6068775  47.7117094  19.6756770  32.1039156  48.1755715
  19.4487783  32.5533970  46.9006579  19.2605621  32.5248196  47.6600906
  23.0058331  36.8171422  64.8244006  23.8193197  36.5456571  64.9849139
  22.8453298  36.5178962  64.0204202  23.1028280  36.7326348  64.7289412
  17.3027674  37.9986127  44.9957122  17.3720494  37.1400665  45.1350122
  18.0816129  38.2158008  44.6676147  17.4280524  37.9038991  44.9674279
  20.2830493  27.5005080  57.7639394  20.4972463  26.8615994  57.2102748
  19.6664393  27.9450903  57.3347256  20.2235823  27.4715223  57.6189826
  21.6935161  40.4223828  49.2093615  21.3014953  40.1190543  48.4916481
  21.8488234  41.2592918  49.0198569  21.6588751  40.5007665  49.0750112
   9.1696341  30.4145842  49.1584498   9.5495306  30.8330387  48.4944765
   8.5951706  30.9959298  49.4653341   9.1407666  30.5623701  49.1061239
  22.4469581  29.1094145  58.7022702  21.6346263  28.8020035  58.7835874
  22.9059516  28.6293145  59.2665414  22.3949966  28.9930637  58.7977296
  21.8574836  36.9873817  49.1499646  21.4989491  37.1588460  49.9263678
  21.3713547  37.4487022  48.5927644  21.7333533  37.0812788  49.1824915
  19.6745222  20.6105015  52.7526737  18.8038780  20.5843736  52.7060047
  19.9285563  20.4382207  51.9352583  19.5838782  20.5815159  52.6246874
  16.6463201  32.6672982  41.6899880  16.9355726  33.4437865  41.9643455
  16.7335000  32.1561714  42.3914380  16.7017458  32.7064901  41.8342378
  19.5423089  30.5154216  63.4851404  20.0122720  31.1396333  63.8719278
  19.5884969  29.8471192  64.0444619  19.6190965  30.5088897  63.6251475
  16.6994363  22.6211244  54.2100208  16.1832851  21.9291435  54.3351787
  16.1388291  23.2882021  54.1562806  16.5400876  22.6174501  54.2206274
  18.7686596  23.1604204  56.0393060  18.3818349  23.1853235  56.8206590
  18.2819533  22.5945882  55.5867577  18.6399105  23.0799955  56.0880964
  23.0179575  37.8777713  60.0966847  23.6559296  37.3837908  59.7629303
  22.3753667  37.8055113  59.5119074  23.0173802  37.7936721  59.9609202
  24.7436576  29.7266859  54.6632762  24.3164184  29.6393207  53.9080862
  24.1062628  29.8344634  55.2487606  24.5866183  29.7299519  54.6378204
  18.4343738  20.0471189  58.3303320  19.0636856  20.5831489  58.0524390
  18.6029600  19.9548548  59.1816886  18.5521532  20.1132551  58.4151848
  18.2357653  24.8342384  60.6029732  19.0631082  24.5627533  60.6588346
  18.2565499  25.6303226  60.9593550  18.3610503  24.9122138  60.6644915
  23.0733832  38.5697521  56.7372203  23.8626210  38.2186586  56.8574285
  23.2477430  39.3833909  56.4748837  23.2154114  38.6383378  56.7160071
  12.8127142  31.9806247  53.7899992  11.9715149  31.8810121  53.9978886
  13.0217150  32.7501727  54.1414313  12.7191835  32.0798290  53.8727307
  10.2902709  29.6025784  51.6184743   9.8959407  29.6768796  50.8434853
   9.7342826  29.9883730  52.1693105  10.1505522  29.6707558  51.5852403
  21.9267656  22.5807078  51.2988622  22.1317250  22.5129386  52.1445619
  21.5994080  23.3865899  51.2309799  21.9082904  22.6893018  51.4148277
  16.6243807  29.9087646  53.0397590  16.3206945  29.3543634  53.6407998
  15.9223228  30.0879856  52.5525624  16.4760017  29.8532428  53.0567295
  15.6809904  27.2188166  47.6042292  15.9569639  26.5007078  47.1919859
  16.2808574  27.8173086  47.3963398  15.8103169  27.2008536  47.5123053
  14.6862158  37.1237367  57.7469688  14.5782513  37.1339429  58.6131746
  14.8957940  37.9492147  57.5574641  14.7012269  37.2478441  57.8473779
  25.1801344  23.1338842  50.7791387  24.5675658  23.6209244  51.1645119
  25.2765519  22.4582333  51.3229039  25.1039242  23.1057151  50.9170246
  19.1820425  24.8901683  45.8788887  19.6364171  25.0612243  46.6036731
  19.6560471  24.2769794  45.4786662  19.3188745  24.8252568  45.9262648
  12.7035950  34.3750009  55.2091625  12.1123884  35.0159507  55.1794640
  13.4656974  34.7987626  55.1822925  12.7284211  34.5325847  55.2006772
  13.0996573  25.5352007  55.8759643  13.5598055  25.6090936  56.6134767
  13.1452680  26.3333261  55.5259464  13.1747128  25.6646154  55.9332399
  14.7479923  26.2018702  60.4431670  14.3565488  25.5552049  60.8787448
  14.9165786  26.7930137  61.0625925  14.7150833  26.1932970  60.5994376
  22.4625467  39.8259321  52.6423650  22.2645155  40.3150135  51.9479861
  21.8413178  40.0300562  53.2207783  22.3413031  39.9275859  52.6246873
  16.5233445  31.5944217  46.9833894  17.2675490  31.9818494  47.2216844
  16.6694141  30.7501643  47.1474382  16.6544030  31.5274690  47.0427864
  18.4413020  23.3894476  52.0165755  17.5949065  23.5617284  51.8907105
  18.4384153  22.5843820  52.3531584  18.3160170  23.2955505  52.0476882
  19.5111321  27.1669691  52.8827813  19.0371275  26.6411453  53.3933124
  19.8829457  26.6199164  52.3142675  19.4961210  27.0085687  52.8742960
   9.8884351  29.1641197  58.2511359  10.7509964  29.0636907  58.1648689
   9.5576134  28.5835907  57.6896931   9.9669547  29.0632824  58.1556765
  21.4394820  28.0606245  45.9453567  20.9117839  28.1434989  45.2559276
  21.8990529  28.8024117  45.9418212  21.4296671  28.1826908  45.8428262
  27.7753238  29.0073524  52.2463853  27.5363008  28.9669358  51.4084638
  27.9387140  29.8544676  52.3729574  27.7643542  29.1265609  52.1417335
  24.3799268  33.3923473  58.1768898  25.1033467  32.9395999  57.9979918
  24.1149231  33.6728139  57.3941226  24.4480542  33.3674441  58.0347613
  13.2486137  27.9883646  54.9121777  12.6239207  28.0002038  54.3047730
  12.9131732  28.4643822  55.5613017  13.1071629  28.0602163  54.9178346
  13.4327886  26.3308765  40.9694462  13.0840690  26.9828490  41.4326012
  12.9524331  26.3165878  40.2418333  13.3098130  26.4251819  40.9305554
   9.9611812  36.0484107  56.3525542   9.4311737  35.3576545  56.4020516
  10.2336906  36.0394292  55.5238250   9.9236535  35.9451238  56.2372957
  20.9931903  36.6309809  45.0763224  21.7166102  37.0967922  44.9327797
  20.5532494  36.6983419  44.3260821  21.0347595  36.7093646  44.9448006
  20.1618058  33.4907351  56.3263913  19.5475051  32.9465401  56.6212548
  20.6785343  32.9771588  55.8469729  20.1473720  33.3343760  56.2988142
  19.4014355  34.5611621  54.0608212  18.9741963  33.9361340  53.6273647
  19.3939300  34.2786543  54.8867219  19.3373496  34.4264402  54.1188039
  12.5176882  29.5976794  57.1296646  12.6770369  28.8420118  57.5348368
  12.3369776  30.1467734  57.7837383  12.5142241  29.5670608  57.2859352
  20.4597185  21.7638030  57.6847435  19.9637747  21.9601704  56.9939002
  21.2166247  22.1630698  57.5136237  20.4984010  21.8515764  57.5567572
  17.7300065  25.4380376  54.2750746  17.7542552  24.9040488  53.5863526
  17.9811538  24.9297685  54.9376336  17.7709984  25.2841280  54.2715390
   5.2407655  32.7211871  53.7093890   5.1351104  32.6758715  52.8445974
   4.4907875  33.0665651  53.9908175   5.1143258  32.7652779  53.6231220
  14.0101387  24.1651194  53.6556490  14.0499759  24.6660401  54.3691197
  13.1851052  24.2561588  53.3862413  13.8940913  24.2533010  53.7207028
  16.1931000  33.7311934  61.7576785  15.3426630  33.8683648  61.8934430
  16.3559128  32.9975712  62.2024486  16.0914863  33.6426035  61.8432384
  15.4315750  30.6811704  55.9530389  14.6007680  30.8485522  55.7465637
  15.3767268  30.3047655  56.7379274  15.3005165  30.6501435  56.0378917
  13.2399534  24.1720597  61.5886800  13.8652237  23.6282730  61.8616232
  12.7850014  23.6915514  61.0194590  13.2647794  24.0210078  61.5448394
  13.8051794  28.9567295  46.4820507  13.9454755  29.4539760  47.1849148
  14.3034327  28.2553590  46.6234720  13.8992875  28.9269274  46.6072086
  13.8352017  29.8234406  43.8113084  14.4697096  30.4194831  43.7462545
  13.9177627  29.5237864  44.6258954  13.9408568  29.8675315  43.9216170
  26.8134582  32.3549884  56.6799448  27.4052423  32.9947134  56.7117646
  27.2493577  31.6572920  56.9691515  26.9653014  32.3468234  56.7280280
  15.4131000  25.7548382  43.7858526  15.7346841  25.2751464  43.1317788
  15.6757943  26.5648028  43.5949337  15.4997025  25.8038280  43.6614018
  18.6427972  36.7767256  57.3057342  18.1353063  37.3303103  57.7497972
  18.3454619  36.8375546  56.4876116  18.5232857  36.8673567  57.2505798
  20.8090155  25.1420576  56.1482005  21.2345226  24.6893102  55.5365531
  20.1947148  24.5880646  56.4246792  20.7818800  24.9934552  56.0987030
  10.3405005  32.0202247  47.0802630  10.8497234  32.6166755  47.4613935
  10.8139277  31.7528221  46.3979049  10.4848380  32.0688063  47.0357152
  21.2535753  40.6930514  45.2361285  20.5365062  40.5191376  44.7708523
  21.9042490  40.4583086  44.7036771  21.2437603  40.6326306  45.0890503
  19.2484377  21.6135676  49.5572582  18.6052695  21.4633322  50.1257720
  18.9083784  21.3678021  48.7921686  19.1029455  21.5547798  49.5275597
  23.8383724  29.5695102  48.9802590  23.1674914  30.1124805  48.8515656
  24.5323474  30.0389958  48.7384285  23.8412591  29.7193374  48.9258118
  17.8870458  41.7091814  54.2114349  17.6636112  40.9510644  54.5798375
  17.3980301  41.7389836  53.4894788  17.7813907  41.6014039  54.1591090
  24.0011851  26.0250986  51.8892963  24.3539461  25.5980709  52.5638762
  23.1426653  25.9401830  52.0194040  23.9261296  25.9495727  52.0087974
  12.6995536  28.6558506  49.9475810  11.9807525  29.0722638  50.2148674
  13.0707899  29.2212744  49.3967448  12.6487468  28.8007787  49.9058617
  21.9995117  29.2886355  55.8377806  21.9793044  29.1069650  56.6912585
  22.0474318  30.1598373  55.8137389  22.0029758  29.3902893  55.9601100
  19.9441447  35.8773547  61.7626282  19.9037302  35.2323224  61.1771438
  20.7564765  35.8210164  62.0751694  20.0584601  35.7732513  61.7223231
  16.5348915  41.9292272  51.6651433  16.1209313  41.2666403  51.2755275
  17.2196289  42.0770131  51.1447127  16.5747286  41.8532931  51.5307930
  19.9014209  41.0882358  52.4175050  19.5030492  41.1984628  51.6495870
  19.2865428  41.2964424  53.0001610  19.7513098  41.1355926  52.3906349
  18.4742111  27.6956506  45.2849189  17.8806950  28.0173502  44.7333757
  18.5117388  26.8497601  45.0770296  18.3916500  27.6180834  45.1731961
  25.4335911  21.1469398  52.8177276  24.9266776  20.4398537  52.7498453
  26.2303345  20.8162587  52.9478353  25.4763151  20.9942549  52.8276271
  21.3499927  27.6536010  48.7150940  21.1213620  27.6768712  47.8729298
  21.6098003  26.8293477  48.8345950  21.3546115  27.5352090  48.6076137
  15.6319156  29.5070483  58.3176040  15.1198059  28.8991666  58.6761071
  15.4598652  30.2227076  58.7850016  15.5308793  29.5233782  58.4392264
  10.4784870  27.9508058  60.9678402  10.3087461  28.6109433  60.4226608
  10.0350820  28.1614620  61.6890891  10.3884204  28.0794041  60.9940031
  14.4044690  26.1912556  50.0105135  14.8802056  26.5529636  49.3755317
  13.9033289  26.8469024  50.2905278  14.4010049  26.3406745  49.9581876
  27.6356051  35.6634324  45.8018140  28.0189657  36.4125681  46.0316237
  26.8400165  35.9100144  45.5430129  27.5749834  35.8104018  45.7975714
  19.5088226  27.4294728  60.7578295  20.0659656  27.2008537  60.1256761
  19.1849291  28.1900393  60.4813508  19.5434636  27.5078564  60.6234793
   7.3786935  30.8554924  56.2266892   6.8313654  30.1855570  56.3447760
   8.1679313  30.4884772  56.2910359   7.4139119  30.7019910  56.2535592
  17.2271343  30.5162381  61.7230303  17.9782670  30.8314058  62.0369857
  17.4193920  30.3141552  60.8964224  17.3662757  30.5329763  61.6473698
  16.4471343  28.3353756  43.3778519  16.8270308  28.3533385  42.5929634
  15.7063939  28.7807745  43.2569367  16.3940181  28.4035531  43.2442088
  24.0756633  26.6435947  48.9654098  24.0750860  26.4884604  49.8238374
  23.8712813  27.4898934  48.9095484  24.0456411  26.7456568  49.0842037
   6.1373904  30.0675732  53.3812915   5.9595665  29.6152341  54.1067830
   5.8492927  30.8701893  53.5651392   6.0686858  30.1198290  53.5156417
  21.7997485  31.3233449  52.6190305  22.2951151  30.6056444  52.5794325
  20.9897261  31.0204247  52.5044792  21.7541379  31.1731095  52.5964031
  17.2456097  35.1731262  44.7687309  16.4367420  34.8497936  44.7220619
  17.7531006  34.4664485  44.7015558  17.2005764  35.0212579  44.7517604
   7.8746374  32.6003456  50.4934674   7.0091894  32.5889146  50.3817445
   7.9745190  32.4133678  51.3405813   7.7620541  32.5709517  50.6023618
  23.8649304  34.0737137  55.3067434  24.2904376  33.5511559  54.7537859
  23.5006224  34.6717974  54.7856057  23.8735907  34.0847364  55.1476443
  13.5003384  42.3701354  54.0664779  13.8149943  43.1837743  54.0742561
  13.9096797  41.9851573  54.7346938  13.6071482  42.4330057  54.1668871
  20.4527904  37.7871401  51.6368591  20.9239082  38.5011664  51.8058576
  20.7888082  37.1870151  52.1728461  20.5723019  37.8042865  51.7400967
  22.5404888  39.3972714  63.8160663  22.6501854  38.6081275  64.1717410
  22.8695785  39.3078651  63.0135001  22.6057294  39.2678567  63.7503054
  17.3697399  22.5598872  58.5926686  17.5025304  21.7629865  58.9207661
  17.7542552  23.0865275  59.1724962  17.4453728  22.5198788  58.7270189
  21.0901850  37.5789335  58.3996284  20.5422796  36.9547219  58.1316349
  21.5514879  37.7683607  57.6840363  21.0769060  37.5148385  58.2546715
  20.4429754  19.4829198  55.1907779  19.6375718  19.3726927  55.5075618
  20.3136489  19.5841653  54.3337645  20.3049887  19.4812868  55.1115820
  23.8995714  25.6474690  55.7847476  23.3158703  26.1483896  55.3725043
  24.2200009  25.1404246  55.1511799  23.8608890  25.6466525  55.6305983
  16.4390514  24.5615284  46.0606151  17.2606208  24.7313597  45.8187846
  15.9760165  24.7162545  45.3372448  16.4921676  24.6097017  45.9177795
  15.0285846  22.5558047  56.8404580  15.5730258  22.2149173  57.4308921
  15.0822781  23.4143508  56.9825864  15.1174965  22.6313306  56.9486453
  10.8416404  36.3174463  53.7143388  11.4461262  36.2770297  53.0857208
  10.6343717  37.1645615  53.7447443  10.9005302  36.4362465  53.6259504
  20.6560176  38.5840408  54.9305625  21.4758550  38.4403374  55.1921920
  20.3754254  39.2086607  55.4722063  20.7356920  38.6550760  55.0493564
   6.0767687  35.3009080  53.5842311   5.9791965  34.4905352  53.8932367
   6.8596556  35.2800874  53.1988579   6.1783823  35.1776170  53.5729174
  24.7114651  54.8643628  48.4138663  23.9597551  54.4859167  48.1854708
  25.1600663  54.8962062  47.6657474  24.6664318  54.8129236  48.2696166
  33.6367228  51.5967436  62.2561888  34.3433995  51.1019467  62.3848822
  33.8255164  52.0376518  61.5264546  33.7695134  51.5885786  62.1670933
  30.1639611  55.2868998  43.8424210  29.8290980  55.9645919  43.4068433
  30.6766482  54.8974309  43.2541082  30.1905192  55.3293576  43.6911002
  29.7043903  57.2383267  49.7835322  30.0883282  57.8070165  49.2440097
  29.6403044  56.5132777  49.3041138  29.7517330  57.2158730  49.6329185
  33.1725333  47.3872954  55.2933083  33.7181293  48.0658041  55.3527053
  33.1142209  47.2460415  54.4334665  33.2441247  47.4664956  55.1745144
  26.2899408  54.8762021  50.6801436  26.3909770  54.0662374  50.9898564
  25.6941153  54.7818967  50.0501114  26.2171946  54.7427049  50.6327674
  26.1300147  59.7939610  52.0816292  26.7737603  60.2352774  52.4712450
  26.4556403  58.9893036  51.9946551  26.2731976  59.7404804  52.1261769
  19.4864452  50.8982307  50.3053770  19.2514636  50.0649959  50.1986038
  19.6250093  51.1786973  49.4914970  19.4720114  50.8165810  50.1696124
  21.7854539  43.0668038  53.2038077  21.1659571  42.4760685  53.0348092
  21.6838403  43.6579473  52.5702400  21.6792215  43.0672120  53.0843067
  26.8320727  52.8051585  47.4536154  27.1536568  53.3456792  46.8497462
  27.4792823  52.2348356  47.5858443  26.9746782  52.8010760  47.3843189
  21.5123672  46.6120319  55.4481646  21.3882369  47.1982765  56.0831465
  22.1641957  46.1180515  55.7493921  21.5897322  46.6259124  55.5867575
  29.0710370  51.1938025  47.5250332  29.5104006  50.5855125  47.9705105
  28.9215033  50.8145398  46.7535797  29.1131836  51.0476496  47.4769499
  26.5382013  49.7882036  54.7269157  27.1831016  49.2954479  54.4080106
  26.7783790  49.9306823  55.5535236  26.6692598  49.7359479  54.8018690
  29.0768105  52.6336942  54.3776050  29.3591347  51.8388348  54.1562806
  29.8054265  53.1117530  54.3981111  29.2257668  52.5871539  54.3479065
  32.6719707  49.5465206  44.4781101  32.5871002  50.4026172  44.6230670
  33.1604090  49.2709530  45.1463260  32.7308604  49.6322527  44.5983183
  25.4937748  50.0613217  44.7786304  24.9094963  50.5663248  45.1852168
  25.0907843  49.8355604  44.0382896  25.3477052  50.1021465  44.7291329
  21.0481776  55.7767978  51.5809976  20.5649355  56.5018468  51.5569559
  21.8605095  56.0744108  51.6920133  21.0972524  55.9270332  51.5937255
  27.1195931  54.5700159  54.1859790  26.6022872  54.2107574  53.5821098
  27.8170322  54.0462333  54.1965856  27.1461512  54.4397847  54.0990049
  30.7759523  55.0194973  60.1475963  30.8642868  54.8321113  60.9954173
  31.2049235  54.3732402  59.7480810  30.8521625  54.8957980  60.2147715
  28.3429982  54.3026133  59.1293625  27.7800817  53.8898742  59.6533287
  29.1051006  54.2279038  59.5486769  28.3724431  54.2303533  59.2686626
  23.9025974  56.2924154  51.7330255  24.6046553  55.7776143  51.7903012
  23.8223457  56.6198305  52.5377131  23.9949734  56.2638380  51.8603048
  24.9504880  46.5299741  60.8610671  25.1225384  46.4205635  61.7095952
  25.4874238  47.1754146  60.6241863  25.0549884  46.6091742  60.9515767
  23.2276749  52.4830506  51.2415864  24.0665649  52.7153439  51.2889625
  23.2588518  51.6134817  51.1722899  23.3558467  52.3887452  51.2380508
  23.8529452  52.9031381  55.5429169  24.3927677  52.7602512  56.2132541
  23.1699398  53.3028132  55.9113195  23.8321606  52.9411052  55.6963591
  33.2770337  48.5822382  50.7374193  34.0327852  49.0153896  50.7763102
  33.3832662  47.9327151  51.3108829  33.4040508  48.5499865  50.8272219
  36.3150508  52.4095659  51.4876596  35.8785740  52.4132401  52.2435568
  35.9813424  53.0901158  51.0556174  36.2013128  52.5108115  51.5357429
  30.8879582  54.4503992  62.8119747  31.6719998  54.5634839  63.1775489
  30.6876176  53.6245129  63.0078433  30.9745607  54.3450711  62.8954133
  19.2566597  49.1231672  55.6963591  18.9905012  48.3070788  55.8554581
  19.2705161  49.1684827  54.8259106  19.2191320  49.0088577  55.5917073
  24.0065204  42.6610050  58.3430598  23.3137000  42.1907030  58.5891330
  24.6225531  42.4348355  58.9172305  23.9949734  42.5577182  58.4639751
  31.0449975  56.3614094  56.4586202  30.2465221  56.1213594  56.7160071
  31.4935987  56.4128487  57.2053250  30.9924586  56.3336485  56.6071127
  30.3371662  52.4246710  42.6877157  30.7522811  52.0931734  41.9961653
  29.5063592  52.1915612  42.5597294  30.2759671  52.3417966  42.5668004
  19.6660011  49.9090451  52.9775335  19.4835584  49.8837337  52.1247627
  20.4009680  50.3789389  53.0164244  19.7474075  49.9751813  52.8573253
  22.7305763  46.6275454  59.4857444  23.4545735  46.6128485  59.9722338
  22.8321899  47.3370809  58.9879412  22.8523972  46.7300157  59.4836230
  30.1050712  50.1074539  64.3506391  29.3123693  50.4218050  64.5359010
  30.2199639  50.3226007  63.5127175  30.0046123  50.1858375  64.2544725
  31.0334505  50.0094742  59.2891687  31.6073366  49.3721987  59.4440251
  30.9549309  50.0098825  58.4201345  31.1067740  49.9159854  59.1838098
  19.6330921  46.7883952  53.1274401  20.2104424  46.6520403  53.7666647
  18.9344983  46.3319736  53.3819986  19.6151943  46.7006218  53.2596691
  26.3898223  48.4418008  51.3412885  26.1317468  47.6089742  51.3144184
  26.4446706  48.6675621  50.5005385  26.3598001  48.3515779  51.2133021
  25.3632936  45.9955770  51.8277779  24.7882527  46.1547938  52.4641740
  24.9868612  45.3591179  51.3646230  25.2235748  45.9253583  51.8532338
  29.0306224  44.4679119  56.6870158  28.6420657  44.0433337  56.0322349
  28.3660923  44.7161269  57.1947184  28.8753152  44.4417840  56.6658026
  15.1089754  45.6395845  49.8422220  15.1950006  45.2627713  50.6235750
  15.7365552  45.2656290  49.3642178  15.2146305  45.5281327  49.8867697
  30.1345162  48.6977724  44.8846965  30.9485801  48.9892617  44.7729736
  30.0704304  48.0437586  44.3105258  30.2447902  48.6442919  44.7835802
  36.3554653  51.3803720  59.2976540  36.1193290  50.5491785  59.1788601
  36.9997882  51.3289327  59.8831385  36.4149323  51.2501408  59.3662434
  26.0053071  52.1699241  50.0119277  26.6427018  51.9310989  50.5571070
  26.4308142  52.3736400  49.2772437  26.1629237  52.1650252  49.9836434
  20.6965713  54.4087578  53.8953581  20.7369858  54.6802429  53.0673360
  21.2560237  54.9329486  54.3111369  20.7849059  54.5263333  53.8345469
  26.8124426  40.6707946  64.0656751  26.4977867  41.4407509  63.8026313
  26.4914359  40.1078202  63.4808977  26.7183345  40.7018215  63.9398100
  37.3791073  51.1648169  55.3604835  37.0736890  51.8976226  55.7218151
  36.6597289  50.7586098  55.0797621  37.2278416  51.2129902  55.3717972
  28.3874543  52.6471664  51.6913063  28.4613551  52.4846836  52.5454913
  29.2044049  52.8361854  51.4473545  28.5190901  52.6508406  51.7811089
  22.1480299  52.9929527  48.7207507  21.3218417  53.2391264  48.5941785
  22.2092291  52.9141608  49.5869565  22.0354466  53.0174476  48.8296451
  24.3656323  39.0598468  49.6802947  23.4978749  39.1321067  49.7460556
  24.6531527  39.8620547  49.8690922  24.2796071  39.1892615  49.7177713
  33.4889212  39.2076327  58.0114269  34.2342804  39.0186138  57.5977694
  33.0726516  39.7334565  57.4528125  33.5374186  39.2578473  57.8678842
  26.9279128  55.6106407  46.4226537  27.2177427  55.2195388  45.6985763
  27.6582609  55.7923112  46.8631812  27.0786013  55.5800221  46.3809344
  27.5173874  50.4124153  57.5079667  27.0185567  51.1239921  57.5864555
  28.3274098  50.7324820  57.4697829  27.5629980  50.5651002  57.5136236
  24.8685044  57.5873789  49.4886686  24.6485339  57.2971144  50.2813353
  24.6479566  56.9288744  48.9604599  24.8032638  57.4473498  49.5275595
  23.7801991  49.6747106  51.7542388  23.4915240  49.0484577  52.2888115
  24.6485339  49.6167393  51.8207068  23.8662243  49.5734650  51.8433342
  27.0353000  58.9603179  48.2717379  27.6877058  58.4279622  48.5008405
  26.3378608  58.6071832  48.6585253  27.0283718  58.8292702  48.3629546
  23.9834265  51.3142357  47.6784753  24.7380233  51.6955396  47.8920216
  23.3904877  51.7653501  48.1331449  24.0070978  51.4371184  47.7767631
  35.0292918  51.2807593  47.6148358  35.5950951  51.9400803  47.5306901
  34.3820821  51.6257291  48.0864760  35.0171674  51.4289535  47.6721114
  26.4440932  43.2705197  62.8041965  25.6340707  43.5762977  62.6931808
  26.9215618  43.9910780  62.9194549  26.3944410  43.4219798  62.8049036
  25.3032491  52.4850918  53.0524868  24.7813245  52.6251210  53.7376733
  25.6906511  51.7261583  53.2426986  25.2836192  52.3936442  53.1825945
  22.2923675  42.5356727  47.1219823  22.0048471  42.1657997  46.3851770
  22.9794143  43.0051582  46.8603528  22.3512573  42.5503696  46.9734899
  31.4999496  54.2246378  47.0385437  31.2586172  53.4914238  46.6312502
  31.6800829  54.7733235  46.3851770  31.4907120  54.1968769  46.8815660
  26.7298817  49.5154937  48.4506359  26.5341599  50.1229672  47.8566662
  26.9533162  48.8222881  47.9698033  26.7333458  49.5032463  48.2922440
  25.1277347  46.4009675  48.5687228  25.8499999  46.5650833  48.1091034
  24.6485340  47.1219340  48.4626568  25.1641077  46.5307905  48.4852842
  33.0870854  42.7373474  53.9483913  32.2481955  42.7634753  53.7122176
  33.1575222  43.3844210  54.5289259  32.9739248  42.8369600  53.9993030
  22.7784963  48.8067748  57.6741368  23.2906060  49.0852001  57.0250127
  22.4921306  49.5457042  58.0404181  22.8119827  48.9570101  57.6331246
  19.8651870  43.3137940  47.9705104  19.9668006  44.1164101  48.2986080
  20.6607757  43.1125275  47.6728185  19.9979775  43.4023838  47.9740459
  26.2968689  40.8994136  57.7342409  26.1051886  40.9149271  58.5841833
  27.1467285  41.0957811  57.7109064  26.3944411  40.9308487  57.8565704
  20.6815602  43.4285118  55.7126226  20.5401094  42.5769058  55.8370734
  20.9656165  43.4713778  54.8888432  20.7023448  43.3084868  55.6093850
  34.7302243  51.9735567  53.6457495  34.5916602  52.6716613  54.1506238
  33.9502241  51.8184224  53.2893677  34.5945470  52.0535734  53.6683769
  33.0680328  48.2731943  59.8979877  33.0628367  47.4011759  59.9022303
  33.7741322  48.4720112  59.4249333  33.1725332  48.1735817  59.8286912
  26.7951222  48.0008927  59.2693697  26.9394597  48.5810135  58.6336807
  27.1426870  48.3785223  59.9743552  26.8678683  48.1429631  59.2792692
  28.9671139  47.1999095  57.0518829  28.2194453  47.3930109  56.6467107
  29.1212664  46.3744314  56.8142950  28.8793566  47.1064206  56.9564234
  25.8678977  56.1911698  56.1354724  26.0168540  55.6314614  55.4828128
  26.6478979  56.2703700  56.5187243  26.0053070  56.1197264  56.0951673
  28.3932277  56.3626341  57.4139215  28.3175948  55.6935152  57.9690003
  28.3222136  57.0644129  57.9279881  28.3712884  56.3671249  57.5716063
  29.2072916  41.0949646  57.9414232  29.6645530  41.8273620  58.0687025
  29.2829245  40.6716111  58.7001488  29.2863886  41.1406884  58.0715309
  21.4505907  41.3415465  59.0303676  20.9148097  40.7295824  59.3464443
  21.5123672  41.9163601  59.6837343  21.3801540  41.3362393  59.1739103
  29.0502524  54.8827340  48.2462821  29.8152415  54.6136984  47.9245485
  28.9480614  54.3977350  48.9632883  29.1484020  54.7716905  48.3042648
  27.0855294  43.0851750  54.7856056  26.2951369  42.9043210  55.1073392
  27.4815917  42.3078702  54.7686351  27.0272170  42.9439210  54.8308605
  32.4698980  50.7194180  52.5115502  31.7943982  50.4879412  53.0128889
  32.4791356  50.1115363  51.8857607  32.3717485  50.5953105  52.4931655
  29.5993124  45.5612009  59.2679555  29.5352265  46.4221965  59.1399692
  29.7390312  45.2444002  58.4675107  29.6108594  45.6412175  59.1307768
  34.4715715  53.5759312  44.7425680  34.5535552  54.3826298  44.4187131
  34.9565457  53.5955271  45.4666454  34.5552873  53.6979974  44.8012579
  28.2812218  48.2544148  53.4095758  27.8574467  48.4548647  52.6734777
  28.1057073  47.4072996  53.5220058  28.1923099  48.1592929  53.3169448
  27.7823911  59.7694661  55.8717216  28.2719842  59.0705450  55.6892880
  27.2108144  59.4718531  56.4593273  27.7708441  59.6220885  55.9318256
  23.5694663  48.7496199  48.8423731  23.7259282  48.6843002  49.6979723
  23.9095256  49.5244752  48.6302410  23.6427898  48.8545398  48.9378325
  30.1073808  48.1254083  47.7117094  30.6489353  47.6224464  48.1755715
  30.4220367  48.0719278  46.9006579  30.2338205  48.0433504  47.6600906
  33.9790915  52.3356730  64.8244006  34.7925780  52.0641879  64.9849139
  33.8185881  52.0364270  64.0204202  34.0760863  52.2511656  64.7289412
  28.2760257  53.5171435  44.9957122  28.3453078  52.6585973  45.1350122
  29.0548712  53.7343315  44.6676147  28.4013107  53.4224299  44.9674279
  31.2563077  43.0190388  57.7639394  31.4705047  42.3801302  57.2102748
  30.6396976  43.4636211  57.3347256  31.1968406  42.9900531  57.6189826
  32.6667745  55.9409136  49.2093615  32.2747537  55.6375851  48.4916481
  32.8220817  56.7778226  49.0198569  32.6321335  56.0192973  49.0750112
  20.1428924  45.9331150  49.1584498  20.5227889  46.3515695  48.4944765
  19.5684289  46.5144606  49.4653341  20.1140249  46.0809009  49.1061239
  33.4202165  44.6279453  58.7022702  32.6078847  44.3205343  58.7835874
  33.8792100  44.1478453  59.2665414  33.3682550  44.5115945  58.7977296
  32.8307420  52.5059125  49.1499646  32.4722074  52.6773768  49.9263678
  32.3446130  52.9672330  48.5927644  32.7066117  52.5998096  49.1824915
  30.5155673  46.0339524  63.4851404  30.9855304  46.6581641  63.8719278
  30.5617553  45.3656500  64.0444619  30.5923548  46.0274204  63.6251475
  29.7419180  38.6789512  56.0393060  29.3550933  38.7038543  56.8206590
  29.2552117  38.1131190  55.5867577  29.6131688  38.5985263  56.0880964
  33.9912159  53.3963021  60.0966847  34.6291880  52.9023216  59.7629303
  33.3486251  53.3240421  59.5119074  33.9906386  53.3122029  59.9609202
  29.4076321  35.5656497  58.3303320  30.0369439  36.1016797  58.0524390
  29.5762184  35.4733856  59.1816886  29.5254116  35.6317859  58.4151848
  29.2090236  40.3527692  60.6029732  30.0363666  40.0812841  60.6588346
  29.2298082  41.1488534  60.9593550  29.3343086  40.4307446  60.6644915
  34.0466416  54.0882829  56.7372203  34.8358794  53.7371894  56.8574285
  34.2210013  54.9019217  56.4748837  34.1886697  54.1568686  56.7160071
  23.7859726  47.4991555  53.7899992  22.9447733  47.3995429  53.9978886
  23.9949734  48.2687035  54.1414313  23.6924419  47.5983598  53.8727307
  21.2635293  45.1211092  51.6184743  20.8691991  45.1954103  50.8434853
  20.7075410  45.5069038  52.1693105  21.1238105  45.1892866  51.5852403
  27.5976391  45.4272954  53.0397590  27.2939528  44.8728942  53.6407998
  26.8955812  45.6065164  52.5525624  27.4492601  45.3717736  53.0567295
  25.6594742  52.6422675  57.7469688  25.5515097  52.6524737  58.6131746
  25.8690523  53.4677455  57.5574641  25.6744853  52.7663749  57.8473779
  23.6768534  49.8935317  55.2091625  23.0856467  50.5344815  55.1794640
  24.4389557  50.3172934  55.1822925  23.7016795  50.0511155  55.2006772
  24.0729157  41.0537315  55.8759643  24.5330638  41.1276244  56.6134767
  24.1185263  41.8518569  55.5259464  24.1479712  41.1831462  55.9332399
  25.7212506  41.7204010  60.4431670  25.3298072  41.0737357  60.8787448
  25.8898369  42.3115445  61.0625925  25.6883417  41.7118277  60.5994376
  33.4358050  55.3444629  52.6423650  33.2377739  55.8335443  51.9479861
  32.8145761  55.5485870  53.2207783  33.3145615  55.4461167  52.6246873
  27.4966028  47.1129525  46.9833894  28.2408073  47.5003802  47.2216844
  27.6426725  46.2686951  47.1474382  27.6276614  47.0459998  47.0427864
  20.8616934  44.6826505  58.2511359  21.7242548  44.5822215  58.1648689
  20.5308718  44.1021215  57.6896931  20.9402131  44.5818132  58.1556765
  24.2218720  43.5068954  54.9121777  23.5971791  43.5187346  54.3047730
  23.8864315  43.9829130  55.5613017  24.0804212  43.5787471  54.9178346
  20.9344396  51.5669414  56.3525542  20.4044321  50.8761853  56.4020516
  21.2069489  51.5579600  55.5238250  20.8969118  51.4636546  56.2372957
  31.9664487  52.1495117  45.0763224  32.6898685  52.6153230  44.9327797
  31.5265078  52.2168726  44.3260821  32.0080179  52.2278954  44.9448006
  31.1350642  49.0092659  56.3263913  30.5207635  48.4650709  56.6212548
  31.6517927  48.4956896  55.8469729  31.1206304  48.8529068  56.2988142
  30.3746939  50.0796929  54.0608212  29.9474547  49.4546648  53.6273647
  30.3671883  49.7971851  54.8867219  30.3106080  49.9449710  54.1188039
  23.4909466  45.1162102  57.1296646  23.6502953  44.3605426  57.5348368
  23.3102359  45.6653042  57.7837383  23.4874825  45.0855916  57.2859352
  31.4329769  37.2823338  57.6847435  30.9370330  37.4787012  56.9939002
  32.1898831  37.6816006  57.5136237  31.4716594  37.3701072  57.5567572
  28.7032648  40.9565684  54.2750746  28.7275136  40.4225796  53.5863526
  28.9544122  40.4482992  54.9376336  28.7442567  40.8026588  54.2715390
  16.2140238  48.2397179  53.7093890  16.1083687  48.1944023  52.8445974
  15.4640458  48.5850959  53.9908175  16.0875841  48.2838087  53.6231220
  24.9833971  39.6836502  53.6556490  25.0232342  40.1845708  54.3691197
  24.1583635  39.7746896  53.3862413  24.8673497  39.7718318  53.7207028
  27.1663584  49.2497242  61.7576785  26.3159214  49.3868956  61.8934430
  27.3291711  48.5161020  62.2024486  27.0647447  49.1611343  61.8432384
  26.4048334  46.1997012  55.9530389  25.5740264  46.3670830  55.7465637
  26.3499851  45.8232963  56.7379274  26.2737749  46.1686743  56.0378917
  24.2132117  39.6905905  61.5886800  24.8384821  39.1468037  61.8616232
  23.7582597  39.2100822  61.0194590  24.2380378  39.5395386  61.5448394
  29.6160556  52.2952564  57.3057342  29.1085647  52.8488411  57.7497972
  29.3187202  52.3560854  56.4876116  29.4965441  52.3858875  57.2505798
  31.7822738  40.6605884  56.1482005  32.2077810  40.2078410  55.5365531
  31.1679731  40.1065954  56.4246792  31.7551383  40.5119860  56.0987030
  21.3137588  47.5387555  47.0802630  21.8229817  48.1352063  47.4613935
  21.7871860  47.2713529  46.3979049  21.4580964  47.5873371  47.0357152
  32.2268336  56.2115822  45.2361285  31.5097646  56.0376684  44.7708523
  32.8775074  55.9768394  44.7036771  32.2170187  56.1511614  45.0890503
  28.8603041  57.2277122  54.2114349  28.6368696  56.4695952  54.5798375
  28.3712884  57.2575144  53.4894788  28.7546490  57.1199347  54.1591090
  23.6728120  44.1743814  49.9475810  22.9540109  44.5907946  50.2148674
  24.0440482  44.7398052  49.3967448  23.6220052  44.3193095  49.9058617
  32.9727701  44.8071663  55.8377806  32.9525628  44.6254958  56.6912585
  33.0206901  45.6783681  55.8137389  32.9762342  44.9088201  55.9601100
  30.9174031  51.3958855  61.7626282  30.8769885  50.7508531  61.1771438
  31.7297349  51.3395472  62.0751694  31.0317184  51.2917821  61.7223231
  27.5081498  57.4477580  51.6651433  27.0941897  56.7851711  51.2755275
  28.1928872  57.5955439  51.1447127  27.5479870  57.3718239  51.5307930
  30.8746792  56.6067666  52.4175050  30.4763075  56.7169936  51.6495870
  30.2598012  56.8149732  53.0001610  30.7245682  56.6541234  52.3906349
  26.6051739  45.0255791  58.3176040  26.0930642  44.4176974  58.6761071
  26.4331235  45.7412384  58.7850016  26.5041376  45.0419090  58.4392264
  21.4517454  43.4693366  60.9678402  21.2820044  44.1294741  60.4226608
  21.0083404  43.6799928  61.6890891  21.3616788  43.5979349  60.9940031
  30.4820810  42.9480036  60.7578295  31.0392240  42.7193845  60.1256761
  30.1581875  43.7085701  60.4813508  30.5167220  43.0263872  60.6234793
  18.3519518  46.3740232  56.2266892  17.8046238  45.7040877  56.3447760
  19.1411897  46.0070080  56.2910359  18.3871702  46.2205218  56.2535592
  28.2003927  46.0347689  61.7230303  28.9515254  46.3499366  62.0369857
  28.3926503  45.8326860  60.8964224  28.3395341  46.0515071  61.6473698
  17.1106488  45.5861040  53.3812915  16.9328249  45.1337649  54.1067830
  16.8225510  46.3887201  53.5651392  17.0419441  45.6383598  53.5156417
  32.7730069  46.8418757  52.6190305  33.2683734  46.1241752  52.5794325
  31.9629845  46.5389555  52.5044792  32.7273962  46.6916403  52.5964031
  28.2188681  50.6916570  44.7687309  27.4100003  50.3683244  44.7220619
  28.7263589  49.9849792  44.7015558  28.1738347  50.5397887  44.7517604
  18.8478958  48.1188763  50.4934674  17.9824477  48.1074454  50.3817445
  18.9477774  47.9318986  51.3405813  18.7353125  48.0894825  50.6023618
  34.8381888  49.5922445  55.3067434  35.2636959  49.0696866  54.7537859
  34.4738808  50.1903282  54.7856057  34.8468490  49.6032672  55.1476443
  24.4735968  57.8886662  54.0664779  24.7882527  58.7023051  54.0742561
  24.8829381  57.5036881  54.7346938  24.5804066  57.9515364  54.1668871
  31.4260487  53.3056709  51.6368591  31.8971666  54.0196971  51.8058576
  31.7620666  52.7055459  52.1728461  31.5455602  53.3228173  51.7400967
  33.5137472  54.9158022  63.8160663  33.6234437  54.1266583  64.1717410
  33.8428369  54.8263958  63.0135001  33.5789878  54.7863875  63.7503054
  28.3429982  38.0784179  58.5926686  28.4757888  37.2815173  58.9207661
  28.7275135  38.6050582  59.1724962  28.4186311  38.0384096  58.7270189
  32.0634434  53.0974643  58.3996284  31.5155380  52.4732527  58.1316349
  32.5247462  53.2868915  57.6840363  32.0501643  53.0333693  58.2546715
  34.8728298  41.1659997  55.7847476  34.2891287  41.6669204  55.3725043
  35.1932592  40.6589554  55.1511799  34.8341473  41.1651833  55.6305983
  26.0018429  38.0743355  56.8404580  26.5462842  37.7334481  57.4308921
  26.0555365  38.9328816  56.9825864  26.0907548  38.1498614  56.9486453
  21.8148988  51.8359771  53.7143388  22.4193845  51.7955605  53.0857208
  21.6076300  52.6830923  53.7447443  21.8737885  51.9547773  53.6259504
  31.6292760  54.1025716  54.9305625  32.4491134  53.9588682  55.1921920
  31.3486838  54.7271915  55.4722063  31.7089503  54.1736068  55.0493564
  17.0500270  50.8194388  53.5842311  16.9524548  50.0090660  53.8932367
  17.8329140  50.7986181  53.1988579  17.1516407  50.6961478  53.5729174
  48.1006410  61.7590567  47.8948501  48.0700415  62.6135204  48.0666771
  48.6987759  61.4585860  48.4534645  48.1843568  61.8407064  48.0023304
  41.3006095  60.8466218  52.6501432  40.4443991  61.0074717  52.7010549
  41.3473749  59.9758282  52.6706493  41.1805207  60.7417020  52.6607498
  35.6847235  70.3828936  48.4138663  34.9330134  70.0044475  48.1854708
  36.1333247  70.4147370  47.6657474  35.6396902  70.3314543  48.2696166
  44.6099812  67.1152744  62.2561888  45.3166579  66.6204775  62.3848822
  44.7987747  67.5561826  61.5264546  44.7427717  67.1071094  62.1670933
  41.1372195  70.8054306  43.8424210  40.8023563  71.4831227  43.4068433
  41.6499065  70.4159617  43.2541082  41.1637776  70.8478884  43.6911002
  40.6776486  72.7568574  49.7835322  41.0615865  73.3255473  49.2440097
  40.6135627  72.0318085  49.3041138  40.7249913  72.7344038  49.6329185
  44.1457916  62.9058262  55.2933083  44.6913876  63.5843349  55.3527053
  44.0874793  62.7645723  54.4334665  44.2173831  62.9850264  55.1745144
  37.2631991  70.3947328  50.6801436  37.3642354  69.5847682  50.9898564
  36.6673736  70.3004275  50.0501114  37.1904530  70.2612357  50.6327674
  45.9222985  64.3342869  46.1666811  45.8062511  65.0850556  46.5958949
  46.7178872  64.0766823  46.4162898  46.0227574  64.4077716  46.2670903
  37.1032731  75.3124918  52.0816292  37.7470186  75.7538082  52.4712450
  37.4288986  74.5078344  51.9946551  37.2464559  75.2590112  52.1261769
  30.4597035  66.4167615  50.3053770  30.2247220  65.5835267  50.1986038
  30.5982676  66.6972281  49.4914970  30.4452698  66.3351118  50.1696124
  32.7587123  58.5853346  53.2038077  32.1392154  57.9945993  53.0348092
  32.6570986  59.1764781  52.5702400  32.6524798  58.5857428  53.0843067
  37.8053310  68.3236892  47.4536154  38.1269151  68.8642100  46.8497462
  38.4525407  67.7533664  47.5858443  37.9479366  68.3196068  47.3843189
  39.8555018  60.3252887  47.5370540  40.5535183  60.5041015  48.0292004
  40.1707351  59.8023227  46.9140930  40.0050356  60.2746660  47.5172550
  32.4856256  62.1305627  55.4481646  32.3614953  62.7168073  56.0831465
  33.1374540  61.6365823  55.7493921  32.5629905  62.1444432  55.5867575
  40.0442954  66.7123332  47.5250332  40.4836589  66.1040433  47.9705105
  39.8947617  66.3330706  46.7535797  40.0864420  66.5661804  47.4769499
  37.5114597  65.3067344  54.7269157  38.1563599  64.8139787  54.4080106
  37.7516374  65.4492131  55.5535236  37.6425182  65.2544786  54.8018690
  40.0500688  68.1522250  54.3776050  40.3323931  67.3573656  54.1562806
  40.7786849  68.6302838  54.3981111  40.1990252  68.1056847  54.3479065
  38.0281882  55.6945284  51.6191815  37.6985212  56.1456428  50.9495514
  37.3526884  55.6161447  52.1664821  37.8792318  55.7496419  51.6015038
  43.6452290  65.0650514  44.4781101  43.5603586  65.9211480  44.6230670
  44.1336674  64.7894838  45.1463260  43.7041188  65.1507835  44.5983183
  44.5770724  61.6835308  45.9778836  44.0482195  61.8994941  46.6376142
  45.0995744  62.3771446  45.8979805  44.5759177  61.8178445  46.0634435
  50.0318777  67.2581612  51.3511881  49.2016480  67.4692256  51.5145297
  49.9828029  66.4318667  51.0754164  49.9025512  67.1671219  51.3349246
  36.4670331  65.5798525  44.7786304  35.8827547  66.0848556  45.1852168
  36.0640427  65.3540912  44.0382896  36.3209635  65.6206773  44.7291329
  32.0214360  71.2953286  51.5809976  31.5381938  72.0203775  51.5569559
  32.8337678  71.5929416  51.6920133  32.0705108  71.4455640  51.5937255
  38.0928514  70.0885467  54.1859790  37.5755456  69.7292882  53.5821098
  38.7902905  69.5647641  54.1965856  38.1194095  69.9583154  54.0990049
  41.7492106  70.5380281  60.1475963  41.8375452  70.3506421  60.9954173
  42.1781819  69.8917710  59.7480810  41.8254208  70.4143288  60.2147715
  39.3162566  69.8211441  59.1293625  38.7533401  69.4084050  59.6533287
  40.0783589  69.7464346  59.5486769  39.3457014  69.7488841  59.2686626
  40.9247546  61.8264177  43.2555225  41.1643550  62.0342161  42.4430568
  41.2463387  61.0221685  43.3644169  41.0084704  61.7378278  43.1515778
  36.2337836  53.7557572  47.1014763  36.9883804  54.1235890  46.8631813
  36.0565371  54.1297127  47.8693942  36.3192315  53.8655760  47.1799651
  34.8758557  71.8109462  51.7330255  35.5779137  71.2961451  51.7903012
  34.7956040  72.1383613  52.5377131  34.9682318  71.7823688  51.8603048
  49.5272735  59.9052013  55.1462302  48.6901156  59.9754200  55.3809896
  49.4960966  59.9076508  54.2736604  49.3991017  59.9162240  55.0521850
  35.9237464  62.0485049  60.8610671  36.0957968  61.9390943  61.7095952
  36.4606821  62.6939454  60.6241863  36.0282468  62.1277050  60.9515767
  34.5894901  56.1627891  43.7992876  34.4070474  56.3799772  42.9733868
  35.4520514  56.2766904  43.8551490  34.6899490  56.2117789  43.6847363
  34.2009333  68.0015814  51.2415864  35.0398232  68.2338746  51.2889625
  34.2321102  67.1320125  51.1722899  34.3291050  67.9072760  51.2380508
  34.8262036  68.4216689  55.5429169  35.3660261  68.2787820  56.2132541
  34.1431982  68.8213440  55.9113195  34.8054190  68.4596360  55.6963591
  44.2502921  64.1007690  50.7374193  45.0060436  64.5339204  50.7763102
  44.3565245  63.4512459  51.3108829  44.3773091  64.0685173  50.8272219
  47.2883092  67.9280967  51.4876596  46.8518324  67.9317709  52.2435568
  46.9546007  68.6086466  51.0556174  47.1745712  68.0293423  51.5357429
  41.8612165  69.9689300  62.8119747  42.6452582  70.0820147  63.1775489
  41.6608760  69.1430437  63.0078433  41.9478191  69.8636019  62.8954133
  30.2299181  64.6416980  55.6963591  29.9637596  63.8256096  55.8554581
  30.2437745  64.6870135  54.8259106  30.1923903  64.5273884  55.5917073
  47.2080575  54.9694795  53.7306024  47.8506483  55.0392899  54.3167940
  47.4603595  54.3024018  53.2285566  47.3402707  54.8821143  53.7433304
  34.1356928  59.4402064  42.3115349  33.4215105  59.1540244  42.7237781
  34.6200897  59.7798690  42.9521736  34.1016291  59.4483714  42.4670984
  34.9797787  58.1795358  58.3430598  34.2869584  57.7092338  58.5891330
  35.5958115  57.9533662  58.9172305  34.9682317  58.0762490  58.4639751
  42.0182559  71.8799402  56.4586202  41.2197804  71.6398902  56.7160071
  42.4668570  71.9313795  57.2053250  41.9657170  71.8521793  56.6071127
  50.4227438  64.6461887  50.3796234  51.0843872  64.0852555  50.2792142
  49.7818850  64.1513917  50.7048925  50.4256305  64.4898296  50.4128574
  41.3104246  67.9432018  42.6877157  41.7255394  67.6117042  41.9961653
  40.4796175  67.7100920  42.5597294  41.2492254  67.8603274  42.5668004
  30.6392594  65.4275759  52.9775335  30.4568168  65.4022645  52.1247627
  31.3742263  65.8974697  53.0164244  30.7206658  65.4937121  52.8573253
  46.7092269  65.6627269  50.1208222  46.9447858  65.8072468  49.2935073
  46.8581832  66.4269677  50.5139736  46.7658072  65.7966323  50.0571826
  33.7038346  62.1460762  59.4857444  34.4278318  62.1313793  59.9722338
  33.8054483  62.8556117  58.9879412  33.8256555  62.2485465  59.4836230
  48.5382725  64.5028935  47.9577826  48.8690943  65.0356575  47.3517921
  49.1115814  64.5567823  48.6139777  48.6716405  64.5898504  47.9655608
  41.0783296  65.6259847  64.3506391  40.2856276  65.9403358  64.5359010
  41.1932223  65.8411315  63.5127175  40.9778706  65.7043683  64.2544725
  43.7514615  62.3493838  48.6401406  43.8461469  63.0883132  49.0941032
  43.1273458  61.9211313  49.0735971  43.6723645  62.3955158  48.7709554
  42.0067088  65.5280050  59.2891687  42.5805950  64.8907295  59.4440251
  41.9281892  65.5284133  58.4201345  42.0800323  65.4345162  59.1838098
  30.6063505  62.3069260  53.1274401  31.1837007  62.1705711  53.7666647
  29.9077567  61.8505044  53.3819986  30.5884526  62.2191526  53.2596691
  44.0037636  64.1942578  41.8738358  43.9217798  64.2644765  42.7393345
  44.6417356  64.7572321  41.6822099  44.0857473  64.2881549  41.9728308
  37.3630807  63.9603315  51.3412885  37.1050051  63.1275050  51.3144184
  37.4179290  64.1860928  50.5005385  37.3330585  63.8701087  51.2133021
  42.4431857  56.0631766  51.4416977  41.7388184  55.5740952  51.6000896
  42.4916831  56.0754241  50.5705422  42.3461909  55.9921414  51.3356317
  36.3365519  61.5141078  51.8277779  35.7615110  61.6733246  52.4641740
  35.9601195  60.8776487  51.3646230  36.1968332  61.4438891  51.8532338
  40.0038808  59.9864427  56.6870158  39.6153241  59.5618645  56.0322349
  39.3393506  60.2346577  57.1947184  39.8485736  59.9603148  56.6658026
  49.6462077  59.7439432  49.4617988  49.3898642  58.9319373  49.2715871
  50.4891391  59.7516999  49.2348175  49.7328102  59.6251429  49.4002805
  26.0822338  61.1581153  49.8422220  26.1682590  60.7813021  50.6235750
  26.7098136  60.7841598  49.3642178  26.1878889  61.0466635  49.8867697
  43.8265169  53.6839056  54.1994142  44.2075681  53.0017227  54.5862016
  43.0228454  53.3948658  54.0169807  43.7641631  53.5406104  54.2298198
  41.1077746  64.2163032  44.8846965  41.9218385  64.5077925  44.7729736
  41.0436887  63.5622894  44.3105258  41.2180485  64.1628227  44.7835802
  47.3287236  66.8989028  59.2976540  47.0925874  66.0677093  59.1788601
  47.9730465  66.8474635  59.8831385  47.3881907  66.7686716  59.3662434
  36.9785654  67.6884549  50.0119277  37.6159601  67.4496297  50.5571070
  37.4040726  67.8921708  49.2772437  37.1361821  67.6835559  49.9836434
  31.6698297  69.9272886  53.8953581  31.7102442  70.1987737  53.0673360
  32.2292821  70.4514794  54.3111369  31.7581643  70.0448641  53.8345469
  37.6188469  62.9086839  44.3494166  38.0033622  62.6894546  45.1010711
  37.3700090  63.7349784  44.4795243  37.6390542  62.9984985  44.4795243
  37.7857010  56.1893254  64.0656751  37.4710451  56.9592817  63.8026313
  37.4646942  55.6263510  63.4808977  37.6915929  56.2203523  63.9398100
  48.3523657  66.6833477  55.3604835  48.0469474  67.4161534  55.7218151
  47.6329873  66.2771406  55.0797621  48.2010999  66.7315210  55.3717972
  39.3607126  68.1656972  51.6913063  39.4346135  68.0032144  52.5454913
  40.1776633  68.3547161  51.4473545  39.4923485  68.1693714  51.7811089
  54.0525449  63.3226477  54.6873179  53.9849949  63.3422436  53.8175766
  54.0381111  64.1656805  54.9128850  54.0404205  63.4500212  54.5925656
  35.3388907  54.5783776  49.6802947  34.4711332  54.6506375  49.7460556
  35.6264111  55.3805855  49.8690922  35.2528655  54.7077923  49.7177713
  44.4621795  54.7261635  58.0114269  45.2075387  54.5371445  57.5977694
  44.0459100  55.2519873  57.4528125  44.5106770  54.7763780  57.8678842
  37.9011712  71.1291715  46.4226537  38.1910010  70.7380696  45.6985763
  38.6315193  71.3108420  46.8631812  38.0518596  71.0985529  46.3809344
  51.8384066  62.0970864  52.9619774  52.3891988  61.4638933  53.2016866
  51.8228182  62.6286256  53.6535278  51.9169263  62.0819812  53.0998632
  38.4906457  65.9309461  57.5079667  37.9918151  66.6425229  57.5864555
  39.3006681  66.2510127  57.4697829  38.5362564  66.0836309  57.5136236
  35.8417628  73.1059097  49.4886686  35.6217923  72.8156452  50.2813353
  35.6212150  72.4474052  48.9604599  35.7765222  72.9658806  49.5275595
  34.7534575  65.1932414  51.7542388  34.4647823  64.5669885  52.2888115
  35.6217923  65.1352701  51.8207068  34.8394827  65.0919958  51.8433342
  45.5412473  60.3367197  52.0724370  45.1977238  59.6157532  52.4231619
  45.6405515  60.1281048  51.2302728  45.5054515  60.1991400  51.9996050
  38.0085583  74.4788487  48.2717379  38.6609641  73.9464930  48.5008405
  37.3111192  74.1257140  48.6585253  38.0016301  74.3478010  48.3629546
  34.9566848  66.8327665  47.6784753  35.7112816  67.2140704  47.8920216
  34.3637461  67.2838809  48.1331449  34.9803562  66.9556492  47.7767631
  46.0025502  66.7992901  47.6148358  46.5683534  67.4586111  47.5306901
  45.3553405  67.1442599  48.0864760  45.9904258  66.9474843  47.6721114
  37.4173515  58.7890505  62.8041965  36.6073291  59.0948285  62.6931808
  37.8948202  59.5096088  62.9194549  37.3676994  58.9405106  62.8049036
  36.2765075  68.0036226  53.0524868  35.7545828  68.1436518  53.7376733
  36.6639095  67.2446891  53.2426986  36.2568776  67.9121750  53.1825945
  33.2656259  58.0542035  47.1219823  32.9781055  57.6843305  46.3851770
  33.9526727  58.5236890  46.8603528  33.3245156  58.0689004  46.9734899
  42.4732080  69.7431686  47.0385437  42.2318756  69.0099546  46.6312502
  42.6533413  70.2918542  46.3851770  42.4639704  69.7154077  46.8815660
  37.7031400  65.0340245  48.4506359  37.5074183  65.6414980  47.8566662
  37.9265746  64.3408189  47.9698033  37.7066041  65.0217771  48.2922440
  36.1009930  61.9194983  48.5687228  36.8232582  62.0836141  48.1091034
  35.6217923  62.6404648  48.4626568  36.1373661  62.0493213  48.4852842
  44.0603438  58.2558782  53.9483913  43.2214539  58.2820061  53.7122176
  44.1307805  58.9029517  54.5289259  43.9471831  58.3554908  53.9993030
  33.7517547  64.3253056  57.6741368  34.2638644  64.6037309  57.0250127
  33.4653890  65.0642350  58.0404181  33.7852410  64.4755409  57.6331246
  47.9360962  63.4626769  51.2345154  47.8494936  63.6182195  52.0879933
  47.4811442  64.1064844  50.8604560  47.8564218  63.5802524  51.3052261
  30.8384453  58.8323247  47.9705104  30.9400590  59.6349409  48.2986080
  31.6340340  58.6310583  47.6728185  30.9712359  58.9209146  47.9740459
  37.2701272  56.4179444  57.7342409  37.0784469  56.4334579  58.5841833
  38.1199868  56.6143118  57.7109064  37.3676994  56.4493795  57.8565704
  31.6548185  58.9470426  55.7126226  31.5133677  58.0954366  55.8370734
  31.9388749  58.9899086  54.8888432  31.6756032  58.8270176  55.6093850
  41.8086778  60.7837516  49.8570714  41.5621492  60.7033267  50.6907503
  42.1371901  59.9990984  49.6633241  41.8208021  60.6563781  49.9518237
  44.0412912  63.7917251  59.8979877  44.0360950  62.9197067  59.9022303
  44.7473906  63.9905420  59.4249333  44.1457916  63.6921125  59.8286912
  39.9403722  62.7184403  57.0518829  39.1927037  62.9115417  56.6467107
  40.0945248  61.8929622  56.8142950  39.8526150  62.6249514  56.9564234
  36.8411560  71.7097006  56.1354724  36.9901124  71.1499922  55.4828128
  37.6211562  71.7889008  56.5187243  36.9785654  71.6382572  56.0951673
  47.1988200  66.8499129  44.4073994  46.8195008  66.0636267  44.4003284
  46.5354445  67.3985986  44.2645639  47.0446674  66.8143953  44.3854791
  39.3664861  71.8811649  57.4139215  39.2908532  71.2120460  57.9690003
  39.2954720  72.5829437  57.9279881  39.3445468  71.8856556  57.5716063
  40.1805500  56.6134954  57.9414232  40.6378114  57.3458928  58.0687025
  40.2561828  56.1901419  58.7001488  40.2596469  56.6592192  58.0715309
  32.4238491  56.8600773  59.0303676  31.8880680  56.2481131  59.3464443
  32.4856255  57.4348909  59.6837343  32.3534123  56.8547701  59.1739103
  40.0235108  70.4012648  48.2462821  40.7884999  70.1322292  47.9245485
  39.9213198  69.9162658  48.9632883  40.1216603  70.2902213  48.3042648
  38.0587877  58.6037057  54.7856056  37.2683952  58.4228518  55.1073392
  38.4548500  57.8264010  54.7686351  38.0004754  58.4624518  54.8308605
  42.5453768  67.4324832  40.2262770  43.3126753  67.4924957  39.8168622
  42.0985077  66.8605273  39.7419089  42.5927195  67.3561407  40.0940480
  43.4431564  66.2379488  52.5115502  42.7676566  66.0064720  53.0128889
  43.4523940  65.6300671  51.8857607  43.3450068  66.1138413  52.4931655
  40.5725708  61.0797317  59.2679555  40.5084849  61.9407273  59.1399692
  40.7122895  60.7629310  58.4675107  40.5841178  61.1597483  59.1307768
  45.4448298  69.0944620  44.7425680  45.5268136  69.9011606  44.4187131
  45.9298040  69.1140579  45.4666454  45.5285456  69.2165282  44.8012579
  39.2544802  63.7729456  53.4095758  38.8307051  63.9733955  52.6734777
  39.0789657  62.9258304  53.5220058  39.1655682  63.6778237  53.3169448
  38.7556495  75.2879969  55.8717216  39.2452425  74.5890758  55.6892880
  38.1840727  74.9903839  56.4593273  38.7441025  75.1406193  55.9318256
  34.5427247  64.2681507  48.8423731  34.6991866  64.2028310  49.6979723
  34.8827840  65.0430060  48.6302410  34.6160481  64.3730706  48.9378325
  41.0806391  63.6439391  47.7117094  41.6221937  63.1409772  48.1755715
  41.3952950  63.5904586  46.9006579  41.2070788  63.5618812  47.6600906
  44.9523499  67.8542038  64.8244006  45.7658364  67.5827187  64.9849139
  44.7918465  67.5549578  64.0204202  45.0493447  67.7696964  64.7289412
  39.2492841  69.0356742  44.9957122  39.3185661  68.1771281  45.1350122
  40.0281296  69.2528623  44.6676147  39.3745691  68.9409606  44.9674279
  42.2295661  58.5375695  57.7639394  42.4437630  57.8986610  57.2102748
  41.6129560  58.9821519  57.3347256  42.1700990  58.5085839  57.6189826
  43.6400328  71.4594444  49.2093615  43.2480120  71.1561159  48.4916481
  43.7953401  72.2963534  49.0198569  43.6053918  71.5378280  49.0750112
  31.1161508  61.4516458  49.1584498  31.4960473  61.8701003  48.4944765
  30.5416873  62.0329914  49.4653341  31.0872833  61.5994317  49.1061239
  44.3934749  60.1464761  58.7022702  43.5811430  59.8390651  58.7835874
  44.8524683  59.6663761  59.2665414  44.3415133  60.0301253  58.7977296
  43.8040003  68.0244433  49.1499646  43.4454658  68.1959075  49.9263678
  43.3178714  68.4857638  48.5927644  43.6798700  68.1183404  49.1824915
  38.5928369  63.7043598  41.6899880  38.8820893  64.4808481  41.9643455
  38.6800167  63.1932329  42.3914380  38.6482625  63.7435516  41.8342378
  41.4888256  61.5524832  63.4851404  41.9587887  62.1766948  63.8719278
  41.5350136  60.8841808  64.0444619  41.5656132  61.5459512  63.6251475
  40.7151763  54.1974820  56.0393060  40.3283516  54.2223851  56.8206590
  40.2284700  53.6316498  55.5867577  40.5864272  54.1170570  56.0880964
  44.9644743  68.9148329  60.0966847  45.6024463  68.4208524  59.7629303
  44.3218834  68.8425729  59.5119074  44.9638969  68.8307337  59.9609202
  46.6901743  60.7637475  54.6632762  46.2629351  60.6763823  53.9080862
  46.0527796  60.8715250  55.2487606  46.5331350  60.7670134  54.6378204
  40.3808905  51.0841805  58.3303320  41.0102023  51.6202105  58.0524390
  40.5494768  50.9919164  59.1816886  40.4986699  51.1503167  58.4151848
  40.1822820  55.8713000  60.6029732  41.0096249  55.5998149  60.6588346
  40.2030666  56.6673841  60.9593550  40.3075670  55.9492754  60.6644915
  45.0198999  69.6068137  56.7372203  45.8091377  69.2557202  56.8574285
  45.1942597  70.4204525  56.4748837  45.1619281  69.6753994  56.7160071
  34.7592310  63.0176863  53.7899992  33.9180316  62.9180737  53.9978886
  34.9682318  63.7872343  54.1414313  34.6657002  63.1168906  53.8727307
  32.2367877  60.6396400  51.6184743  31.8424574  60.7139411  50.8434853
  31.6807993  61.0254346  52.1693105  32.0970689  60.7078174  51.5852403
  38.5708974  60.9458262  53.0397590  38.2672112  60.3914250  53.6407998
  37.8688395  61.1250472  52.5525624  38.4225184  60.8903044  53.0567295
  37.6275072  58.2558782  47.6042292  37.9034806  57.5377694  47.1919859
  38.2273741  58.8543701  47.3963398  37.7568336  58.2379152  47.5123053
  36.6327325  68.1607982  57.7469688  36.5247680  68.1710045  58.6131746
  36.8423107  68.9862763  57.5574641  36.6477437  68.2849057  57.8473779
  41.1285592  55.9272299  45.8788887  41.5829339  56.0982859  46.6036731
  41.6025638  55.3140410  45.4786662  41.2653912  55.8623184  45.9262648
  34.6501117  65.4120625  55.2091625  34.0589051  66.0530123  55.1794640
  35.4122141  65.8358242  55.1822925  34.6749378  65.5696463  55.2006772
  35.0461740  56.5722623  55.8759643  35.5063222  56.6461552  56.6134767
  35.0917847  57.3703877  55.5259464  35.1212296  56.7016770  55.9332399
  36.6945090  57.2389318  60.4431670  36.3030655  56.5922665  60.8787448
  36.8630953  57.8300753  61.0625925  36.6616000  57.2303585  60.5994376
  50.7691539  65.2426395  56.2068903  50.8274663  65.6913043  56.9528880
  50.1358007  65.6525207  55.7698983  50.6842834  65.3700129  56.2521452
  44.4090634  70.8629936  52.6423650  44.2110322  71.3520751  51.9479861
  43.7878345  71.0671178  53.2207783  44.2878198  70.9646475  52.6246873
  38.4698612  62.6314833  46.9833894  39.2140657  63.0189110  47.2216844
  38.6159308  61.7872259  47.1474382  38.6009197  62.5645306  47.0427864
  41.4576488  58.2040307  52.8827813  40.9836442  57.6782069  53.3933124
  41.8294624  57.6569779  52.3142675  41.4426377  58.0456303  52.8742960
  31.8349518  60.2011813  58.2511359  32.6975131  60.1007523  58.1648689
  31.5041301  59.6206523  57.6896931  31.9134714  60.1003440  58.1556765
  47.7213219  63.2642682  54.2934594  47.4811441  62.4249097  54.2977020
  48.2005226  63.3442849  55.0175367  47.7565402  63.1524082  54.4009396
  43.3859988  59.0976861  45.9453567  42.8583006  59.1805605  45.2559276
  43.8455696  59.8394733  45.9418212  43.3761838  59.2197524  45.8428262
  49.7218406  60.0444139  52.2463853  49.4828175  60.0039974  51.4084638
  49.8852307  60.8915292  52.3729574  49.7108709  60.1636224  52.1417335
  46.3264436  64.4294089  58.1768898  47.0498635  63.9766615  57.9979918
  46.0614398  64.7098754  57.3941226  46.3945709  64.4045057  58.0347613
  35.1951304  59.0254262  54.9121777  34.5704374  59.0372654  54.3047730
  34.8596899  59.5014437  55.5613017  35.0536796  59.0972779  54.9178346
  35.3793053  57.3679381  40.9694462  35.0305857  58.0199106  41.4326012
  34.8989499  57.3536494  40.2418333  35.2563297  57.4622434  40.9305554
  31.9076980  67.0854722  56.3525542  31.3776904  66.3947161  56.4020516
  32.1802073  67.0764908  55.5238250  31.8701702  66.9821854  56.2372957
  42.9397070  67.6680425  45.0763224  43.6631269  68.1338538  44.9327797
  42.4997661  67.7354034  44.3260821  42.9812762  67.7464261  44.9448006
  42.1083225  64.5277967  56.3263913  41.4940218  63.9836017  56.6212548
  42.6250510  64.0142203  55.8469729  42.0938888  64.3714376  56.2988142
  41.3479522  65.5982237  54.0608212  40.9207130  64.9731956  53.6273647
  41.3404467  65.3157159  54.8867219  41.2838664  65.4635018  54.1188039
  34.4642049  60.6347410  57.1296646  34.6235536  59.8790734  57.5348368
  34.2834943  61.1838350  57.7837383  34.4607408  60.6041224  57.2859352
  42.4062352  52.8008646  57.6847435  41.9102914  52.9972320  56.9939002
  43.1631414  53.2001314  57.5136237  42.4449177  52.8886379  57.5567572
  39.6765232  56.4750992  54.2750746  39.7007719  55.9411104  53.5863526
  39.9276706  55.9668300  54.9376336  39.7175151  56.3211896  54.2715390
  27.1872822  63.7582487  53.7093890  27.0816271  63.7129331  52.8445974
  26.4373042  64.1036267  53.9908175  27.0608425  63.8023395  53.6231220
  35.9566554  55.2021810  53.6556490  35.9964926  55.7031016  54.3691197
  35.1316219  55.2932204  53.3862413  35.8406080  55.2903626  53.7207028
  38.1396167  64.7682550  61.7576785  37.2891798  64.9054264  61.8934430
  38.3024295  64.0346328  62.2024486  38.0380031  64.6796651  61.8432384
  37.3780918  61.7182320  55.9530389  36.5472847  61.8856138  55.7465637
  37.3232435  61.3418270  56.7379274  37.2470333  61.6872051  56.0378917
  35.1864701  55.2091213  61.5886800  35.8117404  54.6653345  61.8616232
  34.7315181  54.7286130  61.0194590  35.2112961  55.0580694  61.5448394
  35.7516961  59.9937911  46.4820507  35.8919923  60.4910375  47.1849148
  36.2499494  59.2924206  46.6234720  35.8458042  59.9639890  46.6072086
  35.7817184  60.8605022  43.8113084  36.4162263  61.4565447  43.7462545
  35.8642795  60.5608480  44.6258954  35.8873735  60.9045930  43.9216170
  48.7599750  63.3920500  56.6799448  49.3517590  64.0317750  56.7117646
  49.1958744  62.6943536  56.9691515  48.9118181  63.3838850  56.7280280
  37.3596167  56.7918998  43.7858526  37.6812008  56.3122080  43.1317788
  37.6223110  57.6018644  43.5949337  37.4462192  56.8408896  43.6614018
  40.5893139  67.8137872  57.3057342  40.0818231  68.3673719  57.7497972
  40.2919786  67.8746162  56.4876116  40.4698024  67.9044183  57.2505798
  42.7555322  56.1791192  56.1482005  43.1810393  55.7263718  55.5365531
  42.1412315  55.6251262  56.4246792  42.7283967  56.0305168  56.0987030
  32.2870172  63.0572863  47.0802630  32.7962401  63.6537371  47.4613935
  32.7604444  62.7898837  46.3979049  32.4313547  63.1058678  47.0357152
  43.2000920  71.7301130  45.2361285  42.4830229  71.5561992  44.7708523
  43.8507657  71.4953702  44.7036771  43.1902770  71.6696922  45.0890503
  45.7848891  60.6065718  48.9802590  45.1140081  61.1495420  48.8515656
  46.4788641  61.0760574  48.7384285  45.7877759  60.7563989  48.9258118
  45.9477018  57.0621602  51.8892963  46.3004629  56.6351325  52.5638762
  45.0891820  56.9772445  52.0194040  45.8726463  56.9866343  52.0087974
  34.6460703  59.6929122  49.9475810  33.9272693  60.1093254  50.2148674
  35.0173066  60.2583360  49.3967448  34.5952635  59.8378403  49.9058617
  43.9460284  60.3256970  55.8377806  43.9258212  60.1440266  56.6912585
  43.9939485  61.1968989  55.8137389  43.9494925  60.4273509  55.9601100
  41.8906614  66.9144162  61.7626282  41.8502469  66.2693839  61.1771438
  42.7029932  66.8580780  62.0751694  42.0049768  66.8103129  61.7223231
  38.4814082  72.9662888  51.6651433  38.0674480  72.3037019  51.2755275
  39.1661456  73.1140747  51.1447127  38.5212453  72.8903547  51.5307930
  41.8479376  72.1252974  52.4175050  41.4495659  72.2355244  51.6495870
  41.2330595  72.3335040  53.0001610  41.6978265  72.1726542  52.3906349
  40.4207278  58.7327121  45.2849189  39.8272117  59.0544118  44.7333757
  40.4582556  57.8868217  45.0770296  40.3381667  58.6551450  45.1731961
  43.2965094  58.6906626  48.7150940  43.0678787  58.7139327  47.8729298
  43.5563171  57.8664093  48.8345950  43.3011282  58.5722706  48.6076137
  37.5784323  60.5441099  58.3176040  37.0663226  59.9362282  58.6761071
  37.4063819  61.2597692  58.7850016  37.4773960  60.5604398  58.4392264
  32.4250038  58.9878674  60.9678402  32.2552628  59.6480049  60.4226608
  31.9815987  59.1985236  61.6890891  32.3349371  59.1164656  60.9940031
  36.3509857  57.2283172  50.0105135  36.8267223  57.5900252  49.3755317
  35.8498457  57.8839640  50.2905278  36.3475216  57.3777361  49.9581876
  49.5821218  66.7004940  45.8018140  49.9654824  67.4496296  46.0316237
  48.7865332  66.9470760  45.5430129  49.5215001  66.8474634  45.7975714
  41.4553393  58.4665344  60.7578295  42.0124823  58.2379153  60.1256761
  41.1314458  59.2271009  60.4813508  41.4899803  58.5449180  60.6234793
  29.3252102  61.8925540  56.2266892  28.7778821  61.2226185  56.3447760
  30.1144480  61.5255388  56.2910359  29.3604286  61.7390526  56.2535592
  39.1736510  61.5532997  61.7230303  39.9247837  61.8684674  62.0369857
  39.3659087  61.3512168  60.8964224  39.3127925  61.5700379  61.6473698
  38.3936510  59.3724372  43.3778519  38.7735475  59.3904001  42.5929634
  37.6529106  59.8178361  43.2569367  38.3405348  59.4406147  43.2442088
  46.0221801  57.6806563  48.9654098  46.0216027  57.5255220  49.8238374
  45.8177981  58.5269550  48.9095484  45.9921578  57.7827184  49.0842037
  28.0839072  61.1046348  53.3812915  27.9060833  60.6522957  54.1067830
  27.7958094  61.9072509  53.5651392  28.0152025  61.1568905  53.5156417
  43.7462653  62.3604065  52.6190305  44.2416318  61.6427060  52.5794325
  42.9362428  62.0574863  52.5044792  43.7006546  62.2101711  52.5964031
  39.1921264  66.2101878  44.7687309  38.3832587  65.8868552  44.7220619
  39.6996173  65.5035100  44.7015558  39.1470931  66.0583195  44.7517604
  29.8211541  63.6374071  50.4934674  28.9557061  63.6259762  50.3817445
  29.9210357  63.4504294  51.3405813  29.7085708  63.6080133  50.6023618
  45.8114472  65.1107753  55.3067434  46.2369543  64.5882174  54.7537859
  45.4471391  65.7088590  54.7856057  45.8201074  65.1217980  55.1476443
  35.4468551  73.4071970  54.0664779  35.7615110  74.2208358  54.0742561
  35.8561965  73.0222189  54.7346938  35.5536649  73.4700672  54.1668871
  42.3993071  68.8242017  51.6368591  42.8704249  69.5382279  51.8058576
  42.7353249  68.2240767  52.1728461  42.5188186  68.8413481  51.7400967
  44.4870056  70.4343330  63.8160663  44.5967021  69.6451891  64.1717410
  44.8160952  70.3449266  63.0135001  44.5522461  70.3049183  63.7503054
  39.3162566  53.5969487  58.5926686  39.4490472  52.8000481  58.9207661
  39.7007719  54.1235890  59.1724962  39.3918895  53.5569404  58.7270189
  43.0367017  68.6159951  58.3996284  42.4887963  67.9917835  58.1316349
  43.4980046  68.8054223  57.6840363  43.0234227  68.5519001  58.2546715
  45.8460882  56.6845305  55.7847476  45.2623870  57.1854512  55.3725043
  46.1665176  56.1774862  55.1511799  45.8074057  56.6837140  55.6305983
  38.3855681  55.5985900  46.0606151  39.2071375  55.7684213  45.8187846
  37.9225332  55.7533161  45.3372448  38.4386843  55.6467633  45.9177795
  36.9751013  53.5928662  56.8404580  37.5195426  53.2519789  57.4308921
  37.0287948  54.4514124  56.9825864  37.0640132  53.6683922  56.9486453
  32.7881571  67.3545078  53.7143388  33.3926429  67.3140913  53.0857208
  32.5808884  68.2016231  53.7447443  32.8470469  67.4733081  53.6259504
  42.6025344  69.6211024  54.9305625  43.4223717  69.4773990  55.1921920
  42.3219421  70.2457223  55.4722063  42.6822087  69.6921376  55.0493564
  28.0232854  66.3379696  53.5842311  27.9257132  65.5275967  53.8932367
  28.8061723  66.3171489  53.1988579  28.1248990  66.2146786  53.5729174
  59.0738994  77.2775875  47.8948501  59.0432998  78.1320512  48.0666771
  59.6720343  76.9771168  48.4534645  59.1576152  77.3592372  48.0023304
  52.2738679  76.3651526  52.6501432  51.4176574  76.5260025  52.7010549
  52.3206333  75.4943590  52.6706493  52.1537790  76.2602328  52.6607498
  55.1190500  78.4243570  55.2933083  55.6646460  79.1028657  55.3527053
  55.0607376  78.2831031  54.4334665  55.1906414  78.5035572  55.1745144
  56.8955568  79.8528177  46.1666811  56.7795094  80.6035863  46.5958949
  57.6911455  79.5952131  46.4162898  56.9960158  79.9263024  46.2670903
  43.7319706  74.1038654  53.2038077  43.1124738  73.5131301  53.0348092
  43.6303570  74.6950089  52.5702400  43.6257382  74.1042736  53.0843067
  48.7785894  83.8422200  47.4536154  49.1001735  84.3827408  46.8497462
  49.4257991  83.2718972  47.5858443  48.9211949  83.8381376  47.3843189
  50.8287602  75.8438195  47.5370540  51.5267767  76.0226323  48.0292004
  51.1439935  75.3208535  46.9140930  50.9782939  75.7931967  47.5172550
  43.4588839  77.6490935  55.4481646  43.3347536  78.2353381  56.0831465
  44.1107124  77.1551131  55.7493921  43.5362489  77.6629740  55.5867575
  48.4847180  80.8252652  54.7269157  49.1296183  80.3325095  54.4080106
  48.7248957  80.9677439  55.5535236  48.6157766  80.7730094  54.8018690
  51.0233272  83.6707558  54.3776050  51.3056515  82.8758964  54.1562806
  51.7519432  84.1488146  54.3981111  51.1722836  83.6242155  54.3479065
  49.0014466  71.2130592  51.6191815  48.6717796  71.6641736  50.9495514
  48.3259467  71.1346755  52.1664821  48.8524902  71.2681727  51.6015038
  54.6184874  80.5835822  44.4781101  54.5336169  81.4396788  44.6230670
  55.1069257  80.3080146  45.1463260  54.6773771  80.6693143  44.5983183
  56.2090873  67.2016115  49.8641426  55.8944314  67.8919594  50.2961848
  55.6917815  67.1460897  49.1626926  56.0855344  67.2951003  49.8238375
  55.5503307  77.2020616  45.9778836  55.0214779  77.4180249  46.6376142
  56.0728327  77.8956754  45.8979805  55.5491760  77.3363753  46.0634435
  47.4402915  81.0983833  44.7786304  46.8560130  81.6033864  45.1852168
  47.0373010  80.8726220  44.0382896  47.2942219  81.1392081  44.7291329
  51.8980129  77.3449485  43.2555225  52.1376133  77.5527468  42.4430568
  52.2195970  76.5406993  43.3644169  51.9817287  77.2563586  43.1515778
  47.2070420  69.2742880  47.1014763  47.9616388  69.6421197  46.8631813
  47.0297954  69.6482435  47.8693942  47.2924898  69.3841068  47.1799651
  60.5005318  75.4237321  55.1462302  59.6633740  75.4939508  55.3809896
  60.4693549  75.4261816  54.2736604  60.3723601  75.4347548  55.0521850
  46.8970047  77.5670357  60.8610671  47.0690551  77.4576251  61.7095952
  47.4339405  78.2124762  60.6241863  47.0015051  77.6462358  60.9515767
  45.5627484  71.6813199  43.7992876  45.3803058  71.8985080  42.9733868
  46.4253097  71.7952212  43.8551490  45.6632074  71.7303097  43.6847363
  51.2427204  68.6839610  46.8341899  51.9713364  68.5055565  46.3880056
  51.3322096  69.5257690  47.0449078  51.3633866  68.7823488  46.7995417
  55.2235504  79.6192997  50.7374193  55.9793019  80.0524512  50.7763102
  55.3297829  78.9697767  51.3108829  55.3505675  79.5870481  50.8272219
  41.2031764  80.1602288  55.6963591  40.9370180  79.3441404  55.8554581
  41.2170329  80.2055443  54.8259106  41.1656487  80.0459192  55.5917073
  58.1813158  70.4880103  53.7306024  58.8239067  70.5578207  54.3167940
  58.4336179  69.8209325  53.2285566  58.3135290  70.4006451  53.7433304
  45.1089511  74.9587372  42.3115349  44.3947689  74.6725552  42.7237781
  45.5933480  75.2983998  42.9521736  45.0748875  74.9669022  42.4670984
  45.9530371  73.6980666  58.3430598  45.2602168  73.2277646  58.5891330
  46.5690698  73.4718970  58.9172305  45.9414901  73.5947798  58.4639751
  52.2836829  83.4617326  42.6877157  52.6987978  83.1302350  41.9961653
  51.4528759  83.2286228  42.5597294  52.2224838  83.3788582  42.5668004
  41.6125178  80.9461067  52.9775335  41.4300751  80.9207953  52.1247627
  42.3474847  81.4160005  53.0164244  41.6939242  81.0122429  52.8573253
  57.6824852  81.1812577  50.1208222  57.9180441  81.3257776  49.2935073
  57.8314416  81.9454985  50.5139736  57.7390656  81.3151631  50.0571826
  44.6770930  77.6646070  59.4857444  45.4010902  77.6499101  59.9722338
  44.7787066  78.3741425  58.9879412  44.7989139  77.7670773  59.4836230
  59.5115309  80.0214243  47.9577826  59.8423526  80.5541883  47.3517921
  60.0848397  80.0753131  48.6139777  59.6448988  80.1083812  47.9655608
  54.7247198  77.8679146  48.6401406  54.8194053  78.6068440  49.0941032
  54.1006042  77.4396621  49.0735971  54.6456228  77.9140466  48.7709554
  41.5796088  77.8254568  53.1274401  42.1569591  77.6891018  53.7666647
  40.8810150  77.3690352  53.3819986  41.5617110  77.7376834  53.2596691
  54.9770219  79.7127885  41.8738358  54.8950382  79.7830073  42.7393345
  55.6149940  80.2757629  41.6822099  55.0590057  79.8066857  41.9728308
  48.3363391  79.4788623  51.3412885  48.0782635  78.6460358  51.3144184
  48.3911873  79.7046236  50.5005385  48.3063168  79.3886395  51.2133021
  53.4164441  71.5817074  51.4416977  52.7120767  71.0926260  51.6000896
  53.4649415  71.5939549  50.5705422  53.3194492  71.5106722  51.3356317
  47.3098103  77.0326386  51.8277779  46.7347694  77.1918554  52.4641740
  46.9333779  76.3961795  51.3646230  47.1700915  76.9624199  51.8532338
  50.9771391  75.5049735  56.6870158  50.5885824  75.0803953  56.0322349
  50.3126090  75.7531885  57.1947184  50.8218319  75.4788456  56.6658026
  60.6194661  75.2624740  49.4617988  60.3631225  74.4504681  49.2715871
  61.4623974  75.2702307  49.2348175  60.7060686  75.1436737  49.4002805
  37.0554922  76.6766461  49.8422220  37.1415173  76.2998329  50.6235750
  37.6830719  76.3026906  49.3642178  37.1611473  76.5651943  49.8867697
  54.7997753  69.2024364  54.1994142  55.1808265  68.5202535  54.5862016
  53.9961037  68.9133966  54.0169807  54.7374215  69.0591412  54.2298198
  52.0810330  79.7348340  44.8846965  52.8950968  80.0263233  44.7729736
  52.0169471  79.0808202  44.3105258  52.1913069  79.6813534  44.7835802
  47.9518238  83.2069857  50.0119277  48.5892185  82.9681605  50.5571070
  48.3773309  83.4107016  49.2772437  48.1094404  83.2020867  49.9836434
  48.5921053  78.4272147  44.3494166  48.9766206  78.2079854  45.1010711
  48.3432673  79.2535092  44.4795243  48.6123126  78.5170293  44.4795243
  48.7589593  71.7078562  64.0656751  48.4443034  72.4778125  63.8026313
  48.4379526  71.1448818  63.4808977  48.6648512  71.7388831  63.9398100
  50.3339710  83.6842280  51.6913063  50.4078718  83.5217452  52.5454913
  51.1509216  83.8732469  51.4473545  50.4656068  83.6879022  51.7811089
  46.3121490  70.0969084  49.6802947  45.4443916  70.1691683  49.7460556
  46.5996695  70.8991163  49.8690922  46.2261238  70.2263231  49.7177713
  55.4354379  70.2446943  58.0114269  56.1807971  70.0556753  57.5977694
  55.0191684  70.7705181  57.4528125  55.4839353  70.2949088  57.8678842
  62.8116650  77.6156172  52.9619774  63.3624571  76.9824241  53.2016866
  62.7960765  78.1471564  53.6535278  62.8901846  77.6005120  53.0998632
  49.4639041  81.4494769  57.5079667  48.9650734  82.1610536  57.5864555
  50.2739265  81.7695435  57.4697829  49.5095147  81.6021617  57.5136236
  45.7267158  80.7117722  51.7542388  45.4380407  80.0855193  52.2888115
  46.5950506  80.6538009  51.8207068  45.8127410  80.6105266  51.8433342
  56.5145056  75.8552505  52.0724370  56.1709822  75.1342840  52.4231619
  56.6138099  75.6466356  51.2302728  56.4787099  75.7176708  51.9996050
  45.9299432  82.3512973  47.6784753  46.6845400  82.7326012  47.8920216
  45.3370044  82.8024116  48.1331449  45.9536145  82.4741800  47.7767631
  48.3906099  74.3075813  62.8041965  47.5805874  74.6133593  62.6931808
  48.8680785  75.0281396  62.9194549  48.3409578  74.4590414  62.8049036
  47.2497658  83.5221534  53.0524868  46.7278412  83.6621826  53.7376733
  47.6371679  82.7632198  53.2426986  47.2301359  83.4307058  53.1825945
  44.2388842  73.5727343  47.1219823  43.9513638  73.2028613  46.3851770
  44.9259311  74.0422198  46.8603528  44.2977740  73.5874312  46.9734899
  48.6763984  80.5525553  48.4506359  48.4806767  81.1600288  47.8566662
  48.8998330  79.8593497  47.9698033  48.6798625  80.5403079  48.2922440
  47.0742514  77.4380291  48.5687228  47.7965166  77.6021449  48.1091034
  46.5950507  78.1589956  48.4626568  47.1106245  77.5678521  48.4852842
  55.0336022  73.7744090  53.9483913  54.1947122  73.8005369  53.7122176
  55.1040389  74.4214825  54.5289259  54.9204415  73.8740216  53.9993030
  44.7250131  79.8438364  57.6741368  45.2371228  80.1222617  57.0250127
  44.4386473  80.5827658  58.0404181  44.7584994  79.9940717  57.6331246
  53.4805300  70.6729467  48.6811529  54.1831653  70.4737215  48.2031487
  53.2149489  69.9005409  48.9880372  53.5451932  70.5292433  48.6556970
  58.9093545  78.9812077  51.2345154  58.8227520  79.1367503  52.0879933
  58.4544025  79.6250152  50.8604560  58.8296802  79.0987832  51.3052261
  41.8117037  74.3508555  47.9705104  41.9133173  75.1534717  48.2986080
  42.6072924  74.1495891  47.6728185  41.9444943  74.4394454  47.9740459
  48.2433856  71.9364752  57.7342409  48.0517053  71.9519887  58.5841833
  49.0932452  72.1328426  57.7109064  48.3409578  71.9679103  57.8565704
  42.6280769  74.4655734  55.7126226  42.4866261  73.6139674  55.8370734
  42.9121332  74.5084394  54.8888432  42.6488615  74.3455484  55.6093850
  52.7819361  76.3022824  49.8570714  52.5354076  76.2218575  50.6907503
  53.1104484  75.5176292  49.6633241  52.7940605  76.1749089  49.9518237
  48.7416389  79.0379542  59.2693697  48.8859764  79.6180751  58.6336807
  49.0892037  79.4155839  59.9743552  48.8143850  79.1800246  59.2792692
  50.9136306  78.2369711  57.0518829  50.1659620  78.4300725  56.6467107
  51.0677831  77.4114930  56.8142950  50.8258734  78.1434822  56.9564234
  51.1538083  72.1320261  57.9414232  51.6110697  72.8644236  58.0687025
  51.2294412  71.7086727  58.7001488  51.2329053  72.1777500  58.0715309
  43.3971074  72.3786081  59.0303676  42.8613264  71.7666439  59.3464443
  43.4588839  72.9534217  59.6837343  43.3266707  72.3733009  59.1739103
  55.6265409  65.3110137  51.8108075  55.7448977  65.7686600  51.0775378
  55.4527585  64.5055398  51.5244293  55.6184580  65.2603909  51.6609009
  49.0320461  74.1222365  54.7856056  48.2416536  73.9413826  55.1073392
  49.4281084  73.3449318  54.7686351  48.9737337  73.9809826  54.8308605
  53.5186352  82.9510140  40.2262770  54.2859337  83.0110265  39.8168622
  53.0717661  82.3790581  39.7419089  53.5659779  82.8746715  40.0940480
  54.4164147  81.7564796  52.5115502  53.7409149  81.5250028  53.0128889
  54.4256523  81.1485978  51.8857607  54.3182652  81.6323721  52.4931655
  51.5458291  76.5982625  59.2679555  51.4817432  77.4592581  59.1399692
  51.6855479  76.2814618  58.4675107  51.5573761  76.6782791  59.1307768
  50.2277385  79.2914764  53.4095758  49.8039634  79.4919263  52.6734777
  50.0522240  78.4443612  53.5220058  50.1388266  79.1963545  53.3169448
  45.5159830  79.7866815  48.8423731  45.6724449  79.7213618  49.6979723
  45.8560423  80.5615368  48.6302410  45.5893065  79.8916013  48.9378325
  52.0538975  79.1624699  47.7117094  52.5954520  78.6595080  48.1755715
  52.3685534  79.1089894  46.9006579  52.1803372  79.0804120  47.6600906
  50.2225424  84.5542050  44.9957122  50.2918245  83.6956589  45.1350122
  51.0013880  84.7713931  44.6676147  50.3478275  84.4594914  44.9674279
  53.2028244  74.0561003  57.7639394  53.4170214  73.4171918  57.2102748
  52.5862143  74.5006827  57.3347256  53.1433573  74.0271147  57.6189826
  42.0894092  76.9701766  49.1584498  42.4693056  77.3886311  48.4944765
  41.5149456  77.5515221  49.4653341  42.0605417  77.1179625  49.1061239
  55.3667332  75.6650069  58.7022702  54.5544014  75.3575959  58.7835874
  55.8257267  75.1849069  59.2665414  55.3147717  75.5486561  58.7977296
  54.7772587  83.5429741  49.1499646  54.4187242  83.7144383  49.9263678
  54.2911298  84.0042946  48.5927644  54.6531284  83.6368712  49.1824915
  52.5942973  67.1660939  52.7526737  51.7236531  67.1399660  52.7060047
  52.8483314  66.9938131  51.9352583  52.5036533  67.1371083  52.6246874
  49.5660952  79.2228906  41.6899880  49.8553477  79.9993788  41.9643455
  49.6532751  78.7117637  42.3914380  49.6215208  79.2620824  41.8342378
  49.6192113  69.1767167  54.2100208  49.1030602  68.4847359  54.3351787
  49.0586042  69.8437945  54.1562806  49.4598627  69.1730425  54.2206274
  51.6884347  69.7160128  56.0393060  51.3016100  69.7409159  56.8206590
  51.2017284  69.1501806  55.5867577  51.5596856  69.6355878  56.0880964
  57.6634326  76.2822782  54.6632762  57.2361934  76.1949131  53.9080862
  57.0260379  76.3900558  55.2487606  57.5063934  76.2855442  54.6378204
  51.3541488  66.6027113  58.3303320  51.9834606  67.1387413  58.0524390
  51.5227351  66.5104472  59.1816886  51.4719283  66.6688475  58.4151848
  51.1555403  71.3898308  60.6029732  51.9828833  71.1183457  60.6588346
  51.1763249  72.1859149  60.9593550  51.2808253  71.4678062  60.6644915
  45.7324893  78.5362171  53.7899992  44.8912900  78.4366045  53.9978886
  45.9414901  79.3057651  54.1414313  45.6389586  78.6354214  53.8727307
  43.2100460  76.1581707  51.6184743  42.8157158  76.2324719  50.8434853
  42.6540577  76.5439654  52.1693105  43.0703272  76.2263482  51.5852403
  54.8465407  69.1363001  51.2988622  55.0515000  69.0685309  52.1445619
  54.5191831  69.9421823  51.2309799  54.8280655  69.2448942  51.4148277
  49.5441558  76.4643570  53.0397590  49.2404696  75.9099558  53.6407998
  48.8420979  76.6435780  52.5525624  49.3957768  76.4088352  53.0567295
  48.6007655  73.7744090  47.6042292  48.8767389  73.0563002  47.1919859
  49.2006324  74.3729009  47.3963398  48.7300920  73.7564460  47.5123053
  58.0999095  69.6894766  50.7791387  57.4873408  70.1765168  51.1645119
  58.1963270  69.0138257  51.3229039  58.0236992  69.6613074  50.9170246
  52.1018176  71.4457607  45.8788887  52.5561922  71.6168167  46.6036731
  52.5758221  70.8325718  45.4786662  52.2386496  71.3808492  45.9262648
  45.6233701  80.9305933  55.2091625  45.0321634  81.5715431  55.1794640
  46.3854725  81.3543550  55.1822925  45.6481962  81.0881771  55.2006772
  46.0194324  72.0907931  55.8759643  46.4795805  72.1646860  56.6134767
  46.0650431  72.8889185  55.5259464  46.0944879  72.2202078  55.9332399
  47.6677674  72.7574625  60.4431670  47.2763239  72.1107973  60.8787448
  47.8363536  73.3486061  61.0625925  47.6348584  72.7488893  60.5994376
  49.4431196  78.1500141  46.9833894  50.1873241  78.5374418  47.2216844
  49.5891892  77.3057567  47.1474382  49.5741781  78.0830614  47.0427864
  51.3610771  69.9450400  52.0165755  50.5146816  70.1173208  51.8907105
  51.3581904  69.1399744  52.3531584  51.2357921  69.8511429  52.0476882
  52.4309072  73.7225615  52.8827813  51.9569026  73.1967377  53.3933124
  52.8027207  73.1755087  52.3142675  52.4158960  73.5641611  52.8742960
  42.8082102  75.7197121  58.2511359  43.6707715  75.6192830  58.1648689
  42.4773885  75.1391831  57.6896931  42.8867298  75.6188748  58.1556765
  58.6945802  78.7827990  54.2934594  58.4544025  77.9434405  54.2977020
  59.1737809  78.8628157  55.0175367  58.7297986  78.6709390  54.4009396
  54.3592571  74.6162169  45.9453567  53.8315590  74.6990913  45.2559276
  54.8188279  75.3580041  45.9418212  54.3494422  74.7382832  45.8428262
  60.6950989  75.5629447  52.2463853  60.4560759  75.5225282  51.4084638
  60.8584890  76.4100599  52.3729574  60.6841293  75.6821532  52.1417335
  46.1683888  74.5439570  54.9121777  45.5436958  74.5557962  54.3047730
  45.8329483  75.0199745  55.5613017  46.0269379  74.6158087  54.9178346
  46.3525636  72.8864689  40.9694462  46.0038441  73.5384414  41.4326012
  45.8722082  72.8721802  40.2418333  46.2295880  72.9807742  40.9305554
  53.9129654  83.1865733  45.0763224  54.6363853  83.6523846  44.9327797
  53.4730245  83.2539342  44.3260821  53.9545346  83.2649569  44.9448006
  53.0815809  80.0463275  56.3263913  52.4672802  79.5021325  56.6212548
  53.5983094  79.5327511  55.8469729  53.0671471  79.8899684  56.2988142
  52.3212106  81.1167545  54.0608212  51.8939714  80.4917264  53.6273647
  52.3137050  80.8342467  54.8867219  52.2571247  80.9820326  54.1188039
  45.4374633  76.1532718  57.1296646  45.5968120  75.3976042  57.5348368
  45.2567527  76.7023658  57.7837383  45.4339992  76.1226532  57.2859352
  53.3794936  68.3193954  57.6847435  52.8835497  68.5157628  56.9939002
  54.1363998  68.7186622  57.5136237  53.4181761  68.4071687  57.5567572
  50.6497816  71.9936300  54.2750746  50.6740303  71.4596412  53.5863526
  50.9009289  71.4853608  54.9376336  50.6907734  71.8397203  54.2715390
  38.1605405  79.2767794  53.7093890  38.0548854  79.2314639  52.8445974
  37.4105625  79.6221575  53.9908175  38.0341008  79.3208703  53.6231220
  46.9299138  70.7207118  53.6556490  46.9697509  71.2216324  54.3691197
  46.1048802  70.8117511  53.3862413  46.8138664  70.8088934  53.7207028
  48.3513501  77.2367628  55.9530389  47.5205431  77.4041446  55.7465637
  48.2965018  76.8603578  56.7379274  48.2202916  77.2057359  56.0378917
  46.1597284  70.7276521  61.5886800  46.7849988  70.1838653  61.8616232
  45.7047764  70.2471438  61.0194590  46.1845545  70.5766002  61.5448394
  46.7249545  75.5123219  46.4820507  46.8652506  76.0095683  47.1849148
  47.2232078  74.8109514  46.6234720  46.8190626  75.4825198  46.6072086
  46.7549767  76.3790330  43.8113084  47.3894847  76.9750755  43.7462545
  46.8375378  76.0793788  44.6258954  46.8606318  76.4231238  43.9216170
  48.3328750  72.3104306  43.7858526  48.6544591  71.8307388  43.1317788
  48.5955694  73.1203952  43.5949337  48.4194776  72.3594203  43.6614018
  53.7287905  71.6976500  56.1482005  54.1542977  71.2449026  55.5365531
  53.1144898  71.1436570  56.4246792  53.7016551  71.5490476  56.0987030
  43.2602755  78.5758171  47.0802630  43.7694985  79.1722678  47.4613935
  43.7337028  78.3084145  46.3979049  43.4046131  78.6243986  47.0357152
  52.1682128  68.1691599  49.5572582  51.5250446  68.0189246  50.1257720
  51.8281535  67.9233945  48.7921686  52.0227205  68.1103722  49.5275597
  56.7581475  76.1251026  48.9802590  56.0872664  76.6680728  48.8515656
  57.4521225  76.5945881  48.7384285  56.7610342  76.2749297  48.9258118
  56.9209602  72.5806910  51.8892963  57.2737212  72.1536633  52.5638762
  56.0624404  72.4957753  52.0194040  56.8459047  72.5051650  52.0087974
  45.6193287  75.2114429  49.9475810  44.9005276  75.6278562  50.2148674
  45.9905649  75.7768668  49.3967448  45.5685219  75.3563711  49.9058617
  54.9192868  75.8442278  55.8377806  54.8990795  75.6625574  56.6912585
  54.9672069  76.7154297  55.8137389  54.9227509  75.9458817  55.9601100
  51.3939861  74.2512429  45.2849189  50.8004701  74.5729426  44.7333757
  51.4315139  73.4053525  45.0770296  51.3114251  74.1736758  45.1731961
  58.3533662  67.7025322  52.8177276  57.8464527  66.9954461  52.7498453
  59.1501096  67.3718510  52.9478353  58.3960901  67.5498473  52.8276271
  54.2697678  74.2091934  48.7150940  54.0411371  74.2324635  47.8729298
  54.5295754  73.3849401  48.8345950  54.2743866  74.0908014  48.6076137
  48.5516906  76.0626407  58.3176040  48.0395809  75.4547590  58.6761071
  48.3796403  76.7782999  58.7850016  48.4506543  76.0789706  58.4392264
  43.3982621  74.5063982  60.9678402  43.2285211  75.1665357  60.4226608
  42.9548571  74.7170543  61.6890891  43.3081955  74.6349964  60.9940031
  47.3242440  72.7468480  50.0105135  47.7999807  73.1085560  49.3755317
  46.8231040  73.4024948  50.2905278  47.3207799  72.8962669  49.9581876
  52.4285977  73.9850652  60.7578295  52.9857407  73.7564461  60.1256761
  52.1047042  74.7456317  60.4813508  52.4632387  74.0634488  60.6234793
  40.2984686  77.4110848  56.2266892  39.7511405  76.7411493  56.3447760
  41.0877064  77.0440696  56.2910359  40.3336869  77.2575834  56.2535592
  49.3669094  74.8909680  43.3778519  49.7468058  74.9089309  42.5929634
  48.6261690  75.3363669  43.2569367  49.3137931  74.9591455  43.2442088
  56.9954384  73.1991871  48.9654098  56.9948611  73.0440528  49.8238374
  56.7910564  74.0454858  48.9095484  56.9654162  73.3012492  49.0842037
  39.0571655  76.6231656  53.3812915  38.8793416  76.1708265  54.1067830
  38.7690677  77.4257817  53.5651392  38.9884608  76.6754213  53.5156417
  54.7195236  77.8789373  52.6190305  55.2148902  77.1612368  52.5794325
  53.9095012  77.5760171  52.5044792  54.6739130  77.7287019  52.5964031
  50.1653848  81.7287186  44.7687309  49.3565170  81.4053860  44.7220619
  50.6728757  81.0220408  44.7015558  50.1203515  81.5768503  44.7517604
  40.7944125  79.1559379  50.4934674  39.9289644  79.1445070  50.3817445
  40.8942941  78.9689602  51.3405813  40.6818292  79.1265441  50.6023618
  56.7847055  80.6293060  55.3067434  57.2102127  80.1067482  54.7537859
  56.4203975  81.2273898  54.7856057  56.7933658  80.6403287  55.1476443
  53.3725655  84.3427325  51.6368591  53.8436833  85.0567587  51.8058576
  53.7085833  83.7426075  52.1728461  53.4920770  84.3598789  51.7400967
  50.2895149  69.1154795  58.5926686  50.4223055  68.3185789  58.9207661
  50.6740302  69.6421198  59.1724962  50.3651478  69.0754712  58.7270189
  53.3627505  66.0385121  55.1907779  52.5573468  65.9282851  55.5075618
  53.2334240  66.1397577  54.3337645  53.2247638  66.0368792  55.1115820
  56.8193465  72.2030613  55.7847476  56.2356454  72.7039820  55.3725043
  57.1397759  71.6960170  55.1511799  56.7806641  72.2022448  55.6305983
  49.3588264  71.1171208  46.0606151  50.1803959  71.2869521  45.8187846
  48.8957915  71.2718469  45.3372448  49.4119427  71.1652941  45.9177795
  47.9483596  69.1113970  56.8404580  48.4928009  68.7705097  57.4308921
  48.0020532  69.9699432  56.9825864  48.0372716  69.1869230  56.9486453
  25.8492067   7.6598083  34.8288548  25.8186072   8.5142719  35.0006818
  26.4473416   7.3593375  35.3874692  25.9329225   7.7414579  34.9363350
  19.0491752   6.7473734  39.5841479  18.1929648   6.9082232  39.6350595
  19.0959406   5.8765798  39.6046540  18.9290863   6.6424536  39.5947545
  13.4332892  16.2836452  35.3478710  12.6815791  15.9051990  35.1194755
  13.8818903  16.3154885  34.5997520  13.3882559  16.2322059  35.2036212
  22.3585469  13.0160259  49.1901935  23.0652236  12.5212290  49.3188869
  22.5473404  13.4569341  48.4604593  22.4913374  13.0078610  49.1010980
  18.8857852  16.7061821  30.7764257  18.5509220  17.3838743  30.3408479
  19.3984722  16.3167132  30.1881129  18.9123433  16.7486399  30.6251049
  18.4262143  18.6576090  36.7175369  18.8101522  19.2262988  36.1780144
  18.3621284  17.9325600  36.2381185  18.4735570  18.6351553  36.5669231
  21.8943573   8.8065778  42.2273130  22.4399533   9.4850864  42.2867100
  21.8360449   8.6653239  41.3674712  21.9659487   8.8857779  42.1085191
  15.0117648  16.2954844  37.6141483  15.1128011  15.4855198  37.9238610
  14.4159393  16.2011790  36.9841161  14.9390187  16.1619872  37.5667721
  23.6708642  10.2350385  33.1006858  23.5548168  10.9858071  33.5298996
  24.4664528   9.9774338  33.3502945  23.7713231  10.3085232  33.2010950
  14.8518388  21.2132433  39.0156339  15.4955843  21.6545597  39.4052497
  15.1774643  20.4085859  38.9286597  14.9950216  21.1597628  39.0601816
   8.2082692  12.3175130  37.2393816   7.9732877  11.4842783  37.1326085
   8.3468333  12.5979796  36.4255017   8.1938355  12.2358634  37.1036171
  15.5538967  14.2244408  34.3876200  15.8754808  14.7649615  33.7837508
  16.2011064  13.6541179  34.5198490  15.6965022  14.2203583  34.3183236
  17.6040675   6.2260403  34.4710587  18.3020840   6.4048530  34.9632050
  17.9193008   5.7030742  33.8480976  17.7536012   6.1754175  34.4512597
  10.2341913   8.0313143  42.3821693  10.1100610   8.6175588  43.0171512
  10.8860197   7.5373338  42.6833968  10.3115562   8.0451947  42.5207622
  17.7928611  12.6130848  34.4590379  18.2322246  12.0047948  34.9045151
  17.6433274  12.2338221  33.6875844  17.8350076  12.4669319  34.4109546
  15.2600254  11.2074860  41.6609204  15.9049256  10.7147303  41.3420153
  15.5002031  11.3499646  42.4875282  15.3910839  11.1552302  41.7358737
  17.7986345  14.0529765  41.3116097  18.0809588  13.2581171  41.0902852
  18.5272505  14.5310353  41.3321158  17.9475909  14.0064362  41.2819112
  21.3937947  10.9658029  31.4121148  21.3089242  11.8218996  31.5570717
  21.8822330  10.6902353  32.0803307  21.4526844  11.0515350  31.5323229
  22.9843947  -2.4161678  36.7981472  22.6697388  -1.7258199  37.2301895
  22.4670888  -2.4716895  36.0966973  22.8608417  -2.3226789  36.7578422
  22.3256380   7.5842823  32.9118883  21.7967852   7.8002457  33.5716189
  22.8481400   8.2778962  32.8319852  22.3244833   7.7185960  32.9974482
  14.2155988  11.4806040  31.7126351  13.6313203  11.9856071  32.1192215
  13.8126083  11.2548427  30.9722943  14.0695292  11.5214288  31.6631376
   9.7700017  17.1960801  38.5150022   9.2867595  17.9211291  38.4909606
  10.5823335  17.4936931  38.6260180   9.8190765  17.3463155  38.5277302
  15.8414171  15.9892982  41.1199837  15.3241113  15.6300397  40.5161145
  16.5388562  15.4655156  41.1305903  15.8679752  15.8590670  41.0330096
  19.4977763  16.4387796  47.0816010  19.5861109  16.2513936  47.9294220
  19.9267475  15.7925225  46.6820857  19.5739865  16.3150804  47.1487761
  17.0648223  15.7218956  46.0633672  16.5019057  15.3091566  46.5873333
  17.8269246  15.6471862  46.4826815  17.0942671  15.6496356  46.2026673
  18.6733203   7.7271692  30.1895272  18.9129206   7.9349676  29.3770615
  18.9949044   6.9229201  30.2984216  18.7570361   7.6385793  30.0855825
  12.6244214  17.7116977  38.6670302  13.3264793  17.1968966  38.7243059
  12.5441697  18.0391128  39.4717177  12.7167975  17.6831203  38.7943095
  27.2758392   5.8059528  42.0802349  26.4386813   5.8761715  42.3149943
  27.2446623   5.8084023  41.2076651  27.1476674   5.8169755  41.9861897
  13.6723121   7.9492564  47.7950717  13.8443624   7.8398459  48.6435999
  14.2092478   8.5946969  47.5581910  13.7768125   8.0284566  47.8855814
  11.9494990  13.9023329  38.1755910  12.7883889  14.1346262  38.2229672
  11.9806759  13.0327640  38.1062946  12.0776707  13.8080275  38.1720555
  12.5747693  14.3224204  42.4769216  13.1145918  14.1795335  43.1472588
  11.8917639  14.7220955  42.8453242  12.5539846  14.3603875  42.6303638
  21.9988577  10.0015205  37.6714240  22.7546092  10.4346719  37.7103149
  22.1050902   9.3519975  38.2448876  22.1258748   9.9692689  37.7612266
  19.6097822  15.8696815  49.7459794  20.3938239  15.9827663  50.1115536
  19.4094417  15.0437952  49.9418479  19.6963848  15.7643534  49.8294180
   7.9784838  10.5424495  42.6303637   7.7123253   9.7263612  42.7894628
   7.9923402  10.5877651  41.7599153   7.9409560  10.4281400  42.5257119
  24.9566231   0.8702310  40.6646071  25.5992140   0.9400415  41.2507986
  25.2089252   0.2031533  40.1625613  25.0888364   0.7828659  40.6773350
  11.8842585   5.3409579  29.2455396  11.1700762   5.0547759  29.6577828
  12.3686553   5.6806205  29.8861783  11.8501948   5.3491229  29.4011030
  19.7668216  17.7806917  43.3926249  18.9683461  17.5406417  43.6500118
  20.2154227  17.8321310  44.1393297  19.7142827  17.7529308  43.5411173
  28.1713095  10.5469402  37.3136280  28.8329529   9.9860070  37.2132189
  27.5304507  10.0521433  37.6388972  28.1741962  10.3905811  37.3468621
  19.0589903  13.8439533  29.6217204  19.4741051  13.5124557  28.9301699
  18.2281832  13.6108436  29.4937340  18.9977911  13.7610789  29.5008051
   8.3878251  11.3283274  39.9115382   8.2053825  11.3030160  39.0587674
   9.1227920  11.7982212  39.9504290   8.4692315  11.3944637  39.7913300
  24.4577925  11.5634784  37.0548269  24.6933515  11.7079983  36.2275120
  24.6067489  12.3277192  37.4479783  24.5143729  11.6973839  36.9911873
  11.4524003   8.0468277  46.4197490  12.1763975   8.0321308  46.9062385
  11.5540139   8.7563633  45.9219459  11.5742212   8.1492980  46.4176277
  26.2868382  10.4036450  34.8917873  26.6176599  10.9364090  34.2857968
  26.8601470  10.4575338  35.5479824  26.4202061  10.4906019  34.8995655
  18.8268952  11.5267362  51.2846437  18.0341933  11.8410874  51.4699057
  18.9417879  11.7418830  50.4467222  18.7264363  11.6051199  51.1884772
  21.5000271   8.2501353  35.5741453  21.5947126   8.9890647  36.0281079
  20.8759115   7.8218829  36.0076018  21.4209301   8.2962674  35.7049601
  19.7552745  11.4287566  46.2231734  20.3291607  10.7914810  46.3780298
  19.6767549  11.4291648  45.3541392  19.8285980  11.3352677  46.1178145
   8.3549162   8.2076775  40.0614448   8.9322664   8.0713226  40.7006694
   7.6563223   7.7512559  40.3160033   8.3370183   8.1199041  40.1936738
  21.7523293  10.0950093  28.8078405  21.6703455  10.1652280  29.6733392
  22.3903013  10.6579837  28.6162146  21.8343130  10.1889064  28.9068355
  15.1116464   9.8610831  38.2752931  14.8535708   9.0282566  38.2484231
  15.1664947  10.0868444  37.4345432  15.0816242   9.7708602  38.1473068
  20.1917514   1.9639281  38.3757024  19.4873841   1.4748467  38.5340943
  20.2402488   1.9761756  37.5045469  20.0947566   1.8928929  38.2696364
  14.0851176   7.4148593  38.7617826  13.5100767   7.5740762  39.3981787
  13.7086852   6.7784002  38.2986277  13.9453988   7.3446406  38.7872385
  17.7524465   5.8871943  43.6210205  17.3638897   5.4626160  42.9662396
  17.0879163   6.1354092  44.1287231  17.5971392   5.8610664  43.5998073
  27.3947734   5.6446947  36.3958035  27.1384299   4.8326889  36.2055917
  28.2377048   5.6524514  36.1688222  27.4813759   5.5258945  36.3342852
  21.5750826  -0.4153429  41.1334189  21.9561338  -1.0975258  41.5202063
  20.7714110  -0.7043827  40.9509853  21.5127288  -0.5586380  41.1638245
  18.8563403  10.1170547  31.8187012  19.6704042  10.4085440  31.7069783
  18.7922544   9.4630409  31.2445305  18.9666142  10.0635742  31.7175849
  25.0772893  12.7996543  46.2316587  24.8411530  11.9684608  46.1128648
  25.7216122  12.7482150  46.8171431  25.1367564  12.6694231  46.3002481
  14.7271311  13.5892065  36.9459324  15.3645258  13.3503812  37.4911117
  15.1526383  13.7929223  36.2112484  14.8847477  13.5843075  36.9176481
   9.4183953  15.8280401  40.8293627   9.4588099  16.0995252  40.0013407
   9.9778478  16.3522309  41.2451415   9.5067299  15.9456156  40.7685516
  15.3674126   8.8094354  31.2834213  15.7519279   8.5902061  32.0350758
  15.1185746   9.6357300  31.4135289  15.3876199   8.8992501  31.4135290
  26.1009314  12.5840992  42.2944882  25.7955131  13.3169049  42.6558197
  25.3815529  12.1778922  42.0137668  25.9496656  12.6322725  42.3058019
  17.1092783  14.0664487  38.6253110  17.1831791  13.9039659  39.4794960
  17.9262289  14.2554677  38.3813592  17.2409142  14.0701230  38.7151136
  31.8011106   9.2233993  41.6213226  31.7335606   9.2429952  40.7515813
  31.7866768  10.0664320  41.8468897  31.7889862   9.3507727  41.5265703
  10.8698540  14.4122350  35.6547553  10.0436657  14.6584087  35.5281832
  10.9310531  14.3334431  36.5209612  10.7572707  14.4367299  35.7636498
  22.2107452   0.6269150  44.9454315  22.9561044   0.4378961  44.5317741
  21.7944757   1.1527388  44.3868172  22.2592426   0.6771296  44.8018889
  15.6497369  17.0299230  33.3566583  15.9395667  16.6388212  32.6325810
  16.3800850  17.2115935  33.7971859  15.8004253  16.9993044  33.3149390
  29.5869723   7.9978379  39.8959820  30.1377645   7.3646448  40.1356912
  29.5713838   8.5293772  40.5875325  29.6654919   7.9827327  40.0338679
  16.2392114  11.8316976  44.4419714  15.7403808  12.5432744  44.5204602
  17.0492338  12.1517643  44.4037876  16.2848221  11.9843825  44.4476282
  13.5903284  19.0066613  36.4226733  13.3703580  18.7163967  37.2153400
  13.3697806  18.3481568  35.8944645  13.5250879  18.8666321  36.4615642
  12.5020232  11.0939929  38.6882435  12.2133480  10.4677400  39.2228162
  13.3703580  11.0360217  38.7547115  12.5880483  10.9927473  38.7773389
  23.2898129   6.2374713  39.0064417  22.9462895   5.5165048  39.3571666
  23.3891172   6.0288564  38.1642775  23.2540172   6.0998916  38.9336097
  15.7571240  20.3796003  35.2057425  16.4095298  19.8472445  35.4348452
  15.0596849  20.0264655  35.5925300  15.7501958  20.2485526  35.2969593
  12.7052505  12.7335180  34.6124800  13.4598473  13.1148219  34.8260262
  12.1123118  13.1846324  35.0671496  12.7289219  12.8564008  34.7107678
  23.7511158  12.7000417  34.5488405  24.3169191  13.3593627  34.4646948
  23.1039062  13.0450115  35.0204807  23.7389915  12.8482358  34.6061161
  15.1659172   4.6898021  49.7382012  14.3558948   4.9955800  49.6271854
  15.6433859   5.4103603  49.8534596  15.1162651   4.8412622  49.7389083
  14.0250732  13.9043742  39.9864915  13.5031485  14.0444033  40.6716780
  14.4124752  13.1454406  40.1767033  14.0054432  13.8129265  40.1165992
  20.2217737  15.6439201  33.9725484  19.9804412  14.9107062  33.5652549
  20.4019069  16.1926058  33.3191817  20.2125360  15.6161592  33.8155707
  15.4517057  10.9347761  35.3846406  15.2559840  11.5422495  34.7906709
  15.6751403  10.2415705  34.9038080  15.4551698  10.9225286  35.2262487
  13.8495587   7.8202499  35.5027275  14.5718239   7.9843657  35.0431081
  13.3703580   8.5412163  35.3966614  13.8859318   7.9500728  35.4192889
  21.8089095   4.1566297  40.8823960  20.9700195   4.1827576  40.6462223
  21.8793462   4.8037033  41.4629306  21.6957488   4.2562423  40.9333076
  11.5003204  10.2260571  44.6081414  12.0124301  10.5044824  43.9590174
  11.2139546  10.9649865  44.9744227  11.5338067  10.3762925  44.5671292
  20.2558373   1.0551674  35.6151575  20.9584726   0.8559423  35.1371534
  19.9902562   0.2827617  35.9220419  20.3205005   0.9114640  35.5897017
  25.6846619   9.3634284  38.1685201  25.5980593   9.5189710  39.0219980
  25.2297099  10.0072360  37.7944606  25.6049875   9.4810039  38.2392308
  15.0186929   2.3186960  44.6682456  14.8270126   2.3342094  45.5181880
  15.8685525   2.5150634  44.6449111  15.1162651   2.3501311  44.7905751
  19.5572435   6.6845031  36.7910761  19.3107149   6.6040782  37.6247550
  19.8857558   5.8998499  36.5973288  19.5693678   6.5571297  36.8858284
  23.4520483  13.3928391  40.5797542  23.3134843  14.0909436  41.0846284
  22.6720481  13.2377047  40.2233724  23.3163710  13.4728557  40.6023816
  21.7898569   9.6924766  46.8319924  21.7846607   8.8204582  46.8362350
  22.4959562   9.8912935  46.3589379  21.8943573   9.5928640  46.7626959
  15.5169462   9.4201750  46.2033744  15.6612838  10.0002958  45.5676854
  15.8645110   9.7978046  46.9083598  15.5896923   9.5622454  46.2132739
  17.6889379   8.6191918  43.9858875  16.9412693   8.8122933  43.5807154
  17.8430905   7.7937138  43.7482997  17.6011807   8.5257030  43.8904281
  14.5897217  17.6104522  43.0694771  14.7386781  17.0507437  42.4168175
  15.3697219  17.6896523  43.4527289  14.7271311  17.5390087  43.0291720
  17.1150518  17.7819164  44.3479262  17.0394189  17.1127975  44.9030050
  17.0440377  18.4836953  44.8619928  17.0931124  17.7864072  44.5056110
  17.9291156   2.5142469  44.8754279  18.3863770   3.2466443  45.0027071
  18.0047485   2.0908934  45.6341535  18.0082126   2.5599707  45.0055356
  17.7720764  16.3020163  35.1802867  18.5370656  16.0329807  34.8585532
  17.6698854  15.8170174  35.8972930  17.8702260  16.1909728  35.2382695
  20.2939425  13.3332347  27.1602817  21.0612410  13.3932472  26.7508669
  19.8470734  12.7612789  26.6759135  20.3412852  13.2568923  27.0280527
  21.1917221  12.1387003  39.4455549  20.5162222  11.9072235  39.9468936
  21.2009597  11.5308186  38.8197654  21.0935725  12.0145928  39.4271701
  18.3211364   6.9804832  46.2019602  18.2570506   7.8414788  46.0739739
  18.4608552   6.6636825  45.4015153  18.3326835   7.0604999  46.0647815
  23.1933955  14.9952135  31.6765727  23.2753793  15.8019122  31.3527178
  23.6783697  15.0148095  32.4006501  23.2771113  15.1172798  31.7352626
  17.0030458   9.6736971  40.3435805  16.5792708   9.8741470  39.6074823
  16.8275314   8.8265819  40.4560105  16.9141339   9.5785753  40.2509495
  16.5042152  21.1887484  42.8057262  16.9938082  20.4898273  42.6232927
  15.9326384  20.8911354  43.3933320  16.4926682  21.0413708  42.8658303
  12.2912903  10.1689023  35.7763778  12.4477523  10.1035826  36.6319770
  12.6313496  10.9437575  35.5642457  12.3646138  10.2738221  35.8718372
  18.8292048   9.5446906  34.6457141  19.3707593   9.0417287  35.1095761
  19.1438607   9.4912101  33.8346626  18.9556445   9.4626327  34.5940953
  22.7009155  13.7549554  51.7584053  23.5144021  13.4834702  51.9189185
  22.5404122  13.4557094  50.9544249  22.7979104  13.6704480  51.6629459
  16.9978498  14.9364258  31.9297169  17.0671318  14.0778796  32.0690169
  17.7766953  15.1536139  31.6016193  17.1231348  14.8417122  31.9014326
  19.9781317   4.4383211  44.6979441  20.1923287   3.7994125  44.1442795
  19.3615217   4.8829035  44.2687303  19.9186647   4.4093354  44.5529872
  21.3885985  17.3601959  36.1433662  20.9965777  17.0568674  35.4256528
  21.5439057  18.1971049  35.9538616  21.3539575  17.4385796  36.0090159
   8.8647165   7.3523973  36.0924545   9.2446130   7.7708518  35.4284812
   8.2902530   7.9337429  36.3993388   8.8358490   7.5001832  36.0401286
  22.1420405   6.0472276  45.6362748  21.3297087   5.7398166  45.7175921
  22.6010340   5.5671276  46.2005461  22.0900790   5.9308768  45.7317342
  21.5525660  13.9251948  36.0839693  21.1940315  14.0966591  36.8603725
  21.0664371  14.3865154  35.5267691  21.4284357  14.0190919  36.1164962
  16.3414025   9.6051113  28.6239927  16.6306550  10.3815996  28.8983501
  16.4285824   9.0939845  29.3254426  16.3968282   9.6443032  28.7682425
  19.2373913   7.4532347  50.4191451  19.7073544   8.0774464  50.8059325
  19.2835793   6.7849323  50.9784665  19.3141789   7.4467028  50.5591522
  22.7130399  14.8155844  47.0306894  23.3510120  14.3216040  46.6969350
  22.0704491  14.7433244  46.4459120  22.7124626  14.7314852  46.8949249
  24.4387399   6.6644990  41.5972809  24.0115008   6.5771338  40.8420909
  23.8013452   6.7722765  42.1827653  24.2817007   6.6677650  41.5718251
  17.9308477   1.7720515  47.5369778  18.7581906   1.5005664  47.5928393
  17.9516323   2.5681357  47.8933597  18.0561327   1.8500269  47.5984961
  22.7684656  15.5075652  43.6712250  23.5577034  15.1564717  43.7914332
  22.9428254  16.3212041  43.4088884  22.9104938  15.5761509  43.6500118
  12.5077966   8.9184378  40.7240039  11.6665973   8.8188252  40.9318933
  12.7167974   9.6879858  41.0754360  12.4142659   9.0176421  40.8067354
   9.9853533   6.5403915  38.5524790   9.5910231   6.6146927  37.7774899
   9.4293650   6.9261861  39.1033152   9.8456346   6.6085689  38.5192450
  21.6218480  -0.4814791  38.2328669  21.8268074  -0.5492483  39.0785666
  21.2944904   0.3244030  38.1649846  21.6033728  -0.3728851  38.3488324
  16.3194631   6.8465777  39.9737637  16.0157769   6.2921765  40.5748044
  15.6174052   7.0257987  39.4865671  16.1710841   6.7910559  39.9907342
  15.3760728   4.1566297  34.5382339  15.6520463   3.4385209  34.1259906
  15.9759398   4.7551217  34.3303445  15.5053993   4.1386668  34.4463100
  14.3812982  14.0615498  44.6809734  14.2733337  14.0717560  45.5471792
  14.5908764  14.8870278  44.4914688  14.3963093  14.1856573  44.7813826
  24.8752168   0.0716973  37.7131434  24.2626481   0.5587375  38.0985166
  24.9716343  -0.6039536  38.2569085  24.7990065   0.0435282  37.8510292
  18.8771249   1.8279814  32.8128934  19.3314995   1.9990375  33.5376778
  19.3511295   1.2147925  32.4126709  19.0139569   1.7630700  32.8602695
  12.3986774  11.3128140  42.1431672  11.8074708  11.9537638  42.1134687
  13.1607798  11.7365757  42.1162972  12.4235035  11.4703979  42.1346819
  14.4430747   3.1396833  47.3771717  14.0516312   2.4930180  47.8127495
  14.6116610   3.7308268  47.9965972  14.4101657   3.1311101  47.5334423
  22.1576291  16.7637452  39.5763696  21.9595979  17.2528266  38.8819908
  21.5364002  16.9678693  40.1547830  22.0363855  16.8653990  39.5586920
  16.2184269   8.5322349  33.9173941  16.9626314   8.9196625  34.1556891
  16.3644965   7.6879774  34.0814429  16.3494854   8.4652821  33.9767910
  19.2062145   4.1047822  39.8167860  18.7322099   3.5789584  40.3273171
  19.5780281   3.5577295  39.2482722  19.1912034   3.9463819  39.8083007
  25.4698875   9.1650198  41.2274641  25.2297098   8.3256613  41.2317067
  25.9490882   9.2450364  41.9515414  25.5051059   9.0531597  41.3349443
  21.1345644   4.9984377  32.8793614  20.6068663   5.0813121  32.1899323
  21.5941353   5.7402248  32.8758259  21.1247495   5.1205039  32.7768309
  27.4704062   5.9451655  39.1803900  27.2313832   5.9047489  38.3424684
  27.6337964   6.7922807  39.3069621  27.4594366   6.0643740  39.0757382
  24.0750092  10.3301604  45.1108945  24.7984291   9.8774131  44.9319965
  23.8100055  10.6106270  44.3281273  24.1431366  10.3052573  44.9687660
  12.9436961   4.9261778  41.8461824  12.3190031   4.9380170  41.2387777
  12.6082556   5.4021953  42.4953064  12.8022453   4.9980295  41.8518393
   9.6562636  12.9862238  43.2865588   9.1262561  12.2954677  43.3360563
   9.9287730  12.9772423  42.4578297   9.6187359  12.8829370  43.1713004
  20.6882727  13.5687940  32.0103271  21.4116926  14.0346053  31.8667844
  20.2483318  13.6361550  31.2600868  20.7298419  13.6471777  31.8788052
  19.8568882  10.4285482  43.2603960  19.2425875   9.8843533  43.5552595
  20.3736167   9.9149719  42.7809776  19.8424544  10.2721891  43.2328188
  19.0965179  11.4989752  40.9948259  18.6692787  10.8739471  40.5613694
  19.0890123  11.2164674  41.8207266  19.0324320  11.3642533  41.0528086
  12.2127706   6.5354925  44.0636693  12.3721193   5.7798250  44.4688414
  12.0320600   7.0845865  44.7177430  12.2093065   6.5048739  44.2199399
  20.1548009  -1.2983839  44.6187482  19.6588570  -1.1020165  43.9279049
  20.9117071  -0.8991171  44.4476284  20.1934834  -1.2106105  44.4907619
  17.4250889   2.3758507  41.2090793  17.4493376   1.8418619  40.5203573
  17.6762362   1.8675816  41.8716383  17.4660807   2.2219411  41.2055437
   4.9358479   9.6590002  40.6433937   4.8301928   9.6136846  39.7786021
   4.1858699  10.0043782  40.9248222   4.8094082   9.7030910  40.5571266
  15.8881824  10.6690065  48.6916831  15.0377454  10.8061779  48.8274476
  16.0509952   9.9353843  49.1364533  15.7865687  10.5804166  48.7772431
  15.1266574   7.6189835  42.8870436  14.2958504   7.7863653  42.6805684
  15.0718092   7.2425786  43.6719321  14.9955989   7.5879566  42.9718964
  13.5002618   5.8945427  33.4160554  13.6405579   6.3917891  34.1189195
  13.9985151   5.1931721  33.5574767  13.5943699   5.8647405  33.5412133
  13.5302841   6.7612538  30.7453130  14.1647920   7.3572963  30.6802592
  13.6128451   6.4615995  31.5599001  13.6359392   6.8053446  30.8556217
  26.5085406   9.2928015  43.6139495  27.1003247   9.9325266  43.6457693
  26.9444401   8.5951052  43.9031561  26.6603838   9.2846365  43.6620327
  15.1081823   2.6926513  30.7198572  15.4297665   2.2129595  30.0657835
  15.3708767   3.5026159  30.5289384  15.1947849   2.7416411  30.5954064
  18.3378796  13.7145387  44.2397389  17.8303887  14.2681234  44.6838019
  18.0405442  13.7753677  43.4216163  18.2183681  13.8051699  44.1845845
  20.5040978   2.0798707  43.0822051  20.9296050   1.6271233  42.4705578
  19.8897972   1.5258778  43.3586839  20.4769624   1.9312683  43.0327077
  10.0355829   8.9580378  34.0142676  10.5448058   9.5544886  34.3953982
  10.5090101   8.6906352  33.3319096  10.1799204   9.0066194  33.9697199
  20.9486577  17.6308645  32.1701332  20.2315886  17.4569507  31.7048569
  21.5993314  17.3961217  31.6376818  20.9388427  17.5704438  32.0230550
  23.5334548   6.5073234  35.9142637  22.8625738   7.0502936  35.7855703
  24.2274298   6.9768089  35.6724332  23.5363415   6.6571505  35.8598165
  17.5821282  18.6469946  41.1454395  17.3586936  17.8888775  41.5138422
  17.0931125  18.6767967  40.4234835  17.4764731  18.5392170  41.0931136
  23.6962675   2.9629117  38.8233010  24.0490285   2.5358840  39.4978809
  22.8377477   2.8779961  38.9534087  23.6212120   2.8873858  38.9428021
  12.3946360   5.5936637  36.8815857  11.6758349   6.0100769  37.1488720
  12.7658723   6.1590876  36.3307495  12.3438292   5.7385918  36.8398664
  21.6945941   6.2264486  42.7717853  21.6743868   6.0447781  43.6252631
  21.7425142   7.0976504  42.7477436  21.6980582   6.3281024  42.8941147
  19.6392271  12.8151678  48.6966329  19.5988126  12.1701355  48.1111485
  20.4515589  12.7588295  49.0091741  19.7535424  12.7110645  48.6563278
  16.2299738  18.8670404  38.5991480  15.8160137  18.2044534  38.2095322
  16.9147113  19.0148262  38.0787174  16.2698110  18.7911062  38.4647977
  19.5965033  18.0260489  39.3515097  19.1981316  18.1362759  38.5835917
  18.9816252  18.2342555  39.9341656  19.4463922  18.0734057  39.3246396
  18.1692935   4.6334637  32.2189236  17.5757774   4.9551633  31.6673803
  18.2068212   3.7875732  32.0110342  18.0867324   4.5558965  32.1072008
  25.1286735  -1.9152471  39.7517323  24.6217600  -2.6223331  39.6838500
  25.9254169  -2.2459282  39.8818399  25.1713975  -2.0679320  39.7616318
  21.0450751   4.5914141  35.6490987  20.8164444   4.6146843  34.8069345
  21.3048827   3.7671608  35.7685997  21.0496939   4.4730221  35.5416184
  15.3269980   6.4448614  45.2516087  14.8148883   5.8369797  45.6101118
  15.1549476   7.1605207  45.7190063  15.2259617   6.4611914  45.3732310
  14.0995514   3.1290688  36.9445182  14.5752880   3.4907767  36.3095363
  13.5984113   3.7847155  37.2245325  14.0960873   3.2784876  36.8921923
  19.2039050   4.3672859  47.6918342  19.7610480   4.1386668  47.0596808
  18.8800115   5.1278525  47.4153555  19.2385460   4.4456696  47.5574839
  16.9222167   7.4540512  48.6570349  17.6733494   7.7692189  48.9709904
  17.1144744   7.2519683  47.8304271  17.0613581   7.4707894  48.5813745
  16.1422167   5.2731887  30.3118566  16.5221132   5.2911517  29.5269681
  15.4014763   5.7185876  30.1909413  16.0891005   5.3413662  30.1782134
  23.7707457   3.5814079  35.8994145  23.7701684   3.4262735  36.7578421
  23.5663637   4.4277066  35.8435530  23.7407235   3.6834699  36.0182084
  21.4948309   8.2611580  39.5530352  21.9901975   7.5434575  39.5134372
  20.6848085   7.9582378  39.4384839  21.4492203   8.1109227  39.5304078
  16.9406921  12.1109394  31.7027356  16.1318244  11.7876067  31.6560666
  17.4481830  11.4042616  31.6355605  16.8956588  11.9590710  31.6857651
   7.5697198   9.5381587  37.4274720   6.7042718   9.5267277  37.3157492
   7.6696014   9.3511810  38.2745860   7.4571365   9.5087648  37.5363665
  23.5600128  11.0115268  42.2407480  23.9855200  10.4889690  41.6877906
  23.1957048  11.6096105  41.7196103  23.5686731  11.0225495  42.0816490
  13.1954208  19.3079485  41.0004826  13.5100767  20.1215874  41.0082608
  13.6047621  18.9229704  41.6686985  13.3022306  19.3708188  41.1008918
  20.1478728  14.7249532  38.5708638  20.6189906  15.4389795  38.7398623
  20.4838906  14.1248282  39.1068507  20.2673843  14.7420996  38.6741014
  22.2355712  16.3350846  50.7500710  22.3452678  15.5459406  51.1057457
  22.5646609  16.2456782  49.9475048  22.3008118  16.2056698  50.6843101
  20.7852674  14.5167466  45.3336331  20.2373620  13.8925350  45.0656396
  21.2465703  14.7061738  44.6180410  20.7719884  14.4526516  45.1886762
  23.5946538   2.5852821  42.7187523  23.0109527   3.0862027  42.3065090
  23.9150832   2.0782377  42.0851846  23.5559714   2.5844656  42.5646030
  16.1341338   1.4993416  32.9946198  16.9557032   1.6691728  32.7527893
  15.6710988   1.6540677  32.2712495  16.1872500   1.5475149  32.8517842
  10.5367228  13.2552594  40.6483434  11.1412086  13.2148428  40.0197255
  10.3294541  14.1023746  40.6787490  10.5956126  13.3740596  40.5599551
  20.3511000  15.5218539  41.8645672  21.1709374  15.3781505  42.1261967
  20.0705078  16.1464738  42.4062110  20.4307744  15.5928891  41.9833611
   5.7718511  12.2387211  40.5182358   5.6742789  11.4283483  40.8272414
   6.5547380  12.2179005  40.1328626   5.8734647  12.1154302  40.5069220
  19.1815276  27.8360438  37.2393816  18.9465460  27.0028091  37.1326085
  19.3200916  28.1165104  36.4255017  19.1670938  27.7543942  37.1036171
  21.4805363  20.0046169  40.1378124  20.8610395  19.4138816  39.9688139
  21.3789227  20.5957604  39.5042447  21.3743039  20.0050251  40.0183114
  21.2074496  23.5498451  42.3821693  21.0833193  24.1360896  43.0171512
  21.8592781  23.0558646  42.6833968  21.2848146  23.5637255  42.5207622
  33.9576530  13.1023630  36.7981472  33.6429971  13.7927109  37.2301895
  33.4403472  13.0468412  36.0966973  33.8341001  13.1958519  36.7578422
  28.0380806  31.2404264  46.0633672  27.4751641  30.8276874  46.5873333
  28.8001830  31.1657169  46.4826815  28.0675255  31.1681664  46.2026673
  29.6465786  23.2457000  30.1895272  29.8861790  23.4534984  29.3770615
  29.9681627  22.4414509  30.2984216  29.7302944  23.1571101  30.0855825
  24.6455704  23.4677872  47.7950717  24.8176208  23.3583767  48.6435999
  25.1825062  24.1132277  47.5581910  24.7500708  23.5469874  47.8855814
  23.3113141  17.5820715  30.7332922  23.1288714  17.7992596  29.9073915
  24.1738754  17.6959727  30.7891537  23.4117731  17.6310613  30.6187409
  23.5480276  29.8409512  42.4769216  24.0878501  29.6980643  43.1472588
  22.8650222  30.2406263  42.8453242  23.5272430  29.8789183  42.6303638
  18.9517421  26.0609803  42.6303637  18.6855836  25.2448920  42.7894628
  18.9655985  26.1062959  41.7599153  18.9142144  25.9466708  42.5257119
  35.9298815  16.3887618  40.6646071  36.5724723  16.4585722  41.2507986
  36.1821836  15.7216841  40.1625613  36.0620947  16.3013967  40.6773350
  23.7016028  19.5988181  45.2770645  23.0087824  19.1285161  45.5231377
  24.3176355  19.3726486  45.8512352  23.6900558  19.4955313  45.3979798
  19.3610835  26.8468582  39.9115382  19.1786408  26.8215468  39.0587674
  20.0960504  27.3167520  39.9504290  19.4424899  26.9129945  39.7913300
  22.4256587  23.5653585  46.4197490  23.1496559  23.5506616  46.9062385
  22.5272723  24.2748940  45.9219459  22.5474796  23.6678288  46.4176277
  29.8001536  27.0452670  51.2846437  29.0074517  27.3596182  51.4699057
  29.9150463  27.2604138  50.4467222  29.6996946  27.1236507  51.1884772
  19.3281745  23.7262083  40.0614448  19.9055248  23.5898534  40.7006694
  18.6295807  23.2697867  40.3160033  19.3102767  23.6384349  40.1936738
  14.8040578  22.5773976  36.7762267  14.8900830  22.2005844  37.5575797
  15.4316376  22.2034422  36.2982225  14.9097129  22.4659458  36.8207744
  20.3916537  31.3465709  40.8293627  20.4320682  31.6180560  40.0013407
  20.9511061  31.8707617  41.2451415  20.4799883  31.4641464  40.7685516
  26.5075250  17.6086077  50.9996797  26.1928691  18.3785640  50.7366360
  26.1865183  17.0456333  50.4149024  26.4134169  17.6396346  50.8738147
  33.1840036  16.1454458  44.9454315  33.9293628  15.9564269  44.5317741
  32.7677340  16.6712696  44.3868172  33.2325010  16.1956604  44.8018889
  23.4752815  26.6125237  38.6882435  23.1866064  25.9862708  39.2228162
  24.3436163  26.5545525  38.7547115  23.5613067  26.5112781  38.7773389
  26.1391756  20.2083329  49.7382012  25.3291531  20.5141108  49.6271854
  26.6166442  20.9288911  49.8534596  26.0895234  20.3597930  49.7389083
  22.4735787  25.7445879  44.6081414  22.9856884  26.0230132  43.9590174
  22.1872130  26.4835173  44.9744227  22.5070651  25.8948233  44.5671292
  19.5602694  20.2516071  34.9045151  19.6618830  21.0542232  35.2326126
  20.3558580  20.0503407  34.6068231  19.6930599  20.3401969  34.9080506
  20.3766426  20.3663249  42.6466272  20.2351918  19.5147190  42.7710780
  20.6606989  20.4091910  41.8228479  20.3974272  20.2462999  42.5433897
  25.5629800  33.1289830  43.0694771  25.7119364  32.5692745  42.4168175
  26.3429803  33.2081831  43.4527289  25.7003894  33.0575395  43.0291720
  28.0883101  33.3004472  44.3479262  28.0126772  32.6313283  44.9030050
  28.0172960  34.0022261  44.8619928  28.0663708  33.3049380  44.5056110
  21.1456731  18.2793597  45.9643723  20.6098921  17.6673955  46.2804490
  21.2074496  18.8541733  46.6177390  21.0752364  18.2740524  46.1079150
  33.3751066  11.2117652  38.7448122  33.4934634  11.6694115  38.0115425
  33.2013242  10.4062913  38.4584340  33.3670237  11.1611424  38.5949056
  23.2645487  25.6874331  35.7763778  23.4210106  25.6221133  36.6319770
  23.6046080  26.4622883  35.5642457  23.3378722  25.7923529  35.8718372
  33.6741739  29.2734862  51.7584053  34.4876604  29.0020010  51.9189185
  33.5136705  28.9742402  50.9544249  33.7711687  29.1889788  51.6629459
  19.8379748  22.8709281  36.0924545  20.2178713  23.2893826  35.4284812
  19.2635113  23.4522737  36.3993388  19.8091073  23.0187140  36.0401286
  30.2106496  22.9717655  50.4191451  30.6806128  23.5959772  50.8059325
  30.2568377  22.3034631  50.9784665  30.2874372  22.9652336  50.5591522
  29.1027145  12.5034628  45.2643367  29.7320263  13.0394928  44.9864437
  29.2713008  12.4111987  46.1156933  29.2204940  12.5695991  45.3491895
  28.9041060  17.2905823  47.5369778  29.7314489  17.0190972  47.5928393
  28.9248906  18.0866665  47.8933597  29.0293910  17.3685577  47.5984961
  23.4810550  24.4369686  40.7240039  22.6398557  24.3373560  40.9318933
  23.6900558  25.2065166  41.0754360  23.3875243  24.5361729  40.8067354
  20.9586117  22.0589223  38.5524790  20.5642815  22.1332235  37.7774899
  20.4026234  22.4447169  39.1033152  20.8188929  22.1270997  38.5192450
  25.3545566  29.5800806  44.6809734  25.2465921  29.5902868  45.5471792
  25.5641347  30.4055586  44.4914688  25.3695677  29.7041881  44.7813826
  35.8484751  15.5902281  37.7131434  35.2359065  16.0772683  38.0985166
  35.9448926  14.9145772  38.2569085  35.7722649  15.5620590  37.8510292
  23.3719358  26.8313448  42.1431672  22.7807291  27.4722946  42.1134687
  24.1340381  27.2551065  42.1162972  23.3967618  26.9889287  42.1346819
  23.7679981  17.9915446  42.8099690  24.2281462  18.0654375  43.5474813
  23.8136087  18.7896700  42.4599511  23.8430536  18.1209593  42.8672446
  25.4163330  18.6582141  47.3771717  25.0248896  18.0115488  47.8127495
  25.5849193  19.2493576  47.9965972  25.3834241  18.6496409  47.5334423
  20.5567758  21.6204637  45.1851406  21.4193371  21.5200346  45.0988736
  20.2259541  21.0399346  44.6236978  20.6352955  21.5196263  45.0896812
  24.1011293  18.7872204  27.9034509  23.7524097  19.4391929  28.3666058
  23.6207739  18.7729317  27.1758380  23.9781537  18.8815258  27.8645600
  20.6295220  28.5047546  43.2865588  20.0995144  27.8139985  43.3360563
  20.9020313  28.4957731  42.4578297  20.5919942  28.4014677  43.1713004
  23.1860290  22.0540233  44.0636693  23.3453777  21.2983558  44.4688414
  23.0053183  22.6031173  44.7177430  23.1825649  22.0234047  44.2199399
  31.1280593  14.2201469  44.6187482  30.6321154  14.4165143  43.9279049
  31.8849655  14.6194137  44.4476284  31.1667417  14.3079203  44.4907619
  15.9091062  25.1775310  40.6433937  15.8034511  25.1322154  39.7786021
  15.1591282  25.5229090  40.9248222  15.7826665  25.2216218  40.5571266
  26.8614407  26.1875373  48.6916831  26.0110038  26.3247087  48.8274476
  27.0242535  25.4539151  49.1364533  26.7598271  26.0989474  48.7772431
  23.9082941  16.6284036  48.5226847  24.5335645  16.0846169  48.7956279
  23.4533421  16.1478953  47.9534637  23.9331202  16.4773517  48.4788440
  21.0088412  24.4765686  34.0142676  21.5180641  25.0730194  34.3953982
  21.4822684  24.2091660  33.3319096  21.1531788  24.5251502  33.9697199
  36.1019319  13.6032837  39.7517323  35.5950184  12.8961977  39.6838500
  36.8986753  13.2726026  39.8818399  36.1446558  13.4505988  39.7616318
  21.1468278  20.4071498  47.9018449  20.9770868  21.0672872  47.3566655
  20.7034228  20.6178059  48.6230938  21.0567612  20.5357480  47.9280078
  30.1771634  19.8858167  47.6918342  30.7343064  19.6571976  47.0596808
  29.8532699  20.6463833  47.4153555  30.2118044  19.9642004  47.5574839
  18.0470342  23.3118363  43.1606938  17.4997062  22.6419009  43.2787807
  18.8362721  22.9448211  43.2250406  18.0822526  23.1583350  43.1875639
  27.8954751  22.9725820  48.6570349  28.6466078  23.2877497  48.9709904
  28.0877327  22.7704991  47.8304271  28.0346165  22.9893202  48.5813745
  16.8057312  22.5239171  40.3152961  16.6279073  22.0715780  41.0407877
  16.5176334  23.3265332  40.4991439  16.7370265  22.5761729  40.4496464
  18.5429782  25.0566895  37.4274720  17.6775301  25.0452585  37.3157492
  18.6428598  24.8697118  38.2745860  18.4303949  25.0272956  37.5363665
  24.1686792  34.8264793  41.0004826  24.4833351  35.6401182  41.0082608
  24.5780205  34.4415012  41.6686985  24.2754890  34.8893496  41.1008918
  28.0380806  15.0162311  45.5266733  28.1708712  14.2193304  45.8547708
  28.4225959  15.5428714  46.1065008  28.1137135  14.9762227  45.6610236
  25.6969253  15.0121486  43.7744627  26.2413666  14.6712613  44.3648968
  25.7506189  15.8706947  43.9165911  25.7858372  15.0876745  43.8826500
  21.5099812  28.7737902  40.6483434  22.1144669  28.7333736  40.0197255
  21.3027124  29.6209054  40.6787490  21.5688709  28.8925904  40.5599551
  16.7451094  27.7572519  40.5182358  16.6475372  26.9468791  40.8272414
  17.5279964  27.7364313  40.1328626  16.8467231  27.6339609  40.5069220
  55.2783219  59.5716183  49.1901935  55.9849987  59.0768214  49.3188869
  55.4671155  60.0125265  48.4604593  55.4111125  59.5634534  49.1010980
  51.3459894  65.2132014  36.7175369  51.7299273  65.7818912  36.1780144
  51.2819035  64.4881524  36.2381185  51.3933321  65.1907477  36.5669231
  47.7716138  67.7688357  39.0156339  48.4153594  68.2101521  39.4052497
  48.0972394  66.9641783  38.9286597  47.9147967  67.7153551  39.0601816
  50.7184096  60.6085689  41.3116097  51.0007339  59.8137095  41.0902852
  51.4470256  61.0866277  41.3321158  50.8673659  60.5620286  41.2819112
  42.6897768  63.7516725  38.5150022  42.2065346  64.4767215  38.4909606
  43.5021086  64.0492855  38.6260180  42.7388515  63.9019079  38.5277302
  48.7611922  62.5448906  41.1199837  48.2438863  62.1856321  40.5161145
  49.4586313  62.0211080  41.1305903  48.7877503  62.4146594  41.0330096
  52.4175514  62.9943720  47.0816010  52.5058859  62.8069860  47.9294220
  52.8465226  62.3481149  46.6820857  52.4937616  62.8706727  47.1487761
  49.9845973  62.2774880  46.0633672  49.4216808  61.8647489  46.5873333
  50.7466997  62.2027785  46.4826815  50.0140422  62.2052280  46.2026673
  45.5441965  64.2672901  38.6670302  46.2462544  63.7524890  38.7243059
  45.4639448  64.5947052  39.4717177  45.6365725  64.2387127  38.7943095
  45.4945443  60.8780128  42.4769216  46.0343668  60.7351259  43.1472588
  44.8115390  61.2776879  42.8453242  45.4737597  60.9159799  42.6303638
  57.9566499  60.3844406  38.4216643  57.5201731  60.3881148  39.1775615
  57.6229415  61.0649905  37.9896221  57.8429119  60.4856862  38.4697476
  52.5295573  62.4252739  49.7459794  53.3135990  62.5383587  50.1115536
  52.3292167  61.5993876  49.9418479  52.6161598  62.3199458  49.8294180
  52.6865966  64.3362841  43.3926249  51.8881212  64.0962341  43.6500118
  53.1351978  64.3877234  44.1393297  52.6340577  64.3085232  43.5411173
  59.2066133  56.9592374  34.8917873  59.5374350  57.4920014  34.2857968
  59.7799221  57.0131262  35.5479824  59.3399812  57.0461943  34.8995655
  51.7466703  58.0823286  51.2846437  50.9539684  58.3966798  51.4699057
  51.8615630  58.2974754  50.4467222  51.6462114  58.1607122  51.1884772
  52.6750496  57.9843489  46.2231734  53.2489358  57.3470734  46.3780298
  52.5965300  57.9847572  45.3541392  52.7483731  57.8908601  46.1178145
  57.9970644  59.3552467  46.2316587  57.7609281  58.5240532  46.1128648
  58.6413873  59.3038074  46.8171431  58.0565314  59.2250155  46.3002481
  59.0207064  59.1396916  42.2944882  58.7152881  59.8724973  42.6558197
  58.3013280  58.7334845  42.0137668  58.8694407  59.1878649  42.3058019
  64.7208857  55.7789916  41.6213226  64.6533357  55.7985876  40.7515813
  64.7064519  56.6220244  41.8468897  64.7087613  55.9063651  41.5265703
  48.5695119  63.5855154  33.3566583  48.8593418  63.1944135  32.6325810
  49.2998600  63.7671859  33.7971859  48.7202004  63.5548968  33.3149390
  46.5101035  65.5622536  36.4226733  46.2901330  65.2719891  37.2153400
  46.2895557  64.9037491  35.8944645  46.4448629  65.4222245  36.4615642
  48.6768991  66.9351926  35.2057425  49.3293049  66.4028369  35.4348452
  47.9794600  66.5820579  35.5925300  48.6699709  66.8041449  35.2969593
  56.6708909  59.2556340  34.5488405  57.2366942  59.9149550  34.4646948
  56.0236813  59.6006039  35.0204807  56.6587666  59.4038282  34.6061161
  53.1415487  62.1995125  33.9725484  52.9002163  61.4662985  33.5652549
  53.3216820  62.7481982  33.3191817  53.1323111  62.1717516  33.8155707
  56.3718234  59.9484314  40.5797542  56.2332593  60.6465360  41.0846284
  55.5918232  59.7932971  40.2233724  56.2361461  60.0284481  40.6023816
  54.7096319  56.2480690  46.8319924  54.7044358  55.3760506  46.8362350
  55.4157313  56.4468859  46.3589379  54.8141323  56.1484564  46.7626959
  47.5094968  64.1660445  43.0694771  47.6584531  63.6063361  42.4168175
  48.2894970  64.2452447  43.4527289  47.6469061  64.0946011  43.0291720
  57.8671607  59.3062568  31.3414041  57.4878416  58.5199706  31.3343331
  57.2037852  59.8549425  31.1985685  57.7130082  59.2707392  31.3194838
  50.0348268  64.3375088  44.3479262  49.9591939  63.6683899  44.9030050
  49.9638127  65.0392876  44.8619928  50.0128875  64.3419996  44.5056110
  50.6918515  62.8576087  35.1802867  51.4568406  62.5885731  34.8585532
  50.5896605  62.3726097  35.8972930  50.7900011  62.7465652  35.2382695
  56.1131706  61.5508059  31.6765727  56.1951543  62.3575045  31.3527178
  56.5981448  61.5704018  32.4006501  56.1968864  61.6728722  31.7352626
  49.4239903  67.7443408  42.8057262  49.9135833  67.0454197  42.6232927
  48.8524135  67.4467278  43.3933320  49.4124433  67.5969632  42.8658303
  55.6206906  60.3105477  51.7584053  56.4341771  60.0390626  51.9189185
  55.4601872  60.0113017  50.9544249  55.7176855  60.2260403  51.6629459
  54.3083736  63.9157883  36.1433662  53.9163528  63.6124598  35.4256528
  54.4636808  64.7526973  35.9538616  54.2737326  63.9941720  36.0090159
  54.4723411  60.4807872  36.0839693  54.1138066  60.6522515  36.8603725
  53.9862122  60.9421077  35.5267691  54.3482108  60.5746843  36.1164962
  55.6328150  61.3711768  47.0306894  56.2707871  60.8771963  46.6969350
  54.9902242  61.2989168  46.4459120  55.6322377  61.2870776  46.8949249
  55.6882407  62.0631576  43.6712250  56.4774785  61.7120641  43.7914332
  55.8626005  62.8767964  43.4088884  55.8302688  62.1317433  43.6500118
  47.3010733  60.6171422  44.6809734  47.1931088  60.6273484  45.5471792
  47.5106514  61.4426202  44.4914688  47.3160844  60.7412496  44.7813826
  55.0774041  63.3193376  39.5763696  54.8793730  63.8084190  38.8819908
  54.4561752  63.5234617  40.1547830  54.9561606  63.4209914  39.5586920
  56.9947843  56.8857528  45.1108945  57.7182042  56.4330054  44.9319965
  56.7297805  57.1662194  44.3281273  57.0629116  56.8608496  44.9687660
  53.6080478  60.1243864  32.0103271  54.3314676  60.5901977  31.8667844
  53.1681069  60.1917474  31.2600868  53.6496170  60.2027701  31.8788052
  37.8556229  56.2145926  40.6433937  37.7499678  56.1692770  39.7786021
  37.1056449  56.5599706  40.9248222  37.7291832  56.2586834  40.5571266
  51.2576547  60.2701311  44.2397389  50.7501638  60.8237158  44.6838019
  50.9603193  60.3309601  43.4216163  51.1381432  60.3607622  44.1845845
  53.8684327  64.1864569  32.1701332  53.1513637  64.0125431  31.7048569
  54.5191065  63.9517141  31.6376818  53.8586178  64.1260361  32.0230550
  50.5019032  65.2025869  41.1454395  50.2784687  64.4444699  41.5138422
  50.0128876  65.2323891  40.4234835  50.3962481  65.0948094  41.0931136
  52.5590022  59.3707602  48.6966329  52.5185877  58.7257279  48.1111485
  53.3713340  59.3144219  49.0091741  52.6733175  59.2666568  48.6563278
  49.1497489  65.4226327  38.5991480  48.7357888  64.7600458  38.2095322
  49.8344863  65.5704186  38.0787174  49.1895861  65.3466986  38.4647977
  52.5162783  64.5816413  39.3515097  52.1179067  64.6918683  38.5835917
  51.9014003  64.7898479  39.9341656  52.3661673  64.6289981  39.3246396
  60.2504626  59.1568379  32.7358187  60.6338232  59.9059736  32.9656284
  59.4548739  59.4034199  32.4770176  60.1898408  59.3038073  32.7315761
  46.1151959  65.8635409  41.0004826  46.4298518  66.6771798  41.0082608
  46.5245372  65.4785628  41.6686985  46.2220057  65.9264112  41.1008918
  53.0676478  61.2805456  38.5708638  53.5387657  61.9945719  38.7398623
  53.4036657  60.6804206  39.1068507  53.1871594  61.2976920  38.6741014
  55.1553463  62.8906769  50.7500710  55.2650429  62.1015330  51.1057457
  55.4844360  62.8012705  49.9475048  55.2205869  62.7612622  50.6843101
  53.7050425  61.0723390  45.3336331  53.1571371  60.4481274  45.0656396
  54.1663454  61.2617662  44.6180410  53.6917634  61.0082440  45.1886762
  53.2708751  62.0774463  41.8645672  54.0907125  61.9337429  42.1261967
  52.9902829  62.7020662  42.4062110  53.3505494  62.1484815  41.9833611
  38.6916261  58.7943135  40.5182358  38.5940539  57.9839407  40.8272414
  39.4745131  58.7734928  40.1328626  38.7932398  58.6710225  40.5069220
  69.7422401  69.7339314  34.8288548  69.7116406  70.5883951  35.0006818
  70.3403750  69.4334607  35.3874692  69.8259559  69.8155811  34.9363350
  62.9422086  68.8214965  39.5841479  62.0859982  68.9823464  39.6350595
  62.9889740  67.9507029  39.6046540  62.8221198  68.7165767  39.5947545
  57.3263226  78.3577683  35.3478710  56.5746126  77.9793222  35.1194755
  57.7749238  78.3896117  34.5997520  57.2812893  78.3063290  35.2036212
  66.2515803  75.0901491  49.1901935  66.9582570  74.5953522  49.3188869
  66.4403738  75.5310573  48.4604593  66.3843708  75.0819841  49.1010980
  65.7873907  70.8807009  42.2273130  66.3329867  71.5592096  42.2867100
  65.7290784  70.7394470  41.3674712  65.8589822  70.9599011  42.1085191
  58.9047982  78.3696075  37.6141483  59.0058345  77.5596429  37.9238610
  58.3089727  78.2753022  36.9841161  58.8320521  78.2361104  37.5667721
  67.5638976  72.3091616  33.1006858  67.4478502  73.0599303  33.5298996
  68.3594863  72.0515570  33.3502945  67.6643565  72.3826463  33.2010950
  52.1013026  74.3916362  37.2393816  51.8663211  73.5584014  37.1326085
  52.2398667  74.6721028  36.4255017  52.0868689  74.3099865  37.1036171
  54.4003114  66.5602093  40.1378124  53.7808146  65.9694740  39.9688139
  54.2986978  67.1513528  39.5042447  54.2940789  66.5606175  40.0183114
  59.4469302  76.2985640  34.3876200  59.7685143  76.8390847  33.7837508
  60.0941398  75.7282411  34.5198490  59.5895357  76.2944815  34.3183236
  61.4971010  68.3001634  34.4710587  62.1951174  68.4789762  34.9632050
  61.8123342  67.7771974  33.8480976  61.6466347  68.2495407  34.4512597
  54.1272247  70.1054374  42.3821693  54.0030944  70.6916820  43.0171512
  54.7790531  69.6114570  42.6833968  54.2045896  70.1193179  42.5207622
  61.6858945  74.6872079  34.4590379  62.1252580  74.0789180  34.9045151
  61.5363608  74.3079453  33.6875844  61.7280411  74.5410551  34.4109546
  59.1530588  73.2816091  41.6609204  59.7979590  72.7888534  41.3420153
  59.3932365  73.4240878  42.4875282  59.2841173  73.2293534  41.7358737
  61.6916679  76.1270997  41.3116097  61.9739922  75.3322403  41.0902852
  62.4202840  76.6051585  41.3321158  61.8406243  76.0805594  41.2819112
  59.6697873  63.6694031  38.5531862  59.3401203  64.1205175  37.8835560
  58.9942875  63.5910194  39.1004868  59.5208309  63.7245166  38.5355085
  65.2868282  73.0399261  31.4121148  65.2019577  73.8960227  31.5570717
  65.7752665  72.7643585  32.0803307  65.3457179  73.1256582  31.5323229
  66.8774281  59.6579554  36.7981472  66.5627722  60.3483033  37.2301895
  66.3601223  59.6024336  36.0966973  66.7538751  59.7514443  36.7578422
  66.2186715  69.6584055  32.9118883  65.6898186  69.8743688  33.5716189
  66.7411735  70.3520193  32.8319852  66.2175168  69.7927192  32.9974482
  58.1086323  73.5547272  31.7126351  57.5243538  74.0597303  32.1192215
  57.7056418  73.3289659  30.9722943  57.9625626  73.5955520  31.6631376
  53.6630351  79.2702033  38.5150022  53.1797929  79.9952522  38.4909606
  54.4753669  79.5678163  38.6260180  53.7121099  79.4204387  38.5277302
  59.7344505  78.0634214  41.1199837  59.2171447  77.7041629  40.5161145
  60.4318896  77.5396388  41.1305903  59.7610086  77.9331902  41.0330096
  60.9578557  77.7960188  46.0633672  60.3949392  77.3832797  46.5873333
  61.7199580  77.7213093  46.4826815  60.9873006  77.7237588  46.2026673
  62.5663537  69.8012924  30.1895272  62.8059541  70.0090908  29.3770615
  62.8879378  68.9970432  30.2984216  62.6500695  69.7127025  30.0855825
  57.8753827  61.7306320  34.0354809  58.6299795  62.0984637  33.7971860
  57.6981362  62.1045874  34.8033989  57.9608306  61.8404507  34.1139698
  56.5174548  79.7858209  38.6670302  57.2195128  79.2710198  38.7243059
  56.4372032  80.1132360  39.4717177  56.6098309  79.7572435  38.7943095
  71.1688726  67.8800760  42.0802349  70.3317147  67.9502947  42.3149943
  71.1376957  67.8825255  41.2076651  71.0407008  67.8910987  41.9861897
  57.5653455  70.0233796  47.7950717  57.7373959  69.9139690  48.6435999
  58.1022813  70.6688201  47.5581910  57.6698459  70.1025797  47.8855814
  56.2310892  64.1376638  30.7332922  56.0486465  64.3548519  29.9073915
  57.0936505  64.2515651  30.7891537  56.3315481  64.1866536  30.6187409
  55.8425324  75.9764561  38.1755910  56.6814223  76.2087494  38.2229672
  55.8737093  75.1068872  38.1062946  55.9707041  75.8821507  38.1720555
  56.4678027  76.3965436  42.4769216  57.0076252  76.2536567  43.1472588
  55.7847973  76.7962187  42.8453242  56.4470181  76.4345107  42.6303638
  61.9110611  61.1403049  33.7681946  62.6396772  60.9619004  33.3220103
  62.0005504  61.9821129  33.9789124  62.0317273  61.2386928  33.7335464
  65.8918912  72.0756437  37.6714240  66.6476427  72.5087951  37.7103149
  65.9981236  71.4261206  38.2448876  66.0189082  72.0433920  37.7612266
  51.8715172  72.6165727  42.6303637  51.6053587  71.8004843  42.7894628
  51.8853736  72.6618882  41.7599153  51.8339894  72.5022632  42.5257119
  68.8496566  62.9443542  40.6646071  69.4922474  63.0141646  41.2507986
  69.1019586  62.2772765  40.1625613  68.9818698  62.8569890  40.6773350
  55.7772919  67.4150811  29.2455396  55.0631096  67.1288991  29.6577828
  56.2616888  67.7547437  29.8861783  55.7432282  67.4232461  29.4011030
  56.6213778  66.1544105  45.2770645  55.9285575  65.6841085  45.5231377
  57.2374106  65.9282410  45.8512352  56.6098308  66.0511237  45.3979798
  62.9520237  75.9180765  29.6217204  63.3671385  75.5865789  28.9301699
  62.1212166  75.6849667  29.4937340  62.8908246  75.8352021  29.5008051
  52.2808586  73.4024506  39.9115382  52.0984159  73.3771392  39.0587674
  53.0158255  73.8723444  39.9504290  52.3622649  73.4685868  39.7913300
  68.3508260  73.6376016  37.0548269  68.5863849  73.7821215  36.2275120
  68.4997823  74.4018424  37.4479783  68.4074063  73.7715071  36.9911873
  55.3454337  70.1209509  46.4197490  56.0694310  70.1062540  46.9062385
  55.4470474  70.8304864  45.9219459  55.4672546  70.2234212  46.4176277
  70.1798717  72.4777682  34.8917873  70.5106934  73.0105322  34.2857968
  70.7531805  72.5316570  35.5479824  70.3132396  72.5647251  34.8995655
  62.7199287  73.6008594  51.2846437  61.9272267  73.9152105  51.4699057
  62.8348214  73.8160062  50.4467222  62.6194697  73.6792430  51.1884772
  65.3930606  70.3242585  35.5741453  65.4877460  71.0631879  36.0281079
  64.7689449  69.8960060  36.0076018  65.3139636  70.3703905  35.7049601
  63.6483079  73.5028797  46.2231734  64.2221941  72.8656042  46.3780298
  63.5697883  73.5032880  45.3541392  63.7216314  73.4093909  46.1178145
  52.2479496  70.2818007  40.0614448  52.8252999  70.1454458  40.7006694
  51.5493558  69.8253791  40.3160033  52.2300517  70.1940273  40.1936738
  65.6453627  72.1691325  28.8078405  65.5633789  72.2393512  29.6733392
  66.2833347  72.7321068  28.6162146  65.7273464  72.2630296  28.9068355
  59.0046798  71.9352062  38.2752931  58.7466042  71.1023797  38.2484231
  59.0595281  72.1609675  37.4345432  58.9746576  71.8449834  38.1473068
  64.0847848  64.0380513  38.3757024  63.3804175  63.5489699  38.5340943
  64.1332823  64.0502988  37.5045469  63.9877900  63.9670161  38.2696364
  57.9781510  69.4889825  38.7617826  57.4031102  69.6481993  39.3981787
  57.6017187  68.8525234  38.2986277  57.8384323  69.4187638  38.7872385
  61.6454799  67.9613174  43.6210205  61.2569232  67.5367392  42.9662396
  60.9809497  68.2095324  44.1287231  61.4901727  67.9351895  43.5998073
  71.2878068  67.7188179  36.3958035  71.0314633  66.9068120  36.2055917
  72.1307382  67.7265746  36.1688222  71.3744093  67.6000176  36.3342852
  47.7238329  69.1329900  36.7762267  47.8098581  68.7561768  37.5575797
  48.3514127  68.7590345  36.2982225  47.8294880  69.0215382  36.8207744
  65.4681160  61.6587803  41.1334189  65.8491672  60.9765974  41.5202063
  64.6644445  61.3697405  40.9509853  65.4057622  61.5154852  41.1638245
  62.7493737  72.1911779  31.8187012  63.5634376  72.4826672  31.7069783
  62.6852878  71.5371641  31.2445305  62.8596476  72.1376974  31.7175849
  58.6201645  75.6633296  36.9459324  59.2575592  75.4245044  37.4911117
  59.0456717  75.8670455  36.2112484  58.7777812  75.6584306  36.9176481
  53.3114288  77.9021633  40.8293627  53.3518433  78.1736484  40.0013407
  53.8708812  78.4263541  41.2451415  53.3997634  78.0197388  40.7685516
  59.2604460  70.8835586  31.2834213  59.6449613  70.6643293  32.0350758
  59.0116081  71.7098531  31.4135289  59.2806533  70.9733732  31.4135290
  59.4273001  64.1642001  50.9996797  59.1126442  64.9341564  50.7366360
  59.1062933  63.6012257  50.4149024  59.3331920  64.1952270  50.8738147
  61.0023117  76.1405719  38.6253110  61.0762126  75.9780891  39.4794960
  61.8192624  76.3295908  38.3813592  61.1339476  76.1442461  38.7151136
  54.7628874  76.4863582  35.6547553  53.9366992  76.7325319  35.5281832
  54.8240865  76.4075663  36.5209612  54.6503041  76.5108531  35.7636498
  56.9804898  62.5532523  36.6142994  56.1127323  62.6255122  36.6800603
  57.2680102  63.3554602  36.8030969  56.8944646  62.6826670  36.6517760
  66.1037787  62.7010382  44.9454315  66.8491379  62.5120192  44.5317741
  65.6875091  63.2268620  44.3868172  66.1522761  62.7512527  44.8018889
  59.5427703  79.1040462  33.3566583  59.8326001  78.7129443  32.6325810
  60.2731184  79.2857167  33.7971859  59.6934587  79.0734276  33.3149390
  73.4800057  70.0719611  39.8959820  74.0307979  69.4387680  40.1356912
  73.4644173  70.6035003  40.5875325  73.5585254  70.0568559  40.0338679
  60.1322448  73.9058208  44.4419714  59.6334142  74.6173976  44.5204602
  60.9422673  74.2258874  44.4037876  60.1778555  74.0585056  44.4476282
  57.4833619  81.0807844  36.4226733  57.2633914  80.7905199  37.2153400
  57.2628141  80.4222799  35.8944645  57.4181213  80.9407553  36.4615642
  56.3950566  73.1681161  38.6882435  56.1063814  72.5418632  39.2228162
  57.2633914  73.1101448  38.7547115  56.4810818  73.0668705  38.7773389
  67.1828464  68.3115944  39.0064417  66.8393230  67.5906279  39.3571666
  67.2821506  68.1029795  38.1642775  67.1470506  68.1740148  38.9336097
  56.5982839  74.8076412  34.6124800  57.3528807  75.1889451  34.8260262
  56.0053452  75.2587556  35.0671496  56.6219553  74.9305239  34.7107678
  59.0589506  66.7639252  49.7382012  58.2489282  67.0697032  49.6271854
  59.5364193  67.4844835  49.8534596  59.0092985  66.9153853  49.7389083
  57.9181066  75.9784973  39.9864915  57.3961819  76.1185265  40.6716780
  58.3055086  75.2195638  40.1767033  57.8984767  75.8870497  40.1165992
  54.9072250  66.0290782  34.0559870  54.6197046  65.6592052  33.3191817
  55.5942718  66.4985637  33.7943575  54.9661147  66.0437751  33.9074946
  59.3447391  73.0088992  35.3846406  59.1490174  73.6163727  34.7906709
  59.5681737  72.3156936  34.9038080  59.3482032  72.9966518  35.2262487
  57.7425921  69.8943730  35.5027275  58.4648573  70.0584888  35.0431081
  57.2633914  70.6153395  35.3966614  57.7789652  70.0241960  35.4192889
  65.7019429  66.2307529  40.8823960  64.8630530  66.2568808  40.6462223
  65.7723796  66.8778264  41.4629306  65.5887823  66.3303655  40.9333076
  55.3933538  72.3001803  44.6081414  55.9054635  72.5786056  43.9590174
  55.1069881  73.0391097  44.9744227  55.4268401  72.4504156  44.5671292
  64.1488707  63.1292906  35.6151575  64.8515060  62.9300654  35.1371534
  63.8832896  62.3568848  35.9220419  64.2135340  62.9855872  35.5897017
  69.5776953  71.4375516  38.1685201  69.4910927  71.5930942  39.0219980
  69.1227433  72.0813591  37.7944606  69.4980210  71.5551271  38.2392308
  52.4800444  66.8071994  34.9045151  52.5816581  67.6098156  35.2326126
  53.2756331  66.6059330  34.6068231  52.6128350  66.8957893  34.9080506
  58.9117264  64.3928191  44.6682456  58.7200461  64.4083326  45.5181880
  59.7615860  64.5891866  44.6449111  59.0092985  64.4242542  44.7905751
  53.2964177  66.9219173  42.6466272  53.1549668  66.0703113  42.7710780
  53.5804740  66.9647833  41.8228479  53.3172023  66.8018923  42.5433897
  63.4502769  68.7586263  36.7910761  63.2037483  68.6782014  37.6247550
  63.7787892  67.9739731  36.5973288  63.4624013  68.6312528  36.8858284
  65.6828903  71.7665998  46.8319924  65.6776941  70.8945814  46.8362350
  66.3889897  71.9654167  46.3589379  65.7873907  71.6669872  46.7626959
  59.4099796  71.4942981  46.2033744  59.5543172  72.0744190  45.5676854
  59.7575445  71.8719278  46.9083598  59.4827258  71.6363686  46.2132739
  61.5819714  70.6933150  43.9858875  60.8343028  70.8864164  43.5807154
  61.7361239  69.8678369  43.7482997  61.4942141  70.5998261  43.8904281
  58.4827551  79.6845753  43.0694771  58.6317115  79.1248669  42.4168175
  59.2627553  79.7637755  43.4527289  58.6201645  79.6131319  43.0291720
  61.8221491  64.5883701  44.8754279  62.2794105  65.3207675  45.0027071
  61.8977819  64.1650166  45.6341535  61.9012460  64.6340939  45.0055356
  54.0654482  64.8349520  45.9643723  53.5296671  64.2229878  46.2804490
  54.1272247  65.4097656  46.6177390  53.9950114  64.8296448  46.1079150
  66.2948817  57.7673576  38.7448122  66.4132385  58.2250039  38.0115425
  66.1210992  56.9618837  38.4584340  66.2867988  57.7167348  38.5949056
  61.6651099  78.3761395  35.1802867  62.4300990  78.1071039  34.8585532
  61.5629189  77.8911405  35.8972930  61.7632594  78.2650960  35.2382695
  59.7003869  66.5785805  41.7196103  58.9099943  66.3977265  42.0413439
  60.0964491  65.8012757  41.7026398  59.6420745  66.4373265  41.7648652
  64.1869759  75.4073579  27.1602817  64.9542744  75.4673704  26.7508669
  63.7401068  74.8354020  26.6759135  64.2343187  75.3310155  27.0280527
  65.0847555  74.2128235  39.4455549  64.4092557  73.9813467  39.9468936
  65.0939931  73.6049418  38.8197654  64.9866059  74.0887160  39.4271701
  62.2141699  69.0546064  46.2019602  62.1500840  69.9156020  46.0739739
  62.3538887  68.7378057  45.4015153  62.2257169  69.1346230  46.0647815
  60.8960793  71.7478203  40.3435805  60.4723042  71.9482702  39.6074823
  60.7205648  70.9007051  40.4560105  60.8071673  71.6526984  40.2509495
  56.1843238  72.2430254  35.7763778  56.3407857  72.1777057  36.6319770
  56.5243831  73.0178807  35.5642457  56.2576473  72.3479453  35.8718372
  62.7222382  71.6188138  34.6457141  63.2637928  71.1158519  35.1095761
  63.0368941  71.5653333  33.8346626  62.8486779  71.5367559  34.5940953
  60.8908832  77.0105490  31.9297169  60.9601652  76.1520028  32.0690169
  61.6697287  77.2277370  31.6016193  61.0161682  76.9158353  31.9014326
  63.8711652  66.5124442  44.6979441  64.0853621  65.8735357  44.1442795
  63.2545551  66.9570266  44.2687303  63.8116981  66.4834586  44.5529872
  52.7577499  69.4265205  36.0924545  53.1376464  69.8449750  35.4284812
  52.1832864  70.0078661  36.3993388  52.7288824  69.5743064  36.0401286
  66.0350740  68.1213508  45.6362748  65.2227421  67.8139398  45.7175921
  66.4940674  67.6412508  46.2005461  65.9831124  68.0050000  45.7317342
  65.4455994  75.9993180  36.0839693  65.0870649  76.1707823  36.8603725
  64.9594705  76.4606385  35.5267691  65.3214691  76.0932151  36.1164962
  60.2344360  71.6792345  28.6239927  60.5236885  72.4557228  28.8983501
  60.3216159  71.1681077  29.3254426  60.2898616  71.7184263  28.7682425
  63.1304247  69.5273579  50.4191451  63.6003878  70.1515696  50.8059325
  63.1766127  68.8590555  50.9784665  63.2072123  69.5208259  50.5591522
  60.2875521  61.6330607  41.1440254  59.7714009  60.9410798  41.2691833
  59.7269450  62.3001384  41.0902853  60.1282034  61.6293864  41.1546320
  62.3567754  62.1723567  42.9733107  61.9699507  62.1972598  43.7546637
  61.8700692  61.6065245  42.5207624  62.2280263  62.0919317  43.0221011
  68.3317734  68.7386222  41.5972809  67.9045342  68.6512570  40.8420909
  67.6943787  68.8463997  42.1827653  68.1747341  68.7418881  41.5718251
  62.0224896  59.0590552  45.2643367  62.6518014  59.5950852  44.9864437
  62.1910759  58.9667911  46.1156933  62.1402691  59.1251914  45.3491895
  61.8238811  63.8461747  47.5369778  62.6512240  63.5746896  47.5928393
  61.8446657  64.6422589  47.8933597  61.9491661  63.9241501  47.5984961
  56.4008301  70.9925610  40.7240039  55.5596307  70.8929484  40.9318933
  56.6098309  71.7621090  41.0754360  56.3072993  71.0917653  40.8067354
  53.8783868  68.6145147  38.5524790  53.4840565  68.6888158  37.7774899
  53.3223985  69.0003093  39.1033152  53.7386680  68.6826921  38.5192450
  65.5148814  61.5926441  38.2328669  65.7198408  61.5248748  39.0785666
  65.1875238  62.3985262  38.1649846  65.4964062  61.7012381  38.3488324
  60.2124966  68.9207009  39.9737637  59.9088103  68.3662997  40.5748044
  59.5104386  69.0999219  39.4865671  60.0641175  68.8651791  39.9907342
  59.2691063  66.2307529  34.5382339  59.5450797  65.5126441  34.1259906
  59.8689732  66.8292449  34.3303445  59.3984327  66.2127899  34.4463100
  58.2743317  76.1356730  44.6809734  58.1663671  76.1458792  45.5471792
  58.4839098  76.9611510  44.4914688  58.2893428  76.2597804  44.7813826
  68.7682502  62.1458205  37.7131434  68.1556816  62.6328607  38.0985166
  68.8646677  61.4701696  38.2569085  68.6920400  62.1176514  37.8510292
  62.7701583  63.9021046  32.8128934  63.2245330  64.0731606  33.5376778
  63.2441629  63.2889157  32.4126709  62.9069903  63.8371931  32.8602695
  56.2917109  73.3869372  42.1431672  55.7005042  74.0278870  42.1134687
  57.0538132  73.8106989  42.1162972  56.3165369  73.5445210  42.1346819
  56.6877731  64.5471370  42.8099690  57.1479213  64.6210299  43.5474813
  56.7333838  65.3452624  42.4599511  56.7628287  64.6765517  42.8672446
  58.3361081  65.2138065  47.3771717  57.9446646  64.5671412  47.8127495
  58.5046944  65.8049500  47.9965972  58.3031991  65.2052332  47.5334423
  60.1114603  70.6063580  33.9173941  60.8556648  70.9937857  34.1556891
  60.2575299  69.7621006  34.0814429  60.2425188  70.5394053  33.9767910
  62.0294179  62.4013839  38.9505802  61.1830224  62.5736647  38.8247152
  62.0265311  61.5963183  39.2871630  61.9041329  62.3074868  38.9816929
  63.0992479  66.1789054  39.8167860  62.6252433  65.6530816  40.3273171
  63.4710615  65.6318526  39.2482722  63.0842368  66.0205050  39.8083007
  53.4765509  68.1760560  45.1851406  54.3391122  68.0756270  45.0988736
  53.1457292  67.5955270  44.6236978  53.5550706  68.0752187  45.0896812
  69.3629210  71.2391429  41.2274641  69.1227432  70.3997844  41.2317067
  69.8421217  71.3191596  41.9515414  69.3981393  71.1272829  41.3349443
  65.0275979  67.0725608  32.8793614  64.4998997  67.1554352  32.1899323
  65.4871687  67.8143480  32.8758259  65.0177829  67.1946271  32.7768309
  71.3634397  68.0192887  39.1803900  71.1244167  67.9788721  38.3424684
  71.5268298  68.8664039  39.3069621  71.3524700  68.1384972  39.0757382
  67.9680427  72.4042836  45.1108945  68.6914626  71.9515362  44.9319965
  67.7030389  72.6847502  44.3281273  68.0361700  72.3793804  44.9687660
  56.8367295  67.0003009  41.8461824  56.2120365  67.0121401  41.2387777
  56.5012890  67.4763184  42.4953064  56.6952787  67.0721526  41.8518393
  57.0209044  65.3428128  27.9034509  56.6721848  65.9947853  28.3666058
  56.5405490  65.3285241  27.1758380  56.8979288  65.4371181  27.8645600
  53.5492971  75.0603469  43.2865588  53.0192895  74.3695908  43.3360563
  53.8218064  75.0513655  42.4578297  53.5117693  74.9570601  43.1713004
  64.5813061  75.6429172  32.0103271  65.3047260  76.1087285  31.8667844
  64.1413652  75.7102781  31.2600868  64.6228753  75.7213009  31.8788052
  63.7499216  72.5026714  43.2603960  63.1356209  71.9584764  43.5552595
  64.2666501  71.9890951  42.7809776  63.7354879  72.3463123  43.2328188
  62.9895513  73.5730984  40.9948259  62.5623121  72.9480703  40.5613694
  62.9820458  73.2905906  41.8207266  62.9254655  73.4383765  41.0528086
  56.1058041  68.6096157  44.0636693  56.2651527  67.8539481  44.4688414
  55.9250934  69.1587097  44.7177430  56.1023399  68.5789971  44.2199399
  64.0478344  60.7757393  44.6187482  63.5518905  60.9721067  43.9279049
  64.8047406  61.1750061  44.4476284  64.0865168  60.8635127  44.4907619
  61.3181223  64.4499739  41.2090793  61.3423710  63.9159851  40.5203573
  61.5692697  63.9417047  41.8716383  61.3591142  64.2960643  41.2055437
  48.8288813  71.7331234  40.6433937  48.7232262  71.6878078  39.7786021
  48.0789033  72.0785014  40.9248222  48.7024416  71.7772142  40.5571266
  57.5982545  63.1770557  40.5896537  57.6380917  63.6779763  41.3031244
  56.7732210  63.2680951  40.3202460  57.4822071  63.2652373  40.6547075
  59.7812158  72.7431297  48.6916831  58.9307789  72.8803011  48.8274476
  59.9440286  72.0095075  49.1364533  59.6796022  72.6545398  48.7772431
  59.0196909  69.6931067  42.8870436  58.1888838  69.8604885  42.6805684
  58.9648426  69.3167017  43.6719321  58.8886324  69.6620798  42.9718964
  56.8280692  63.1839960  48.5226847  57.4533395  62.6402092  48.7956279
  56.3731172  62.7034877  47.9534637  56.8528953  63.0329441  48.4788440
  57.3932953  67.9686658  33.4160554  57.5335914  68.4659122  34.1189195
  57.8915485  67.2672953  33.5574767  57.4874033  67.9388637  33.5412133
  57.4233175  68.8353769  30.7453130  58.0578254  69.4314194  30.6802592
  57.5058786  68.5357227  31.5599001  57.5289726  68.8794677  30.8556217
  70.4015741  71.3669247  43.6139495  70.9933581  72.0066497  43.6457693
  70.8374735  70.6692283  43.9031561  70.5534172  71.3587597  43.6620327
  59.0012158  64.7667745  30.7198572  59.3227999  64.2870827  30.0657835
  59.2639102  65.5767391  30.5289384  59.0878183  64.8157643  30.5954064
  62.2309131  75.7886619  44.2397389  61.7234222  76.3422466  44.6838019
  61.9335777  75.8494909  43.4216163  62.1114016  75.8792930  44.1845845
  64.3971313  64.1539939  43.0822051  64.8226384  63.7012465  42.4705578
  63.7828306  63.6000009  43.3586839  64.3699958  64.0053915  43.0327077
  53.9286163  71.0321610  34.0142676  54.4378392  71.6286118  34.3953982
  54.4020435  70.7647584  33.3319096  54.0729539  71.0807425  33.9697199
  62.8365536  60.6255038  36.4912629  62.1933854  60.4752685  37.0597767
  62.4964943  60.3797384  35.7261733  62.6910613  60.5667161  36.4615644
  67.4264882  68.5814465  35.9142637  66.7556072  69.1244168  35.7855703
  68.1204632  69.0509321  35.6724332  67.4293750  68.7312736  35.8598165
  67.5893010  65.0370349  38.8233010  67.9420620  64.6100072  39.4978809
  66.7307811  64.9521192  38.9534087  67.5142454  64.9615090  38.9428021
  56.2876695  67.6677869  36.8815857  55.5688684  68.0842001  37.1488720
  56.6589057  68.2332107  36.3307495  56.2368626  67.8127150  36.8398664
  65.5876275  68.3005717  42.7717853  65.5674203  68.1189013  43.6252631
  65.6355476  69.1717736  42.7477436  65.5910916  68.4022256  42.8941147
  63.5322605  74.8892909  48.6966329  63.4918460  74.2442586  48.1111485
  64.3445923  74.8329527  49.0091741  63.6465759  74.7851876  48.6563278
  62.0623269  66.7075868  32.2189236  61.4688108  67.0292865  31.6673803
  62.0998547  65.8616964  32.0110342  61.9797658  66.6300197  32.1072008
  69.0217070  60.1588761  39.7517323  68.5147934  59.4517900  39.6838500
  69.8184503  59.8281950  39.8818399  69.0644309  60.0061912  39.7616318
  64.9381086  66.6655373  35.6490987  64.7094779  66.6888074  34.8069345
  65.1979162  65.8412840  35.7685997  64.9427274  66.5471453  35.5416184
  59.2200314  68.5189846  45.2516087  58.7079217  67.9111029  45.6101118
  59.0479810  69.2346439  45.7190063  59.1189951  68.5353145  45.3732310
  54.0666029  66.9627421  47.9018449  53.8968619  67.6228796  47.3566655
  53.6231979  67.1733983  48.6230938  53.9765362  67.0913403  47.9280078
  57.9925848  65.2031919  36.9445182  58.4683214  65.5648999  36.3095363
  57.4914448  65.8588387  37.2245325  57.9891207  65.3526108  36.8921923
  63.0969384  66.4414091  47.6918342  63.6540814  66.2127900  47.0596808
  62.7730449  67.2019756  47.4153555  63.1315794  66.5197927  47.5574839
  50.9668093  69.8674287  43.1606938  50.4194813  69.1974932  43.2787807
  51.7560471  69.5004135  43.2250406  51.0020277  69.7139273  43.1875639
  60.8152502  69.5281744  48.6570349  61.5663829  69.8433421  48.9709904
  61.0075078  69.3260915  47.8304271  60.9543916  69.5449126  48.5813745
  60.0352501  67.3473119  30.3118566  60.4151466  67.3652748  29.5269681
  59.2945097  67.7927108  30.1909413  59.9821339  67.4154894  30.1782134
  67.6637792  65.6555310  35.8994145  67.6632018  65.5003967  36.7578421
  67.4593972  66.5018297  35.8435530  67.6337570  65.7575931  36.0182084
  49.7255063  69.0795095  40.3152961  49.5476824  68.6271704  41.0407877
  49.4374085  69.8821256  40.4991439  49.6568016  69.1317653  40.4496464
  65.3878644  70.3352812  39.5530352  65.8832309  69.6175807  39.5134372
  64.5778419  70.0323610  39.4384839  65.3422537  70.1850458  39.5304078
  60.8337255  74.1850625  31.7027356  60.0248578  73.8617299  31.6560666
  61.3412164  73.4783847  31.6355605  60.7886922  74.0331942  31.6857651
  67.4530463  73.0856500  42.2407480  67.8785534  72.5630921  41.6877906
  67.0887382  73.6837337  41.7196103  67.4617065  73.0966727  42.0816490
  57.0884542  81.3820717  41.0004826  57.4031101  82.1957106  41.0082608
  57.4977956  80.9970936  41.6686985  57.1952640  81.4449419  41.1008918
  64.0409062  76.7990764  38.5708638  64.5120240  77.5131026  38.7398623
  64.3769241  76.1989514  39.1068507  64.1604177  76.8162228  38.6741014
  60.9578557  61.5718234  45.5266733  61.0906463  60.7749228  45.8547708
  61.3423710  62.0984637  46.1065008  61.0334886  61.5318151  45.6610236
  64.6783008  76.5908698  45.3336331  64.1303954  75.9666582  45.0656396
  65.1396037  76.7802970  44.6180410  64.6650218  76.5267748  45.1886762
  64.0310912  58.4948561  42.1247826  63.2256876  58.3846290  42.4415664
  63.9017648  58.5961016  41.2677692  63.8931045  58.4932231  42.0455866
  67.4876873  64.6594052  42.7187523  66.9039862  65.1603259  42.3065090
  67.8081167  64.1523609  42.0851846  67.4490048  64.6585887  42.5646030
  60.0271672  63.5734647  32.9946198  60.8487366  63.7432960  32.7527893
  59.5641323  63.7281908  32.2712495  60.0802834  63.6216380  32.8517842
  58.6167004  61.5677409  43.7744627  59.1611417  61.2268536  44.3648968
  58.6703939  62.4262871  43.9165911  58.7056123  61.6432669  43.8826500
  54.4297563  75.3293826  40.6483434  55.0342420  75.2889660  40.0197255
  54.2224875  76.1764978  40.6787490  54.4886460  75.4481828  40.5599551
  49.6648845  74.3128443  40.5182358  49.5673123  73.5024715  40.8272414
  50.4477715  74.2920236  40.1328626  49.7664981  74.1895533  40.5069220
  36.5175475   0.1161522  21.7628595  36.4869479   0.9706159  21.9346864
  37.1156823  -0.1843186  22.3214739  36.6012633   0.1978018  21.8703397
  29.7175160  -0.7962827  26.5181525  28.8613055  -0.6354329  26.5690642
  29.7642813  -1.6670763  26.5386586  29.5974271  -0.9012025  26.5287591
  24.1016299   8.7399891  22.2818757  23.3499199   8.3615429  22.0534802
  24.5502311   8.7718324  21.5337567  24.0565966   8.6885498  22.1376259
  33.0268876   5.4723698  36.1241982  33.7335643   4.9775729  36.2528916
  33.2156812   5.9132780  35.3944640  33.1596782   5.4642049  36.0351027
  29.5541259   9.1625260  17.7104304  29.2192628   9.8402182  17.2748526
  30.0668130   8.7730572  17.1221176  29.5806840   9.2049838  17.5591096
  29.0945550  11.1139529  23.6515416  29.4784930  11.6826428  23.1120191
  29.0304692  10.3889039  23.1721232  29.1418978  11.0914992  23.5009278
  32.5626981   1.2629217  29.1613177  33.1082941   1.9414303  29.2207147
  32.5043857   1.1216678  28.3014759  32.6342895   1.3421218  29.0425238
  25.6801055   8.7518283  24.5481529  25.7811418   7.9418637  24.8578657
  25.0842801   8.6575229  23.9181208  25.6073594   8.6183311  24.5007768
  34.3392049   2.6913824  20.0346905  34.2231575   3.4421510  20.4639043
  35.1347936   2.4337777  20.2842992  34.4396639   2.7648671  20.1350996
  25.5201795  13.6695872  25.9496386  26.1639250  14.1109036  26.3392544
  25.8458051  12.8649298  25.8626644  25.6633624  13.6161067  25.9941863
  18.8766100   4.7738569  24.1733863  18.6416284   3.9406222  24.0666132
  19.0151740   5.0543235  23.3595064  18.8621762   4.6922073  24.0376218
  26.2222375   6.6807847  21.3216247  26.5438216   7.2213054  20.7177555
  26.8694471   6.1104618  21.4538537  26.3648430   6.6767022  21.2523283
  28.2724083  -1.3176158  21.4050634  28.9704247  -1.1388031  21.8972097
  28.5876415  -1.8405819  20.7821023  28.4219420  -1.3682386  21.3852644
  20.9025320   0.4876582  29.3161740  20.7784017   1.0739027  29.9511559
  21.5543605  -0.0063223  29.6174015  20.9798970   0.5015386  29.4547669
  28.4612018   5.0694287  21.3930425  28.9005654   4.4611387  21.8385198
  28.3116681   4.6901660  20.6215890  28.5033484   4.9232758  21.3449593
  25.9283661   3.6638299  28.5949251  26.5732664   3.1710742  28.2760199
  26.1685438   3.8063085  29.4215329  26.0594246   3.6115741  28.6698784
  28.4669753   6.5093205  28.2456143  28.7492995   5.7144610  28.0242899
  29.1955913   6.9873792  28.2661204  28.6159316   6.4627801  28.2159159
  32.0621355   3.4221468  18.3461195  31.9772650   4.2782435  18.4910763
  32.5505738   3.1465792  19.0143354  32.1210252   3.5078790  18.4663276
  32.9939788   0.0406262  19.8458930  32.4651259   0.2565896  20.5056236
  33.5164808   0.7342401  19.7659899  32.9928241   0.1749399  19.9314529
  38.4487841   5.6152567  25.2191974  37.6185544   5.8263210  25.3825391
  38.3997093   4.7889621  24.9434258  38.3194576   5.5242173  25.2029340
  20.4383424   9.6524240  25.4490069  19.9551003  10.3774730  25.4249653
  21.2506743   9.9500370  25.5600227  20.4874172   9.8026594  25.4617349
  26.5097578   8.4456421  28.0539884  25.9924520   8.0863836  27.4501192
  27.2071970   7.9218595  28.0645950  26.5363160   8.3154109  27.9670142
  30.1661170   8.8951235  34.0156057  30.2544516   8.7077375  34.8634267
  30.5950883   8.2488665  33.6160904  30.2423273   8.7714243  34.0827808
  27.7331630   8.1782395  32.9973719  27.1702465   7.7655005  33.5213380
  28.4952654   8.1035301  33.4166862  27.7626079   8.1059796  33.1366719
  23.2927622  10.1680416  25.6010349  23.9948201   9.6532405  25.6583106
  23.2125105  10.4954568  26.4057224  23.3851382  10.1394642  25.7283141
  37.9441799  -1.7377033  29.0142396  37.1070220  -1.6674845  29.2489990
  37.9130030  -1.7352538  28.1416698  37.8160082  -1.7266806  28.9201944
  24.3406528   0.4056003  34.7290764  24.5127032   0.2961898  35.5776046
  24.8775886   1.0510409  34.4921957  24.4451532   0.4848005  34.8195861
  22.6178397   6.3586768  25.1095957  23.4567296   6.5909701  25.1569719
  22.6490166   5.4891080  25.0402993  22.7460115   6.2643715  25.1060602
  23.2431100   6.7787643  29.4109263  23.7829325   6.6358774  30.0812635
  22.5601046   7.1784394  29.7793289  23.2223254   6.8167314  29.5643684
  32.6671985   2.4578644  24.6054287  33.4229500   2.8910158  24.6443196
  32.7734309   1.8083414  25.1788923  32.7942156   2.4256128  24.6952313
  35.7052156   6.2851921  25.3556690  35.2687388   6.2888664  26.1115661
  35.3715072   6.9657420  24.9236267  35.5914776   6.3864377  25.4037523
  30.2781230   8.3260254  36.6799840  31.0621646   8.4391102  37.0455582
  30.0777824   7.5001391  36.8758526  30.3647255   8.2206973  36.7634226
  18.6468245   2.9987934  29.5643684  18.3806660   2.1827051  29.7234675
  18.6606809   3.0441090  28.6939200  18.6092967   2.8844839  29.4597166
  30.4351623  10.2370356  30.3266296  29.6366869   9.9969856  30.5840165
  30.8837635  10.2884749  31.0733344  30.3826234  10.2092747  30.4751220
  38.8396502   3.0032841  24.2476327  39.5012936   2.4423510  24.1472236
  38.1987914   2.5084872  24.5729018  38.8425370   2.8469250  24.2808667
  29.7273310   6.3002973  16.5557251  30.1424459   5.9687996  15.8641746
  28.8965240   6.0671875  16.4277387  29.6661319   6.2174228  16.4348098
  19.0561659   3.7846714  26.8455428  18.8737232   3.7593600  25.9927721
  19.7911328   4.2545651  26.8844337  19.1375723   3.8508076  26.7253347
  35.1261333   4.0198224  23.9888316  35.3616922   4.1643422  23.1615167
  35.2750897   4.7840632  24.3819830  35.1827136   4.1537278  23.9251920
  22.1207410   0.5031716  33.3537537  22.8447383   0.4884747  33.8402432
  22.2223547   1.2127072  32.8559505  22.2425620   0.6056420  33.3516324
  36.9551790   2.8599889  21.8257920  37.2860007   3.3927530  21.2198015
  37.5284878   2.9138777  22.4819871  37.0885469   2.9469458  21.8335702
  29.4952360   3.9830801  38.2186484  28.7025341   4.2974313  38.4039104
  29.6101287   4.1982269  37.3807269  29.3947770   4.0614638  38.1224819
  32.1683679   0.7064792  22.5081500  32.2630533   1.4454086  22.9621125
  31.5442522   0.2782268  22.9416065  32.0892709   0.7526113  22.6389648
  30.4236153   3.8851005  33.1571781  30.9975014   3.2478249  33.3120345
  30.3450956   3.8855087  32.2881438  30.4969388   3.7916116  33.0518192
  19.0232569   0.6640214  26.9954495  19.6006072   0.5276665  27.6346740
  18.3246631   0.2075998  27.2500079  19.0053591   0.5762480  27.1276785
  25.7799871   2.3174270  25.2092978  25.5219116   1.4846005  25.1824278
  25.8348354   2.5431883  24.3685479  25.7499649   2.2272041  25.0813115
  24.7534583  -0.1287968  25.6957873  24.1784175   0.0304201  26.3321834
  24.3770260  -0.7652559  25.2326324  24.6137396  -0.1990155  25.7212431
  28.4207872  -1.6564618  30.5550251  28.0322305  -2.0810401  29.9002443
  27.7562570  -1.4082469  31.0627278  28.2654800  -1.6825897  30.5338119
  29.5246810   2.5733986  18.7527058  30.3387449   2.8648879  18.6409830
  29.4605952   1.9193849  18.1785351  29.6349549   2.5199181  18.6515896
  35.7456301   5.2559982  33.1656634  35.5094938   4.4248047  33.0468695
  36.3899529   5.2045590  33.7511478  35.8050971   5.1257670  33.2342528
  25.3954719   6.0455504  23.8799371  26.0328666   5.8067251  24.4251164
  25.8209790   6.2492663  23.1452531  25.5530885   6.0406514  23.8516528
  20.0867361   8.2843840  27.7633674  20.1271506   8.5558691  26.9353454
  20.6461885   8.8085748  28.1791462  20.1750707   8.4019595  27.7025562
  36.7692721   5.0404431  29.2284929  36.4638538   5.7732488  29.5898244
  36.0498937   4.6342361  28.9477715  36.6180063   5.0886164  29.2398066
  27.7776191   6.5227926  25.5593157  27.8515199   6.3603098  26.4135007
  28.5945697   6.7118116  25.3153638  27.9092549   6.5264669  25.6491182
  42.4694513   1.6797432  28.5553273  42.4019014   1.6993391  27.6855859
  42.4550176   2.5227759  28.7808943  42.4573270   1.8071166  28.4605750
  21.5381947   6.8685789  22.5887600  20.7120065   7.1147526  22.4621879
  21.5993938   6.7897870  23.4549658  21.4256114   6.8930738  22.6976545
  26.3180776   9.4862669  20.2906630  26.6079075   9.0951651  19.5665857
  27.0484257   9.6679374  20.7311905  26.4687660   9.4556483  20.2489437
  40.2553131   0.4541818  26.8299867  40.8061052  -0.1790113  27.0696959
  40.2397246   0.9857211  27.5215371  40.3338327   0.4390766  26.9678725
  26.9075521   4.2880415  31.3759761  26.4087215   4.9996183  31.4544649
  27.7175746   4.6081082  31.3377923  26.9531628   4.4407264  31.3816329
  24.2586692  11.4630052  23.3566780  24.0386987  11.1727406  24.1493447
  24.0381214  10.8045007  22.8284692  24.1934286  11.3229760  23.3955689
  23.1703639   3.5503368  25.6222482  22.8816888   2.9240840  26.1568209
  24.0386987   3.4923656  25.6887162  23.2563891   3.4490913  25.7113436
  33.9581537  -1.3061848  25.9404463  33.6146303  -2.0271513  26.2911713
  34.0574579  -1.5147997  25.0982822  33.9223580  -1.4437645  25.8676143
  26.4254648  12.8359442  22.1397472  27.0778706  12.3035884  22.3688498
  25.7280256  12.4828094  22.5265346  26.4185366  12.7048965  22.2309640
  23.3735912   5.1898619  21.5464847  24.1281880   5.5711658  21.7600309
  22.7806525   5.6409763  22.0011543  23.3972626   5.3127447  21.6447725
  34.4194566   5.1563856  21.4828452  34.9852599   5.8157066  21.3986994
  33.7722469   5.5013554  21.9544854  34.4073322   5.3045797  21.5401208
  25.8342579  -2.8538540  36.6722059  25.0242355  -2.5480761  36.5611901
  26.3117266  -2.1332958  36.7874643  25.7846058  -2.7023939  36.6729130
  24.6934139   6.3607181  26.9204962  24.1714893   6.5007472  27.6056827
  25.0808159   5.6017845  27.1107079  24.6737840   6.2692705  27.0506039
  30.8901144   8.1002640  20.9065531  30.6487820   7.3670501  20.4992596
  31.0702477   8.6489497  20.2531864  30.8808768   8.0725031  20.7495754
  26.1200465   3.3911200  22.3186453  25.9243247   3.9985934  21.7246756
  26.3434810   2.6979144  21.8378127  26.1235106   3.3788725  22.1602534
  24.5178995   0.2765938  22.4367321  25.2401647   0.4407096  21.9771127
  24.0386987   0.9975602  22.3306661  24.5542725   0.4064167  22.3532935
  32.4772502  -3.3870264  27.8164006  31.6383603  -3.3608985  27.5802270
  32.5476870  -2.7399528  28.3969353  32.3640896  -3.2874138  27.8673123
  22.1686611   2.6824010  31.5421461  22.6807708   2.9608263  30.8930221
  21.8822954   3.4213304  31.9084274  22.2021475   2.8326364  31.5011339
  36.3530026   1.8197723  25.1025248  36.2664001   1.9753149  25.9560027
  35.8980506   2.4635799  24.7284653  36.2733283   1.9373478  25.1732355
  25.6870337  -5.2249601  31.6022503  25.4953534  -5.2094467  32.4521926
  26.5368933  -5.0285927  31.5789158  25.7846059  -5.1935250  31.7245798
  30.2255842  -0.8591530  23.7250808  29.9790556  -0.9395779  24.5587597
  30.5540965  -1.6438062  23.5313335  30.2377086  -0.9865264  23.8198331
  34.1203891   5.8491830  27.5137589  33.9818250   6.5472875  28.0186331
  33.3403889   5.6940486  27.1573771  33.9847118   5.9291996  27.5363863
  32.4581976   2.1488205  33.7659971  32.4530015   1.2768022  33.7702397
  33.1642970   2.3476374  33.2929426  32.5626980   2.0492079  33.6967006
  26.1852869   1.8765189  33.1373791  26.3296245   2.4566397  32.5016901
  26.5328518   2.2541486  33.8423645  26.2580331   2.0185893  33.1472786
  28.3572787   1.0755357  30.9198922  27.6096101   1.2686372  30.5147200
  28.5114312   0.2500577  30.6823044  28.2695214   0.9820469  30.8244328
  25.2580624  10.0667961  30.0034817  25.4070188   9.5070877  29.3508222
  26.0380627  10.1459962  30.3867336  25.3954718   9.9953526  29.9631767
  35.6157264   5.2070083  18.2754088  35.2364073   4.4207221  18.2683377
  34.9523509   5.7556940  18.1325732  35.4615739   5.1714907  18.2534885
  27.7833925  10.2382604  31.2819308  27.7077596   9.5691414  31.8370097
  27.7123784  10.9400392  31.7959975  27.7614532  10.2427511  31.4396156
  28.5974564  -5.0294092  31.8094326  29.0547178  -4.2970118  31.9367118
  28.6730893  -5.4527627  32.5681582  28.6765534  -4.9836854  31.9395402
  28.4404172   8.7583602  22.1142914  29.2054063   8.4893246  21.7925579
  28.3382262   8.2733613  22.8312977  28.5385667   8.6473167  22.1722742
  26.4756942  -3.0391988  28.6536150  25.6853017  -3.2200528  28.9753486
  26.8717565  -3.8165036  28.6366444  26.4173818  -3.1804527  28.6988698
  31.8600628   4.5950442  26.3795596  31.1845630   4.3635674  26.8808983
  31.8693004   3.9871625  25.7537701  31.7619133   4.4709367  26.3611748
  28.9894772  -0.5631729  33.1359649  28.9253913   0.2978227  33.0079786
  29.1291960  -0.8799736  32.3355200  29.0010242  -0.4831562  32.9987862
  33.8617363   7.4515574  18.6105774  33.9437200   8.2582561  18.2867225
  34.3467105   7.4711534  19.3346547  33.9454520   7.5736237  18.6692673
  27.6713866   2.1300410  27.2775852  27.2476115   2.3304909  26.5414870
  27.4958721   1.2829258  27.3900152  27.5824747   2.0349192  27.1849542
  22.9596311   2.6252462  22.7103824  23.1160930   2.5599265  23.5659816
  23.2996904   3.4001014  22.4982504  23.0329546   2.7301660  22.8058419
  29.4975455   2.0010345  21.5797188  30.0391001   1.4980726  22.0435808
  29.8122015   1.9475540  20.7686673  29.6239853   1.9189766  21.5281000
  33.3692563   6.2112993  38.6924100  34.1827428   5.9398142  38.8529232
  33.2087529   5.9120533  37.8884296  33.4662511   6.1267919  38.5969506
  27.6661905   7.3927697  18.8637216  27.7354726   6.5342235  19.0030216
  28.4450360   7.6099578  18.5356240  27.7914755   7.2980561  18.8354373
  30.6464725  -3.1053350  31.6319488  30.8606694  -3.7442436  31.0782842
  30.0298624  -2.6607526  31.2027350  30.5870054  -3.1343206  31.4869919
  32.8103813  -1.4964285  32.5702795  31.9980495  -1.8038395  32.6515968
  33.2693747  -1.9765285  33.1345507  32.7584198  -1.6127793  32.6657389
  32.2209068   6.3815387  23.0179739  31.8623722   6.5530030  23.7943772
  31.7347778   6.8428593  22.4607738  32.0967764   6.4754358  23.0505009
  29.9057320  -0.0904213  37.3531497  30.3756952   0.5337903  37.7399372
  29.9519201  -0.7587238  37.9124712  29.9825196  -0.0969533  37.4931569
  33.3813807   7.2719283  33.9646940  34.0193527   6.7779479  33.6309396
  32.7387898   7.1996683  33.3799167  33.3808033   7.1878292  33.8289295
  35.1070807  -0.8791571  28.5312856  34.6798415  -0.9665222  27.7760956
  34.4696860  -0.7713796  29.1167700  34.9500414  -0.8758911  28.5058298
  33.4368063   7.9639091  30.6052297  34.2260442   7.6128156  30.7254379
  33.6111661   8.7775480  30.3428931  33.5788345   8.0324948  30.5840165
  23.1761374   1.3747817  27.6580086  22.3349380   1.2751691  27.8658980
  23.3851382   2.1443297  28.0094407  23.0826066   1.4739860  27.7407401
  20.6536941  -1.0032646  25.4864837  20.2593639  -0.9289634  24.7114946
  20.0977058  -0.6174700  26.0373198  20.5139753  -0.9350871  25.4532496
  26.9878039  -0.6970784  26.9077683  26.6841176  -1.2514796  27.5088091
  26.2857460  -0.5178574  26.4205718  26.8394249  -0.7526001  26.9247389
  25.0496390   6.5178937  31.6149781  24.9416745   6.5280999  32.4811839
  25.2592171   7.3433717  31.4254735  25.0646501   6.6420012  31.7153873
  23.0670182   3.7691579  29.0771719  22.4758115   4.4101078  29.0474734
  23.8291205   4.1929197  29.0503018  23.0918442   3.9267418  29.0686866
  25.1114154  -4.4039728  34.3111764  24.7199719  -5.0506381  34.7467541
  25.2800017  -3.8128293  34.9306019  25.0785065  -4.4125460  34.4674470
  39.1860603   3.5997349  30.0748997  39.2443727   4.0483998  30.8208974
  38.5527071   4.0096162  29.6379077  39.1011898   3.7271084  30.1201545
  32.8259698   9.2200891  26.5103743  32.6279387   9.7091705  25.8159955
  32.2047409   9.4242132  27.0887877  32.7047262   9.3217429  26.4926967
  26.8867676   0.9885788  20.8513988  27.6309721   1.3760064  21.0896937
  27.0328373   0.1443213  21.0154475  27.0178261   0.9216261  20.9107957
  29.8745552  -3.4388739  26.7507907  29.4005506  -3.9646977  27.2613218
  30.2463688  -3.9859266  26.1822768  29.8595441  -3.5972742  26.7423054
  36.1382283   1.6213637  28.1614687  35.8980506   0.7820052  28.1657114
  36.6174290   1.7013803  28.8855461  36.1734466   1.5095036  28.2689490
  38.1387470  -1.5984906  26.1143947  37.8997240  -1.6389072  25.2764731
  38.3021371  -0.7513754  26.2409668  38.1277773  -1.4792821  26.0097428
  34.7433500   2.7865043  32.0448992  35.4667699   2.3337570  31.8660012
  34.4783462   3.0669709  31.2621320  34.8114773   2.7616012  31.9027707
  23.6120368  -2.6174783  28.7801871  22.9873438  -2.6056391  28.1727824
  23.2765963  -2.1414608  29.4293111  23.4705860  -2.5456266  28.7858439
  20.3246044   5.4425677  30.2205635  19.7945968   4.7518116  30.2700610
  20.5971137   5.4335862  29.3918344  20.2870766   5.3392809  30.1053051
  31.3566134   6.0251379  18.9443318  32.0800333   6.4909492  18.8007891
  30.9166725   6.0924989  18.1940915  31.3981827   6.1035216  18.8128099
  30.5252289   2.8848921  30.1944007  29.9109283   2.3406972  30.4892642
  31.0419574   2.3713158  29.7149823  30.5107952   2.7285330  30.1668235
  29.7648587   3.9553191  27.9288305  29.3376195   3.3302910  27.4953741
  29.7573531   3.6728113  28.7547313  29.7007728   3.8205972  27.9868133
  22.8811114  -1.0081635  30.9976739  23.0404600  -1.7638311  31.4028461
  22.7004007  -0.4590696  31.6517477  22.8776473  -1.0387822  31.1539445
  28.0934296  -5.1678054  28.1430839  28.1176783  -5.7017942  27.4543619
  28.3445770  -5.6760745  28.8056430  28.1344215  -5.3217150  28.1395484
  15.6041886   2.1153441  27.5773983  15.4985335   2.0700285  26.7126068
  14.8542106   2.4607222  27.8588268  15.4777489   2.1594349  27.4911313
  26.5565231   3.1253504  35.6256878  25.7060862   3.2625219  35.7614523
  26.7193359   2.3917282  36.0704580  26.4549095   3.0367605  35.7112477
  25.7949982   0.0753274  29.8210483  24.9641912   0.2427092  29.6145731
  25.7401499  -0.3010775  30.6059368  25.6639397   0.0443005  29.9059011
  37.1768814   1.7491454  30.5479541  37.7686654   2.3888705  30.5797739
  37.6127808   1.0514491  30.8371608  37.3287245   1.7409804  30.5960374
  29.0062204   6.1708826  31.1737435  28.4987295   6.7244673  31.6178066
  28.7088850   6.2317116  30.3556210  28.8867089   6.2615138  31.1185892
  31.6169984  10.0872084  19.1041379  30.8999294   9.9132946  18.6388616
  32.2676722   9.8524656  18.5716865  31.6071835  10.0267877  18.9570597
  34.2017955  -1.0363327  22.8482684  33.5309145  -0.4933625  22.7195749
  34.8957706  -0.5668472  22.6064379  34.2046823  -0.8865056  22.7938212
  28.2504689  11.1033385  28.0794442  28.0270343  10.3452214  28.4478469
  27.7614532  11.1331406  27.3574882  28.1448138  10.9955609  28.0271183
  23.0629768  -1.9499924  23.8155904  22.3441757  -1.5335791  24.0828767
  23.4342130  -1.3845685  23.2647542  23.0121700  -1.8050643  23.7738711
  32.3629349  -1.3172075  29.7057899  32.3427276  -1.4988780  30.5592678
  32.4108549  -0.4460057  29.6817483  32.3663990  -1.2155537  29.8281194
  30.3075678   5.2715117  35.6306376  30.2671533   4.6264794  35.0451532
  31.1198997   5.2151734  35.9431788  30.4218832   5.1674084  35.5903325
  26.8983146  11.3233843  25.5331527  26.4843545  10.6607973  25.1435368
  27.5830520  11.4711702  25.0127221  26.9381518  11.2474501  25.3988024
  30.2648440  10.4823928  26.2855143  29.8664723  10.5926198  25.5175964
  29.6499660  10.6905994  26.8681703  30.1147329  10.5297496  26.2586443
  31.7134159  -2.9522420  22.5831033  31.4847852  -2.9289718  21.7409392
  31.9732235  -3.7764953  22.7026044  31.7180347  -3.0706340  22.4756231
  25.9953387  -1.0987947  32.1856134  25.4832290  -1.7066764  32.5441165
  25.8232883  -0.3831354  32.6530109  25.8943024  -1.0824647  32.3072357
  24.7678921  -4.4145873  23.8785229  25.2436287  -4.0528794  23.2435410
  24.2667521  -3.7589406  24.1585372  24.7644280  -4.2651685  23.8261970
  37.9990283   5.0575895  19.6698234  38.3823889   5.8067251  19.8996331
  37.2034396   5.3041714  19.4110223  37.9384065   5.2045589  19.6655808
  29.8722457  -3.1763702  34.6258389  30.4293888  -3.4049892  33.9936855
  29.5483523  -2.4158036  34.3493602  29.9068868  -3.0979865  34.4914886
  27.5905575  -0.0896049  35.5910396  28.3416902   0.2255628  35.9049950
  27.7828151  -0.2916878  34.7644318  27.7296989  -0.0728667  35.5153792
  32.1631717   0.7175019  26.4870399  32.6585382  -0.0001985  26.4474419
  31.3531493   0.4145817  26.3724886  32.1175610   0.5672666  26.4644124
  27.6090328   4.5672833  18.6367403  26.8001651   4.2439506  18.5900712
  28.1165237   3.8606055  18.5695652  27.5639995   4.4154149  18.6197697
  18.2380606   1.9945026  24.3614767  17.3726125   1.9830716  24.2497538
  18.3379422   1.8075249  25.2085907  18.1254773   1.9651087  24.4703712
  34.2283536   3.4678707  29.1747527  34.6538607   2.9453129  28.6217952
  33.8640456   4.0659544  28.6536150  34.2370138   3.4788934  29.0156537
  23.8637616  11.7642924  27.9344873  24.1784175  12.5779313  27.9422655
  24.2731029  11.3793143  28.6027032  23.9705714  11.8271627  28.0348964
  30.8162135   7.1812971  25.5048685  31.2873313   7.8953234  25.6738670
  31.1522314   6.5811721  26.0408554  30.9357250   7.1984436  25.6081061
  32.9039120   8.7914285  37.6840757  33.0136085   8.0022845  38.0397504
  33.2330016   8.7020221  36.8815095  32.9691526   8.6620138  37.6183148
  31.4536082   6.9730905  32.2676377  30.9057028   6.3488789  31.9996443
  31.9149110   7.1625177  31.5520457  31.4403291   6.9089956  32.1226809
  21.2050636   5.7116033  27.5823481  21.8095493   5.6711867  26.9537302
  20.9977948   6.5587185  27.6127537  21.2639533   5.8304035  27.4939598
  31.0194408   7.9781978  28.7985719  31.8392782   7.8344944  29.0602014
  30.7388486   8.6028177  29.3402157  31.0991151   8.0492330  28.9173658
  16.4401918   4.6950650  27.4522404  16.3426196   3.8846922  27.7612461
  17.2230788   4.6742444  27.0668672  16.5418055   4.5717741  27.4409267
  47.4908058  15.6346830  21.7628595  47.4602063  16.4891466  21.9346864
  48.0889407  15.3342122  22.3214739  47.5745216  15.7163326  21.8703397
  40.6907743  14.7222481  26.5181525  39.8345639  14.8830979  26.5690642
  40.7375397  13.8514545  26.5386586  40.5706855  14.6173283  26.5287591
  40.5273843  24.6810568  17.7104304  40.1925211  25.3587490  17.2748526
  41.0400713  24.2915879  17.1221176  40.5539424  24.7235146  17.5591096
  43.5359564  16.7814525  29.1613177  44.0815524  17.4599611  29.2207147
  43.4776440  16.6401986  28.3014759  43.6075478  16.8606526  29.0425238
  45.3124633  18.2099132  20.0346905  45.1964159  18.9606818  20.4639043
  46.1080519  17.9523085  20.2842992  45.4129222  18.2833979  20.1350996
  29.8498683  20.2923877  24.1733863  29.6148868  19.4591530  24.0666132
  29.9884324  20.5728543  23.3595064  29.8354346  20.2107381  24.0376218
  32.1488771  12.4609608  27.0718171  31.5293802  11.8702255  26.9028186
  32.0472634  13.0521043  26.4382494  32.0426446  12.4613690  26.9523160
  37.1954958  22.1993155  21.3216247  37.5170799  22.7398362  20.7177555
  37.8427055  21.6289926  21.4538537  37.3381013  22.1952330  21.2523283
  39.2456666  14.2009150  21.4050634  39.9436831  14.3797277  21.8972097
  39.5608999  13.6779489  20.7821023  39.3952004  14.1502922  21.3852644
  31.8757904  16.0061890  29.3161740  31.7516601  16.5924335  29.9511559
  32.5276188  15.5122085  29.6174015  31.9531553  16.0200694  29.4547669
  39.4344602  20.5879595  21.3930425  39.8738237  19.9796695  21.8385198
  39.2849265  20.2086968  20.6215890  39.4766067  20.4418066  21.3449593
  36.9016245  19.1823607  28.5949251  37.5465247  18.6896050  28.2760199
  37.1418022  19.3248393  29.4215329  37.0326830  19.1301049  28.6698784
  39.4402336  22.0278512  28.2456143  39.7225579  21.2329918  28.0242899
  40.1688497  22.5059100  28.2661204  39.5891900  21.9813109  28.2159159
  37.4183530   9.5701546  25.4871909  37.0886860  10.0212690  24.8175607
  36.7428532   9.4917710  26.0344915  37.2693966   9.6252682  25.4695132
  43.0353938  18.9406776  18.3461195  42.9505233  19.7967743  18.4910763
  43.5238322  18.6651100  19.0143354  43.0942836  19.0264098  18.4663276
  44.6259938   5.5587069  23.7321519  44.3113379   6.2490548  24.1641942
  44.1086879   5.5031852  23.0307020  44.5024408   5.6521958  23.6918468
  43.9672372  15.5591570  19.8458930  43.4383843  15.7751204  20.5056236
  44.4897391  16.2527709  19.7659899  43.9660825  15.6934707  19.9314529
  49.4220424  21.1337875  25.2191974  48.5918128  21.3448518  25.3825391
  49.3729677  20.3074929  24.9434258  49.2927160  21.0427481  25.2029340
  35.8571979  19.4554787  18.6466398  35.2729195  19.9604818  19.0532262
  35.4542075  19.2297174  17.9062990  35.7111283  19.4963035  18.5971423
  31.4116008  25.1709548  25.4490069  30.9283586  25.8960038  25.4249653
  32.2239326  25.4685678  25.5600227  31.4606756  25.3211902  25.4617349
  40.3149194  15.7020439  17.1235318  40.5545197  15.9098423  16.3110661
  40.6365035  14.8977948  17.2324263  40.3986352  15.6134540  17.0195871
  35.6239484   7.6313835  20.9694856  36.3785452   7.9992152  20.7311906
  35.4467019   8.0053389  21.7374036  35.7093962   7.7412023  21.0479745
  48.9174383  13.7808275  29.0142396  48.0802804  13.8510462  29.2489990
  48.8862614  13.7832770  28.1416698  48.7892665  13.7918502  28.9201944
  35.3139112  15.9241311  34.7290764  35.4859615  15.8147206  35.5776046
  35.8508469  16.5695716  34.4921957  35.4184116  16.0033313  34.8195861
  33.9796549  10.0384154  17.6672969  33.7972122  10.2556035  16.8413962
  34.8422162  10.1523167  17.7231584  34.0801138  10.0874052  17.5527456
  33.5910981  21.8772076  25.1095957  34.4299880  22.1095009  25.1569719
  33.6222750  21.0076387  25.0402993  33.7192698  21.7829023  25.1060602
  39.6596268   7.0410565  20.7021993  40.3882428   6.8626519  20.2560149
  39.7491161   7.8828644  20.9129171  39.7802930   7.1394443  20.6675511
  43.6404569  17.9763952  24.6054287  44.3962084  18.4095466  24.6443196
  43.7466893  17.3268722  25.1788923  43.7674739  17.9441436  24.6952313
  46.6784740  21.8037229  25.3556690  46.2419972  21.8073972  26.1115661
  46.3447655  22.4842728  24.9236267  46.5647360  21.9049685  25.4037523
  29.6200829  18.5173242  29.5643684  29.3539244  17.7012359  29.7234675
  29.6339393  18.5626398  28.6939200  29.5825551  18.4030147  29.4597166
  46.5982223   8.8451057  27.5986118  47.2408131   8.9149162  28.1848033
  46.8505243   8.1780280  27.0965660  46.7304355   8.7577406  27.6113397
  33.5258576  13.3158326  16.1795442  32.8116753  13.0296506  16.5917875
  34.0102544  13.6554952  16.8201830  33.4917939  13.3239976  16.3351077
  34.3699435  12.0551620  32.2110692  33.6771232  11.5848600  32.4571423
  34.9859762  11.8289925  32.7852399  34.3583965  11.9518752  32.3319845
  49.8129086  18.5218149  24.2476327  50.4745520  17.9608818  24.1472236
  49.1720498  18.0270180  24.5729018  49.8157953  18.3654558  24.2808667
  40.7005894  21.8188280  16.5557251  41.1157042  21.4873304  15.8641746
  39.8697823  21.5857183  16.4277387  40.6393902  21.7359536  16.4348098
  30.0294242  19.3032021  26.8455428  29.8469816  19.2778907  25.9927721
  30.7643911  19.7730959  26.8844337  30.1108306  19.3693384  26.7253347
  46.0993917  19.5383531  23.9888316  46.3349506  19.6828730  23.1615167
  46.2483480  20.3025939  24.3819830  46.1559720  19.6722586  23.9251920
  47.9284373  18.3785197  21.8257920  48.2592590  18.9112838  21.2198015
  48.5017461  18.4324085  22.4819871  48.0618052  18.4654766  21.8335702
  43.1416262  16.2250100  22.5081500  43.2363117  16.9639394  22.9621125
  42.5175106  15.7967576  22.9416065  43.0625293  16.2711421  22.6389648
  41.3968736  19.4036313  33.1571781  41.9707598  18.7663557  33.3120345
  41.3183540  19.4040395  32.2881438  41.4701971  19.3101424  33.0518192
  29.9965153  16.1825522  26.9954495  30.5738655  16.0461973  27.6346740
  29.2979214  15.7261306  27.2500079  29.9786174  16.0947788  27.1276785
  43.3939284  18.0698840  15.7418452  43.3119446  18.1401027  16.6073439
  44.0319004  18.6328584  15.5502193  43.4759121  18.1637811  15.8408401
  36.7532455  17.8359578  25.2092978  36.4951699  17.0031313  25.1824278
  36.8080938  18.0617191  24.3685479  36.7232233  17.7457349  25.0813115
  41.8333505   9.9388029  25.3097071  41.1289832   9.4497214  25.4680990
  41.8818479   9.9510503  24.4385515  41.7363557   9.8677676  25.2036411
  35.7267167  15.3897340  25.6957873  35.1516758  15.5489509  26.3321834
  35.3502843  14.7532749  25.2326324  35.5869979  15.3195153  25.7212431
  39.3940456  13.8620690  30.5550251  39.0054888  13.4374907  29.9002443
  38.7295154  14.1102839  31.0627278  39.2387383  13.8359411  30.5338119
  49.0363725  13.6195694  23.3298081  48.7800290  12.8075636  23.1395964
  49.8793039  13.6273261  23.1028269  49.1229750  13.5007692  23.2682899
  25.4723986  15.0337415  23.7102314  25.5584238  14.6569283  24.4915844
  26.0999783  14.6597861  23.2322272  25.5780537  14.9222897  23.7547791
  43.2166817   7.5595318  28.0674236  43.5977329   6.8773489  28.4542110
  42.4130102   7.2704920  27.8849900  43.1543279   7.4162367  28.0978292
  40.4979394  18.0919294  18.7527058  41.3120033  18.3834187  18.6409830
  40.4338535  17.4379156  18.1785351  40.6082133  18.0384489  18.6515896
  46.7188884  20.7745290  33.1656634  46.4827521  19.9433355  33.0468695
  47.3632113  20.7230897  33.7511478  46.7783555  20.6442978  33.2342528
  36.3687302  21.5640812  23.8799371  37.0061249  21.3252559  24.4251164
  36.7942374  21.7677971  23.1452531  36.5263468  21.5591822  23.8516528
  31.0599945  23.8029148  27.7633674  31.1004090  24.0743999  26.9353454
  31.6194469  24.3271056  28.1791462  31.1483291  23.9204903  27.7025562
  37.0090117  16.7843101  18.2174260  37.3935270  16.5650808  18.9690805
  36.7601738  17.6106047  18.3475336  37.0292190  16.8741248  18.3475336
  37.1758658  10.0649517  37.9336844  36.8612099  10.8349079  37.6706407
  36.8548590   9.5019773  37.3489071  37.0817577  10.0959785  37.8078194
  47.7425305  20.5589739  29.2284929  47.4371122  21.2917796  29.5898244
  47.0231520  20.1527669  28.9477715  47.5912647  20.6071472  29.2398066
  38.7508774  22.0413234  25.5593157  38.8247782  21.8788406  26.4135007
  39.5678280  22.2303424  25.3153638  38.8825133  22.0449977  25.6491182
  53.4427097  17.1982740  28.5553273  53.3751597  17.2178699  27.6855859
  53.4282759  18.0413067  28.7808943  53.4305853  17.3256474  28.4605750
  32.5114531  22.3871097  22.5887600  31.6852649  22.6332834  22.4621879
  32.5726522  22.3083178  23.4549658  32.3988698  22.4116046  22.6976545
  34.7290555   8.4540038  23.5483040  33.8612980   8.5262638  23.6140650
  35.0165759   9.2562117  23.7371016  34.6430303   8.5834185  23.5857807
  43.8523443   8.6017897  31.8794362  44.5977035   8.4127708  31.4657788
  43.4360748   9.1276135  31.3208219  43.9008418   8.6520043  31.7358935
  37.2913360  25.0047977  20.2906630  37.5811658  24.6136959  19.5665857
  38.0216841  25.1864682  20.7311905  37.4420244  24.9741791  20.2489437
  51.2285714  15.9727126  26.8299867  51.7793636  15.3395195  27.0696959
  51.2129830  16.5042519  27.5215371  51.3070911  15.9576074  26.9678725
  37.8808105  19.8065723  31.3759761  37.3819799  20.5181491  31.4544649
  38.6908329  20.1266390  31.3377923  37.9264212  19.9592572  31.3816329
  34.1436223  19.0688676  25.6222482  33.8549471  18.4426147  26.1568209
  35.0119571  19.0108964  25.6887162  34.2296475  18.9676220  25.7113436
  44.9314120  14.2123460  25.9404463  44.5878886  13.4913795  26.2911713
  45.0307163  14.0037311  25.0982822  44.8956163  14.0747663  25.8676143
  34.3468496  20.7083927  21.5464847  35.1014464  21.0896966  21.7600309
  33.7539109  21.1595071  22.0011543  34.3705210  20.8312755  21.6447725
  45.3927150  20.6749164  21.4828452  45.9585182  21.3342374  21.3986994
  44.7455053  21.0198862  21.9544854  45.3805906  20.8231105  21.5401208
  36.8075163  12.6646768  36.6722059  35.9974939  12.9704547  36.5611901
  37.2849850  13.3852350  36.7874643  36.7578642  12.8161369  36.6729130
  35.6666723  21.8792489  26.9204962  35.1447476  22.0192780  27.6056827
  36.0540743  21.1203153  27.1107079  35.6470424  21.7878012  27.0506039
  32.6557907  11.9298297  20.9899917  32.3682702  11.5599568  20.2531864
  33.3428375  12.3993153  20.7283622  32.7146804  11.9445267  20.8414992
  41.8633728  23.6187948  20.9065531  41.6220404  22.8855809  20.4992596
  42.0435061  24.1674805  20.2531864  41.8541352  23.5910339  20.7495754
  37.0933048  18.9096508  22.3186453  36.8975831  19.5171242  21.7246756
  37.3167394  18.2164452  21.8378127  37.0967689  18.8974033  22.1602534
  35.4911578  15.7951246  22.4367321  36.2134230  15.9592404  21.9771127
  35.0119571  16.5160910  22.3306661  35.5275309  15.9249475  22.3532935
  43.4505086  12.1315044  27.8164006  42.6116186  12.1576323  27.5802270
  43.5209453  12.7785780  28.3969353  43.3373479  12.2311170  27.8673123
  41.8974364   9.0300421  22.5491622  42.6000717   8.8308170  22.0711581
  41.6318553   8.2576364  22.8560466  41.9620996   8.8863387  22.5237064
  47.3262610  17.3383031  25.1025248  47.2396584  17.4938457  25.9560027
  46.8713090  17.9821107  24.7284653  47.2465866  17.4558786  25.1732355
  30.2286101  12.7079510  21.8385198  30.3302238  13.5105671  22.1666173
  31.0241988  12.5066846  21.5408278  30.3614007  12.7965409  21.8420553
  36.6602920  10.2935707  31.6022503  36.4686117  10.3090841  32.4521926
  37.5101516  10.4899381  31.5789158  36.7578642  10.3250058  31.7245798
  31.0449833  12.8226688  29.5806319  30.9035325  11.9710629  29.7050827
  31.3290397  12.8655349  28.7568525  31.0657679  12.7026438  29.4773943
  41.1988426  14.6593778  23.7250808  40.9523140  14.5789529  24.5587597
  41.5273549  13.8747246  23.5313335  41.2109669  14.5320044  23.8198331
  45.0936475  21.3677138  27.5137589  44.9550834  22.0658183  28.0186331
  44.3136472  21.2125794  27.1573771  44.9579701  21.4477304  27.5363863
  43.4314560  17.6673513  33.7659971  43.4262598  16.7953329  33.7702397
  44.1375554  17.8661682  33.2929426  43.5359564  17.5677387  33.6967006
  37.1585453  17.3950497  33.1373791  37.3028829  17.9751705  32.5016901
  37.5061102  17.7726794  33.8423645  37.2312914  17.5371201  33.1472786
  39.3305370  16.5940665  30.9198922  38.5828684  16.7871680  30.5147200
  39.4846896  15.7685885  30.6823044  39.2427798  16.5005777  30.8244328
  46.5889847  20.7255391  18.2754088  46.2096656  19.9392529  18.2683377
  45.9256093  21.2742248  18.1325732  46.4348322  20.6900215  18.2534885
  39.5707147  10.4891216  31.8094326  40.0279762  11.2215190  31.9367118
  39.6463476  10.0657681  32.5681582  39.6498117  10.5348454  31.9395402
  31.8140139  10.7357036  32.8983770  31.2782328  10.1237394  33.2144537
  31.8757903  11.3105172  33.5517436  31.7435771  10.7303963  33.0419196
  44.0434473   3.6681091  25.6788169  44.1618041   4.1257554  24.9455472
  43.8696649   2.8626352  25.3924387  44.0353644   3.6174863  25.5289103
  39.4136756  24.2768910  22.1142914  40.1786647  24.0078554  21.7925579
  39.3114846  23.7918921  22.8312977  39.5118251  24.1658475  22.1722742
  37.4489525  12.4793320  28.6536150  36.6585600  12.2984780  28.9753486
  37.8450148  11.7020272  28.6366444  37.3906402  12.3380781  28.6988698
  41.9355416  21.3081094  14.0942864  42.7028401  21.3681219  13.6848715
  41.4886725  20.7361536  13.6099182  41.9828843  21.2317670  13.9620574
  42.8333212  20.1135750  26.3795596  42.1578213  19.8820982  26.8808983
  42.8425588  19.5056933  25.7537701  42.7351716  19.9894675  26.3611748
  39.9627356  14.9553579  33.1359649  39.8986497  15.8163535  33.0079786
  40.1024543  14.6385572  32.3355200  39.9742826  15.0353746  32.9987862
  44.8349946  22.9700882  18.6105774  44.9169784  23.7767869  18.2867225
  45.3199688  22.9896842  19.3346547  44.9187104  23.0921545  18.6692673
  38.6446449  17.6485718  27.2775852  38.2208699  17.8490217  26.5414870
  38.4691305  16.8014566  27.3900152  38.5557330  17.5534500  27.1849542
  33.9328894  18.1437770  22.7103824  34.0893514  18.0784573  23.5659816
  34.2729488  18.9186322  22.4982504  34.0062129  18.2486968  22.8058419
  40.4708039  17.5195653  21.5797188  41.0123585  17.0166034  22.0435808
  40.7854598  17.4660848  20.7686673  40.5972436  17.4375074  21.5281000
  38.6394489  22.9113005  18.8637216  38.7087309  22.0527543  19.0030216
  39.4182944  23.1284886  18.5356240  38.7647339  22.8165869  18.8354373
  41.6197308  12.4131958  31.6319488  41.8339278  11.7742872  31.0782842
  41.0031208  12.8577782  31.2027350  41.5602638  12.3842102  31.4869919
  43.0301976  25.3350706  23.0773709  42.6381768  25.0317421  22.3596575
  43.1855049  26.1719796  22.8878663  42.9955566  25.4134543  22.9430206
  30.5063156  15.3272720  23.0264592  30.8862121  15.7457265  22.3624859
  29.9318521  15.9086176  23.3333435  30.4774481  15.4750579  22.9741333
  43.7836396  14.0221023  32.5702795  42.9713078  13.7146913  32.6515968
  44.2426331  13.5420023  33.1345507  43.7316781  13.9057515  32.6657389
  43.1941651  21.9000695  23.0179739  42.8356306  22.0715338  23.7943772
  42.7080362  22.3613901  22.4607738  43.0700348  21.9939666  23.0505009
  41.0112037   5.5231893  26.6206831  40.1405595   5.4970615  26.5740140
  41.2652378   5.3509086  25.8032677  40.9205597   5.4942037  26.4926968
  37.9830017  17.5799860  15.5579974  38.2722541  18.3564743  15.8323548
  38.0701815  17.0688592  16.2594473  38.0384273  17.6191779  15.7022472
  40.8789904  15.4281094  37.3531497  41.3489535  16.0523211  37.7399372
  40.9251784  14.7598070  37.9124712  40.9557780  15.4215775  37.4931569
  38.0361178   7.5338122  28.0780301  37.5199666   6.8418313  28.2031880
  37.4755106   8.2008899  28.0242900  37.8767691   7.5301380  28.0886367
  40.1053411   8.0731082  29.9073154  39.7185164   8.0980113  30.6886684
  39.6186348   7.5072761  29.4547670  39.9765920   7.9926833  29.9561057
  46.0803391  14.6393737  28.5312856  45.6530999  14.5520085  27.7760956
  45.4429444  14.7471512  29.1167700  45.9232998  14.6426397  28.5058298
  39.7710553   4.9598067  32.1983414  40.4003671   5.4958367  31.9204484
  39.9396415   4.8675426  33.0496979  39.8888347   5.0259430  32.2831942
  39.5724468   9.7469262  34.4709825  40.3997897   9.4754411  34.5268440
  39.5932314  10.5430104  34.8273643  39.6977318   9.8249016  34.5325008
  44.4100647  23.4824399  30.6052297  45.1993025  23.1313464  30.7254379
  44.5844245  24.2960788  30.3428931  44.5520929  23.5510256  30.5840165
  34.1493958  16.8933125  27.6580086  33.3081964  16.7936999  27.8658980
  34.3583965  17.6628605  28.0094407  34.0558650  16.9925168  27.7407401
  31.6269524  14.5152662  25.4864837  31.2326222  14.5895674  24.7114946
  31.0709641  14.9010608  26.0373198  31.4872337  14.5834437  25.4532496
  43.2634471   7.4933956  25.1668716  43.4684065   7.4256264  26.0125713
  42.9360895   8.2992777  25.0989893  43.2449719   7.6019896  25.2828371
  37.9610622  14.8214524  26.9077683  37.6573760  14.2670512  27.5088091
  37.2590043  15.0006734  26.4205718  37.8126832  14.7659306  26.9247389
  37.0176719  12.1315044  21.4722385  37.2936454  11.4133956  21.0599953
  37.6175389  12.7299964  21.2643491  37.1469984  12.1135415  21.3803147
  46.5168159   8.0465720  24.6471481  45.9042473   8.5336122  25.0325213
  46.6132334   7.3709211  25.1909132  46.4406057   8.0184029  24.7850339
  40.5187240   9.8028561  19.7468980  40.9730987   9.9739122  20.4716825
  40.9927286   9.1896672  19.3466756  40.6555560   9.7379447  19.7942742
  34.0402765  19.2876887  29.0771719  33.4490699  19.9286385  29.0474734
  34.8023789  19.7114505  29.0503018  34.0651026  19.4452726  29.0686866
  34.4363388  10.4478885  29.7439736  34.8964870  10.5217814  30.4814860
  34.4819495  11.2460139  29.3939558  34.5113943  10.5773032  29.8012493
  36.0846738  11.1145580  34.3111764  35.6932303  10.4678927  34.7467541
  36.2532601  11.7057015  34.9306019  36.0517648  11.1059848  34.4674470
  50.1593187  19.1182657  30.0748997  50.2176311  19.5669306  30.8208974
  49.5259655  19.5281470  29.6379077  50.0744482  19.2456392  30.1201545
  43.7992282  24.7386199  26.5103743  43.6011970  25.2277013  25.8159955
  43.1779993  24.9427440  27.0887877  43.6779846  24.8402737  26.4926967
  37.8600260  16.5071096  20.8513988  38.6042305  16.8945372  21.0896937
  38.0060956  15.6628521  21.0154475  37.9910845  16.4401568  20.9107957
  39.7779835   8.3021355  25.8845849  38.9315880   8.4744162  25.7587199
  39.7750968   7.4970698  26.2211677  39.6526985   8.2082384  25.9156976
  40.8478136  12.0796569  26.7507907  40.3738090  11.5538331  27.2613218
  41.2196272  11.5326042  26.1822768  40.8328025  11.9212566  26.7423054
  47.1114866  17.1398945  28.1614687  46.8713089  16.3005360  28.1657114
  47.5906874  17.2199111  28.8855461  47.1467050  17.0280344  28.2689490
  42.7761635  12.9733124  19.8133661  42.2484654  13.0561868  19.1239370
  43.2357344  13.7150995  19.8098305  42.7663486  13.0953786  19.7108356
  49.1120053  13.9200402  26.1143947  48.8729823  13.8796236  25.2764731
  49.2753955  14.7671554  26.2409668  49.1010357  14.0392487  26.0097428
  45.7166084  18.3050351  32.0448992  46.4400282  17.8522878  31.8660012
  45.4516046  18.5855017  31.2621320  45.7847357  18.2801320  31.9027707
  34.5852952  12.9010525  28.7801871  33.9606022  12.9128917  28.1727824
  34.2498547  13.3770700  29.4293111  34.4438444  12.9729042  28.7858439
  34.7694701  11.2435643  14.8374556  34.4207505  11.8955368  15.3006105
  34.2891146  11.2292756  14.1098427  34.6464945  11.3378697  14.7985647
  42.3298718  21.5436687  18.9443318  43.0532917  22.0094800  18.8007891
  41.8899309  21.6110297  18.1940915  42.3714410  21.6220524  18.8128099
  41.4984873  18.4034229  30.1944007  40.8841866  17.8592280  30.4892642
  42.0152158  17.8898466  29.7149823  41.4840535  18.2470638  30.1668235
  40.7381170  19.4738499  27.9288305  40.3108778  18.8488218  27.4953741
  40.7306115  19.1913421  28.7547313  40.6740311  19.3391280  27.9868133
  33.8543697  14.5103672  30.9976739  34.0137184  13.7546997  31.4028461
  33.6736591  15.0594612  31.6517477  33.8509056  14.4797486  31.1539445
  41.7964000   6.6764908  31.5527529  41.3004562   6.8728582  30.8619096
  42.5533062   7.0757576  31.3816330  41.8350825   6.7642642  31.4247666
  39.0666880  10.3507254  28.1430839  39.0909367   9.8167366  27.4543619
  39.3178353   9.8424563  28.8056430  39.1076799  10.1968158  28.1395484
  26.5774470  17.6338749  27.5773983  26.4717919  17.5885593  26.7126068
  25.8274690  17.9792529  27.8588268  26.4510073  17.6779657  27.4911313
  35.3468202   9.0778072  27.5236584  35.3866574   9.5787279  28.2371291
  34.5217867   9.1688466  27.2542507  35.2307728   9.1659889  27.5887122
  37.5297815  18.6438812  35.6256878  36.6793446  18.7810526  35.7614523
  37.6925943  17.9102590  36.0704580  37.4281679  18.5552913  35.7112477
  36.7682566  15.5938582  29.8210483  35.9374495  15.7612400  29.6145731
  36.7134083  15.2174533  30.6059368  36.6371980  15.5628313  29.9059011
  34.5766349   9.0847475  35.4566893  35.2019052   8.5409608  35.7296326
  34.1216829   8.6042393  34.8874684  34.6014609   8.9336956  35.4128487
  35.1418609  13.8694174  20.3500600  35.2821570  14.3666638  21.0529242
  35.6401142  13.1680468  20.4914814  35.2359690  13.8396152  20.4752179
  35.1718832  14.7361285  17.6793177  35.8063911  15.3321710  17.6142639
  35.2544443  14.4364742  18.4939047  35.2775383  14.7802193  17.7896264
  48.1501398  17.2676762  30.5479541  48.7419238  17.9074013  30.5797739
  48.5860392  16.5699799  30.8371608  48.3019829  17.2595112  30.5960374
  36.7497815  10.6675260  17.6538619  37.0713656  10.1878343  16.9997882
  37.0124758  11.4774906  17.4629431  36.8363840  10.7165158  17.5294111
  42.1456970  10.0547454  30.0162098  42.5712041   9.6019980  29.4045625
  41.5313963   9.5007525  30.2926886  42.1185615   9.9061430  29.9667124
  31.6771820  16.9329125  20.9482723  32.1864049  17.5293633  21.3294029
  32.1506092  16.6655099  20.2659143  31.8215195  16.9814941  20.9037246
  42.5902568  25.6057392  19.1041379  41.8731877  25.4318254  18.6388616
  43.2409305  25.3709964  18.5716865  42.5804418  25.5453185  18.9570597
  40.5851192   6.5262554  23.4252675  39.9419510   6.3760200  23.9937814
  40.2450599   6.2804899  22.6601780  40.4396270   6.4674676  23.3955690
  45.1750539  14.4821981  22.8482684  44.5041729  15.0251683  22.7195749
  45.8690289  14.9516836  22.6064379  45.1779406  14.6320252  22.7938212
  39.2237273  26.6218693  28.0794442  39.0002927  25.8637522  28.4478469
  38.7347116  26.6516714  27.3574882  39.1180722  26.5140917  28.0271183
  45.3378666  10.9377864  25.7573057  45.6906276  10.5107587  26.4318856
  44.4793468  10.8528708  25.8874134  45.2628111  10.8622605  25.8768068
  34.0362351  13.5685384  23.8155904  33.3174340  13.9849516  24.0828767
  34.4074714  14.1339623  23.2647542  33.9854283  13.7134665  23.7738711
  43.3361932  14.2013233  29.7057899  43.3159859  14.0196528  30.5592678
  43.3841133  15.0725251  29.6817483  43.3396573  14.3029771  29.8281194
  41.2381024  26.0009236  26.2855143  40.8397307  26.1111506  25.5175964
  40.6232243  26.2091302  26.8681703  41.0879913  26.0482804  26.2586443
  39.8108926  12.6083384  19.1529283  39.2173765  12.9300380  18.6013850
  39.8484203  11.7624479  18.9450389  39.7283315  12.5307712  19.0412054
  46.7702726   6.0596276  26.6857370  46.2633591   5.3525416  26.6178547
  47.5670160   5.7289465  26.8158446  46.8129966   5.9069427  26.6956365
  42.6866742  12.5662888  22.5831033  42.4580435  12.5895590  21.7409392
  42.9464818  11.7420355  22.7026044  42.6912930  12.4478968  22.4756231
  36.9685971  14.4197361  32.1856134  36.4564874  13.8118544  32.5441165
  36.7965467  15.1353954  32.6530109  36.8675608  14.4360661  32.3072357
  31.8151685  12.8634937  34.8358495  31.6454276  13.5236311  34.2906702
  31.3717635  13.0741498  35.5570984  31.7251019  12.9920919  34.8620125
  35.7411505  11.1039435  23.8785229  36.2168871  11.4656514  23.2435410
  35.2400104  11.7595902  24.1585372  35.7376864  11.2533623  23.8261970
  48.9722866  20.5761203  19.6698234  49.3556472  21.3252559  19.8996331
  48.1766980  20.8227022  19.4110223  48.9116649  20.7230897  19.6655808
  40.8455041  12.3421606  34.6258389  41.4026471  12.1135416  33.9936855
  40.5216106  13.1027272  34.3493602  40.8801451  12.4205443  34.4914886
  38.5638158  15.4289259  35.5910396  39.3149485  15.7440936  35.9049950
  38.7560735  15.2268430  34.7644318  38.7029572  15.4456641  35.5153792
  37.7838158  13.2480634  17.2458613  38.1637123  13.2660264  16.4609728
  37.0430754  13.6934623  17.1249460  37.7306996  13.3162409  17.1122181
  45.4123448  11.5562826  22.8334192  45.4117675  11.4011482  23.6918468
  45.2079629  12.4025813  22.7775577  45.3823226  11.6583446  22.9522131
  27.4740719  14.9802610  27.2493008  27.2962481  14.5279219  27.9747924
  27.1859742  15.7828771  27.4331486  27.4053673  15.0325168  27.3836511
  43.1364301  16.2360327  26.4870399  43.6317966  15.5183322  26.4474419
  42.3264076  15.9331125  26.3724886  43.0908194  16.0857974  26.4644124
  38.5822912  20.0858141  18.6367403  37.7734235  19.7624814  18.5900712
  39.0897821  19.3791363  18.5695652  38.5372579  19.9339457  18.6197697
  29.2113189  17.5130334  24.3614767  28.3458709  17.5016024  24.2497538
  29.3112005  17.3260557  25.2085907  29.0987356  17.4836395  24.4703712
  45.2016119  18.9864015  29.1747527  45.6271191  18.4638437  28.6217952
  44.8373039  19.5844852  28.6536150  45.2102722  18.9974242  29.0156537
  41.7894719  22.6998279  25.5048685  42.2605897  23.4138542  25.6738670
  42.1254897  22.0997029  26.0408554  41.9089834  22.7169743  25.6081061
  38.7064214   7.4725750  32.4606780  38.8392119   6.6756743  32.7887755
  39.0909367   7.9992153  33.0405055  38.7820543   7.4325666  32.5950282
  41.7796569   4.3956076  29.0587873  40.9742533   4.2853806  29.3755711
  41.6503304   4.4968532  28.2017739  41.6416702   4.3939746  28.9795913
  45.2362530  10.5601568  29.6527570  44.6525518  11.0610774  29.2405137
  45.5566824  10.0531124  29.0191893  45.1975705  10.5593403  29.4986077
  37.7757329   9.4742163  19.9286245  38.5973023   9.6440475  19.6867939
  37.3126980   9.6289424  19.2052542  37.8288491   9.5223896  19.7857889
  36.3652661   7.4684925  30.7084673  36.9097074   7.1276052  31.2989015
  36.4189596   8.3270386  30.8505958  36.4541780   7.5440184  30.8166547
  32.1783219  21.2301341  27.5823481  32.7828077  21.1897175  26.9537302
  31.9710532  22.0772493  27.6127537  32.2372117  21.3489343  27.4939598
  41.9926991  23.4967286  28.7985719  42.8125365  23.3530252  29.0602014
  41.7121069  24.1213485  29.3402157  42.0723735  23.5677638  28.9173658
  27.4134502  20.2135958  27.4522404  27.3158780  19.4032230  27.7612461
  28.1963371  20.1927752  27.0668672  27.5150638  20.0903049  27.4409267
  58.4640642  31.1532138  21.7628595  58.4334646  32.0076774  21.9346864
  59.0621991  30.8527430  22.3214739  58.5477800  31.2348634  21.8703397
  51.6640327  30.2407789  26.5181525  50.8078222  30.4016287  26.5690642
  51.7107980  29.3699853  26.5386586  51.5439438  30.1358591  26.5287591
  51.5006426  40.1995876  17.7104304  51.1657795  40.8772798  17.2748526
  52.0133297  39.8101187  17.1221176  51.5272007  40.2420454  17.5591096
  54.5092148  32.2999833  29.1613177  55.0548108  32.9784919  29.2207147
  54.4509024  32.1587294  28.3014759  54.5808062  32.3791834  29.0425238
  56.2857216  33.7284440  20.0346905  56.1696742  34.4792126  20.4639043
  57.0813103  33.4708393  20.2842992  56.3861806  33.8019287  20.1350996
  40.8231267  35.8109185  24.1733863  40.5881451  34.9776838  24.0666132
  40.9616908  36.0913851  23.3595064  40.8086929  35.7292689  24.0376218
  43.1221354  27.9794916  27.0718171  42.5026386  27.3887563  26.9028186
  43.0205218  28.5706351  26.4382494  43.0159030  27.9798998  26.9523160
  48.1687542  37.7178463  21.3216247  48.4903383  38.2583670  20.7177555
  48.8159638  37.1475234  21.4538537  48.3113597  37.7137638  21.2523283
  50.2189250  29.7194458  21.4050634  50.9169415  29.8982585  21.8972097
  50.5341582  29.1964797  20.7821023  50.3684587  29.6688230  21.3852644
  50.4077185  36.1064903  21.3930425  50.8470821  35.4982003  21.8385198
  50.2581848  35.7272276  20.6215890  50.4498651  35.9603374  21.3449593
  48.3916114  25.0886854  25.4871909  48.0619444  25.5397998  24.8175607
  47.7161115  25.0103018  26.0344915  48.2426550  25.1437990  25.4695132
  54.0086522  34.4592084  18.3461195  53.9237817  35.3153051  18.4910763
  54.4970905  34.1836408  19.0143354  54.0675419  34.5449405  18.4663276
  55.5992521  21.0772377  23.7321519  55.2845962  21.7675856  24.1641942
  55.0819463  21.0217160  23.0307020  55.4756992  21.1707266  23.6918468
  54.9404955  31.0776878  19.8458930  54.4116427  31.2936512  20.5056236
  55.4629975  31.7713017  19.7659899  54.9393408  31.2120015  19.9314529
  60.3953008  36.6523183  25.2191974  59.5650711  36.8633826  25.3825391
  60.3462260  35.8260237  24.9434258  60.2659743  36.5612789  25.2029340
  46.8304563  34.9740095  18.6466398  46.2461778  35.4790126  19.0532262
  46.4274658  34.7482482  17.9062990  46.6843867  35.0148343  18.5971423
  51.2881777  31.2205747  17.1235318  51.5277781  31.4283731  16.3110661
  51.6097618  30.4163256  17.2324263  51.3718935  31.1319848  17.0195871
  46.5972068  23.1499143  20.9694856  47.3518036  23.5177460  20.7311906
  46.4199602  23.5238697  21.7374036  46.6826546  23.2597331  21.0479745
  59.8906966  29.2993583  29.0142396  59.0535387  29.3695770  29.2489990
  59.8595197  29.3018078  28.1416698  59.7625249  29.3103810  28.9201944
  44.9529132  25.5569462  17.6672969  44.7704705  25.7741343  16.8413962
  45.8154745  25.6708474  17.7231584  45.0533722  25.6059360  17.5527456
  50.6328851  22.5595872  20.7021993  51.3615012  22.3811827  20.2560149
  50.7223744  23.4013952  20.9129171  50.7535513  22.6579751  20.6675511
  54.6137152  33.4949260  24.6054287  55.3694667  33.9280774  24.6443196
  54.7199477  32.8454030  25.1788923  54.7407323  33.4626744  24.6952313
  57.6517323  37.3222537  25.3556690  57.2152555  37.3259279  26.1115661
  57.3180239  38.0028036  24.9236267  57.5379943  37.4234993  25.4037523
  57.5714806  24.3636365  27.5986118  58.2140715  24.4334469  28.1848033
  57.8237827  23.6965588  27.0965660  57.7036938  24.2762714  27.6113397
  44.4991159  28.8343634  16.1795442  43.7849336  28.5481814  16.5917875
  44.9835128  29.1740260  16.8201830  44.4650523  28.8425284  16.3351077
  60.7861669  34.0403457  24.2476327  61.4478104  33.4794125  24.1472236
  60.1453081  33.5455488  24.5729018  60.7890537  33.8839866  24.2808667
  51.6738477  37.3373588  16.5557251  52.0889626  37.0058612  15.8641746
  50.8430407  37.1042491  16.4277387  51.6126486  37.2544844  16.4348098
  57.0726500  35.0568839  23.9888316  57.3082089  35.2014038  23.1615167
  57.2216064  35.8211247  24.3819830  57.1292303  35.1907894  23.9251920
  58.9016957  33.8970505  21.8257920  59.2325174  34.4298145  21.2198015
  59.4750045  33.9509393  22.4819871  59.0350636  33.9840074  21.8335702
  54.1148846  31.7435408  22.5081500  54.2095700  32.4824702  22.9621125
  53.4907690  31.3152883  22.9416065  54.0357876  31.7896729  22.6389648
  54.3671867  33.5884148  15.7418452  54.2852030  33.6586335  16.6073439
  55.0051588  34.1513892  15.5502193  54.4491705  33.6823119  15.8408401
  52.8066089  25.4573336  25.3097071  52.1022415  24.9682522  25.4680990
  52.8551063  25.4695811  24.4385515  52.7096140  25.3862984  25.2036411
  46.6999751  30.9082648  25.6957873  46.1249342  31.0674817  26.3321834
  46.3235427  30.2718057  25.2326324  46.5602563  30.8380461  25.7212431
  60.0096308  29.1381002  23.3298081  59.7532873  28.3260944  23.1395964
  60.8525622  29.1458569  23.1028269  60.0962334  29.0193000  23.2682899
  54.1899401  23.0780626  28.0674236  54.5709913  22.3958797  28.4542110
  53.3862685  22.7890228  27.8849900  54.1275863  22.9347675  28.0978292
  51.4711978  33.6104602  18.7527058  52.2852616  33.9019495  18.6409830
  51.4071119  32.9564464  18.1785351  51.5814717  33.5569797  18.6515896
  47.3419886  37.0826120  23.8799371  47.9793833  36.8437867  24.4251164
  47.7674957  37.2863278  23.1452531  47.4996052  37.0777130  23.8516528
  47.9822701  32.3028409  18.2174260  48.3667854  32.0836116  18.9690805
  47.7334321  33.1291355  18.3475336  48.0024773  32.3926556  18.3475336
  58.7157888  36.0775047  29.2284929  58.4103705  36.8103104  29.5898244
  57.9964104  35.6712976  28.9477715  58.5645231  36.1256780  29.2398066
  64.4159680  32.7168048  28.5553273  64.3484181  32.7364007  27.6855859
  64.4015343  33.5598375  28.7808943  64.4038437  32.8441782  28.4605750
  45.7023138  23.9725346  23.5483040  44.8345564  24.0447945  23.6140650
  45.9898342  24.7747425  23.7371016  45.6162886  24.1019493  23.5857807
  54.8256027  24.1203205  31.8794362  55.5709619  23.9313016  31.4657788
  54.4093332  24.6461443  31.3208219  54.8741001  24.1705351  31.7358935
  48.2645943  40.5233285  20.2906630  48.5544242  40.1322267  19.5665857
  48.9949424  40.7049990  20.7311905  48.4152828  40.4927099  20.2489437
  62.2018298  31.4912434  26.8299867  62.7526219  30.8580503  27.0696959
  62.1862413  32.0227827  27.5215371  62.2803494  31.4761382  26.9678725
  55.9046704  29.7308768  25.9404463  55.5611470  29.0099103  26.2911713
  56.0039747  29.5222619  25.0982822  55.8688747  29.5932971  25.8676143
  48.3719815  43.8730058  22.1397472  49.0243873  43.3406500  22.3688498
  47.6745423  43.5198710  22.5265346  48.3650533  43.7419581  22.2309640
  45.3201080  36.2269235  21.5464847  46.0747048  36.6082274  21.7600309
  44.7271692  36.6780379  22.0011543  45.3437793  36.3498063  21.6447725
  56.3659733  36.1934472  21.4828452  56.9317766  36.8527681  21.3986994
  55.7187637  36.5384170  21.9544854  56.3538490  36.3416413  21.5401208
  43.6290490  27.4483605  20.9899917  43.3415286  27.0784876  20.2531864
  44.3160958  27.9178461  20.7283622  43.6879388  27.4630575  20.8414992
  52.8366311  39.1373256  20.9065531  52.5952987  38.4041116  20.4992596
  53.0167644  39.6860113  20.2531864  52.8273935  39.1095647  20.7495754
  48.0665632  34.4281816  22.3186453  47.8708414  35.0356550  21.7246756
  48.2899977  33.7349760  21.8378127  48.0700273  34.4159341  22.1602534
  46.4644162  31.3136554  22.4367321  47.1866814  31.4777712  21.9771127
  45.9852155  32.0346218  22.3306661  46.5007893  31.4434783  22.3532935
  54.4237669  27.6500352  27.8164006  53.5848770  27.6761631  27.5802270
  54.4942037  28.2971088  28.3969353  54.3106063  27.7496478  27.8673123
  52.8706948  24.5485729  22.5491622  53.5733301  24.3493478  22.0711581
  52.6051136  23.7761672  22.8560466  52.9353580  24.4048695  22.5237064
  58.2995193  32.8568339  25.1025248  58.2129168  33.0123765  25.9560027
  57.8445673  33.5006415  24.7284653  58.2198450  32.9744094  25.1732355
  41.2018685  28.2264818  21.8385198  41.3034821  29.0290979  22.1666173
  41.9974572  28.0252154  21.5408278  41.3346590  28.3150717  21.8420553
  52.1721009  30.1779086  23.7250808  51.9255724  30.0974837  24.5587597
  52.5006132  29.3932554  23.5313335  52.1842253  30.0505351  23.8198331
  56.0669058  36.8862445  27.5137589  55.9283417  37.5843491  28.0186331
  55.2869056  36.7311102  27.1573771  55.9312285  36.9662612  27.5363863
  50.3037954  32.1125973  30.9198922  49.5561268  32.3056988  30.5147200
  50.4579479  31.2871193  30.6823044  50.2160382  32.0191085  30.8244328
  57.5622431  36.2440699  18.2754088  57.1829240  35.4577837  18.2683377
  56.8988676  36.7927556  18.1325732  57.4080906  36.2085523  18.2534885
  55.0167057  19.1866399  25.6788169  55.1350625  19.6442862  24.9455472
  54.8429233  18.3811660  25.3924387  55.0086228  19.1360171  25.5289103
  50.3869339  39.7954218  22.1142914  51.1519230  39.5263862  21.7925579
  50.2847429  39.3104229  22.8312977  50.4850835  39.6843783  22.1722742
  48.4222109  27.9978628  28.6536150  47.6318184  27.8170088  28.9753486
  48.8182732  27.2205580  28.6366444  48.3638985  27.8566089  28.6988698
  52.9088000  36.8266402  14.0942864  53.6760985  36.8866527  13.6848715
  52.4619309  36.2546844  13.6099182  52.9561427  36.7502978  13.9620574
  53.8065795  35.6321058  26.3795596  53.1310797  35.4006290  26.8808983
  53.8158171  35.0242241  25.7537701  53.7084300  35.5079983  26.3611748
  55.8082530  38.4886190  18.6105774  55.8902367  39.2953176  18.2867225
  56.2932272  38.5082150  19.3346547  55.8919688  38.6106853  18.6692673
  44.9061478  33.6623078  22.7103824  45.0626097  33.5969880  23.5659816
  45.2462071  34.4371630  22.4982504  44.9794713  33.7672276  22.8058419
  51.4440623  33.0380961  21.5797188  51.9856168  32.5351342  22.0435808
  51.7587182  32.9846156  20.7686673  51.5705020  32.9560382  21.5281000
  49.6127072  38.4298313  18.8637216  49.6819893  37.5712851  19.0030216
  50.3915528  38.6470194  18.5356240  49.7379922  38.3351177  18.8354373
  54.0034560  40.8536014  23.0773709  53.6114352  40.5502729  22.3596575
  54.1587632  41.6905104  22.8878663  53.9688150  40.9319851  22.9430206
  54.7568980  29.5406331  32.5702795  53.9445662  29.2332221  32.6515968
  55.2158915  29.0605331  33.1345507  54.7049365  29.4242823  32.6657389
  54.1674235  37.4186003  23.0179739  53.8088889  37.5900646  23.7943772
  53.6812945  37.8799209  22.4607738  54.0432932  37.5124974  23.0505009
  51.9844621  21.0417201  26.6206831  51.1138179  21.0155923  26.5740140
  52.2384962  20.8694394  25.8032677  51.8938181  21.0127345  26.4926968
  48.9562600  33.0985168  15.5579974  49.2455125  33.8750051  15.8323548
  49.0434399  32.5873900  16.2594473  49.0116856  33.1377087  15.7022472
  49.0093761  23.0523430  28.0780301  48.4932250  22.3603621  28.2031880
  48.4487690  23.7194207  28.0242900  48.8500274  23.0486687  28.0886367
  51.0785995  23.5916390  29.9073154  50.6917748  23.6165421  30.6886684
  50.5918932  23.0258069  29.4547670  50.9498504  23.5112141  29.9561057
  57.0535974  30.1579045  28.5312856  56.6263582  30.0705393  27.7760956
  56.4162027  30.2656820  29.1167700  56.8965581  30.1611705  28.5058298
  50.7443136  20.4783375  32.1983414  51.3736254  21.0143675  31.9204484
  50.9128999  20.3860734  33.0496979  50.8620931  20.5444738  32.2831942
  42.6002108  30.0337970  25.4864837  42.2058806  30.1080982  24.7114946
  42.0442225  30.4195916  26.0373198  42.4604920  30.1019744  25.4532496
  54.2367055  23.0119264  25.1668716  54.4416648  22.9441572  26.0125713
  53.9093479  23.8178085  25.0989893  54.2182303  23.1205204  25.2828371
  48.9343206  30.3399832  26.9077683  48.6306343  29.7855820  27.5088091
  48.2322627  30.5192042  26.4205718  48.7859416  30.2844614  26.9247389
  47.9909303  27.6500352  21.4722385  48.2669037  26.9319264  21.0599953
  48.5907972  28.2485272  21.2643491  48.1202568  27.6320723  21.3803147
  57.4900743  23.5651028  24.6471481  56.8775056  24.0521430  25.0325213
  57.5864917  22.8894519  25.1909132  57.4138640  23.5369337  24.7850339
  51.4919824  25.3213869  19.7468980  51.9463570  25.4924430  20.4716825
  51.9659869  24.7081980  19.3466756  51.6288144  25.2564754  19.7942742
  45.4095972  25.9664193  29.7439736  45.8697453  26.0403122  30.4814860
  45.4552078  26.7645447  29.3939558  45.4846527  26.0958340  29.8012493
  61.1325770  34.6367965  30.0748997  61.1908894  35.0854614  30.8208974
  60.4992238  35.0466778  29.6379077  61.0477066  34.7641700  30.1201545
  54.7724865  40.2571507  26.5103743  54.5744554  40.7462321  25.8159955
  54.1512576  40.4612748  27.0887877  54.6512430  40.3588045  26.4926967
  48.8332844  32.0256404  20.8513988  49.5774888  32.4130680  21.0896937
  48.9793540  31.1813829  21.0154475  48.9643429  31.9586876  20.9107957
  50.7512419  23.8206663  25.8845849  49.9048464  23.9929470  25.7587199
  50.7483551  23.0156006  26.2211677  50.6259569  23.7267691  25.9156976
  51.8210719  27.5981877  26.7507907  51.3470674  27.0723639  27.2613218
  52.1928855  27.0511350  26.1822768  51.8060608  27.4397874  26.7423054
  58.0847450  32.6584253  28.1614687  57.8445673  31.8190668  28.1657114
  58.5639457  32.7384419  28.8855461  58.1199634  32.5465652  28.2689490
  53.7494219  28.4918431  19.8133661  53.2217238  28.5747175  19.1239370
  54.2089927  29.2336303  19.8098305  53.7396070  28.6139094  19.7108356
  60.0852637  29.4385710  26.1143947  59.8462407  29.3981544  25.2764731
  60.2486538  30.2856862  26.2409668  60.0742940  29.5577795  26.0097428
  56.6898667  33.8235659  32.0448992  57.4132866  33.3708185  31.8660012
  56.4248629  34.1040325  31.2621320  56.7579940  33.7986628  31.9027707
  45.5585536  28.4195833  28.7801871  44.9338606  28.4314225  28.1727824
  45.2231130  28.8956008  29.4293111  45.4171027  28.4914350  28.7858439
  45.7427284  26.7620951  14.8374556  45.3940089  27.4140676  15.3006105
  45.2623730  26.7478064  14.1098427  45.6197528  26.8564005  14.7985647
  53.3031302  37.0621995  18.9443318  54.0265500  37.5280108  18.8007891
  52.8631893  37.1295605  18.1940915  53.3446994  37.1405832  18.8128099
  52.7696584  22.1950216  31.5527529  52.2737145  22.3913890  30.8619096
  53.5265646  22.5942884  31.3816330  52.8083409  22.2827950  31.4247666
  50.0399463  25.8692562  28.1430839  50.0641951  25.3352674  27.4543619
  50.2910937  25.3609871  28.8056430  50.0809382  25.7153466  28.1395484
  46.3200786  24.5963380  27.5236584  46.3599157  25.0972587  28.2371291
  45.4950450  24.6873774  27.2542507  46.2040312  24.6845196  27.5887122
  46.1151193  29.3879482  20.3500600  46.2554154  29.8851946  21.0529242
  46.6133726  28.6865776  20.4914814  46.2092274  29.3581460  20.4752179
  46.1451415  30.2546593  17.6793177  46.7796495  30.8507018  17.6142639
  46.2277026  29.9550050  18.4939047  46.2507966  30.2987501  17.7896264
  59.1233981  32.7862070  30.5479541  59.7151821  33.4259321  30.5797739
  59.5592976  32.0885107  30.8371608  59.2752412  32.7780420  30.5960374
  47.7230398  26.1860568  17.6538619  48.0446239  25.7063650  16.9997882
  47.9857342  26.9960214  17.4629431  47.8096424  26.2350466  17.5294111
  53.1189553  25.5732762  30.0162098  53.5444625  25.1205288  29.4045625
  52.5046546  25.0192833  30.2926886  53.0918199  25.4246738  29.9667124
  42.6504403  32.4514433  20.9482723  43.1596633  33.0478941  21.3294029
  43.1238675  32.1840407  20.2659143  42.7947779  32.5000249  20.9037246
  53.5635151  41.1242700  19.1041379  52.8464461  40.9503562  18.6388616
  54.2141889  40.8895272  18.5716865  53.5537002  41.0638492  18.9570597
  51.5583776  22.0447862  23.4252675  50.9152094  21.8945508  23.9937814
  51.2183183  21.7990207  22.6601780  51.4128853  21.9859984  23.3955690
  56.1483122  30.0007289  22.8482684  55.4774312  30.5436991  22.7195749
  56.8422873  30.4702144  22.6064379  56.1511990  30.1505560  22.7938212
  56.3111250  26.4563172  25.7573057  56.6638860  26.0292895  26.4318856
  55.4526051  26.3714016  25.8874134  56.2360695  26.3807913  25.8768068
  54.3094516  29.7198541  29.7057899  54.2892443  29.5381836  30.5592678
  54.3573716  30.5910559  29.6817483  54.3129157  29.8215079  29.8281194
  50.7841509  28.1268692  19.1529283  50.1906349  28.4485688  18.6013850
  50.8216787  27.2809787  18.9450389  50.7015898  28.0493020  19.0412054
  57.7435310  21.5781584  26.6857370  57.2366175  20.8710724  26.6178547
  58.5402744  21.2474773  26.8158446  57.7862549  21.4254735  26.6956365
  53.6599326  28.0848196  22.5831033  53.4313019  28.1080898  21.7409392
  53.9197402  27.2605663  22.7026044  53.6645514  27.9664276  22.4756231
  46.7144088  26.6224743  23.8785229  47.1901455  26.9841822  23.2435410
  46.2132688  27.2781210  24.1585372  46.7109447  26.7718931  23.8261970
  59.9455450  36.0946511  19.6698234  60.3289056  36.8437867  19.8996331
  59.1499563  36.3412330  19.4110223  59.8849232  36.2416204  19.6655808
  48.7570742  28.7665942  17.2458613  49.1369706  28.7845572  16.4609728
  48.0163338  29.2119931  17.1249460  48.7039579  28.8347717  17.1122181
  56.3856032  27.0748134  22.8334192  56.3850258  26.9196790  23.6918468
  56.1812212  27.9211121  22.7775577  56.3555810  27.1768754  22.9522131
  54.1096884  31.7545635  26.4870399  54.6050549  31.0368630  26.4474419
  53.2996660  31.4516433  26.3724886  54.0640777  31.6043282  26.4644124
  49.5555496  35.6043449  18.6367403  48.7466818  35.2810122  18.5900712
  50.0630404  34.8976671  18.5695652  49.5105162  35.4524765  18.6197697
  56.1748703  34.5049323  29.1747527  56.6003775  33.9823745  28.6217952
  55.8105623  35.1030160  28.6536150  56.1835306  34.5159550  29.0156537
  52.7627302  38.2183587  25.5048685  53.2338481  38.9323850  25.6738670
  53.0987481  37.6182337  26.0408554  52.8822417  38.2355051  25.6081061
  49.6796797  22.9911058  32.4606780  49.8124703  22.1942051  32.7887755
  50.0641950  23.5177461  33.0405055  49.7553126  22.9510974  32.5950282
  52.7529153  19.9141384  29.0587873  51.9475116  19.8039113  29.3755711
  52.6235888  20.0153840  28.2017739  52.6149285  19.9125054  28.9795913
  56.2095113  26.0786876  29.6527570  55.6258102  26.5796082  29.2405137
  56.5299407  25.5716432  29.0191893  56.1708288  26.0778711  29.4986077
  48.7489912  24.9927471  19.9286245  49.5705607  25.1625783  19.6867939
  48.2859563  25.1474731  19.2052542  48.8021074  25.0409203  19.7857889
  47.3385244  22.9870233  30.7084673  47.8829657  22.6461360  31.2989015
  47.3922180  23.8455694  30.8505958  47.4274364  23.0625492  30.8166547
  69.4373225  46.6717446  21.7628595  69.4067230  47.5262082  21.9346864
  70.0354574  46.3712738  22.3214739  69.5210383  46.7533942  21.8703397
  62.6372910  45.7593097  26.5181525  61.7810806  45.9201595  26.5690642
  62.6840564  44.8885161  26.5386586  62.5172022  45.6543899  26.5287591
  65.9466627  52.0279622  36.1241982  66.6533394  51.5331653  36.2528916
  66.1354562  52.4688704  35.3944640  66.0794532  52.0197973  36.0351027
  62.4739010  55.7181184  17.7104304  62.1390378  56.3958106  17.2748526
  62.9865880  55.3286495  17.1221176  62.5004591  55.7605762  17.5591096
  62.0143301  57.6695453  23.6515416  62.3982680  58.2382351  23.1120191
  61.9502442  56.9444963  23.1721232  62.0616728  57.6470916  23.5009278
  65.4824731  47.8185141  29.1613177  66.0280691  48.4970227  29.2207147
  65.4241608  47.6772601  28.3014759  65.5540646  47.8977142  29.0425238
  58.5998806  55.3074207  24.5481529  58.7009169  54.4974561  24.8578657
  58.0040551  55.2131153  23.9181208  58.5271345  55.1739235  24.5007768
  67.2589800  49.2469748  20.0346905  67.1429326  49.9977434  20.4639043
  68.0545687  48.9893701  20.2842992  67.3594389  49.3204595  20.1350996
  58.4399546  60.2251796  25.9496386  59.0837001  60.6664960  26.3392544
  58.7655801  59.4205222  25.8626644  58.5831374  60.1716991  25.9941863
  51.7963850  51.3294493  24.1733863  51.5614035  50.4962146  24.0666132
  51.9349491  51.6099159  23.3595064  51.7819513  51.2477997  24.0376218
  54.0953938  43.4980224  27.0718171  53.4758970  42.9072871  26.9028186
  53.9937801  44.0891659  26.4382494  53.9891613  43.4984306  26.9523160
  59.1420125  53.2363771  21.3216247  59.4635967  53.7768978  20.7177555
  59.7892222  52.6660542  21.4538537  59.2846181  53.2322946  21.2523283
  61.1921834  45.2379766  21.4050634  61.8901998  45.4167893  21.8972097
  61.5074166  44.7150105  20.7821023  61.3417171  45.1873538  21.3852644
  61.3809769  51.6250211  21.3930425  61.8203404  51.0167311  21.8385198
  61.2314432  51.2457584  20.6215890  61.4231235  51.4788682  21.3449593
  61.3867503  53.0649128  28.2456143  61.6690746  52.2700534  28.0242899
  62.1153664  53.5429716  28.2661204  61.5357067  53.0183725  28.2159159
  59.3648697  40.6072162  25.4871909  59.0352027  41.0583306  24.8175607
  58.6893699  40.5288326  26.0344915  59.2159133  40.6623297  25.4695132
  64.9819105  49.9777392  18.3461195  64.8970401  50.8338359  18.4910763
  65.4703489  49.7021716  19.0143354  65.0408003  50.0634713  18.4663276
  66.5725105  36.5957685  23.7321519  66.2578546  37.2861164  24.1641942
  66.0552047  36.5402467  23.0307020  66.4489575  36.6892574  23.6918468
  65.9137539  46.5962186  19.8458930  65.3849010  46.8121820  20.5056236
  66.4362559  47.2898325  19.7659899  65.9125992  46.7305323  19.9314529
  71.3685592  52.1708491  25.2191974  70.5383295  52.3819134  25.3825391
  71.3194844  51.3445545  24.9434258  71.2392327  52.0798097  25.2029340
  57.8037146  50.4925403  18.6466398  57.2194362  50.9975434  19.0532262
  57.4007242  50.2667790  17.9062990  57.6576450  50.5333651  18.5971423
  59.4295329  55.0012345  28.0539884  58.9122271  54.6419760  27.4501192
  60.1269720  54.4774519  28.0645950  59.4560910  54.8710033  27.9670142
  63.0858921  55.4507159  34.0156057  63.1742267  55.2633299  34.8634267
  63.5148634  54.8044588  33.6160904  63.1621023  55.3270166  34.0827808
  60.6529381  54.7338319  32.9973719  60.0900216  54.3210929  33.5213380
  61.4150404  54.6591224  33.4166862  60.6823830  54.6615719  33.1366719
  62.2614361  46.7391055  17.1235318  62.5010365  46.9469039  16.3110661
  62.5830202  45.9348564  17.2324263  62.3451519  46.6505156  17.0195871
  57.5704651  38.6684451  20.9694856  58.3250619  39.0362768  20.7311906
  57.3932186  39.0424005  21.7374036  57.6559130  38.7782639  21.0479745
  56.2125372  56.7236340  25.6010349  56.9145952  56.2088329  25.6583106
  56.1322855  57.0510491  26.4057224  56.3049133  56.6950566  25.7283141
  70.8639550  44.8178891  29.0142396  70.0267971  44.8881078  29.2489990
  70.8327781  44.8203386  28.1416698  70.7357832  44.8289118  28.9201944
  55.9261716  41.0754770  17.6672969  55.7437289  41.2926651  16.8413962
  56.7887329  41.1893782  17.7231584  56.0266305  41.1244668  17.5527456
  55.5376148  52.9142692  25.1095957  56.3765047  53.1465625  25.1569719
  55.5687917  52.0447003  25.0402993  55.6657865  52.8199638  25.1060602
  61.6061435  38.0781180  20.7021993  62.3347595  37.8997135  20.2560149
  61.6956328  38.9199260  20.9129171  61.7268097  38.1765059  20.6675511
  65.5869736  49.0134568  24.6054287  66.3427251  49.4466082  24.6443196
  65.6932060  48.3639337  25.1788923  65.7139906  48.9812052  24.6952313
  68.6249907  52.8407845  25.3556690  68.1885139  52.8444587  26.1115661
  68.2912822  53.5213344  24.9236267  68.5112527  52.9420301  25.4037523
  68.5447390  39.8821673  27.5986118  69.1873298  39.9519777  28.1848033
  68.7970410  39.2150896  27.0965660  68.6769522  39.7948021  27.6113397
  63.3549374  56.7926280  30.3266296  62.5564620  56.5525780  30.5840165
  63.8035385  56.8440673  31.0733344  63.3023985  56.7648671  30.4751220
  71.7594253  49.5588765  24.2476327  72.4210687  48.9979433  24.1472236
  71.1185665  49.0640796  24.5729018  71.7623121  49.4025174  24.2808667
  62.6471061  52.8558896  16.5557251  63.0622209  52.5243920  15.8641746
  61.8162990  52.6227799  16.4277387  62.5859069  52.7730152  16.4348098
  68.0459084  50.5754147  23.9888316  68.2814673  50.7199346  23.1615167
  68.1948647  51.3396555  24.3819830  68.1024887  50.7093202  23.9251920
  69.8749540  49.4155813  21.8257920  70.2057758  49.9483453  21.2198015
  70.4482629  49.4694701  22.4819871  70.0083220  49.5025382  21.8335702
  65.0881430  47.2620716  22.5081500  65.1828284  48.0010010  22.9621125
  64.4640273  46.8338191  22.9416065  65.0090460  47.3082037  22.6389648
  65.3404451  49.1069456  15.7418452  65.2584613  49.1771643  16.6073439
  65.9784171  49.6699200  15.5502193  65.4224288  49.2008427  15.8408401
  58.6997622  48.8730194  25.2092978  58.4416866  48.0401929  25.1824278
  58.7546105  49.0987807  24.3685479  58.6697400  48.7827965  25.0813115
  63.7798672  40.9758644  25.3097071  63.0754999  40.4867830  25.4680990
  63.8283647  40.9881119  24.4385515  63.6828724  40.9048292  25.2036411
  57.6732334  46.4267956  25.6957873  57.0981925  46.5860125  26.3321834
  57.2968010  45.7903365  25.2326324  57.5335147  46.3565769  25.7212431
  70.9828892  44.6566310  23.3298081  70.7265457  43.8446252  23.1395964
  71.8258206  44.6643877  23.1028269  71.0694917  44.5378308  23.2682899
  65.1631984  38.5965934  28.0674236  65.5442496  37.9144105  28.4542110
  64.3595269  38.3075536  27.8849900  65.1008446  38.4532983  28.0978292
  62.4444561  49.1289910  18.7527058  63.2585200  49.4204803  18.6409830
  62.3803702  48.4749772  18.1785351  62.5547300  49.0755105  18.6515896
  68.6654051  51.8115906  33.1656634  68.4292689  50.9803971  33.0468695
  69.3097280  51.7601513  33.7511478  68.7248722  51.6813594  33.2342528
  58.3152469  52.6011427  23.8799371  58.9526416  52.3623175  24.4251164
  58.7407541  52.8048586  23.1452531  58.4728636  52.5962438  23.8516528
  58.9555284  47.8213717  18.2174260  59.3400437  47.6021424  18.9690805
  58.7066905  48.6476663  18.3475336  58.9757357  47.9111863  18.3475336
  69.6890472  51.5960355  29.2284929  69.3836289  52.3288412  29.5898244
  68.9696688  51.1898284  28.9477715  69.5377814  51.6442088  29.2398066
  60.6973941  53.0783850  25.5593157  60.7712950  52.9159022  26.4135007
  61.5143448  53.2674040  25.3153638  60.8290300  53.0820592  25.6491182
  75.3892264  48.2353356  28.5553273  75.3216764  48.2549315  27.6855859
  75.3747926  49.0783683  28.7808943  75.3771020  48.3627090  28.4605750
  54.4579698  53.4241713  22.5887600  53.6317816  53.6703450  22.4621879
  54.5191689  53.3453794  23.4549658  54.3453865  53.4486662  22.6976545
  56.6755722  39.4910654  23.5483040  55.8078147  39.5633253  23.6140650
  56.9630926  40.2932733  23.7371016  56.5895470  39.6204801  23.5857807
  65.7988610  39.6388513  31.8794362  66.5442203  39.4498324  31.4657788
  65.3825915  40.1646751  31.3208219  65.8473585  39.6890659  31.7358935
  59.2378527  56.0418593  20.2906630  59.5276825  55.6507574  19.5665857
  59.9682008  56.2235298  20.7311905  59.3885411  56.0112407  20.2489437
  73.1750881  47.0097742  26.8299867  73.7258803  46.3765811  27.0696959
  73.1594997  47.5413135  27.5215371  73.2536078  46.9946690  26.9678725
  57.1784443  58.0185976  23.3566780  56.9584738  57.7283330  24.1493447
  56.9578965  57.3600931  22.8284692  57.1132037  57.8785684  23.3955689
  56.0901390  50.1059292  25.6222482  55.8014638  49.4796763  26.1568209
  56.9584738  50.0479579  25.6887162  56.1761642  50.0046836  25.7113436
  66.8779288  45.2494075  25.9404463  66.5344053  44.5284411  26.2911713
  66.9772330  45.0407927  25.0982822  66.8421330  45.1118279  25.8676143
  59.3452398  59.3915365  22.1397472  59.9976456  58.8591808  22.3688498
  58.6478007  59.0384018  22.5265346  59.3383116  59.2604888  22.2309640
  56.2933663  51.7454543  21.5464847  57.0479631  52.1267582  21.7600309
  55.7004276  52.1965687  22.0011543  56.3170377  51.8683370  21.6447725
  67.3392317  51.7119780  21.4828452  67.9050349  52.3712989  21.3986994
  66.6920220  52.0569478  21.9544854  67.3271073  51.8601721  21.5401208
  54.6023074  42.9668913  20.9899917  54.3147870  42.5970184  20.2531864
  55.2893542  43.4363769  20.7283622  54.6611971  42.9815883  20.8414992
  63.8098895  54.6558564  20.9065531  63.5685571  53.9226424  20.4992596
  63.9900228  55.2045421  20.2531864  63.8006519  54.6280955  20.7495754
  59.0398215  49.9467124  22.3186453  58.8440998  50.5541858  21.7246756
  59.2632561  49.2535067  21.8378127  59.0432856  49.9344649  22.1602534
  57.4376745  46.8321861  22.4367321  58.1599397  46.9963020  21.9771127
  56.9584738  47.5531526  22.3306661  57.4740476  46.9620091  22.3532935
  65.3970253  43.1685660  27.8164006  64.5581354  43.1946939  27.5802270
  65.4674620  43.8156396  28.3969353  65.2838646  43.2681786  27.8673123
  63.8439531  40.0671037  22.5491622  64.5465884  39.8678786  22.0711581
  63.5783720  39.2946980  22.8560466  63.9086164  39.9234003  22.5237064
  69.2727777  48.3753647  25.1025248  69.1861751  48.5309073  25.9560027
  68.8178257  49.0191723  24.7284653  69.1931033  48.4929402  25.1732355
  52.1751268  43.7450126  21.8385198  52.2767405  44.5476287  22.1666173
  52.9707155  43.5437462  21.5408278  52.3079174  43.8336024  21.8420553
  63.1453593  45.6964394  23.7250808  62.8988307  45.6160145  24.5587597
  63.4738716  44.9117862  23.5313335  63.1574836  45.5690659  23.8198331
  67.0401642  52.4047753  27.5137589  66.9016001  53.1028799  28.0186331
  66.2601640  52.2496410  27.1573771  66.9044869  52.4847920  27.5363863
  65.3779727  48.7044129  33.7659971  65.3727765  47.8323945  33.7702397
  66.0840721  48.9032298  33.2929426  65.4824731  48.6048003  33.6967006
  58.1778375  56.6223884  30.0034817  58.3267939  56.0626800  29.3508222
  58.9578377  56.7015886  30.3867336  58.3152469  56.5509450  29.9631767
  68.5355015  51.7626007  18.2754088  68.1561823  50.9763145  18.2683377
  67.8721260  52.3112864  18.1325732  68.3813489  51.7270831  18.2534885
  60.7031676  56.7938527  31.2819308  60.6275347  56.1247338  31.8370097
  60.6321535  57.4956316  31.7959975  60.6812283  56.7983435  31.4396156
  65.9899640  34.7051707  25.6788169  66.1083209  35.1628170  24.9455472
  65.8161816  33.8996968  25.3924387  65.9818811  34.6545479  25.5289103
  61.3601923  55.3139526  22.1142914  62.1251814  55.0449170  21.7925579
  61.2580013  54.8289537  22.8312977  61.4583418  55.2029091  22.1722742
  63.8820583  52.3451710  14.0942864  64.6493568  52.4051835  13.6848715
  63.4351892  51.7732151  13.6099182  63.9294010  52.2688286  13.9620574
  64.7798379  51.1506366  26.3795596  64.1043381  50.9191598  26.8808983
  64.7890755  50.5427549  25.7537701  64.6816883  51.0265291  26.3611748
  66.7815113  54.0071498  18.6105774  66.8634951  54.8138484  18.2867225
  67.2664856  54.0267457  19.3346547  66.8652271  54.1292161  18.6692673
  60.0923310  60.2006847  29.7397309  60.5819240  59.5017636  29.5572974
  59.5207542  59.9030717  30.3273366  60.0807840  60.0533071  29.7998350
  55.8794062  49.1808386  22.7103824  56.0358681  49.1155188  23.5659816
  56.2194655  49.9556938  22.4982504  55.9527296  49.2857584  22.8058419
  62.4173206  48.5566269  21.5797188  62.9588752  48.0536650  22.0435808
  62.7319765  48.5031464  20.7686673  62.5437603  48.4745690  21.5281000
  66.2890314  52.7668917  38.6924100  67.1025179  52.4954065  38.8529232
  66.1285280  52.4676456  37.8884296  66.3860262  52.6823843  38.5969506
  60.5859656  53.9483621  18.8637216  60.6552476  53.0898159  19.0030216
  61.3648111  54.1655502  18.5356240  60.7112506  53.8536485  18.8354373
  64.9767143  56.3721322  23.0773709  64.5846935  56.0688037  22.3596575
  65.1320216  57.2090412  22.8878663  64.9420733  56.4505159  22.9430206
  52.4528323  46.3643336  23.0264592  52.8327288  46.7827881  22.3624859
  51.8783688  46.9456792  23.3333435  52.4239648  46.5121195  22.9741333
  65.1406818  52.9371311  23.0179739  64.7821473  53.1085954  23.7943772
  64.6545529  53.3984516  22.4607738  65.0165515  53.0310282  23.0505009
  62.9577204  36.5602509  26.6206831  62.0870762  36.5341230  26.5740140
  63.2117546  36.3879702  25.8032677  62.8670764  36.5312653  26.4926968
  59.9295184  48.6170476  15.5579974  60.2187709  49.3935359  15.8323548
  60.0166983  48.1059208  16.2594473  59.9849440  48.6562395  15.7022472
  62.0518578  39.1101698  29.9073154  61.6650331  39.1350729  30.6886684
  61.5651515  38.5443376  29.4547670  61.9231087  39.0297449  29.9561057
  66.3011558  53.8275207  33.9646940  66.9391278  53.3335402  33.6309396
  65.6585649  53.7552607  33.3799167  66.3005784  53.7434215  33.8289295
  68.0268558  45.6764353  28.5312856  67.5996166  45.5890701  27.7760956
  67.3894611  45.7842128  29.1167700  67.8698165  45.6797013  28.5058298
  61.7175720  35.9968683  32.1983414  62.3468838  36.5328983  31.9204484
  61.8861583  35.9046042  33.0496979  61.8353514  36.0630046  32.2831942
  66.3565814  54.5195015  30.6052297  67.1458192  54.1684080  30.7254379
  66.5309412  55.3331403  30.3428931  66.4986096  54.5880872  30.5840165
  53.5734692  45.5523278  25.4864837  53.1791389  45.6266290  24.7114946
  53.0174808  45.9381224  26.0373198  53.4337504  45.6205052  25.4532496
  65.2099638  38.5304572  25.1668716  65.4149232  38.4626880  26.0125713
  64.8826062  39.3363393  25.0989893  65.1914886  38.6390512  25.2828371
  58.9641887  43.1685660  21.4722385  59.2401621  42.4504572  21.0599953
  59.5640556  43.7670580  21.2643491  59.0935151  43.1506031  21.3803147
  68.4633326  39.0836336  24.6471481  67.8507640  39.5706738  25.0325213
  68.5597501  38.4079827  25.1909132  68.3871224  39.0554645  24.7850339
  62.4652407  40.8399177  19.7468980  62.9196154  41.0109738  20.4716825
  62.9392453  40.2267288  19.3466756  62.6020727  40.7750062  19.7942742
  72.1058354  50.1553273  30.0748997  72.1641478  50.6039922  30.8208974
  71.4724822  50.5652086  29.6379077  72.0209649  50.2827007  30.1201545
  65.7457449  55.7756815  26.5103743  65.5477137  56.2647629  25.8159955
  65.1245160  55.9798056  27.0887877  65.6245013  55.8773353  26.4926967
  59.8065427  47.5441712  20.8513988  60.5507472  47.9315988  21.0896937
  59.9526123  46.6999137  21.0154475  59.9376012  47.4772184  20.9107957
  61.7245003  39.3391970  25.8845849  60.8781048  39.5114778  25.7587199
  61.7216135  38.5341314  26.2211677  61.5992152  39.2452999  25.9156976
  62.7943303  43.1167185  26.7507907  62.3203257  42.5908947  27.2613218
  63.1661439  42.5696658  26.1822768  62.7793192  42.9583181  26.7423054
  69.0580034  48.1769561  28.1614687  68.8178256  47.3375976  28.1657114
  69.5372041  48.2569727  28.8855461  69.0932217  48.0650960  28.2689490
  64.7226803  44.0103739  19.8133661  64.1949821  44.0932483  19.1239370
  65.1822511  44.7521611  19.8098305  64.7128653  44.1324402  19.7108356
  71.0585221  44.9571018  26.1143947  70.8194991  44.9166852  25.2764731
  71.2219122  45.8042170  26.2409668  71.0475524  45.0763103  26.0097428
  67.6631251  49.3420967  32.0448992  68.3865450  48.8893493  31.8660012
  67.3981213  49.6225633  31.2621320  67.7312524  49.3171936  31.9027707
  56.7159868  42.2806259  14.8374556  56.3672672  42.9325984  15.3006105
  56.2356314  42.2663372  14.1098427  56.5930112  42.3749313  14.7985647
  64.2763885  52.5807303  18.9443318  64.9998084  53.0465416  18.8007891
  63.8364476  52.6480913  18.1940915  64.3179577  52.6591140  18.8128099
  63.4450040  49.4404845  30.1944007  62.8307033  48.8962896  30.4892642
  63.9617325  48.9269082  29.7149823  63.4305703  49.2841254  30.1668235
  62.6846337  50.5109115  27.9288305  62.2573945  49.8858834  27.4953741
  62.6771282  50.2284037  28.7547313  62.6205479  50.3761896  27.9868133
  63.7429167  37.7135524  31.5527529  63.2469729  37.9099198  30.8619096
  64.4998229  38.1128192  31.3816330  63.7815992  37.8013258  31.4247666
  61.0132047  41.3877870  28.1430839  61.0374534  40.8537982  27.4543619
  61.2643521  40.8795179  28.8056430  61.0541966  41.2338774  28.1395484
  57.2933369  40.1148688  27.5236584  57.3331741  40.6157895  28.2371291
  56.4683034  40.2059082  27.2542507  57.1772895  40.2030504  27.5887122
  57.0883776  44.9064789  20.3500600  57.2286738  45.4037254  21.0529242
  57.5866309  44.2051084  20.4914814  57.1824857  44.8766768  20.4752179
  57.1183999  45.7731900  17.6793177  57.7529078  46.3692325  17.6142639
  57.2009610  45.4735358  18.4939047  57.2240550  45.8172809  17.7896264
  70.0966565  48.3047378  30.5479541  70.6884405  48.9444629  30.5797739
  70.5325559  47.6070415  30.8371608  70.2484996  48.2965728  30.5960374
  58.6962982  41.7045876  17.6538619  59.0178823  41.2248958  16.9997882
  58.9589925  42.5145522  17.4629431  58.7829007  41.7535774  17.5294111
  61.9259955  52.7264750  31.1737435  61.4185046  53.2800597  31.6178066
  61.6286601  52.7873040  30.3556210  61.8064839  52.8171061  31.1185892
  53.6236987  47.9699741  20.9482723  54.1329216  48.5664249  21.3294029
  54.0971259  47.7025715  20.2659143  53.7680362  48.0185557  20.9037246
  64.5367735  56.6428008  19.1041379  63.8197045  56.4688870  18.6388616
  65.1874472  56.4080580  18.5716865  64.5269585  56.5823800  18.9570597
  62.5316360  37.5633170  23.4252675  61.8884678  37.4130816  23.9937814
  62.1915767  37.3175515  22.6601780  62.3861437  37.5045292  23.3955690
  67.1215706  45.5192596  22.8482684  66.4506896  46.0622299  22.7195749
  67.8155456  45.9887452  22.6064379  67.1244574  45.6690868  22.7938212
  61.1702440  57.6589308  28.0794442  60.9468094  56.9008138  28.4478469
  60.6812283  57.6887330  27.3574882  61.0645889  57.5511533  28.0271183
  67.2843834  41.9748480  25.7573057  67.6371444  41.5478203  26.4318856
  66.4258635  41.8899324  25.8874134  67.2093278  41.8993221  25.8768068
  55.9827518  44.6056000  23.8155904  55.2639508  45.0220132  24.0828767
  56.3539881  45.1710239  23.2647542  55.9319450  44.7505281  23.7738711
  65.2827099  45.2383849  29.7057899  65.2625027  45.0567144  30.5592678
  65.3306300  46.1095867  29.6817483  65.2861740  45.3400387  29.8281194
  59.8180897  57.8789767  25.5331527  59.4041295  57.2163897  25.1435368
  60.5028271  58.0267625  25.0127221  59.8579268  57.8030425  25.3988024
  63.1846191  57.0379852  26.2855143  62.7862474  57.1482122  25.5175964
  62.5697410  57.2461918  26.8681703  63.0345080  57.0853420  26.2586443
  61.7574093  43.6454000  19.1529283  61.1638932  43.9670996  18.6013850
  61.7949371  42.7995095  18.9450389  61.6748482  43.5678328  19.0412054
  68.7167894  37.0966892  26.6857370  68.2098758  36.3896031  26.6178547
  69.5135327  36.7660081  26.8158446  68.7595133  36.9440043  26.6956365
  64.6331909  43.6033504  22.5831033  64.4045602  43.6266206  21.7409392
  64.8929986  42.7790971  22.7026044  64.6378097  43.4849584  22.4756231
  57.6876672  42.1410050  23.8785229  58.1634038  42.5027130  23.2435410
  57.1865272  42.7966518  24.1585372  57.6842031  42.2904239  23.8261970
  70.9188034  51.6131819  19.6698234  71.3021639  52.3623175  19.8996331
  70.1232147  51.8597638  19.4110223  70.8581816  51.7601512  19.6655808
  59.7303325  44.2851250  17.2458613  60.1102290  44.3030879  16.4609728
  58.9895921  44.7305239  17.1249460  59.6772163  44.3533025  17.1122181
  67.3588616  42.5933441  22.8334192  67.3582842  42.4382098  23.6918468
  67.1544796  43.4396429  22.7775577  67.3288393  42.6954062  22.9522131
  65.0829468  47.2730943  26.4870399  65.5783133  46.5553938  26.4474419
  64.2729243  46.9701741  26.3724886  65.0373361  47.1228590  26.4644124
  60.5288079  51.1228757  18.6367403  59.7199402  50.7995430  18.5900712
  61.0362988  50.4161979  18.5695652  60.4837746  50.9710073  18.6197697
  67.1481287  50.0234631  29.1747527  67.5736358  49.5009053  28.6217952
  66.7838206  50.6215468  28.6536150  67.1567889  50.0344858  29.0156537
  56.7835366  58.3198848  27.9344873  57.0981925  59.1335237  27.9422655
  57.1928780  57.9349067  28.6027032  56.8903464  58.3827551  28.0348964
  63.7359886  53.7368895  25.5048685  64.2071064  54.4509158  25.6738670
  64.0720064  53.1367645  26.0408554  63.8555001  53.7540359  25.6081061
  65.8236871  55.3470208  37.6840757  65.9333836  54.5578769  38.0397504
  66.1527767  55.2576145  36.8815095  65.8889276  55.2176061  37.6183148
  64.3733832  53.5286829  32.2676377  63.8254778  52.9044713  31.9996443
  64.8346861  53.7181101  31.5520457  64.3601042  53.4645879  32.1226809
  63.7261736  35.4326692  29.0587873  62.9207700  35.3224421  29.3755711
  63.5968472  35.5339147  28.2017739  63.5881869  35.4310362  28.9795913
  67.1827697  41.5972184  29.6527570  66.5990685  42.0981390  29.2405137
  67.5031991  41.0901740  29.0191893  67.1440872  41.5964019  29.4986077
  59.7222496  40.5112778  19.9286245  60.5438190  40.6811091  19.6867939
  59.2592147  40.6660039  19.2052542  59.7753658  40.5594511  19.7857889
  63.9392159  54.5337902  28.7985719  64.7590532  54.3900868  29.0602014
  63.6586236  55.1584101  29.3402157  64.0188902  54.6048254  28.9173658
  73.6105494  61.2778405  26.5181525  72.7543389  61.4386903  26.5690642
  73.6573148  60.4070469  26.5386586  73.4904605  61.1729206  26.5287591
  67.9946634  70.8141122  22.2818757  67.2429533  70.4356661  22.0534802
  68.4432645  70.8459556  21.5337567  67.9496300  70.7626730  22.1376259
  76.9199210  67.5464930  36.1241982  77.6265978  67.0516961  36.2528916
  77.1087146  67.9874012  35.3944640  77.0527116  67.5383281  36.0351027
  76.4557315  63.3370449  29.1613177  77.0013275  64.0155535  29.2207147
  76.3974191  63.1957909  28.3014759  76.5273229  63.4162450  29.0425238
  69.5731390  70.8259515  24.5481529  69.6741753  70.0159869  24.8578657
  68.9773135  70.7316461  23.9181208  69.5003928  70.6924543  24.5007768
  62.7696434  66.8479801  24.1733863  62.5346618  66.0147454  24.0666132
  62.9082075  67.1284467  23.3595064  62.7552096  66.7663305  24.0376218
  65.0686521  59.0165532  27.0718171  64.4491553  58.4258179  26.9028186
  64.9670385  59.6076967  26.4382494  64.9624197  59.0169614  26.9523160
  72.1654417  60.7565074  21.4050634  72.8634582  60.9353201  21.8972097
  72.4806750  60.2335413  20.7821023  72.3149754  60.7058846  21.3852644
  64.7955654  62.5617813  29.3161740  64.6714351  63.1480259  29.9511559
  65.4473939  62.0678009  29.6174015  64.8729304  62.5756618  29.4547669
  72.3542352  67.1435519  21.3930425  72.7935988  66.5352619  21.8385198
  72.2047015  66.7642892  20.6215890  72.3963818  66.9973990  21.3449593
  69.8213995  65.7379530  28.5949251  70.4662998  65.2451974  28.2760199
  70.0615773  65.8804317  29.4215329  69.9524581  65.6856973  28.6698784
  72.3600087  68.5834436  28.2456143  72.6423330  67.7885842  28.0242899
  73.0886247  69.0615024  28.2661204  72.5089651  68.5369033  28.2159159
  70.3381281  56.1257470  25.4871909  70.0084611  56.5768614  24.8175607
  69.6626282  56.0473634  26.0344915  70.1891717  56.1808605  25.4695132
  77.5457688  52.1142993  23.7321519  77.2311129  52.8046472  24.1641942
  77.0284630  52.0587775  23.0307020  77.4222159  52.2077882  23.6918468
  64.3313759  71.7265472  25.4490069  63.8481337  72.4515962  25.4249653
  65.1437077  72.0241602  25.5600227  64.3804506  71.8767826  25.4617349
  70.4027913  70.5197653  28.0539884  69.8854854  70.1605068  27.4501192
  71.1002304  69.9959827  28.0645950  70.4293494  70.3895341  27.9670142
  71.6261964  70.2523627  32.9973719  71.0632799  69.8396237  33.5213380
  72.3882988  70.1776532  33.4166862  71.6556413  70.1801027  33.1366719
  68.5437235  54.1869759  20.9694856  69.2983203  54.5548076  20.7311906
  68.3664769  54.5609313  21.7374036  68.6291713  54.2967947  21.0479745
  67.1857956  72.2421648  25.6010349  67.8878535  71.7273637  25.6583106
  67.1055439  72.5695799  26.4057224  67.2781716  72.2135874  25.7283141
  68.2336862  62.4797235  34.7290764  68.4057366  62.3703129  35.5776046
  68.7706220  63.1251640  34.4921957  68.3381866  62.5589236  34.8195861
  66.8994299  56.5940078  17.6672969  66.7169873  56.8111958  16.8413962
  67.7619912  56.7079090  17.7231584  66.9998889  56.6429976  17.5527456
  66.5108731  68.4328000  25.1095957  67.3497631  68.6650933  25.1569719
  66.5420501  67.5632311  25.0402993  66.6390449  68.3384946  25.1060602
  67.1361434  68.8528875  29.4109263  67.6759659  68.7100006  30.0812635
  66.4531381  69.2525626  29.7793289  67.1153588  68.8908546  29.5643684
  72.5794019  53.5966488  20.7021993  73.3080179  53.4182443  20.2560149
  72.6688911  54.4384568  20.9129171  72.7000681  53.6950367  20.6675511
  76.5602319  64.5319876  24.6054287  77.3159834  64.9651390  24.6443196
  76.6664644  63.8824645  25.1788923  76.6872490  64.4997360  24.6952313
  62.5398579  65.0729166  29.5643684  62.2736995  64.2568283  29.7234675
  62.5537144  65.1182321  28.6939200  62.5023302  64.9586071  29.4597166
  66.4456326  59.8714250  16.1795442  65.7314504  59.5852430  16.5917875
  66.9300295  60.2110876  16.8201830  66.4115690  59.8795900  16.3351077
  67.2897186  58.6107544  32.2110692  66.5968983  58.1404524  32.4571423
  67.9057513  58.3845849  32.7852399  67.2781716  58.5074676  32.3319845
  62.9491993  65.8587945  26.8455428  62.7667566  65.8334831  25.9927721
  63.6841662  66.3286883  26.8844337  63.0306057  65.9249307  26.7253347
  66.0137745  62.5772948  33.3537537  66.7377717  62.5625979  33.8402432
  66.1153881  63.2868303  32.8559505  66.1355954  62.6797651  33.3516324
  73.3882694  66.0572033  38.2186484  72.5955675  66.3715545  38.4039104
  73.5031621  66.2723501  37.3807269  73.2878105  66.1355869  38.1224819
  76.0614013  62.7806024  22.5081500  76.1560868  63.5195318  22.9621125
  75.4372857  62.3523499  22.9416065  75.9823043  62.8267344  22.6389648
  74.3166487  65.9592236  33.1571781  74.8905349  65.3219481  33.3120345
  74.2381291  65.9596319  32.2881438  74.3899722  65.8657348  33.0518192
  62.9162903  62.7381446  26.9954495  63.4936406  62.6017897  27.6346740
  62.2176965  62.2817230  27.2500079  62.8983925  62.6503712  27.1276785
  69.6730206  64.3915502  25.2092978  69.4149450  63.5587236  25.1824278
  69.7278688  64.6173115  24.3685479  69.6429983  64.3013273  25.0813115
  74.7531256  56.4943952  25.3097071  74.0487582  56.0053138  25.4680990
  74.8016230  56.5066427  24.4385515  74.6561307  56.4233600  25.2036411
  68.6464918  61.9453264  25.6957873  68.0714509  62.1045432  26.3321834
  68.2700594  61.3088673  25.2326324  68.5067730  61.8751077  25.7212431
  72.3138206  60.4176613  30.5550251  71.9252639  59.9930831  29.9002443
  71.6492905  60.6658763  31.0627278  72.1585134  60.3915334  30.5338119
  58.3921737  61.5893339  23.7102314  58.4781988  61.2125207  24.4915844
  59.0197534  61.2153784  23.2322272  58.4978288  61.4778821  23.7547791
  76.1364568  54.1151242  28.0674236  76.5175080  53.4329413  28.4542110
  75.3327852  53.8260844  27.8849900  76.0741030  53.9718291  28.0978292
  69.2885053  68.1196735  23.8799371  69.9259000  67.8808483  24.4251164
  69.7140124  68.3233894  23.1452531  69.4461219  68.1147746  23.8516528
  63.9797695  70.3585072  27.7633674  64.0201841  70.6299923  26.9353454
  64.5392219  70.8826980  28.1791462  64.0681041  70.4760827  27.7025562
  69.9287868  63.3399025  18.2174260  70.3133021  63.1206732  18.9690805
  69.6799488  64.1661971  18.3475336  69.9489941  63.4297171  18.3475336
  70.0956408  56.6205440  37.9336844  69.7809849  57.3905003  37.6706407
  69.7746341  56.0575696  37.3489071  70.0015327  56.6515709  37.8078194
  71.6706525  68.5969158  25.5593157  71.7445533  68.4344330  26.4135007
  72.4876031  68.7859348  25.3153638  71.8022883  68.6005900  25.6491182
  65.4312282  68.9427021  22.5887600  64.6050399  69.1888758  22.4621879
  65.4924273  68.8639102  23.4549658  65.3186449  68.9671970  22.6976545
  67.6488305  55.0095962  23.5483040  66.7810731  55.0818561  23.6140650
  67.9363510  55.8118041  23.7371016  67.5628053  55.1390109  23.5857807
  76.7721194  55.1573821  31.8794362  77.5174786  54.9683632  31.4657788
  76.3558499  55.6832059  31.3208219  76.8206168  55.2075967  31.7358935
  70.8005856  66.3621647  31.3759761  70.3017549  67.0737415  31.4544649
  71.6106080  66.6822314  31.3377923  70.8461962  66.5148496  31.3816329
  68.1517026  73.5371283  23.3566780  67.9317322  73.2468638  24.1493447
  67.9311548  72.8786239  22.8284692  68.0864620  73.3970992  23.3955689
  67.0633973  65.6244600  25.6222482  66.7747222  64.9982071  26.1568209
  67.9317321  65.5664887  25.6887162  67.1494225  65.5232144  25.7113436
  77.8511871  60.7679383  25.9404463  77.5076637  60.0469719  26.2911713
  77.9504914  60.5593235  25.0982822  77.8153914  60.6303587  25.8676143
  67.2666247  67.2639851  21.5464847  68.0212215  67.6452890  21.7600309
  66.6736859  67.7150995  22.0011543  67.2902960  67.3868678  21.6447725
  69.7272914  59.2202691  36.6722059  68.9172690  59.5260471  36.5611901
  70.2047600  59.9408274  36.7874643  69.6776393  59.3717293  36.6729130
  68.5864473  68.4348412  26.9204962  68.0645227  68.5748704  27.6056827
  68.9738494  67.6759077  27.1107079  68.5668174  68.3433936  27.0506039
  65.5755657  58.4854221  20.9899917  65.2880453  58.1155492  20.2531864
  66.2626126  58.9549076  20.7283622  65.6344555  58.5001190  20.8414992
  70.0130799  65.4652431  22.3186453  69.8173582  66.0727166  21.7246756
  70.2365145  64.7720375  21.8378127  70.0165440  65.4529957  22.1602534
  68.4109329  62.3507169  22.4367321  69.1331981  62.5148327  21.9771127
  67.9317322  63.0716834  22.3306661  68.4473060  62.4805399  22.3532935
  76.3702837  58.6870968  27.8164006  75.5313937  58.7132247  27.5802270
  76.4407204  59.3341704  28.3969353  76.2571230  58.7867094  27.8673123
  66.0616946  64.7565242  31.5421461  66.5738043  65.0349495  30.8930221
  65.7753288  65.4954536  31.9084274  66.0951809  64.9067595  31.5011339
  74.8172115  55.5856345  22.5491622  75.5198468  55.3864093  22.0711581
  74.5516304  54.8132288  22.8560466  74.8818747  55.4419311  22.5237064
  63.1483852  59.2635434  21.8385198  63.2499988  60.0661595  22.1666173
  63.9439739  59.0622770  21.5408278  63.2811758  59.3521332  21.8420553
  69.5800671  56.8491630  31.6022503  69.3883868  56.8646765  32.4521926
  70.4299267  57.0455305  31.5789158  69.6776393  56.8805982  31.7245798
  63.9647584  59.3782612  29.5806319  63.8233076  58.5266552  29.7050827
  64.2488147  59.4211272  28.7568525  63.9855430  59.2582362  29.4773943
  74.1186176  61.2149702  23.7250808  73.8720891  61.1345453  24.5587597
  74.4471300  60.4303170  23.5313335  74.1307420  61.0875967  23.8198331
  76.3512310  64.2229437  33.7659971  76.3460349  63.3509253  33.7702397
  77.0573304  64.4217606  33.2929426  76.4557314  64.1233311  33.6967006
  70.0783204  63.9506421  33.1373791  70.2226579  64.5307629  32.5016901
  70.4258852  64.3282717  33.8423645  70.1510665  64.0927125  33.1472786
  72.2503121  63.1496589  30.9198922  71.5026435  63.3427603  30.5147200
  72.4044646  62.3241809  30.6823044  72.1625549  63.0561700  30.8244328
  69.1510959  72.1409192  30.0034817  69.3000522  71.5812108  29.3508222
  69.9310961  72.2201194  30.3867336  69.2885052  72.0694758  29.9631767
  72.4904898  57.0447140  31.8094326  72.9477512  57.7771114  31.9367118
  72.5661227  56.6213605  32.5681582  72.5695868  57.0904378  31.9395402
  64.7337889  57.2912959  32.8983770  64.1980079  56.6793318  33.2144537
  64.7955654  57.8661095  33.5517436  64.6633522  57.2859887  33.0419196
  76.9632224  50.2237015  25.6788169  77.0815792  50.6813478  24.9455472
  76.7894400  49.4182276  25.3924387  76.9551395  50.1730787  25.5289103
  70.3687276  59.0349244  28.6536150  69.5783351  58.8540704  28.9753486
  70.7647899  58.2576196  28.6366444  70.3104152  58.8936705  28.6988698
  75.7530962  66.6691674  26.3795596  75.0775964  66.4376906  26.8808983
  75.7623338  66.0612857  25.7537701  75.6549467  66.5450599  26.3611748
  72.8825106  61.5109503  33.1359649  72.8184248  62.3719459  33.0079786
  73.0222294  61.1941496  32.3355200  72.8940576  61.5909669  32.9987862
  71.5644200  64.2041642  27.2775852  71.1406449  64.4046141  26.5414870
  71.3889055  63.3570490  27.3900152  71.4755081  64.1090424  27.1849542
  66.8526645  64.6993694  22.7103824  67.0091264  64.6340496  23.5659816
  67.1927238  65.4742246  22.4982504  66.9259880  64.8042892  22.8058419
  73.3905790  64.0751577  21.5797188  73.9321335  63.5721958  22.0435808
  73.7052349  64.0216772  20.7686673  73.5170187  63.9930998  21.5281000
  74.5395059  58.9687882  31.6319488  74.7537029  58.3298796  31.0782842
  73.9228958  59.4133705  31.2027350  74.4800388  58.9398025  31.4869919
  63.4260907  61.8828644  23.0264592  63.8059872  62.3013189  22.3624859
  62.8516271  62.4642100  23.3333435  63.3972232  62.0306503  22.9741333
  76.7034147  60.5776947  32.5702795  75.8910829  60.2702837  32.6515968
  77.1624082  60.0975947  33.1345507  76.6514532  60.4613439  32.6657389
  73.9309788  52.0787817  26.6206831  73.0603346  52.0526538  26.5740140
  74.1850129  51.9065009  25.8032677  73.8403348  52.0497961  26.4926968
  73.7987655  61.9837018  37.3531497  74.2687286  62.6079135  37.7399372
  73.8449535  61.3153994  37.9124712  73.8755531  61.9771699  37.4931569
  70.9558928  54.0894046  28.0780301  70.4397417  53.3974237  28.2031880
  70.3952857  54.7564823  28.0242900  70.7965442  54.0857303  28.0886367
  73.0251162  54.6287006  29.9073154  72.6382915  54.6536037  30.6886684
  72.5384099  54.0628684  29.4547670  72.8963671  54.5482757  29.9561057
  72.6908304  51.5153991  32.1983414  73.3201421  52.0514291  31.9204484
  72.8594166  51.4231350  33.0496979  72.8086098  51.5815353  32.2831942
  72.4922218  56.3025186  34.4709825  73.3195648  56.0310335  34.5268440
  72.5130064  57.0986028  34.8273643  72.6175068  56.3804940  34.5325008
  67.0691708  63.4489049  27.6580086  66.2279715  63.3492923  27.8658980
  67.2781716  64.2184529  28.0094407  66.9756401  63.5481092  27.7407401
  64.5467275  61.0708586  25.4864837  64.1523973  61.1451597  24.7114946
  63.9907392  61.4566532  26.0373198  64.4070088  61.1390360  25.4532496
  76.1832222  54.0489880  25.1668716  76.3881815  53.9812188  26.0125713
  75.8558646  54.8548701  25.0989893  76.1647470  54.1575820  25.2828371
  70.8808373  61.3770448  26.9077683  70.5771511  60.8226436  27.5088091
  70.1787794  61.5562658  26.4205718  70.7324583  61.3215230  26.9247389
  69.9374470  58.6870968  21.4722385  70.2134205  57.9689880  21.0599953
  70.5373140  59.2855888  21.2643491  70.0667735  58.6691338  21.3803147
  68.9426724  68.5920169  31.6149781  68.8347079  68.6022231  32.4811839
  69.1522506  69.4174949  31.4254735  68.9576835  68.7161243  31.7153873
  73.4384991  56.3584485  19.7468980  73.8928737  56.5295045  20.4716825
  73.9125036  55.7452596  19.3466756  73.5753311  56.2935370  19.7942742
  66.9600516  65.8432811  29.0771719  66.3688449  66.4842309  29.0474734
  67.7221540  66.2670428  29.0503018  66.9848777  66.0008649  29.0686866
  67.3561139  57.0034809  29.7439736  67.8162620  57.0773738  30.4814860
  67.4017246  57.8016063  29.3939558  67.4311694  57.1328956  29.8012493
  69.0044489  57.6701504  34.3111764  68.6130054  57.0234851  34.7467541
  69.1730351  58.2612939  34.9306019  68.9715399  57.6615772  34.4674470
  70.7798011  63.0627019  20.8513988  71.5240056  63.4501296  21.0896937
  70.9258707  62.2184445  21.0154475  70.9108596  62.9957492  20.9107957
  72.6977586  54.8577278  25.8845849  71.8513631  55.0300086  25.7587199
  72.6948719  54.0526622  26.2211677  72.5724736  54.7638307  25.9156976
  73.7675887  58.6352493  26.7507907  73.2935841  58.1094255  27.2613218
  74.1394022  58.0881966  26.1822768  73.7525775  58.4768489  26.7423054
  64.1448917  60.6323999  32.1191453  65.0074530  60.5319709  32.0328782
  63.8140700  60.0518709  31.5577025  64.2234113  60.5315626  32.0236859
  75.6959386  59.5289047  19.8133661  75.1682405  59.6117791  19.1239370
  76.1555094  60.2706919  19.8098305  75.6861237  59.6509710  19.7108356
  67.5050703  59.4566448  28.7801871  66.8803773  59.4684840  28.1727824
  67.1696298  59.9326624  29.4293111  67.3636194  59.5284965  28.7858439
  67.6892451  57.7991567  14.8374556  67.3405256  58.4511292  15.3006105
  67.2088897  57.7848680  14.1098427  67.5662695  57.8934620  14.7985647
  64.2176378  67.5166909  30.2205635  63.6876303  66.8259347  30.2700610
  64.4901472  67.5077094  29.3918344  64.1801101  67.4134040  30.1053051
  74.4182624  64.9590153  30.1944007  73.8039617  64.4148203  30.4892642
  74.9349909  64.4454390  29.7149823  74.4038286  64.8026562  30.1668235
  73.6578921  66.0294423  27.9288305  73.2306529  65.4044142  27.4953741
  73.6503865  65.7469345  28.7547313  73.5938062  65.8947204  27.9868133
  66.7741448  61.0659596  30.9976739  66.9334935  60.3102920  31.4028461
  66.5934342  61.6150536  31.6517477  66.7706807  61.0353410  31.1539445
  74.7161751  53.2320832  31.5527529  74.2202312  53.4284506  30.8619096
  75.4730813  53.6313500  31.3816330  74.7548576  53.3198566  31.4247666
  71.9864631  56.9063178  28.1430839  72.0107118  56.3723290  27.4543619
  72.2376104  56.3980487  28.8056430  72.0274549  56.7524082  28.1395484
  59.4972220  64.1894673  27.5773983  59.3915670  64.1441517  26.7126068
  58.7472440  64.5348453  27.8588268  59.3707823  64.2335581  27.4911313
  68.2665953  55.6333996  27.5236584  68.3064324  56.1343203  28.2371291
  67.4415618  55.7244390  27.2542507  68.1505479  55.7215812  27.5887122
  70.4495566  65.1994736  35.6256878  69.5991196  65.3366450  35.7614523
  70.6123693  64.4658514  36.0704580  70.3479429  65.1108837  35.7112477
  69.6880316  62.1494506  29.8210483  68.8572246  62.3168324  29.6145731
  69.6331833  61.7730457  30.6059368  69.5569731  62.1184237  29.9059011
  67.4964099  55.6403399  35.4566893  68.1216803  55.0965532  35.7296326
  67.0414579  55.1598316  34.8874684  67.5212360  55.4892880  35.4128487
  68.0616360  60.4250097  20.3500600  68.2019321  60.9222562  21.0529242
  68.5598893  59.7236392  20.4914814  68.1557441  60.3952076  20.4752179
  68.0916582  61.2917208  17.6793177  68.7261662  61.8877633  17.6142639
  68.1742193  60.9920666  18.4939047  68.1973133  61.3358117  17.7896264
  69.6695565  57.2231184  17.6538619  69.9911406  56.7434266  16.9997882
  69.9322509  58.0330830  17.4629431  69.7561591  57.2721082  17.5294111
  72.8992538  68.2450058  31.1737435  72.3917629  68.7985905  31.6178066
  72.6019184  68.3058348  30.3556210  72.7797423  68.3356369  31.1185892
  75.0654720  56.6103378  30.0162098  75.4909792  56.1575904  29.4045625
  74.4511713  56.0563448  30.2926886  75.0383366  56.4617354  29.9667124
  64.5969570  63.4885049  20.9482723  65.1061800  64.0849557  21.3294029
  65.0703843  63.2211023  20.2659143  64.7412946  63.5370865  20.9037246
  73.5048943  53.0818478  23.4252675  72.8617261  52.9316124  23.9937814
  73.1648350  52.8360823  22.6601780  73.3594020  53.0230600  23.3955690
  78.2576417  57.4933788  25.7573057  78.6104027  57.0663511  26.4318856
  77.3991219  57.4084632  25.8874134  78.1825862  57.4178529  25.8768068
  66.9560102  60.1241308  23.8155904  66.2372091  60.5405440  24.0828767
  67.3272464  60.6895546  23.2647542  66.9052034  60.2690589  23.7738711
  76.2559683  60.7569157  29.7057899  76.2357610  60.5752452  30.5592678
  76.3038884  61.6281175  29.6817483  76.2594324  60.8585695  29.8281194
  74.2006013  67.3456349  35.6306376  74.1601868  66.7006026  35.0451532
  75.0129331  67.2892966  35.9431788  74.3149166  67.2415315  35.5903325
  72.7306676  59.1639308  19.1529283  72.1371516  59.4856304  18.6013850
  72.7681954  58.3180403  18.9450389  72.6481066  59.0863636  19.0412054
  75.6064493  59.1218812  22.5831033  75.3778186  59.1451514  21.7409392
  75.8662569  58.2976279  22.7026044  75.6110681  59.0034892  22.4756231
  69.8883721  60.9753285  32.1856134  69.3762625  60.3674468  32.5441165
  69.7163218  61.6909878  32.6530109  69.7873358  60.9916584  32.3072357
  64.7349436  59.4190860  34.8358495  64.5652026  60.0792235  34.2906702
  64.2915386  59.6297422  35.5570984  64.6448770  59.5476843  34.8620125
  68.6609256  57.6595358  23.8785229  69.1366622  58.0212438  23.2435410
  68.1597855  58.3151826  24.1585372  68.6574615  57.8089547  23.8261970
  73.7652792  58.8977530  34.6258389  74.3224222  58.6691339  33.9936855
  73.4413857  59.6583195  34.3493602  73.7999202  58.9761366  34.4914886
  61.6351501  62.3237726  30.0946985  61.0878220  61.6538372  30.2127854
  62.4243879  61.9567574  30.1590452  61.6703684  62.1702712  30.1215686
  71.4835909  61.9845183  35.5910396  72.2347236  62.2996860  35.9049950
  71.6758486  61.7824354  34.7644318  71.6227323  62.0012565  35.5153792
  70.7035909  59.8036558  17.2458613  71.0834874  59.8216187  16.4609728
  69.9628505  60.2490547  17.1249460  70.6504746  59.8718333  17.1122181
  78.3321199  58.1118749  22.8334192  78.3315426  57.9567406  23.6918468
  78.1277379  58.9581736  22.7775577  78.3020977  58.2139370  22.9522131
  60.3938470  61.5358534  27.2493008  60.2160231  61.0835143  27.9747924
  60.1057492  62.3384695  27.4331486  60.3251423  61.5881092  27.3836511
  76.0562051  62.7916251  26.4870399  76.5515717  62.0739246  26.4474419
  75.2461827  62.4887049  26.3724886  76.0105945  62.6413897  26.4644124
  62.1310940  64.0686258  24.3614767  61.2656459  64.0571948  24.2497538
  62.2309756  63.8816480  25.2085907  62.0185107  64.0392319  24.4703712
  78.1213870  65.5419939  29.1747527  78.5468942  65.0194361  28.6217952
  77.7570790  66.1400776  28.6536150  78.1300473  65.5530166  29.0156537
  67.7567950  73.8384156  27.9344873  68.0714509  74.6520545  27.9422655
  68.1661363  73.4534375  28.6027032  67.8636048  73.9012859  28.0348964
  74.7092470  69.2554203  25.5048685  75.1803648  69.9694466  25.6738670
  75.0452648  68.6552953  26.0408554  74.8287585  69.2725667  25.6081061
  71.6261965  54.0281674  32.4606780  71.7589870  53.2312667  32.7887755
  72.0107117  54.5548077  33.0405055  71.7018293  53.9881590  32.5950282
  75.3466416  69.0472137  32.2676377  74.7987362  68.4230021  31.9996443
  75.8079445  69.2366409  31.5520457  75.3333625  68.9831187  32.1226809
  74.6994320  50.9512000  29.0587873  73.8940283  50.8409729  29.3755711
  74.5701055  51.0524455  28.2017739  74.5614453  50.9495670  28.9795913
  78.1560280  57.1157492  29.6527570  77.5723269  57.6166698  29.2405137
  78.4764574  56.6087048  29.0191893  78.1173456  57.1149327  29.4986077
  70.6955079  56.0298086  19.9286245  71.5170774  56.1996399  19.6867939
  70.2324730  56.1845347  19.2052542  70.7486242  56.0779819  19.7857889
  65.0980970  67.7857265  27.5823481  65.7025827  67.7453099  26.9537302
  64.8908283  68.6328417  27.6127537  65.1569867  67.9045267  27.4939598
  60.3332252  66.7691882  27.4522404  60.2356530  65.9588154  27.7612461
  61.1161122  66.7483676  27.0668672  60.4348389  66.6458972  27.4409267
  36.1885203   6.1259311  12.8836432  36.8322658   6.5672475  13.2732591
  36.5141458   5.3212737  12.7966691  36.3317031   6.0724506  12.9281910
  40.8344578   1.3514674  20.9496104  40.9227924   1.1640815  21.7974314
  41.2634290   0.7052104  20.5500950  40.9106680   1.2277682  21.0167855
  38.4015038   0.6345834  19.9313766  37.8385873   0.2218444  20.4553427
  39.1636061   0.5598740  20.3506909  38.4309486   0.5623235  20.0706766
  40.9464637   0.7823693  23.6139887  41.7305054   0.8954541  23.9795629
  40.7461232  -0.0435170  23.8098573  41.0330663   0.6770413  23.6974273
  41.1035031   2.6933795  17.2606343  40.3050276   2.4533295  17.5180211
  41.5521042   2.7448188  18.0073390  41.0509642   2.6656186  17.4091267
  35.9264032   2.5231400  16.9374864  36.0753596   1.9634316  16.2848269
  36.7064034   2.6023402  17.3207383  36.0638126   2.4516965  16.8971813
  38.4517333   2.6946043  18.2159355  38.3761004   2.0254853  18.7710143
  38.3807192   3.3963831  18.7300021  38.4297939   2.6990950  18.3736203
  37.8408967   6.1014362  16.6737356  38.3304897   5.4025152  16.4913021
  37.2693199   5.8038232  17.2613413  37.8293497   5.9540586  16.7338397
  35.7179797  -1.0257624  18.5489828  35.6100152  -1.0155562  19.4151886
  35.9275579  -0.2002844  18.3594782  35.7329908  -0.9016549  18.6493920
  43.4943106   1.6764330  13.4443790  43.2962794   2.1655144  12.7500001
  42.8730817   1.8805572  14.0227923  43.3730670   1.7780868  13.4267013
  39.6745611  -1.3727734  18.1077482  39.1670702  -0.8191888  18.5518113
  39.3772257  -1.3119445  17.2896257  39.5550496  -1.2821423  18.0525939
  38.9188097   3.5596824  15.0134489  38.6953751   2.8015653  15.3818515
  38.4297940   3.5894845  14.2914929  38.8131546   3.4519048  14.9611230
  40.9331848   2.9387367  13.2195190  40.5348131   3.0489637  12.4516011
  40.3183067   3.1469433  13.8021750  40.7830737   2.9860935  13.1926490
  34.5321023   4.2206364  14.8684920  34.8467582   5.0342752  14.8762701
  34.9414436   3.8356582  15.5367079  34.6389121   4.2835066  14.9689011
  43.5722527   1.2477724  24.6180804  43.6819493   0.4586284  24.9737551
  43.9013424   1.1583660  23.8155142  43.6374933   1.1183577  24.5523194
  41.6877815   0.4345417  15.7325765  42.5076189   0.2908383  15.9942061
  41.4071893   1.0591616  16.2742203  41.7674559   0.5055769  15.8513705
  51.3591151   7.1785920  13.4521572  50.5029046   7.3394418  13.5030689
  51.4058804   6.3077984  13.4726633  51.2390262   7.0736722  13.4627638
  45.7432290  16.7148638   9.2158804  44.9915190  16.3364176   8.9874849
  46.1918302  16.7467071   8.4677614  45.6981957  16.6634245   9.0716306
  54.6684867  13.4472446  23.0582028  55.3751634  12.9524476  23.1868963
  54.8572803  13.8881527  22.3284686  54.8012773  13.4390796  22.9691074
  51.1957250  17.1374007   4.6444351  50.8608619  17.8150929   4.2088573
  51.7084121  16.7479319   4.0561223  51.2222831  17.1798585   4.4931142
  50.7361541  19.0888276  10.5855462  51.1200921  19.6575175  10.0460238
  50.6720683  18.3637786  10.1061279  50.7834969  19.0663739  10.4349325
  54.2042972   9.2377964  16.0953224  54.7498932   9.9163050  16.1547194
  54.1459848   9.0965425  15.2354805  54.2758886   9.3169966  15.9765284
  47.3217046  16.7267030  11.4821576  47.4227409  15.9167384  11.7918704
  46.7258792  16.6323976  10.8521255  47.2489585  16.5932058  11.4347815
  55.9808040  10.6662571   6.9686952  55.8647566  11.4170257   7.3979090
  56.7763927  10.4086524   7.2183039  56.0812630  10.7397418   7.0691043
  47.1617786  21.6444619  12.8836432  47.8055242  22.0857783  13.2732591
  47.4874042  20.8398045  12.7966691  47.3049615  21.5909814  12.9281910
  40.5182091  12.7487316  11.1073910  40.2832275  11.9154969  11.0006179
  40.6567732  13.0291982  10.2935111  40.5037753  12.6670820  10.9716265
  42.8172178   4.9173047  14.0058218  42.1977210   4.3265694  13.8368232
  42.7156042   5.5084482  13.3722541  42.7109854   4.9177130  13.8863207
  47.8638366  14.6556594   8.2556294  48.1854207  15.1961801   7.6517602
  48.5110462  14.0853365   8.3878584  48.0064421  14.6515769   8.1863329
  49.9140074   6.6572589   8.3390681  50.6120239   6.8360716   8.8312144
  50.2292406   6.1342928   7.7161070  50.0635411   6.6066361   8.3192691
  42.5441311   8.4625329  16.2501787  42.4200008   9.0487774  16.8851605
  43.1959596   7.9685525  16.5514062  42.6214961   8.4764133  16.3887716
  50.1028009  13.0443034   8.3270472  50.5421645  12.4360134   8.7725245
  49.9532672  12.6650407   7.5555937  50.1449475  12.8981505   8.2789640
  47.5699652  11.6387046  15.5289298  48.2148655  11.1459489  15.2100246
  47.8101429  11.7811832  16.3555376  47.7010237  11.5864488  15.6038831
  50.1085744  14.4841952  15.1796190  50.3908986  13.6893357  14.9582946
  50.8371904  14.9622539  15.2001251  50.2575307  14.4376549  15.1499205
  48.0866937   2.0264986  12.4211955  47.7570267   2.4776129  11.7515654
  47.4111939   1.9481149  12.9684962  47.9377374   2.0816121  12.4035179
  53.7037346  11.3970215   5.2801241  53.6188641  12.2531182   5.4250810
  54.1921729  11.1214539   5.9483401  53.7626243  11.4827537   5.4003323
  54.6355779   8.0155009   6.7798977  54.1067251   8.2314643   7.4396283
  55.1580799   8.7091148   6.6999946  54.6344232   8.1498146   6.8654576
  60.0903832  13.5901314  12.1532021  59.2601535  13.8011957  12.3165438
  60.0413084  12.7638368  11.8774305  59.9610567  13.4990920  12.1369386
  42.0799415  17.6272987  12.3830116  41.5966994  18.3523477  12.3589700
  42.8922734  17.9249117  12.4940274  42.1290163  17.7775341  12.3957395
  48.1513570  16.4205168  14.9879931  47.6340511  16.0612583  14.3841239
  48.8487961  15.8967342  14.9985997  48.1779151  16.2902856  14.9010189
  51.8077162  16.8699982  20.9496104  51.8960507  16.6826122  21.7974314
  52.2366874  16.2237412  20.5500950  51.8839264  16.7462990  21.0167855
  49.3747621  16.1531142  19.9313766  48.8118456  15.7403752  20.4553427
  50.1368645  16.0784048  20.3506909  49.4042070  16.0808543  20.0706766
  44.9343613  18.1429163  12.5350396  45.6364192  17.6281152  12.5923153
  44.8541096  18.4703315  13.3397271  45.0267373  18.1143389  12.6623188
  59.5857790   6.2371714  15.9482442  58.7486211   6.3073902  16.1830037
  59.5546021   6.2396209  15.0756745  59.4576073   6.2481942  15.8541990
  45.9822519   8.3804750  21.6630811  46.1543023   8.2710645  22.5116092
  46.5191877   9.0259156  21.4262003  46.0867523   8.4596752  21.7535908
  44.2594388  14.3335515  12.0436004  45.0983288  14.5658448  12.0909766
  44.2906157  13.4639827  11.9743039  44.3876106  14.2392462  12.0400649
  44.8847091  14.7536390  16.3449310  45.4245316  14.6107521  17.0152682
  44.2017037  15.1533141  16.7133336  44.8639245  14.7916061  16.4983731
  54.3087976  10.4327391  11.5394334  55.0645491  10.8658905  11.5783243
  54.4150301   9.7832161  12.1128970  54.4358147  10.4004875  11.6292359
  57.3468147  14.2600668  12.2896737  56.9103379  14.2637411  13.0455708
  57.0131063  14.9406167  11.8576314  57.2330767  14.3613124  12.3377569
  51.9197221  16.3009001  23.6139887  52.7037637  16.4139849  23.9795629
  51.7193815  15.4750138  23.8098573  52.0063246  16.1955720  23.6974273
  40.2884236  10.9736681  16.4983731  40.0222651  10.1575798  16.6574721
  40.3022800  11.0189837  15.6279247  40.2508959  10.8593586  16.3937213
  45.0382843   4.5115059  19.1450739  44.3454639   4.0412039  19.3911470
  45.6543170   4.2853364  19.7192446  45.0267373   4.4082191  19.2659891
  52.0767614  18.2119103  17.2606343  51.2782860  17.9718603  17.5180211
  52.5253626  18.2633496  18.0073390  52.0242225  18.1841494  17.4091267
  60.4812493  10.9781588  11.1816374  61.1428927  10.4172257  11.0812283
  59.8403905  10.4833619  11.5069065  60.4841361  10.8217997  11.2148714
  51.3689301  14.2751720   3.4897297  51.7840450  13.9436743   2.7981793
  50.5381231  14.0420622   3.3617434  51.3077310  14.1922976   3.3688145
  40.6977650  11.7595461  13.7795475  40.5153223  11.7342347  12.9267767
  41.4327319  12.2294398  13.8184384  40.7791714  11.8256823  13.6593394
  56.7677324  11.9946971  10.9228363  57.0032913  12.1392169  10.0955214
  56.9166888  12.7589379  11.3159877  56.8243127  12.1286025  10.8591967
  43.7623402   8.4780463  20.2877584  44.4863374   8.4633494  20.7742479
  43.8639538   9.1875819  19.7899552  43.8841611   8.5805167  20.2856371
  58.5967781  10.8348636   8.7597967  58.9275998  11.3676277   8.1538062
  59.1700869  10.8887524   9.4159918  58.7301460  10.9218205   8.7675748
  51.1368351  11.9579548  25.1526531  50.3441332  12.2723060  25.3379151
  51.2517278  12.1731016  24.3147316  51.0363762  12.0363385  25.0564866
  53.8099670   8.6813539   9.4421547  53.9046524   9.4202833   9.8961172
  53.1858513   8.2531015   9.8756111  53.7308700   8.7274860   9.5729694
  52.0652144  11.8599752  20.0911828  52.6391005  11.2226996  20.2460392
  51.9866948  11.8603834  19.2221485  52.1385379  11.7664863  19.9858239
  40.6648560   8.6388961  13.9294542  41.2422063   8.5025412  14.5686787
  39.9662622   8.1824745  14.1840126  40.6469582   8.5511227  14.0616832
  47.4215862  10.2923017  12.1433025  47.1635107   9.4594752  12.1164325
  47.4764345  10.5180630  11.3025525  47.3915640  10.2020788  12.0153162
  46.3950575   7.8460779  12.6297920  45.8200166   8.0052948  13.2661881
  46.0186251   7.2096188  12.1666370  46.2553387   7.7758592  12.6552478
  50.0623863   6.3184129  17.4890298  49.6738296   5.8938346  16.8342489
  49.3978562   6.5666278  17.9967325  49.9070791   6.2922850  17.4678166
  51.1662801  10.5482733   5.6867105  51.9803440  10.8397626   5.5749877
  51.1021943   9.8942596   5.1125398  51.2765540  10.4947928   5.5855943
  57.3872292  13.2308729  20.0996681  57.1510929  12.3996794  19.9808742
  58.0315521  13.1794337  20.6851525  57.4466962  13.1006417  20.1682574
  47.0370710  14.0204251  10.8139417  47.6744657  13.7815998  11.3591211
  47.4625781  14.2241410  10.0792578  47.1946876  14.0155261  10.7856575
  41.7283352  16.2592587  14.6973721  41.7687497  16.5307438  13.8693501
  42.2877876  16.7834495  15.1131509  41.8166698  16.3768342  14.6365609
  47.8442065   2.5212956  24.8676891  47.5295506   3.2912518  24.6046454
  47.5231998   1.9583212  24.2829118  47.7500984   2.5523224  24.7418241
  58.4108712  13.0153178  16.1624975  58.1054529  13.7481235  16.5238291
  57.6914928  12.6091108  15.8817761  58.2596055  13.0634911  16.1738112
  49.4192182  14.4976673  12.4933204  49.4931190  14.3351845  13.3475054
  50.2361688  14.6866863  12.2493685  49.5508540  14.5013416  12.5831229
  64.1110504   9.6546179  15.4893320  64.0435005   9.6742138  14.6195906
  64.0966167  10.4976506  15.7148990  64.0989261   9.7819913  15.3945797
  43.1797938  14.8434536   9.5227647  42.3536056  15.0896273   9.3961926
  43.2409930  14.7646617  10.3889705  43.0672105  14.8679485   9.6316592
  47.9596767  17.4611416   7.2246677  48.2495066  17.0700398   6.5005904
  48.6900248  17.6428121   7.6651952  48.1103652  17.4305230   7.1829484
  61.8969122   8.4290565  13.7639914  62.4477043   7.7958634  14.0037006
  61.8813237   8.9605958  14.4555418  61.9754318   8.4139513  13.9018772
  48.5491513  12.2629162  18.3099807  48.0503206  12.9744930  18.3884696
  49.3591737  12.5829829  18.2717970  48.5947619  12.4156011  18.3156376
  45.9002683  19.4378799  10.2906827  45.6802978  19.1476154  11.0833494
  45.6797205  18.7793754   9.7624739  45.8350277  19.2978507  10.3295735
  44.8119630  11.5252115  12.5562528  44.5232879  10.8989587  13.0908256
  45.6802978  11.4672403  12.6227209  44.8979882  11.4239660  12.6453483
  55.5997528   6.6686899  12.8744510  55.2562294   5.9477234  13.2251760
  55.6990570   6.4600750  12.0322869  55.5639571   6.5311102  12.8016190
  48.0670639  20.8108189   9.0737519  48.7194697  20.2784631   9.3028545
  47.3696247  20.4576841   9.4605393  48.0601357  20.6797712   9.1649687
  45.0151904  13.1647366   8.4804893  45.7697872  13.5460405   8.6940356
  44.4222516  13.6158510   8.9351590  45.0388617  13.2876194   8.5787772
  56.0610557  13.1312603   8.4168498  56.6268590  13.7905813   8.3327041
  55.4138460  13.4762301   8.8884901  56.0489313  13.2794544   8.4741255
  47.4758571   5.1210207  23.6062106  46.6658346   5.4267986  23.4951948
  47.9533257   5.8415789  23.7214690  47.4262049   5.2724808  23.6069177
  46.3350130  14.3355928  13.8545009  45.8130884  14.4756219  14.5396873
  46.7224150  13.5766592  14.0447126  46.3153831  14.2441452  13.9846085
  52.5317135  16.0751387   7.8405578  52.2903811  15.3419248   7.4332643
  52.7118468  16.6238244   7.1871911  52.5224759  16.0473778   7.6835801
  47.7616456  11.3659947   9.2526500  47.5659238  11.9734681   8.6586803
  47.9850801  10.6727891   8.7718174  47.7651097  11.3537472   9.0942581
  46.1594986   8.2514685   9.3707368  46.8817638   8.4155843   8.9111174
  45.6802979   8.9724349   9.2646708  46.1958716   8.3812914   9.2872982
  54.1188493   4.5878483  14.7504053  53.2799594   4.6139762  14.5142316
  54.1892861   5.2349219  15.3309400  54.0056887   4.6874609  14.8013170
  43.8102602  10.6572757  18.4761508  44.3223699  10.9357010  17.8270268
  43.5238945  11.3962051  18.8424321  43.8437466  10.8075111  18.4351386
  57.9946017   9.7946470  12.0365295  57.9079992   9.9501896  12.8900074
  57.5396497  10.4384546  11.6624700  57.9149274   9.9122225  12.1072402
  47.3286328   2.7499146  18.5362550  47.1369525   2.7654280  19.3861973
  48.1784924   2.9462820  18.5129205  47.4262050   2.7813497  18.6585844
  41.7133241   5.2790127  16.5146366  41.5718733   4.4274068  16.6390874
  41.9973804   5.3218788  15.6908572  41.7341087   5.1589877  16.4113990
  51.8671833   7.1157217  10.6590854  51.6206548   7.0352968  11.4927643
  52.1956956   6.3310685  10.4653382  51.8793077   6.9883483  10.7538378
  55.7619882  13.8240577  14.4477636  55.6234241  14.5221622  14.9526378
  54.9819880  13.6689233  14.0913817  55.6263109  13.9040743  14.4703910
  54.0997967  10.1236952  20.7000017  54.0946006   9.2516769  20.7042444
  54.8058961  10.3225121  20.2269473  54.2042971  10.0240826  20.6307053
  47.8268861   9.8513936  20.0713837  47.9712236  10.4315144  19.4356947
  48.1744509  10.2290233  20.7763692  47.8996322   9.9934640  20.0812832
  49.9988778   9.0504104  17.8538969  49.2512092   9.2435119  17.4487247
  50.1530303   8.2249324  17.6163090  49.9111205   8.9569216  17.7584375
  46.8996616  18.0416708  16.9374864  47.0486179  17.4819624  16.2848269
  47.6796618  18.1208709  17.3207383  47.0370709  17.9702273  16.8971813
  49.4249916  18.2131351  18.2159355  49.3493587  17.5440161  18.7710143
  49.3539775  18.9149139  18.7300021  49.4030523  18.2176258  18.3736203
  50.2390555   2.9454655  18.7434373  50.6963169   3.6778629  18.8707165
  50.3146884   2.5221120  19.5021629  50.3181525   2.9911893  18.8735449
  42.4823546   3.1920475  19.8323817  41.9465736   2.5800833  20.1484584
  42.5441311   3.7668611  20.4857483  42.4119179   3.1867402  19.9759243
  50.0820163  16.7332349   9.0482961  50.8470054  16.4641993   8.7265625
  49.9798253  16.2482360   9.7653024  50.1801659  16.6221914   9.1062789
  48.1172933   4.9356759  15.5876197  47.3269008   4.7548219  15.9093533
  48.5133556   4.1583711  15.5706491  48.0589809   4.7944220  15.6328745
  53.5016619  12.5699189  13.3135643  52.8261621  12.3384421  13.8149030
  53.5108995  11.9620372  12.6877748  53.4035124  12.4458114  13.2951795
  50.6310763   7.4117018  20.0699696  50.5669904   8.2726975  19.9419832
  50.7707951   7.0949011  19.2695247  50.6426233   7.4917185  19.9327909
  55.5033354  15.4264321   5.5445821  55.5853191  16.2331308   5.2207272
  55.9883096  15.4460281   6.2686594  55.5870512  15.5484984   5.6032719
  49.3129857  10.1049157  14.2115899  48.8892106  10.3053656  13.4754917
  49.1374712   9.2578005  14.3240198  49.2240738  10.0097939  14.1189589
  48.8141550  21.6199670  16.6737356  49.3037481  20.9210460  16.4913021
  48.2425783  21.3223540  17.2613413  48.8026080  21.4725894  16.7338397
  44.6012302  10.6001209   9.6443871  44.7576921  10.5348012  10.4999863
  44.9412895  11.3749761   9.4322551  44.6745537  10.7050407   9.7398465
  51.1391447   9.9759092   8.5137234  51.6806992   9.4729474   8.9775855
  51.4538006   9.9224287   7.7026720  51.2655844   9.8938513   8.4621046
  55.0108554  14.1861740  25.6264147  55.8243419  13.9146889  25.7869279
  54.8503520  13.8869280  24.8224343  55.1078502  14.1016666  25.5309552
  49.3077896  15.3676444   5.7977262  49.3770717  14.5090982   5.9370263
  50.0866351  15.5848325   5.4696287  49.4330746  15.2729308   5.7694420
  52.2880716   4.8695397  18.5659535  52.5022686   4.2306311  18.0122889
  51.6714615   5.3141221  18.1367397  52.2286045   4.8405541  18.4209966
  53.6985384  17.7914145  10.0113756  53.3065176  17.4880860   9.2936622
  53.8538456  18.6283235   9.8218710  53.6638974  17.8697982   9.8770253
  41.1746563   7.7836159   9.9604638  41.5545528   8.2020704   9.2964906
  40.6001928   8.3649615  10.2673482  41.1457888   7.9314018   9.9081379
  54.4519804   6.4784462  19.5042842  53.6396486   6.1710352  19.5856015
  54.9109739   5.9983462  20.0685554  54.4000189   6.3620954  19.5997436
  53.8625059  14.3564134   9.9519786  53.5039713  14.5278777  10.7283819
  53.3763769  14.8177340   9.3947785  53.7383756  14.4503105   9.9845055
  51.5473311   7.8844534  24.2871544  52.0172943   8.5086650  24.6739418
  51.5935192   7.2161509  24.8464759  51.6241187   7.8779214  24.4271616
  55.0229798  15.2468030  20.8986987  55.6609519  14.7528226  20.5649443
  54.3803890  15.1745431  20.3139214  55.0224025  15.1627039  20.7629342
  56.7486798   7.0957176  15.4652903  56.3214406   7.0083525  14.7101002
  56.1112851   7.2034952  16.0507747  56.5916405   7.0989836  15.4398344
  55.0784055  15.9387838  17.5392344  55.8676433  15.5876903  17.6594426
  55.2527652  16.7524227  17.2768978  55.2204336  16.0073695  17.5180212
  44.8177365   9.3496564  14.5920133  43.9765372   9.2500438  14.7999027
  45.0267373  10.1192044  14.9434453  44.7242058   9.4488607  14.6747448
  42.2952932   6.9716101  12.4204883  41.9009630   7.0459113  11.6454993
  41.7393049   7.3574047  12.9713245  42.1555744   7.0397876  12.3872543
  48.6294030   7.2777963  13.8417730  48.3257167   6.7233952  14.4428138
  47.9273451   7.4570173  13.3545765  48.4810240   7.2222746  13.8587436
  46.6912381  14.4927684  18.5489828  46.5832736  14.5029746  19.4151886
  46.9008162  15.3182464  18.3594782  46.7062492  14.6168759  18.6493920
  44.7086173  11.7440326  16.0111766  44.1174106  12.3849825  15.9814781
  45.4707196  12.1677944  15.9843065  44.7334433  11.9016165  16.0026913
  45.1046796   2.9042324  16.6779783  45.5648277   2.9781254  17.4154907
  45.1502902   3.7023578  16.3279605  45.1797351   3.0336471  16.7352540
  46.7530145   3.5709019  21.2451810  46.3615711   2.9242366  21.6807588
  46.9216008   4.1620454  21.8646066  46.7201056   3.5623287  21.4014516
  60.8276594  11.5746096  17.0089044  60.8859718  12.0232745  17.7549020
  60.1943062  11.9844909  16.5719124  60.7427890  11.7019831  17.0541592
  54.4675689  17.1949638  13.4443790  54.2695378  17.6840452  12.7500001
  53.8463400  17.3990879  14.0227923  54.3463254  17.2966176  13.4267013
  48.5283667   8.9634535   7.7854034  49.2725712   9.3508811   8.0236984
  48.6744364   8.1191960   7.9494522  48.6594253   8.8965008   7.8448004
  51.5161543   4.5360008  13.6847954  51.0421498   4.0101770  14.1953265
  51.8879679   3.9889481  13.1162815  51.5011432   4.3776005  13.6763101
  41.8934573   6.5331515  19.0531499  42.7560186   6.4327224  18.9668829
  41.5626356   5.9526224  18.4917072  41.9719770   6.4323142  18.9576905
  57.7798274   9.5962384  15.0954734  57.5396497   8.7568799  15.0997161
  58.2590281   9.6762550  15.8195508  57.8150458   9.4843783  15.2029537
  59.7803461   6.3763841  13.0483993  59.5413231   6.3359675  12.2104778
  59.9437362   7.2234993  13.1749714  59.7693764   6.4955926  12.9437475
  56.3849491  10.7613790  18.9789038  57.1083690  10.3086317  18.8000058
  56.1199453  11.0418456  18.1961366  56.4530764  10.7364759  18.8367754
  45.2536359   5.3573964  15.7141918  44.6289430   5.3692356  15.1067870
  44.9181954   5.8334139  16.3633158  45.1121851   5.4292481  15.7198486
  41.9662035  13.4174424  17.1545682  41.4361960  12.7266863  17.2040657
  42.2387128  13.4084609  16.3258391  41.9286757  13.3141556  17.0393098
  52.9982125  14.0000126   5.8783365  53.7216324  14.4658239   5.7347938
  52.5582717  14.0673736   5.1280962  53.0397818  14.0783963   5.7468146
  52.1668281  10.8597668  17.1284054  51.5525274  10.3155719  17.4232689
  52.6835566  10.3461905  16.6489870  52.1523943  10.7034078  17.1008282
  51.4064578  11.9301939  14.8628352  50.9792186  11.3051657  14.4293788
  51.3989522  11.6476860  15.6887359  51.3423719  11.7954719  14.9208180
  44.5227105   6.9667112  17.9316786  44.6820592   6.2110436  18.3368508
  44.3419998   7.5158051  18.5857524  44.5192464   6.9360925  18.0879492
  49.7350287   2.8070693  15.0770886  49.7592775   2.2730805  14.3883666
  49.9861761   2.2988002  15.7396477  49.7760206   2.6531597  15.0735531
  37.2457877  10.0902188  14.5114030  37.1401326  10.0449032  13.6466114
  36.4958097  10.4355969  14.7928315  37.1193480  10.1343096  14.4251360
  46.0151610   1.5341511  14.4576631  46.0549981   2.0350718  15.1711338
  45.1901274   1.6251905  14.1882554  45.8991136   1.6223328  14.5227169
  48.1981223  11.1002251  22.5596925  47.3476853  11.2373966  22.6954570
  48.3609350  10.3666030  23.0044627  48.0965086  11.0116352  22.6452524
  47.4365973   8.0502021  16.7550530  46.6057903   8.2175839  16.5485778
  47.3817490   7.6737972  17.5399415  47.3055388   8.0191752  16.8399058
  45.2449756   1.5410914  22.3906940  45.8702460   0.9973047  22.6636372
  44.7900236   1.0605832  21.8214731  45.2698017   1.3900395  22.3468534
  58.8184805   9.7240201  17.4819588  59.4102645  10.3637452  17.5137786
  59.2543800   9.0263238  17.7711655  58.9703236   9.7158551  17.5300421
  50.6478195  14.1457573  18.1077482  50.1403286  14.6993420  18.5518113
  50.3504841  14.2065863  17.2896257  50.5283080  14.2363885  18.0525939
  53.2585975  18.0620831   6.0381426  52.5415285  17.8881693   5.5728663
  53.9092713  17.8273403   5.5056912  53.2487826  18.0016624   5.8910644
  55.8433946   6.9385420   9.7822731  55.1725136   7.4815122   9.6535796
  56.5373697   7.4080275   9.5404426  55.8462814   7.0883691   9.7278258
  49.8920680  19.0782132  15.0134489  49.6686335  18.3200961  15.3818515
  49.4030523  19.1080153  14.2914929  49.7864129  18.9704356  14.9611230
  44.7045759   6.0248823  10.7495950  43.9857748   6.4412956  11.0168814
  45.0758121   6.5903062  10.1987589  44.6537691   6.1698104  10.7078757
  54.0045340   6.6576672  16.6397946  53.9843267   6.4759967  17.4932725
  54.0524540   7.5288690  16.6157530  54.0079981   6.7593210  16.7621241
  51.9491670  13.2463864  22.5646423  51.9087524  12.6013541  21.9791579
  52.7614988  13.1900481  22.8771835  52.0634823  13.1422831  22.5243372
  48.5399137  19.2982590  12.4671574  48.1259536  18.6356720  12.0775415
  49.2246511  19.4460449  11.9467268  48.5797509  19.2223248  12.3328071
  51.9064431  18.4572675  13.2195190  51.5080714  18.5674945  12.4516011
  51.2915651  18.6654741  13.8021750  51.7563321  18.5046243  13.1926490
  53.3550150   5.0226327   9.5171080  53.1263843   5.0459029   8.6749438
  53.6148226   4.1983794   9.6366091  53.3596338   4.9042407   9.4096278
  47.6369378   6.8760800  19.1196180  47.1248281   6.2681983  19.4781212
  47.4648874   7.5917393  19.5870156  47.5359015   6.8924100  19.2412404
  42.4835093   5.3198376  21.7698542  42.3137683   5.9799751  21.2246749
  42.0401043   5.5304937  22.4911031  42.3934427   5.4484358  21.7960172
  46.4094912   3.5602874  10.8125276  46.8852279   3.9219954  10.1775457
  45.9083512   4.2159341  11.0925419  46.4060271   3.7097062  10.7602017
  51.5138449   4.7985045  21.5598436  52.0709879   4.5698855  20.9276901
  51.1899514   5.5590711  21.2833648  51.5484859   4.8768882  21.4254933
  39.3837157   8.2245241  17.0287032  38.8363877   7.5545887  17.1467900
  40.1729536   7.8575089  17.0930499  39.4189341   8.0710228  17.0555733
  49.2321566   7.8852698  22.5250443  49.9832893   8.2004375  22.8389997
  49.4244142   7.6831869  21.6984365  49.3712980   7.9020080  22.4493839
  38.1424127   7.4366049  14.1833055  37.9645888   6.9842658  14.9087971
  37.8543149   8.2392211  14.3671533  38.0737080   7.4888607  14.3176558
  53.8047708   8.6923766  13.4210445  54.3001373   7.9746762  13.3814466
  52.9947484   8.3894564  13.3064932  53.7591601   8.5421413  13.3984171
  49.2506320  12.5421580   5.5707450  48.4417642  12.2188253   5.5240759
  49.7581228  11.8354802   5.5035698  49.2055986  12.3902896   5.5537744
  39.8796597   9.9693773  11.2954814  39.0142116   9.9579463  11.1837585
  39.9795413   9.7823996  12.1425953  39.7670764   9.9399834  11.4043759
  55.8699527  11.4427454  16.1087574  56.2954598  10.9201876  15.5557999
  55.5056447  12.0408291  15.5876197  55.8786129  11.4537681  15.9496584
  45.5053607  19.7391672  14.8684920  45.8200166  20.5528060  14.8762701
  45.9147020  19.3541890  15.5367079  45.6121705  19.8020374  14.9689011
  52.4578126  15.1561718  12.4388732  52.9289305  15.8701981  12.6078717
  52.7938305  14.5560468  12.9748601  52.5773241  15.1733183  12.5421108
  54.5455111  16.7663032  24.6180804  54.6552076  15.9771592  24.9737551
  54.8746008  16.6768968  23.8155142  54.6107517  16.6368885  24.5523194
  53.0952073  14.9479652  19.2016424  52.5473019  14.3237536  18.9336490
  53.5565101  15.1373924  18.4860504  53.0819282  14.8838703  19.0566855
  42.8466627  13.6864780  14.5163528  43.4511484  13.6460614  13.8877349
  42.6393939  14.5335932  14.5467584  42.9055524  13.8052782  14.4279645
  52.6610399  15.9530725  15.7325765  53.4808773  15.8093691  15.9942061
  52.3804477  16.5776924  16.2742203  52.7407142  16.0241077  15.8513705
  38.0817909  12.6699397  14.3862451  37.9842187  11.8595669  14.6952508
  38.8646779  12.6491191  14.0008719  38.1834046  12.5466488  14.3749314
  62.3323734  22.6971228  13.4521572  61.4761630  22.8579726  13.5030689
  62.3791388  21.8263292  13.4726633  62.2122846  22.5922030  13.4627638
  56.7164874  32.2333946   9.2158804  55.9647773  31.8549484   8.9874849
  57.1650886  32.2652379   8.4677614  56.6714541  32.1819553   9.0716306
  65.6417451  28.9657753  23.0582028  66.3484218  28.4709784  23.1868963
  65.8305386  29.4066835  22.3284686  65.7745356  28.9576104  22.9691074
  62.1689834  32.6559315   4.6444351  61.8341202  33.3336237   4.2088573
  62.6816704  32.2664626   4.0561223  62.1955415  32.6983893   4.4931142
  61.7094125  34.6073584  10.5855462  62.0933504  35.1760483  10.0460238
  61.6453266  33.8823094  10.1061279  61.7567552  34.5849047  10.4349325
  65.1775555  24.7563272  16.0953224  65.7231515  25.4348358  16.1547194
  65.1192432  24.6150733  15.2354805  65.2491470  24.8355273  15.9765284
  58.2949630  32.2452338  11.4821576  58.3959993  31.4352692  11.7918704
  57.6991375  32.1509284  10.8521255  58.2222169  32.1117366  11.4347815
  66.9540624  26.1847879   6.9686952  66.8380150  26.9355565   7.3979090
  67.7496511  25.9271832   7.2183039  67.0545213  26.2582726   7.0691043
  58.1350370  37.1629927  12.8836432  58.7787825  37.6043091  13.2732591
  58.4606625  36.3583353  12.7966691  58.2782198  37.1095122  12.9281910
  51.4914674  28.2672624  11.1073910  51.2564859  27.4340277  11.0006179
  51.6300315  28.5477290  10.2935111  51.4770337  28.1856128  10.9716265
  53.7904762  20.4358355  14.0058218  53.1709793  19.8451002  13.8368232
  53.6888625  21.0269790  13.3722541  53.6842437  20.4362438  13.8863207
  58.8370949  30.1741902   8.2556294  59.1586790  30.7147109   7.6517602
  59.4843046  29.6038673   8.3878584  58.9797005  30.1701077   8.1863329
  60.8872657  22.1757897   8.3390681  61.5852822  22.3546024   8.8312144
  61.2024990  21.6528236   7.7161070  61.0367995  22.1251669   8.3192691
  53.5173895  23.9810637  16.2501787  53.3932592  24.5673082  16.8851605
  54.1692179  23.4870832  16.5514062  53.5947544  23.9949441  16.3887716
  61.0760593  28.5628342   8.3270472  61.5154228  27.9545442   8.7725245
  60.9265256  28.1835715   7.5555937  61.1182059  28.4166813   8.2789640
  58.5432236  27.1572354  15.5289298  59.1881238  26.6644797  15.2100246
  58.7834013  27.2997140  16.3555376  58.6742821  27.1049796  15.6038831
  61.0818327  30.0027260  15.1796190  61.3641570  29.2078665  14.9582946
  61.8104488  30.4807847  15.2001251  61.2307891  29.9561856  15.1499205
  59.0599521  17.5450293  12.4211955  58.7302851  17.9961437  11.7515654
  58.3844523  17.4666457  12.9684962  58.9109957  17.6001429  12.4035179
  64.6769929  26.9155523   5.2801241  64.5921225  27.7716490   5.4250810
  65.1654313  26.6399847   5.9483401  64.7358827  27.0012845   5.4003323
  65.6088363  23.5340317   6.7798977  65.0799834  23.7499951   7.4396283
  66.1313383  24.2276456   6.6999946  65.6076816  23.6683454   6.8654576
  71.0636416  29.1086622  12.1532021  70.2334119  29.3197265  12.3165438
  71.0145668  28.2823676  11.8774305  70.9343151  29.0176228  12.1369386
  57.4987970  27.4303534   5.5806445  56.9145186  27.9353565   5.9872308
  57.0958066  27.2045921   4.8403037  57.3527274  27.4711782   5.5311470
  53.0531999  33.1458295  12.3830116  52.5699577  33.8708785  12.3589700
  53.8655317  33.4434425  12.4940274  53.1022747  33.2960649  12.3957395
  59.1246153  31.9390476  14.9879931  58.6073095  31.5797891  14.3841239
  59.8220544  31.4152650  14.9985997  59.1511734  31.8088164  14.9010189
  62.7809745  32.3885290  20.9496104  62.8693091  32.2011430  21.7974314
  63.2099458  31.7422720  20.5500950  62.8571847  32.2648298  21.0167855
  60.3480205  31.6716450  19.9313766  59.7851040  31.2589060  20.4553427
  61.1101228  31.5969356  20.3506909  60.3774653  31.5993850  20.0706766
  57.2655475  15.6062582   7.9034903  58.0201443  15.9740899   7.6651953
  57.0883010  15.9802136   8.6714083  57.3509953  15.7160770   7.9819792
  55.9076196  33.6614471  12.5350396  56.6096776  33.1466460  12.5923153
  55.8273679  33.9888622  13.3397271  55.9999957  33.6328697  12.6623188
  70.5590374  21.7557022  15.9482442  69.7218795  21.8259209  16.1830037
  70.5278605  21.7581517  15.0756745  70.4308656  21.7667249  15.8541990
  56.9555103  23.8990058  21.6630811  57.1275607  23.7895953  22.5116092
  57.4924460  24.5444463  21.4262003  57.0600107  23.9782060  21.7535908
  55.6212540  18.0132901   4.6013016  55.4388113  18.2304782   3.7754009
  56.4838153  18.1271914   4.6571631  55.7217129  18.0622799   4.4867503
  55.2326972  29.8520823  12.0436004  56.0715871  30.0843756  12.0909766
  55.2638741  28.9825135  11.9743039  55.3608689  29.7577770  12.0400649
  55.8579675  30.2721698  16.3449310  56.3977900  30.1292829  17.0152682
  55.1749621  30.6718449  16.7133336  55.8371829  30.3101369  16.4983731
  65.2820560  25.9512699  11.5394334  66.0378075  26.3844213  11.5783243
  65.3882884  25.3017469  12.1128970  65.4090730  25.9190183  11.6292359
  68.3200731  29.7785976  12.2896737  67.8835963  29.7822719  13.0455708
  67.9863646  30.4591475  11.8576314  68.2063351  29.8798432  12.3377569
  62.8929804  31.8194309  23.6139887  63.6770221  31.9325157  23.9795629
  62.6926399  30.9935446  23.8098573  62.9795830  31.7141028  23.6974273
  51.2616820  26.4921989  16.4983731  50.9955235  25.6761106  16.6574721
  51.2755384  26.5375145  15.6279247  51.2241542  26.3778894  16.3937213
  68.2398214  16.8199804  14.5326165  68.8824122  16.8897909  15.1188080
  68.4921234  16.1529027  14.0305707  68.3720346  16.7326153  14.5453444
  55.1674567  21.2907074   3.1135489  54.4532744  21.0045253   3.5257922
  55.6518535  21.6303699   3.7541877  55.1333930  21.2988723   3.2691124
  56.0115426  20.0300367  19.1450739  55.3187223  19.5597347  19.3911470
  56.6275754  19.8038672  19.7192446  55.9999956  19.9267499  19.2659891
  63.0500198  33.7304411  17.2606343  62.2515443  33.4903911  17.5180211
  63.4986209  33.7818804  18.0073390  62.9974809  33.7026802  17.4091267
  71.4545077  26.4966896  11.1816374  72.1161511  25.9357565  11.0812283
  70.8136489  26.0018927  11.5069065  71.4573944  26.3403305  11.2148714
  62.3421885  29.7937027   3.4897297  62.7573033  29.4622051   2.7981793
  61.5113814  29.5605930   3.3617434  62.2809893  29.7108283   3.3688145
  51.6710233  27.2780769  13.7795475  51.4885807  27.2527655  12.9267767
  52.4059902  27.7479706  13.8184384  51.7524297  27.3442131  13.6593394
  67.7409908  27.5132278  10.9228363  67.9765497  27.6577477  10.0955214
  67.8899471  28.2774686  11.3159877  67.7975711  27.6471333  10.8591967
  54.7355985  23.9965771  20.2877584  55.4595957  23.9818802  20.7742479
  54.8372122  24.7061127  19.7899552  54.8574194  24.0990475  20.2856371
  69.5700364  26.3533944   8.7597967  69.9008581  26.8861585   8.1538062
  70.1433453  26.4072832   9.4159918  69.7034044  26.4403513   8.7675748
  62.1100935  27.4764856  25.1526531  61.3173915  27.7908368  25.3379151
  62.2249862  27.6916324  24.3147316  62.0096345  27.5548693  25.0564866
  64.7832254  24.1998847   9.4421547  64.8779108  24.9388141   9.8961172
  64.1591097  23.7716323   9.8756111  64.7041284  24.2460168   9.5729694
  63.0384727  27.3785060  20.0911828  63.6123589  26.7412304  20.2460392
  62.9599531  27.3789142  19.2221485  63.1117962  27.2850171  19.9858239
  51.6381144  24.1574269  13.9294542  52.2154646  24.0210720  14.5686787
  50.9395206  23.7010053  14.1840126  51.6202165  24.0696535  14.0616832
  58.3948446  25.8108325  12.1433025  58.1367690  24.9780060  12.1164325
  58.4496929  26.0365938  11.3025525  58.3648224  25.7206096  12.0153162
  63.4749496  17.9136776  12.2437118  62.7705823  17.4245961  12.4021037
  63.5234470  17.9259250  11.3725562  63.3779548  17.8426424  12.1376458
  57.3683158  23.3646087  12.6297920  56.7932749  23.5238256  13.2661881
  56.9918834  22.7281496  12.1666370  57.2285970  23.2943900  12.6552478
  61.0356447  21.8369437  17.4890298  60.6470880  21.4123654  16.8342489
  60.3711145  22.0851586  17.9967325  60.8803375  21.8108158  17.4678166
  47.1139977  23.0086162  10.6442360  47.2000229  22.6318030  11.4255890
  47.7415774  22.6346608  10.1662319  47.2196528  22.8971644  10.6887838
  64.8582808  15.5344065  15.0014283  65.2393320  14.8522236  15.3882157
  64.0546093  15.2453667  14.8189947  64.7959270  15.3911114  15.0318338
  62.1395385  26.0668041   5.6867105  62.9536024  26.3582934   5.5749877
  62.0754526  25.4127904   5.1125398  62.2498124  26.0133236   5.5855943
  68.3604875  28.7494037  20.0996681  68.1243513  27.9182102  19.9808742
  69.0048104  28.6979645  20.6851525  68.4199546  28.6191725  20.1682574
  58.0103293  29.5389559  10.8139417  58.6477240  29.3001306  11.3591211
  58.4358365  29.7426718  10.0792578  58.1679460  29.5340569  10.7856575
  52.7015936  31.7777895  14.6973721  52.7420081  32.0492746  13.8693501
  53.2610460  32.3019803  15.1131509  52.7899282  31.8953650  14.6365609
  58.6506108  24.7591848   5.1514307  59.0351261  24.5399555   5.9030852
  58.4017729  25.5854794   5.2815383  58.6708181  24.8489995   5.2815383
  58.8174649  18.0398264  24.8676891  58.5028090  18.8097826  24.6046454
  58.4964581  17.4768520  24.2829118  58.7233568  18.0708532  24.7418241
  69.3841296  28.5338486  16.1624975  69.0787113  29.2666543  16.5238291
  68.6647511  28.1276416  15.8817761  69.2328638  28.5820219  16.1738112
  60.3924765  30.0161981  12.4933204  60.4663774  29.8537153  13.3475054
  61.2094272  30.2052171  12.2493685  60.5241124  30.0198724  12.5831229
  75.0843088  25.1731487  15.4893320  75.0167588  25.1927446  14.6195906
  75.0698750  26.0161814  15.7148990  75.0721844  25.3005221  15.3945797
  54.1530522  30.3619844   9.5227647  53.3268640  30.6081581   9.3961926
  54.2142513  30.2831925  10.3889705  54.0404689  30.3864793   9.6316592
  56.3706546  16.4288785  10.4823087  55.5028971  16.5011385  10.5480696
  56.6581750  17.2310864  10.6711062  56.2846294  16.5582932  10.5197854
  65.4939434  16.5766644  18.8134409  66.2393026  16.3876455  18.3997834
  65.0776739  17.1024882  18.2548265  65.5424409  16.6268790  18.6698982
  58.9329351  32.9796724   7.2246677  59.2227649  32.5885706   6.5005904
  59.6632832  33.1613429   7.6651952  59.0836235  32.9490538   7.1829484
  72.8701705  23.9475873  13.7639914  73.4209627  23.3143942  14.0037006
  72.8545821  24.4791266  14.4555418  72.9486902  23.9324821  13.9018772
  59.5224096  27.7814470  18.3099807  59.0235790  28.4930238  18.3884696
  60.3324320  28.1015137  18.2717970  59.5680203  27.9341319  18.3156376
  56.8735267  34.9564107  10.2906827  56.6535562  34.6661461  11.0833494
  56.6529789  34.2979062   9.7624739  56.8082861  34.8163815  10.3295735
  55.7852214  27.0437423  12.5562528  55.4965462  26.4174894  13.0908256
  56.6535562  26.9857711  12.6227209  55.8712466  26.9424967  12.6453483
  66.5730112  22.1872207  12.8744510  66.2294877  21.4662542  13.2251760
  66.6723154  21.9786058  12.0322869  66.5372154  22.0496410  12.8016190
  59.0403222  36.3293497   9.0737519  59.6927280  35.7969939   9.3028545
  58.3428831  35.9762149   9.4605393  59.0333940  36.1983020   9.1649687
  55.9884487  28.6832674   8.4804893  56.7430455  29.0645713   8.6940356
  55.3955100  29.1343818   8.9351590  56.0121201  28.8061502   8.5787772
  67.0343141  28.6497911   8.4168498  67.6001173  29.3091121   8.3327041
  66.3871044  28.9947609   8.8884901  67.0221897  28.7979852   8.4741255
  58.4491154  20.6395515  23.6062106  57.6390930  20.9453294  23.4951948
  58.9265841  21.3601097  23.7214690  58.3994633  20.7910116  23.6069177
  57.3082714  29.8541236  13.8545009  56.7863467  29.9941527  14.5396873
  57.6956734  29.0951900  14.0447126  57.2886415  29.7626759  13.9846085
  54.2973898  19.9047044   7.9239963  54.0098693  19.5348315   7.1871911
  54.9844366  20.3741900   7.6623668  54.3562795  19.9194014   7.7755039
  63.5049719  31.5936695   7.8405578  63.2636395  30.8604556   7.4332643
  63.6851052  32.1423552   7.1871911  63.4957343  31.5659086   7.6835801
  58.7349039  26.8845255   9.2526500  58.5391822  27.4919989   8.6586803
  58.9583385  26.1913199   8.7718174  58.7383680  26.8722780   9.0942581
  57.1327569  23.7699993   9.3707368  57.8550221  23.9341151   8.9111174
  56.6535562  24.4909657   9.2646708  57.1691300  23.8998222   9.2872982
  65.0921077  20.1063791  14.7504053  64.2532178  20.1325070  14.5142316
  65.1625444  20.7534527  15.3309400  64.9789470  20.2059917  14.8013170
  54.7835186  26.1758065  18.4761508  55.2956283  26.4542318  17.8270268
  54.4971529  26.9147359  18.8424321  54.8170049  26.3260419  18.4351386
  68.9678601  25.3131778  12.0365295  68.8812575  25.4687204  12.8900074
  68.5129081  25.9569854  11.6624700  68.8881857  25.4307533  12.1072402
  51.8702092  20.6828257   8.7725245  51.9718229  21.4854418   9.1006220
  52.6657979  20.4815593   8.4748325  52.0029998  20.7714156   8.7760600
  58.3018911  18.2684454  18.5362550  58.1102108  18.2839588  19.3861973
  59.1517507  18.4648128  18.5129205  58.3994633  18.2998805  18.6585844
  52.6865824  20.7975435  16.5146366  52.5451316  19.9459376  16.6390874
  52.9706388  20.8404096  15.6908572  52.7073671  20.6775185  16.4113990
  62.8404417  22.6342525  10.6590854  62.5939131  22.5538276  11.4927643
  63.1689540  21.8495993  10.4653382  62.8525660  22.5068791  10.7538378
  66.7352466  29.3425885  14.4477636  66.5966825  30.0406930  14.9526378
  65.9552464  29.1874541  14.0913817  66.5995693  29.4226051  14.4703910
  65.0730551  25.6422260  20.7000017  65.0678589  24.7702076  20.7042444
  65.7791545  25.8410429  20.2269473  65.1775555  25.5426134  20.6307053
  58.8001444  25.3699244  20.0713837  58.9444820  25.9500452  19.4356947
  59.1477093  25.7475541  20.7763692  58.8728905  25.5119948  20.0812832
  60.9721361  24.5689412  17.8538969  60.2244675  24.7620427  17.4487247
  61.1262887  23.7434632  17.6163090  60.8843789  24.4754524  17.7584375
  57.8729199  33.5602016  16.9374864  58.0218763  33.0004932  16.2848269
  58.6529201  33.6394017  17.3207383  58.0103293  33.4887581  16.8971813
  60.3982500  33.7316659  18.2159355  60.3226171  33.0625469  18.7710143
  60.3272359  34.4334447  18.7300021  60.3763107  33.7361566  18.3736203
  61.2123138  18.4639963  18.7434373  61.6695753  19.1963937  18.8707165
  61.2879467  18.0406428  19.5021629  61.2914108  18.5097201  18.8735449
  53.4556130  18.7105783  19.8323817  52.9198319  18.0986141  20.1484584
  53.5173894  19.2853919  20.4857483  53.3851762  18.7052710  19.9759243
  61.0552747  32.2517657   9.0482961  61.8202638  31.9827301   8.7265625
  60.9530837  31.7667668   9.7653024  61.1534242  32.1407222   9.1062789
  59.0905516  20.4542067  15.5876197  58.3001591  20.2733527  15.9093533
  59.4866139  19.6769019  15.5706491  59.0322393  20.3129528  15.6328745
  64.4749203  28.0884497  13.3135643  63.7994205  27.8569729  13.8149030
  64.4841579  27.4805680  12.6877748  64.3767707  27.9643422  13.2951795
  61.6043347  22.9302326  20.0699696  61.5402488  23.7912282  19.9419832
  61.7440534  22.6134319  19.2695247  61.6158817  23.0102493  19.9327909
  66.4765937  30.9449629   5.5445821  66.5585775  31.7516616   5.2207272
  66.9615679  30.9645589   6.2686594  66.5603095  31.0670292   5.6032719
  60.2862441  25.6234465  14.2115899  59.8624690  25.8238964  13.4754917
  60.1107296  24.7763313  14.3240198  60.1973321  25.5283247  14.1189589
  59.7874134  37.1384978  16.6737356  60.2770064  36.4395768  16.4913021
  59.2158366  36.8408848  17.2613413  59.7758664  36.9911202  16.7338397
  55.5744886  26.1186517   9.6443871  55.7309505  26.0533320  10.4999863
  55.9145479  26.8935069   9.4322551  55.6478120  26.2235715   9.7398465
  62.1124030  25.4944400   8.5137234  62.6539576  24.9914781   8.9775855
  62.4270589  25.4409595   7.7026720  62.2388427  25.4123821   8.4621046
  65.9841138  29.7047048  25.6264147  66.7976003  29.4332197  25.7869279
  65.8236104  29.4054588  24.8224343  66.0811086  29.6201974  25.5309552
  60.2810480  30.8861752   5.7977262  60.3503300  30.0276290   5.9370263
  61.0598935  31.1033633   5.4696287  60.4063330  30.7914616   5.7694420
  63.2613300  20.3880705  18.5659535  63.4755269  19.7491619  18.0122889
  62.6447199  20.8326529  18.1367397  63.2018629  20.3590849  18.4209966
  64.6717967  33.3099453  10.0113756  64.2797759  33.0066168   9.2936622
  64.8271040  34.1468543   9.8218710  64.6371557  33.3883290   9.8770253
  52.1479147  23.3021467   9.9604638  52.5278112  23.7206012   9.2964906
  51.5734512  23.8834923  10.2673482  52.1190472  23.4499326   9.9081379
  65.4252388  21.9969770  19.5042842  64.6129069  21.6895660  19.5856015
  65.8842322  21.5168770  20.0685554  65.3732772  21.8806262  19.5997436
  64.8357642  29.8749442   9.9519786  64.4772297  30.0464085  10.7283819
  64.3496353  30.3362648   9.3947785  64.7116339  29.9688413   9.9845055
  62.6528028  13.4980641  13.5546878  61.7821586  13.4719362  13.5080187
  62.9068369  13.3257833  12.7372723  62.5621588  13.4690784  13.4267014
  59.6246008  25.5548607   2.4920021  59.9138532  26.3313490   2.7663595
  59.7117806  25.0437339   3.1934520  59.6800264  25.5940526   2.6362519
  62.5205895  23.4029841  24.2871544  62.9905526  24.0271958  24.6739418
  62.5667775  22.7346817  24.8464759  62.5973771  23.3964522  24.4271616
  59.6777169  15.5086869  15.0120348  59.1615657  14.8167060  15.1371927
  59.1171098  16.1757646  14.9582947  59.5183682  15.5050127  15.0226414
  61.7469402  16.0479829  16.8413201  61.3601155  16.0728860  17.6226731
  61.2602339  15.4821508  16.3887717  61.6181911  15.9675580  16.8901104
  65.9962382  30.7653338  20.8986987  66.6342102  30.2713534  20.5649443
  65.3536473  30.6930738  20.3139214  65.9956608  30.6812346  20.7629342
  67.7219382  22.6142484  15.4652903  67.2946990  22.5268833  14.7101002
  67.0845435  22.7220259  16.0507747  67.5648989  22.6175144  15.4398344
  61.4126544  12.9346814  19.1323461  62.0419662  13.4707115  18.8544531
  61.5812407  12.8424173  19.9837026  61.5304338  13.0008177  19.2171989
  61.2140459  17.7218009  21.4049872  62.0413888  17.4503158  21.4608487
  61.2348305  18.5178851  21.7613690  61.3393309  17.7997763  21.4665055
  66.0516638  31.4573146  17.5392344  66.8409016  31.1062211  17.6594426
  66.2260236  32.2709535  17.2768978  66.1936920  31.5259003  17.5180212
  55.7909949  24.8681872  14.5920133  54.9497955  24.7685746  14.7999027
  55.9999957  25.6377352  14.9434453  55.6974641  24.9673915  14.6747448
  53.2685516  22.4901409  12.4204883  52.8742213  22.5644421  11.6454993
  52.7125632  22.8759355  12.9713245  53.1288328  22.5583184  12.3872543
  64.9050462  15.4682703  12.1008762  65.1100056  15.4005011  12.9465759
  64.5776886  16.2741524  12.0329940  64.8865710  15.5768643  12.2168417
  59.6026613  22.7963271  13.8417730  59.2989751  22.2419259  14.4428138
  58.9006034  22.9755481  13.3545765  59.4542823  22.7408054  13.8587436
  58.6592711  20.1063791   8.4062432  58.9352445  19.3882704   7.9940000
  59.2591380  20.7048711   8.1983538  58.7885975  20.0884162   8.3143193
  57.6644964  30.0112992  18.5489828  57.5565319  30.0215054  19.4151886
  57.8740746  30.8367772  18.3594782  57.6795076  30.1354067  18.6493920
  55.6818756  27.2625634  16.0111766  55.0906690  27.9035132  15.9814781
  56.4439780  27.6863252  15.9843065  55.7067017  27.4201473  16.0026913
  56.0779379  18.4227632  16.6779783  56.5380861  18.4966561  17.4154907
  56.1235486  19.2208886  16.3279605  56.1529935  18.5521779  16.7352540
  57.7262729  19.0894327  21.2451810  57.3348294  18.4427674  21.6807588
  57.8948592  19.6805762  21.8646066  57.6933639  19.0808595  21.4014516
  71.8009178  27.0931404  17.0089044  71.8592302  27.5418053  17.7549020
  71.1675646  27.5030217  16.5719124  71.7160473  27.2205139  17.0541592
  65.4408273  32.7134946  13.4443790  65.2427961  33.2025760  12.7500001
  64.8195984  32.9176187  14.0227923  65.3195837  32.8151484  13.4267013
  59.5016251  24.4819843   7.7854034  60.2458296  24.8694119   8.0236984
  59.6476947  23.6377268   7.9494522  59.6326836  24.4150315   7.8448004
  61.4195827  16.2770102  12.8185896  60.5731872  16.4492909  12.6927246
  61.4166959  15.4719445  13.1551724  61.2942976  16.1831131  12.8497023
  62.4894127  20.0545316  13.6847954  62.0154081  19.5287078  14.1953265
  62.8612263  19.5074789  13.1162815  62.4744016  19.8961313  13.6763101
  52.8667157  22.0516823  19.0531499  53.7292770  21.9512532  18.9668829
  52.5358940  21.4711532  18.4917072  52.9452353  21.9508449  18.9576905
  68.7530857  25.1147692  15.0954734  68.5129080  24.2754107  15.0997161
  69.2322865  25.1947858  15.8195508  68.7883041  25.0029091  15.2029537
  70.7536045  21.8949149  13.0483993  70.5145814  21.8544983  12.2104778
  70.9169946  22.7420301  13.1749714  70.7426348  22.0141234  12.9437475
  67.3582075  26.2799098  18.9789038  68.0816274  25.8271625  18.8000058
  67.0932037  26.5603764  18.1961366  67.4263348  26.2550067  18.8367754
  56.2268943  20.8759272  15.7141918  55.6022013  20.8877664  15.1067870
  55.8914538  21.3519447  16.3633158  56.0854435  20.9477789  15.7198486
  56.4110692  19.2184390   1.7714603  56.0623496  19.8704115   2.2346152
  55.9307138  19.2041503   1.0438474  56.2880936  19.3127444   1.7325694
  52.9394619  28.9359732  17.1545682  52.4094543  28.2452171  17.2040657
  53.2119712  28.9269917  16.3258391  52.9019341  28.8326864  17.0393098
  63.9714709  29.5185434   5.8783365  64.6948908  29.9843547   5.7347938
  63.5315300  29.5859044   5.1280962  64.0130401  29.5969271   5.7468146
  63.1400864  26.3782976  17.1284054  62.5257857  25.8341027  17.4232689
  63.6568149  25.8647213  16.6489870  63.1256527  26.2219385  17.1008282
  62.3797161  27.4487246  14.8628352  61.9524769  26.8236965  14.4293788
  62.3722106  27.1662168  15.6887359  62.3156302  27.3140027  14.9208180
  55.4959688  22.4852419  17.9316786  55.6553175  21.7295744  18.3368508
  55.3152582  23.0343359  18.5857524  55.4925047  22.4546233  18.0879492
  63.4379991  14.6513655  18.4867576  62.9420553  14.8477329  17.7959142
  64.1949053  15.0506323  18.3156377  63.4766816  14.7391389  18.3587712
  60.7082871  18.3256001  15.0770886  60.7325358  17.7916113  14.3883666
  60.9594345  17.8173310  15.7396477  60.7492790  18.1716905  15.0735531
  48.2190461  25.6087496  14.5114030  48.1133910  25.5634340  13.6466114
  47.4690681  25.9541277  14.7928315  48.0926064  25.6528404  14.4251360
  56.9884193  17.0526819  14.4576631  57.0282565  17.5536026  15.1711338
  56.1633858  17.1437213  14.1882554  56.8723719  17.1408636  14.5227169
  59.1713806  26.6187559  22.5596925  58.3209437  26.7559273  22.6954570
  59.3341934  25.8851337  23.0044627  59.0697670  26.5301660  22.6452524
  58.4098557  23.5687329  16.7550530  57.5790486  23.7361147  16.5485778
  58.3550074  23.1923280  17.5399415  58.2787971  23.5377060  16.8399058
  56.2182340  17.0596222  22.3906940  56.8435043  16.5158355  22.6636372
  55.7632820  16.5791140  21.8214731  56.2430600  16.9085703  22.3468534
  56.7834600  21.8442921   7.2840647  56.9237562  22.3415385   7.9869289
  57.2817133  21.1429215   7.4254861  56.8775681  21.8144899   7.4092226
  56.8134823  22.7110032   4.6133224  57.4479902  23.3070457   4.5482686
  56.8960434  22.4113489   5.4279094  56.9191374  22.7550940   4.7236311
  69.7917389  25.2425509  17.4819588  70.3835229  25.8822760  17.5137786
  70.2276383  24.5448546  17.7711655  69.9435820  25.2343859  17.5300421
  58.3913806  18.6424007   4.5878666  58.7129647  18.1627090   3.9337928
  58.6540749  19.4523653   4.3969478  58.4779831  18.6913905   4.4634158
  61.6210778  29.6642881  18.1077482  61.1135870  30.2178728  18.5518113
  61.3237425  29.7251171  17.2896257  61.5015663  29.7549193  18.0525939
  63.7872961  18.0296201  16.9502145  64.2128032  17.5768727  16.3385672
  63.1729954  17.4756272  17.2266933  63.7601606  17.8810177  16.9007170
  53.3187811  24.9077872   7.8822770  53.8280040  25.5042380   8.2634076
  53.7922083  24.6403846   7.1999190  53.4631186  24.9563688   7.8377293
  64.2318559  33.5806139   6.0381426  63.5147868  33.4067001   5.5728663
  64.8825296  33.3458711   5.5056912  64.2220409  33.5201932   5.8910644
  62.2267184  14.5011301  10.3592722  61.5835501  14.3508947  10.9277861
  61.8866590  14.2553646   9.5941827  62.0812261  14.4423423  10.3295737
  66.8166530  22.4570728   9.7822731  66.1457720  23.0000430   9.6535796
  67.5106280  22.9265583   9.5404426  66.8195397  22.6068999   9.7278258
  60.8653264  34.5967440  15.0134489  60.6418918  33.8386269  15.3818515
  60.3763107  34.6265461  14.2914929  60.7596713  34.4889664  14.9611230
  66.9794657  18.9126611  12.6913104  67.3322268  18.4856334  13.3658903
  66.1209459  18.8277455  12.8214180  66.9044102  18.8371352  12.8108114
  55.6778342  21.5434131  10.7495950  54.9590332  21.9598264  11.0168814
  56.0490705  22.1088370  10.1987589  55.6270274  21.6883412  10.7078757
  64.9777923  22.1761980  16.6397946  64.9575851  21.9945275  17.4932725
  65.0257124  23.0473998  16.6157530  64.9812564  22.2778518  16.7621241
  62.9224253  28.7649172  22.5646423  62.8820108  28.1198849  21.9791579
  63.7347571  28.7085789  22.8771835  63.0367407  28.6608139  22.5243372
  59.5131721  34.8167898  12.4671574  59.0992119  34.1542028  12.0775415
  60.1979095  34.9645757  11.9467268  59.5530092  34.7408556  12.3328071
  62.8797015  33.9757983  13.2195190  62.4813298  34.0860253  12.4516011
  62.2648234  34.1840049  13.8021750  62.7295904  34.0231551  13.1926490
  61.4524917  20.5832131   6.0869330  60.8589756  20.9049127   5.5353897
  61.4900194  19.7373226   5.8790436  61.3699306  20.5056459   5.9752101
  64.3282733  20.5411635   9.5171080  64.0996426  20.5644337   8.6749438
  64.5880810  19.7169102   9.6366091  64.3328921  20.4227715   9.4096278
  58.6101962  22.3946108  19.1196180  58.0980865  21.7867291  19.4781212
  58.4381458  23.1102701  19.5870156  58.5091599  22.4109408  19.2412404
  53.4567677  20.8383684  21.7698542  53.2870267  21.4985059  21.2246749
  53.0133626  21.0490245  22.4911031  53.3667010  20.9669666  21.7960172
  57.3827496  19.0788182  10.8125276  57.8584862  19.4405261  10.1775457
  56.8816096  19.7344649  11.0925419  57.3792855  19.2282370  10.7602017
  62.4871032  20.3170353  21.5598436  63.0442462  20.0884163  20.9276901
  62.1632097  21.0776019  21.2833648  62.5217442  20.3954190  21.4254933
  50.3569741  23.7430549  17.0287032  49.8096460  23.0731195  17.1467900
  51.1462119  23.3760397  17.0930499  50.3921925  23.5895536  17.0555733
  60.2054149  23.4038006  22.5250443  60.9565476  23.7189683  22.8389997
  60.3976726  23.2017177  21.6984365  60.3445564  23.4205388  22.4493839
  59.4254149  21.2229381   4.1798660  59.8053114  21.2409011   3.3949775
  58.6846745  21.6683370   4.0589507  59.3722987  21.2911156   4.0462228
  67.0539440  19.5311573   9.7674239  67.0533666  19.3760229  10.6258515
  66.8495620  20.3774560   9.7115624  67.0239217  19.6332193   9.8862178
  49.1156711  22.9551357  14.1833055  48.9378472  22.5027966  14.9087971
  48.8275733  23.7577518  14.3671533  49.0469664  23.0073915  14.3176558
  64.7780292  24.2109074  13.4210445  65.2733957  23.4932069  13.3814466
  63.9680067  23.9079872  13.3064932  64.7324185  24.0606721  13.3984171
  60.2238903  28.0606888   5.5707450  59.4150226  27.7373561   5.5240759
  60.7313812  27.3540110   5.5035698  60.1788570  27.9088204   5.5537744
  50.8529180  25.4879081  11.2954814  49.9874700  25.4764771  11.1837585
  50.9527996  25.3009304  12.1425953  50.7403347  25.4585142  11.4043759
  66.8432110  26.9612762  16.1087574  67.2687182  26.4387184  15.5557999
  66.4789030  27.5593599  15.5876197  66.8518713  26.9722989  15.9496584
  56.4786190  35.2576979  14.8684920  56.7932749  36.0713368  14.8762701
  56.8879604  34.8727198  15.5367079  56.5854288  35.3205682  14.9689011
  63.4310710  30.6747026  12.4388732  63.9021888  31.3887289  12.6078717
  63.7670888  30.0745776  12.9748601  63.5505825  30.6918490  12.5421108
  65.5187695  32.2848340  24.6180804  65.6284660  31.4956900  24.9737551
  65.8478591  32.1954276  23.8155142  65.5840100  32.1554192  24.5523194
  60.3480205  15.4474497  19.3946826  60.4808110  14.6505490  19.7227802
  60.7325358  15.9740900  19.9745102  60.4236534  15.4074413  19.5290329
  64.0684656  30.4664960  19.2016424  63.5205602  29.8422844  18.9336490
  64.5297685  30.6559232  18.4860504  64.0551866  30.4024011  19.0566855
  63.4212560  12.3704823  15.9927920  62.6158524  12.2602553  16.3095758
  63.2919296  12.4717279  15.1357785  63.2832693  12.3688493  15.9135960
  66.8778521  18.5350315  16.5867617  66.2941509  19.0359521  16.1745184
  67.1982815  18.0279871  15.9531940  66.8391696  18.5342150  16.4326124
  59.4173320  17.4490910   6.8626291  60.2389014  17.6189223   6.6207986
  58.9542971  17.6038171   6.1392589  59.4704482  17.4972643   6.7197936
  58.0068652  15.4433672  17.6424720  58.5513065  15.1024799  18.2329062
  58.0605587  16.3019133  17.7846005  58.0957771  15.5188931  17.7506594
  53.8199210  29.2050088  14.5163528  54.4244068  29.1645922  13.8877349
  53.6126523  30.0521240  14.5467584  53.8788108  29.3238090  14.4279645
  63.6342983  31.4716033  15.7325765  64.4541356  31.3278999  15.9942061
  63.3537060  32.0962232  16.2742203  63.7139726  31.5426385  15.8513705
  49.0550493  28.1884705  14.3862451  48.9574771  27.3780977  14.6952508
  49.8379362  28.1676499  14.0008719  49.1566629  28.0651796  14.3749314
  73.3056318  38.2156536  13.4521572  72.4494213  38.3765034  13.5030689
  73.3523971  37.3448600  13.4726633  73.1855429  38.1107338  13.4627638
  67.6897457  47.7519254   9.2158804  66.9380357  47.3734792   8.9874849
  68.1383469  47.7837687   8.4677614  67.6447124  47.7004861   9.0716306
  76.6150034  44.4843061  23.0582028  77.3216802  43.9895092  23.1868963
  76.8037970  44.9252143  22.3284686  76.7477940  44.4761412  22.9691074
  76.1508139  40.2748580  16.0953224  76.6964099  40.9533666  16.1547194
  76.0925015  40.1336041  15.2354805  76.2224053  40.3540581  15.9765284
  69.2682214  47.7637646  11.4821576  69.3692577  46.9538000  11.7918704
  68.6723959  47.6694592  10.8521255  69.1954752  47.6302674  11.4347815
  69.1082953  52.6815235  12.8836432  69.7520409  53.1228399  13.2732591
  69.4339209  51.8768661  12.7966691  69.2514782  52.6280430  12.9281910
  62.4647258  43.7857932  11.1073910  62.2297442  42.9525585  11.0006179
  62.6032899  44.0662598  10.2935111  62.4502920  43.7041436  10.9716265
  64.7637345  35.9543663  14.0058218  64.1442377  35.3636310  13.8368232
  64.6621209  36.5455098  13.3722541  64.6575021  35.9547745  13.8863207
  71.8605241  37.6943205   8.3390681  72.5585406  37.8731332   8.8312144
  72.1757574  37.1713544   7.7161070  72.0100578  37.6436977   8.3192691
  64.4906478  39.4995945  16.2501787  64.3665175  40.0858390  16.8851605
  65.1424763  39.0056140  16.5514062  64.5680128  39.5134749  16.3887716
  72.0493176  44.0813650   8.3270472  72.4886812  43.4730750   8.7725245
  71.8997839  43.7021023   7.5555937  72.0914642  43.9352121   8.2789640
  69.5164819  42.6757662  15.5289298  70.1613822  42.1830105  15.2100246
  69.7566596  42.8182448  16.3555376  69.6475405  42.6235104  15.6038831
  72.0550911  45.5212567  15.1796190  72.3374154  44.7263973  14.9582946
  72.7837071  45.9993155  15.2001251  72.2040474  45.4747164  15.1499205
  70.0332105  33.0635601  12.4211955  69.7035435  33.5146745  11.7515654
  69.3577106  32.9851765  12.9684962  69.8842541  33.1186737  12.4035179
  64.0264583  48.6643603  12.3830116  63.5432161  49.3894093  12.3589700
  64.8387901  48.9619733  12.4940274  64.0755330  48.8145957  12.3957395
  70.0978737  47.4575784  14.9879931  69.5805678  47.0983199  14.3841239
  70.7953128  46.9337958  14.9985997  70.1244318  47.3273472  14.9010189
  73.7542329  47.9070598  20.9496104  73.8425674  47.7196738  21.7974314
  74.1832041  47.2608027  20.5500950  73.8304431  47.7833606  21.0167855
  71.3212788  47.1901758  19.9313766  70.7583623  46.7774368  20.4553427
  72.0833812  47.1154664  20.3506909  71.3507237  47.1179158  20.0706766
  68.2388059  31.1247890   7.9034903  68.9934027  31.4926207   7.6651953
  68.0615593  31.4987444   8.6714083  68.3242537  31.2346078   7.9819792
  66.8808780  49.1799779  12.5350396  67.5829359  48.6651768  12.5923153
  66.8006263  49.5073930  13.3397271  66.9732540  49.1514005  12.6623188
  67.9287686  39.4175366  21.6630811  68.1008190  39.3081261  22.5116092
  68.4657044  40.0629771  21.4262003  68.0332690  39.4967368  21.7535908
  66.5945123  33.5318209   4.6013016  66.4120697  33.7490090   3.7754009
  67.4570736  33.6457222   4.6571631  66.6949713  33.5808107   4.4867503
  66.2059555  45.3706131  12.0436004  67.0448455  45.6029064  12.0909766
  66.2371324  44.5010442  11.9743039  66.3341273  45.2763077  12.0400649
  66.8312258  45.7907006  16.3449310  67.3710483  45.6478137  17.0152682
  66.1482205  46.1903757  16.7133336  66.8104412  45.8286677  16.4983731
  76.2553143  41.4698007  11.5394334  77.0110658  41.9029521  11.5783243
  76.3615468  40.8202777  12.1128970  76.3823314  41.4375491  11.6292359
  73.8662388  47.3379617  23.6139887  74.6502805  47.4510465  23.9795629
  73.6658982  46.5120754  23.8098573  73.9528413  47.2326336  23.6974273
  62.2349403  42.0107297  16.4983731  61.9687819  41.1946414  16.6574721
  62.2487968  42.0560453  15.6279247  62.1974126  41.8964202  16.3937213
  66.1407150  36.8092381   3.1135489  65.4265327  36.5230561   3.5257922
  66.6251119  37.1489007   3.7541877  66.1066514  36.8174031   3.2691124
  66.9848010  35.5485675  19.1450739  66.2919807  35.0782655  19.3911470
  67.6008337  35.3223980  19.7192446  66.9732540  35.4452807  19.2659891
  74.0232781  49.2489719  17.2606343  73.2248027  49.0089219  17.5180211
  74.4718793  49.3004112  18.0073390  73.9707393  49.2212110  17.4091267
  62.6442817  42.7966076  13.7795475  62.4618390  42.7712962  12.9267767
  63.3792486  43.2665014  13.8184384  62.7256881  42.8627439  13.6593394
  65.7088569  39.5151079  20.2877584  66.4328541  39.5004110  20.7742479
  65.8104705  40.2246435  19.7899552  65.8306778  39.6175782  20.2856371
  73.0833518  42.9950164  25.1526531  72.2906499  43.3093676  25.3379151
  73.1982445  43.2101632  24.3147316  72.9828929  43.0734001  25.0564866
  75.7564837  39.7184155   9.4421547  75.8511691  40.4573449   9.8961172
  75.1323681  39.2901631   9.8756111  75.6773867  39.7645476   9.5729694
  74.0117311  42.8970368  20.0911828  74.5856173  42.2597612  20.2460392
  73.9332115  42.8974450  19.2221485  74.0850546  42.8035479  19.9858239
  62.6113727  39.6759577  13.9294542  63.1887230  39.5396028  14.5686787
  61.9127789  39.2195361  14.1840126  62.5934749  39.5881843  14.0616832
  69.3681030  41.3293633  12.1433025  69.1100274  40.4965368  12.1164325
  69.4229512  41.5551246  11.3025525  69.3380807  41.2391404  12.0153162
  74.4482080  33.4322083  12.2437118  73.7438406  32.9431269  12.4021037
  74.4967054  33.4444558  11.3725562  74.3512131  33.3611731  12.1376458
  68.3415742  38.8831395  12.6297920  67.7665333  39.0423564  13.2661881
  67.9651418  38.2466804  12.1666370  68.2018554  38.8129208  12.6552478
  72.0089030  37.3554745  17.4890298  71.6203463  36.9308962  16.8342489
  71.3443729  37.6036894  17.9967325  71.8535958  37.3293466  17.4678166
  58.0872561  38.5271470  10.6442360  58.1732812  38.1503338  11.4255890
  58.7148358  38.1531916  10.1662319  58.1929112  38.4156952  10.6887838
  75.8315392  31.0529373  15.0014283  76.2125904  30.3707544  15.3882157
  75.0278676  30.7638975  14.8189947  75.7691854  30.9096422  15.0318338
  68.9835877  45.0574867  10.8139417  69.6209824  44.8186614  11.3591211
  69.4090948  45.2612025  10.0792578  69.1412043  45.0525877  10.7856575
  63.6748519  47.2963203  14.6973721  63.7152665  47.5678054  13.8693501
  64.2343043  47.8205111  15.1131509  63.7631865  47.4138958  14.6365609
  69.6238692  40.2777156   5.1514307  70.0083845  40.0584863   5.9030852
  69.3750312  41.1040102   5.2815383  69.6440764  40.3675303   5.2815383
  69.7907232  33.5583572  24.8676891  69.4760673  34.3283134  24.6046454
  69.4697165  32.9953828  24.2829118  69.6966151  33.5893840  24.7418241
  71.3657349  45.5347289  12.4933204  71.4396357  45.3722461  13.3475054
  72.1826855  45.7237479  12.2493685  71.4973707  45.5384032  12.5831229
  65.1263106  45.8805152   9.5227647  64.3001223  46.1266889   9.3961926
  65.1875097  45.8017233  10.3889705  65.0137272  45.9050101   9.6316592
  67.3439129  31.9474093  10.4823087  66.4761555  32.0196692  10.5480696
  67.6314334  32.7496172  10.6711062  67.2578877  32.0768240  10.5197854
  76.4672018  32.0951952  18.8134409  77.2125610  31.9061763  18.3997834
  76.0509323  32.6210190  18.2548265  76.5156992  32.1454098  18.6698982
  70.4956680  43.2999778  18.3099807  69.9968373  44.0115546  18.3884696
  71.3056904  43.6200445  18.2717970  70.5412786  43.4526627  18.3156376
  67.8467850  50.4749415  10.2906827  67.6268146  50.1846769  11.0833494
  67.6262372  49.8164370   9.7624739  67.7815444  50.3349123  10.3295735
  66.7584797  42.5622731  12.5562528  66.4698046  41.9360202  13.0908256
  67.6268145  42.5043019  12.6227209  66.8445049  42.4610275  12.6453483
  77.5462695  37.7057515  12.8744510  77.2027461  36.9847850  13.2251760
  77.6455738  37.4971366  12.0322869  77.5104738  37.5681718  12.8016190
  66.9617071  44.2017982   8.4804893  67.7163039  44.5831021   8.6940356
  66.3687683  44.6529126   8.9351590  66.9853784  44.3246810   8.5787772
  69.4223738  36.1580823  23.6062106  68.6123513  36.4638602  23.4951948
  69.8998424  36.8786405  23.7214690  69.3727216  36.3095424  23.6069177
  68.2815297  45.3726544  13.8545009  67.7596051  45.5126835  14.5396873
  68.6689318  44.6137208  14.0447126  68.2618998  45.2812067  13.9846085
  65.2706481  35.4232352   7.9239963  64.9831277  35.0533623   7.1871911
  65.9576950  35.8927208   7.6623668  65.3295379  35.4379322   7.7755039
  69.7081623  42.4030563   9.2526500  69.5124406  43.0105297   8.6586803
  69.9315968  41.7098507   8.7718174  69.7116264  42.3908088   9.0942581
  68.1060153  39.2885301   9.3707368  68.8282805  39.4526459   8.9111174
  67.6268146  40.0094965   9.2646708  68.1423884  39.4183530   9.2872982
  76.0653661  35.6249099  14.7504053  75.2264761  35.6510378  14.5142316
  76.1358028  36.2719835  15.3309400  75.9522054  35.7245225  14.8013170
  65.7567770  41.6943373  18.4761508  66.2688867  41.9727626  17.8270268
  65.4704112  42.4332667  18.8424321  65.7902633  41.8445727  18.4351386
  62.8434676  36.2013565   8.7725245  62.9450812  37.0039726   9.1006220
  63.6390563  36.0000901   8.4748325  62.9762582  36.2899464   8.7760600
  69.2751495  33.7869762  18.5362550  69.0834692  33.8024896  19.3861973
  70.1250091  33.9833436  18.5129205  69.3727217  33.8184113  18.6585844
  63.6598408  36.3160743  16.5146366  63.5183900  35.4644684  16.6390874
  63.9438971  36.3589404  15.6908572  63.6806254  36.1960493  16.4113990
  73.8137000  38.1527833  10.6590854  73.5671715  38.0723584  11.4927643
  74.1422123  37.3681301  10.4653382  73.8258244  38.0254099  10.7538378
  77.7085049  44.8611193  14.4477636  77.5699409  45.5592238  14.9526378
  76.9285047  44.7059849  14.0913817  77.5728276  44.9411359  14.4703910
  76.0463134  41.1607568  20.7000017  76.0411173  40.2887384  20.7042444
  76.7524128  41.3595737  20.2269473  76.1508138  41.0611442  20.6307053
  69.7734028  40.8884552  20.0713837  69.9177403  41.4685760  19.4356947
  70.1209676  41.2660848  20.7763692  69.8461489  41.0305256  20.0812832
  71.9453945  40.0874720  17.8538969  71.1977259  40.2805735  17.4487247
  72.0995470  39.2619940  17.6163090  71.8576373  39.9939832  17.7584375
  68.8461783  49.0787324  16.9374864  68.9951346  48.5190239  16.2848269
  69.6261785  49.1579325  17.3207383  68.9835876  49.0072889  16.8971813
  71.3715083  49.2501966  18.2159355  71.2958754  48.5810777  18.7710143
  71.3004942  49.9519755  18.7300021  71.3495690  49.2546874  18.3736203
  72.1855722  33.9825271  18.7434373  72.6428336  34.7149245  18.8707165
  72.2612051  33.5591736  19.5021629  72.2646692  34.0282509  18.8735449
  64.4288713  34.2291091  19.8323817  63.8930903  33.6171449  20.1484584
  64.4906478  34.8039227  20.4857483  64.3584346  34.2238018  19.9759243
  70.0638100  35.9727375  15.5876197  69.2734175  35.7918835  15.9093533
  70.4598723  35.1954327  15.5706491  70.0054976  35.8314836  15.6328745
  75.4481786  43.6069805  13.3135643  74.7726788  43.3755037  13.8149030
  75.4574162  42.9990988  12.6877748  75.3500291  43.4828730  13.2951795
  72.5775930  38.4487634  20.0699696  72.5135071  39.3097590  19.9419832
  72.7173118  38.1319627  19.2695247  72.5891400  38.5287801  19.9327909
  71.2595024  41.1419773  14.2115899  70.8357273  41.3424272  13.4754917
  71.0839879  40.2948621  14.3240198  71.1705905  41.0468555  14.1189589
  70.7606718  52.6570286  16.6737356  71.2502648  51.9581075  16.4913021
  70.1890950  52.3594156  17.2613413  70.7491248  52.5096510  16.7338397
  66.5477469  41.6371825   9.6443871  66.7042088  41.5718627  10.4999863
  66.8878062  42.4120377   9.4322551  66.6210704  41.7421023   9.7398465
  73.0856614  41.0129708   8.5137234  73.6272159  40.5100089   8.9775855
  73.4003173  40.9594903   7.7026720  73.2121011  40.9309129   8.4621046
  76.9573721  45.2232356  25.6264147  77.7708586  44.9517504  25.7869279
  76.7968687  44.9239896  24.8224343  77.0543670  45.1387282  25.5309552
  74.2345883  35.9066013  18.5659535  74.4487853  35.2676927  18.0122889
  73.6179782  36.3511837  18.1367397  74.1751212  35.8776156  18.4209966
  63.1211731  38.8206775   9.9604638  63.5010695  39.2391320   9.2964906
  62.5467095  39.4020231  10.2673482  63.0923055  38.9684634   9.9081379
  76.3984971  37.5155078  19.5042842  75.5861653  37.2080968  19.5856015
  76.8574906  37.0354078  20.0685554  76.3465356  37.3991570  19.5997436
  73.6260612  29.0165948  13.5546878  72.7554170  28.9904670  13.5080187
  73.8800953  28.8443141  12.7372723  73.5354172  28.9876092  13.4267014
  73.4938479  38.9215149  24.2871544  73.9638110  39.5457266  24.6739418
  73.5400359  38.2532125  24.8464759  73.5706354  38.9149830  24.4271616
  70.6509752  31.0272177  15.0120348  70.1348241  30.3352368  15.1371927
  70.0903681  31.6942954  14.9582947  70.4916266  31.0235435  15.0226414
  72.7201986  31.5665137  16.8413201  72.3333739  31.5914168  17.6226731
  72.2334923  31.0006816  16.3887717  72.5914495  31.4860888  16.8901104
  76.9694965  46.2838646  20.8986987  77.6074686  45.7898842  20.5649443
  76.3269057  46.2116046  20.3139214  76.9689192  46.1997654  20.7629342
  78.6951965  38.1327792  15.4652903  78.2679573  38.0454140  14.7101002
  78.0578018  38.2405567  16.0507747  78.5381572  38.1360452  15.4398344
  72.3859127  28.4532122  19.1323461  73.0152245  28.9892422  18.8544531
  72.5544990  28.3609481  19.9837026  72.5036922  28.5193485  19.2171989
  72.1873042  33.2403317  21.4049872  73.0146472  32.9688466  21.4608487
  72.2080888  34.0364159  21.7613690  72.3125892  33.3183071  21.4665055
  77.0249222  46.9758454  17.5392344  77.8141600  46.6247519  17.6594426
  77.1992820  47.7894843  17.2768978  77.1669503  47.0444311  17.5180212
  66.7642532  40.3867180  14.5920133  65.9230539  40.2871054  14.7999027
  66.9732540  41.1562660  14.9434453  66.6707225  40.4859223  14.6747448
  64.2418099  38.0086717  12.4204883  63.8474797  38.0829729  11.6454993
  63.6858216  38.3944663  12.9713245  64.1020911  38.0768491  12.3872543
  75.8783046  30.9868011  12.1008762  76.0832639  30.9190319  12.9465759
  75.5509470  31.7926832  12.0329940  75.8598294  31.0953951  12.2168417
  70.5759197  38.3148579  13.8417730  70.2722335  37.7604567  14.4428138
  69.8738618  38.4940789  13.3545765  70.4275407  38.2593361  13.8587436
  69.6325294  35.6249099   8.4062432  69.9085028  34.9068011   7.9940000
  70.2323963  36.2234019   8.1983538  69.7618559  35.6069470   8.3143193
  68.6377548  45.5298300  18.5489828  68.5297903  45.5400362  19.4151886
  68.8473330  46.3553080  18.3594782  68.6527659  45.6539375  18.6493920
  66.6551340  42.7810942  16.0111766  66.0639273  43.4220440  15.9814781
  67.4172364  43.2048559  15.9843065  66.6799601  42.9386781  16.0026913
  67.0511963  33.9412940  16.6779783  67.5113444  34.0151869  17.4154907
  67.0968070  34.7394194  16.3279605  67.1262518  34.0707087  16.7352540
  68.6995313  34.6079635  21.2451810  68.3080878  33.9612982  21.6807588
  68.8681175  35.1991070  21.8646066  68.6666223  34.5993903  21.4014516
  76.4140856  48.2320254  13.4443790  76.2160545  48.7211068  12.7500001
  75.7928567  48.4361495  14.0227923  76.2928421  48.3336792  13.4267013
  70.4748835  40.0005151   7.7854034  71.2190880  40.3879427   8.0236984
  70.6209531  39.1562576   7.9494522  70.6059420  39.9335623   7.8448004
  72.3928410  31.7955410  12.8185896  71.5464455  31.9678217  12.6927246
  72.3899543  30.9904753  13.1551724  72.2675560  31.7016438  12.8497023
  73.4626710  35.5730624  13.6847954  72.9886665  35.0472386  14.1953265
  73.8344846  35.0260097  13.1162815  73.4476599  35.4146621  13.6763101
  63.8399741  37.5702131  19.0531499  64.7025354  37.4697840  18.9668829
  63.5091524  36.9896840  18.4917072  63.9184937  37.4693757  18.9576905
  67.2001527  36.3944580  15.7141918  66.5754597  36.4062972  15.1067870
  66.8647121  36.8704755  16.3633158  67.0587018  36.4663097  15.7198486
  67.3843275  34.7369698   1.7714603  67.0356080  35.3889423   2.2346152
  66.9039721  34.7226811   1.0438474  67.2613519  34.8312752   1.7325694
  63.9127202  44.4545040  17.1545682  63.3827127  43.7637479  17.2040657
  64.1852295  44.4455225  16.3258391  63.8751924  44.3512172  17.0393098
  74.1133448  41.8968284  17.1284054  73.4990441  41.3526335  17.4232689
  74.6300733  41.3832521  16.6489870  74.0989110  41.7404693  17.1008282
  73.3529745  42.9672554  14.8628352  72.9257353  42.3422273  14.4293788
  73.3454689  42.6847476  15.6887359  73.2888886  42.8325335  14.9208180
  66.4692272  38.0037727  17.9316786  66.6285759  37.2481052  18.3368508
  66.2885166  38.5528667  18.5857524  66.4657631  37.9731541  18.0879492
  74.4112575  30.1698963  18.4867576  73.9153136  30.3662637  17.7959142
  75.1681637  30.5691631  18.3156377  74.4499400  30.2576697  18.3587712
  71.6815455  33.8441309  15.0770886  71.7057942  33.3101421  14.3883666
  71.9326928  33.3358618  15.7396477  71.7225373  33.6902213  15.0735531
  59.1923044  41.1272804  14.5114030  59.0866493  41.0819648  13.6466114
  58.4423264  41.4726584  14.7928315  59.0658647  41.1713712  14.4251360
  67.9616777  32.5712127  14.4576631  68.0015148  33.0721334  15.1711338
  67.1366441  32.6622521  14.1882554  67.8456303  32.6593943  14.5227169
  70.1446390  42.1372867  22.5596925  69.2942020  42.2744581  22.6954570
  70.3074517  41.4036645  23.0044627  70.0430253  42.0486968  22.6452524
  69.3831140  39.0872637  16.7550530  68.5523070  39.2546455  16.5485778
  69.3282657  38.7108588  17.5399415  69.2520555  39.0562368  16.8399058
  67.1914923  32.5781530  22.3906940  67.8167627  32.0343663  22.6636372
  66.7365403  32.0976447  21.8214731  67.2163184  32.4271011  22.3468534
  67.7567184  37.3628229   7.2840647  67.8970145  37.8600693   7.9869289
  68.2549717  36.6614523   7.4254861  67.8508265  37.3330207   7.4092226
  67.7867406  38.2295340   4.6133224  68.4212486  38.8255765   4.5482686
  67.8693017  37.9298797   5.4279094  67.8923957  38.2736248   4.7236311
  69.3646389  34.1609315   4.5878666  69.6862230  33.6812397   3.9337928
  69.6273333  34.9708961   4.3969478  69.4512415  34.2099213   4.4634158
  72.5943362  45.1828189  18.1077482  72.0868453  45.7364036  18.5518113
  72.2970008  45.2436479  17.2896257  72.4748247  45.2734501  18.0525939
  74.7605544  33.5481509  16.9502145  75.1860616  33.0954035  16.3385672
  74.1462537  32.9941580  17.2266933  74.7334190  33.3995485  16.9007170
  64.2920394  40.4263180   7.8822770  64.8012624  41.0227688   8.2634076
  64.7654667  40.1589154   7.1999190  64.4363770  40.4748996   7.8377293
  73.1999767  30.0196609  10.3592722  72.5568085  29.8694255  10.9277861
  72.8599174  29.7738954   9.5941827  73.0544844  29.9608731  10.3295737
  71.8385847  50.1152748  15.0134489  71.6151502  49.3571577  15.3818515
  71.3495691  50.1450769  14.2914929  71.7329296  50.0074972  14.9611230
  77.9527241  34.4311919  12.6913104  78.3054851  34.0041642  13.3658903
  77.0942043  34.3462763  12.8214180  77.8776686  34.3556660  12.8108114
  66.6510926  37.0619439  10.7495950  65.9322915  37.4783571  11.0168814
  67.0223288  37.6273678  10.1987589  66.6002858  37.2068720  10.7078757
  75.9510507  37.6947288  16.6397946  75.9308434  37.5130583  17.4932725
  75.9989708  38.5659306  16.6157530  75.9545148  37.7963826  16.7621241
  73.8956837  44.2834480  22.5646423  73.8552692  43.6384157  21.9791579
  74.7080155  44.2271097  22.8771835  74.0099990  44.1793447  22.5243372
  70.4864304  50.3353206  12.4671574  70.0724703  49.6727336  12.0775415
  71.1711678  50.4831064  11.9467268  70.5262676  50.2593864  12.3328071
  73.8529598  49.4943291  13.2195190  73.4545882  49.6045561  12.4516011
  73.2380818  49.7025357  13.8021750  73.7028488  49.5416859  13.1926490
  72.4257500  36.1017439   6.0869330  71.8322340  36.4234435   5.5353897
  72.4632778  35.2558534   5.8790436  72.3431890  36.0241767   5.9752101
  75.3015317  36.0596943   9.5171080  75.0729010  36.0829645   8.6749438
  75.5613393  35.2354410   9.6366091  75.3061505  35.9413023   9.4096278
  69.5834545  37.9131416  19.1196180  69.0713448  37.3052599  19.4781212
  69.4114042  38.6288009  19.5870156  69.4824182  37.9294716  19.2412404
  64.4300260  36.3568992  21.7698542  64.2602850  37.0170366  21.2246749
  63.9866210  36.5675553  22.4911031  64.3399594  36.4854974  21.7960172
  68.3560079  34.5973490  10.8125276  68.8317446  34.9590569  10.1775457
  67.8548679  35.2529957  11.0925419  68.3525438  34.7467678  10.7602017
  73.4603616  35.8355661  21.5598436  74.0175046  35.6069470  20.9276901
  73.1364681  36.5961327  21.2833648  73.4950026  35.9139498  21.4254933
  71.1786733  38.9223314  22.5250443  71.9298060  39.2374991  22.8389997
  71.3709309  38.7202485  21.6984365  71.3178147  38.9390696  22.4493839
  70.3986733  36.7414689   4.1798660  70.7785697  36.7594319   3.3949775
  69.6579329  37.1868678   4.0589507  70.3455570  36.8096464   4.0462228
  78.0272023  35.0496881   9.7674239  78.0266250  34.8945537  10.6258515
  77.8228203  35.8959868   9.7115624  77.9971801  35.1517501   9.8862178
  60.0889294  38.4736665  14.1833055  59.9111055  38.0213274  14.9087971
  59.8008316  39.2762826  14.3671533  60.0202247  38.5259223  14.3176558
  75.7512875  39.7294382  13.4210445  76.2466541  39.0117377  13.3814466
  74.9412651  39.4265180  13.3064932  75.7056768  39.5792029  13.3984171
  61.8261764  41.0064389  11.2954814  60.9607283  40.9950079  11.1837585
  61.9260580  40.8194612  12.1425953  61.7135931  40.9770450  11.4043759
  77.8164694  42.4798070  16.1087574  78.2419766  41.9572492  15.5557999
  77.4521614  43.0778907  15.5876197  77.8251297  42.4908297  15.9496584
  67.4518774  50.7762287  14.8684920  67.7665333  51.5898676  14.8762701
  67.8612187  50.3912506  15.5367079  67.5586872  50.8390990  14.9689011
  74.4043293  46.1932334  12.4388732  74.8754472  46.9072597  12.6078717
  74.7403472  45.5931084  12.9748601  74.5238409  46.2103798  12.5421108
  76.4920278  47.8033648  24.6180804  76.6017244  47.0142208  24.9737551
  76.8211175  47.7139584  23.8155142  76.5572684  47.6739500  24.5523194
  71.3212788  30.9659805  19.3946826  71.4540694  30.1690798  19.7227802
  71.7057941  31.4926208  19.9745102  71.3969117  30.9259721  19.5290329
  75.0417240  45.9850268  19.2016424  74.4938186  45.3608152  18.9336490
  75.5030269  46.1744540  18.4860504  75.0284449  45.9209318  19.0566855
  74.3945144  27.8890131  15.9927920  73.5891107  27.7787860  16.3095758
  74.2651879  27.9902587  15.1357785  74.2565276  27.8873801  15.9135960
  77.8511104  34.0535623  16.5867617  77.2674093  34.5544829  16.1745184
  78.1715398  33.5465179  15.9531940  77.8124280  34.0527458  16.4326124
  70.3905903  32.9676218   6.8626291  71.2121598  33.1374530   6.6207986
  69.9275554  33.1223479   6.1392589  70.4437066  33.0157951   6.7197936
  68.9801235  30.9618980  17.6424720  69.5245648  30.6210107  18.2329062
  69.0338171  31.8204441  17.7846005  69.0690355  31.0374239  17.7506594
  64.7931794  44.7235396  14.5163528  65.3976651  44.6831230  13.8877349
  64.5859107  45.5706548  14.5467584  64.8520691  44.8423398  14.4279645
  74.6075566  46.9901341  15.7325765  75.4273940  46.8464307  15.9942061
  74.3269644  47.6147540  16.2742203  74.6872309  47.0611693  15.8513705
  60.0283076  43.7070013  14.3862451  59.9307354  42.8966285  14.6952508
  60.8111946  43.6861807  14.0008719  60.1299213  43.5837104  14.3749314
  75.4639062  55.0181253  16.2501787  75.3397759  55.6043698  16.8851605
  76.1157347  54.5241448  16.5514062  75.5412711  55.0320057  16.3887716
  73.2081987  57.5292605  16.4983731  72.9420402  56.7131722  16.6574721
  73.2220551  57.5745760  15.6279247  73.1706709  57.4149510  16.3937213
  77.9580593  51.0670983  19.1450739  77.2652390  50.5967963  19.3911470
  78.5740921  50.8409288  19.7192446  77.9465123  50.9638115  19.2659891
  76.6821152  55.0336387  20.2877584  77.4061125  55.0189418  20.7742479
  76.7837289  55.7431742  19.7899552  76.8039361  55.1361090  20.2856371
  76.7300353  57.2128681  18.4761508  77.2421450  57.4912934  17.8270268
  76.4436696  57.9517975  18.8424321  76.7635216  57.3631035  18.4351386
  74.6330992  51.8346051  16.5146366  74.4916483  50.9829992  16.6390874
  74.9171555  51.8774712  15.6908572  74.6538838  51.7145801  16.4113990
  75.4021297  49.7476399  19.8323817  74.8663486  49.1356757  20.1484584
  75.4639062  50.3224535  20.4857483  75.3316930  49.7423326  19.9759243
  78.0244546  49.4598248  16.6779783  78.4846028  49.5337177  17.4154907
  78.0700653  50.2579502  16.3279605  78.0995102  49.5892395  16.7352540
  74.8132324  53.0887439  19.0531499  75.6757937  52.9883148  18.9668829
  74.4824107  52.5082148  18.4917072  74.8917521  52.9879065  18.9576905
  78.1734110  51.9129888  15.7141918  77.5487180  51.9248280  15.1067870
  77.8379705  52.3890063  16.3633158  78.0319602  51.9848405  15.7198486
  77.4424856  53.5223035  17.9316786  77.6018342  52.7666360  18.3368508
  77.2617749  54.0713975  18.5857524  77.4390215  53.4916849  18.0879492
  75.4032844  51.8754300  21.7698542  75.2335434  52.5355674  21.2246749
  74.9598794  52.0860861  22.4911031  75.3132177  52.0040282  21.7960172
  72.3034908  54.7801165  17.0287032  71.7561628  54.1101811  17.1467900
  73.0927286  54.4131013  17.0930499  72.3387092  54.6266152  17.0555733
  71.0621878  53.9921973  14.1833055  70.8843639  53.5398582  14.9087971
  70.7740900  54.7948134  14.3671533  70.9934831  54.0444531  14.3176558
   4.5941609  45.9671915  47.6213862   4.5635614  46.8216551  47.7932131
   5.1922958  45.6667207  48.1800005   4.6778767  46.0488411  47.7288664
   1.1035011  51.3234091  61.9827248   1.8101778  50.8286122  62.1114183
   1.2922946  51.7643173  61.2529906   1.2362916  51.3152442  61.8936294
   0.6393115  47.1139610  55.0198444   1.1849075  47.7924696  55.0792414
   0.5809992  46.9727071  54.1600025   0.7109030  47.1931611  54.9010504
   2.4158184  48.5424217  45.8932172   2.2997710  49.2931903  46.3224310
   3.2114071  48.2848170  46.1428259   2.5162773  48.6159064  45.9936263
   1.7293489  35.8912154  49.5906786   1.4146930  36.5815633  50.0227208
   1.2120430  35.8356937  48.8892287   1.6057959  35.9847043  49.5503735
   1.0705923  45.8916655  45.7044197   0.5417394  46.1076289  46.3641503
   1.5930943  46.5852794  45.6245166   1.0694376  46.0259792  45.7899796
   6.5253976  51.4662960  51.0777241   5.6951679  51.6773603  51.2410658
   6.4763228  50.6400014  50.8019525   6.3960711  51.3752566  51.0614606
   6.0207934  44.1133360  54.8727662   5.1836355  44.1835547  55.1075257
   5.9896165  44.1157855  54.0001965   5.8926216  44.1243587  54.7787210
   0.7438120  48.3089037  50.4639554   1.4995635  48.7420551  50.5028463
   0.8500444  47.6593807  51.0374190   0.8708290  48.2766521  50.5537579
   3.7818291  52.1362314  51.2141957   3.3453523  52.1399056  51.9700928
   3.4481206  52.8167813  50.7821534   3.6680911  52.2374770  51.2622789
   3.7015774  39.1776142  53.4571385   4.3441682  39.2474246  54.0433300
   3.9538794  38.5105365  52.9550927   3.8337906  39.0902491  53.4698664
   6.9162637  48.8543234  50.1061594   7.5779071  48.2933902  50.0057503
   6.2754049  48.3595265  50.4314285   6.9191504  48.6979643  50.1393934
   3.2027468  49.8708616  49.8473583   3.4383057  50.0153815  49.0200434
   3.3517031  50.6351024  50.2405097   3.2593271  50.0047671  49.7837187
   5.0317924  48.7110282  47.6843187   5.3626141  49.2437922  47.0783282
   5.6051013  48.7649170  48.3405138   5.1651604  48.7979851  47.6920968
   0.4972835  48.4023925  41.6003719   0.4152997  48.4726112  42.4658706
   1.1352555  48.9653669  41.4087459   0.5792672  48.4962896  41.6993668
   6.1397276  43.9520779  49.1883348   5.8833841  43.1400721  48.9981231
   6.9826590  43.9598346  48.9613536   6.2263301  43.8332777  49.1268165
   3.8222435  51.1070375  59.0241901   3.5861073  50.2758440  58.9053962
   4.4665664  51.0555982  59.6096745   3.8817106  50.9768063  59.0927794
   4.8458856  50.8914824  55.0870195   4.5404673  51.6242881  55.4483511
   4.1265072  50.4852753  54.8062981   4.6946198  50.9396557  55.0983332
  10.5460648  47.5307825  54.4138540  10.4785148  47.5503784  53.5441126
  10.5316310  48.3738152  54.6394210  10.5339404  47.6581559  54.3191017
   0.9556994  38.9342982  57.7379629   1.7010586  38.7452793  57.3243054
   0.5394299  39.4601220  57.1793485   1.0041969  38.9845128  57.5944202
   8.3319265  46.3052211  52.6885134   8.8827187  45.6720280  52.9282226
   8.3163381  46.8367604  53.3800638   8.4104462  46.2901159  52.8263992
   2.0347672  44.5448545  51.7989730   1.6912437  43.8238880  52.1496980
   2.1340714  44.3362396  50.9568089   1.9989714  44.4072748  51.7261410
   2.4960701  51.0074249  47.3413718   3.0618733  51.6667458  47.2572261
   1.8488604  51.3523947  47.8130121   2.4839457  51.1556190  47.3986475
   4.4296161  47.6708116  50.9610515   4.3430135  47.8263542  51.8145294
   3.9746641  48.3146192  50.5869920   4.3499417  47.7883871  51.0317622
   2.1970026  51.7002222  53.3722856   2.0584385  52.3983268  53.8771598
   1.4170024  51.5450879  53.0159037   2.0613253  51.7802389  53.3949130
   0.5348111  47.9998598  59.6245237   0.5296149  47.1278414  59.6287664
   1.2409105  48.1986767  59.1514693   0.6393115  47.9002472  59.5552273
   3.6923398  51.0580476  44.1339355   3.3130207  50.2717614  44.1268644
   3.0289644  51.6067333  43.9910999   3.5381873  51.0225300  44.1120152
   1.1468024  34.0006176  51.5373436   1.2651593  34.4582639  50.8040738
   0.9730200  33.1951437  51.2509653   1.1387195  33.9499948  51.3874369
   1.9383497  53.3025967  44.4691041   2.0203335  54.1092953  44.1452492
   2.4233239  53.3221927  45.1931814   2.0220655  53.4246630  44.5277939
   1.4458698  52.0623386  64.5509367   2.2593563  51.7908534  64.7114499
   1.2853664  51.7630926  63.7469563   1.5428646  51.9778312  64.4554772
   1.4579942  53.1229676  59.8232207   2.0959662  52.6289872  59.4894663
   0.8154033  53.0507076  59.2384434   1.4574168  53.0388684  59.6874562
   3.1836942  44.9718822  54.3898123   2.7564550  44.8845170  53.6346222
   2.5462995  45.0796597  54.9752967   3.0266549  44.9751482  54.3643564
   1.5134198  53.8149484  56.4637564   2.3026576  53.4638549  56.5839646
   1.6877796  54.6285873  56.2014198   1.6554480  53.8835341  56.4425432
   3.6201710  38.3790805  50.5056748   3.0076024  38.8661207  50.8910480
   3.7165885  37.7034296  51.0494399   3.5439608  38.3509114  50.6435606
   7.2626738  49.4507742  55.9334264   7.3209862  49.8994391  56.6794240
   6.6293206  49.8606555  55.4964344   7.1778033  49.5781477  55.9786812
   4.2148417  47.4724030  54.0199954   3.9746640  46.6330445  54.0242381
   4.6940425  47.5524196  54.7440728   4.2500601  47.3605429  54.1274757
   6.2153605  44.2525487  51.9729213   5.9763374  44.2121321  51.1349998
   6.3787506  45.0996639  52.0994934   6.2043908  44.3717572  51.8682695
   2.8199635  48.6375436  57.9034258   3.5433834  48.1847962  57.7245278
   2.5549597  48.9180102  57.1206586   2.8880908  48.6126405  57.7612974
   5.2534949  47.6001847  56.4064808   5.8452789  48.2399098  56.4383006
   5.6893943  46.9024884  56.6956875   5.4053380  47.5920197  56.4545641
   2.2784090  44.8147066  48.7067951   1.6075280  45.3576768  48.5781016
   2.9723840  45.2841921  48.4649646   2.2812957  44.9645337  48.6523478
   2.4412217  41.2702949  51.6158324   2.7939828  40.8432672  52.2904123
   1.5827019  41.1853793  51.7459400   2.3661662  41.1947690  51.7353334
   0.4395483  44.5338318  55.5643166   0.4193411  44.3521613  56.4177945
   0.4874684  45.4050336  55.5402750   0.4430124  44.6354856  55.6866461
   3.8736278  36.3921361  52.5442636   3.3667142  35.6850501  52.4763814
   4.6703711  36.0614550  52.6743713   3.9163517  36.2394512  52.5541631
   6.0756417  50.9086288  45.5283501   6.4590023  51.6577644  45.7581598
   5.2800531  51.1552107  45.2695490   6.0150200  51.0555981  45.5241074
   2.5157000  41.8887911  48.6919459   2.5151226  41.7336567  49.5503735
   2.3113180  42.7350898  48.6360844   2.4856777  41.9908531  48.8107398
   2.3049670  49.3189100  55.0332794   2.7304742  48.7963522  54.4803219
   1.9406590  49.9169937  54.5121417   2.3136273  49.3299327  54.8741804
   2.3396081  40.8926653  55.5112837   1.7559069  41.3935859  55.0990404
   2.6600375  40.3856209  54.8777160   2.3009256  40.8918488  55.3571344
  15.5674193  61.4857223  47.6213862  15.5368197  62.3401859  47.7932131
  16.1655542  61.1852515  48.1800005  15.6511351  61.5673719  47.7288664
   8.7673878  60.5732874  52.3766792   7.9111773  60.7341372  52.4275909
   8.8141532  59.7024938  52.3971853   8.6472989  60.4683676  52.3872858
  12.0767594  66.8419399  61.9827248  12.7834362  66.3471430  62.1114183
  12.2655530  67.2828481  61.2529906  12.2095500  66.8337750  61.8936294
  11.6125699  62.6324918  55.0198444  12.1581659  63.3110004  55.0792414
  11.5542575  62.4912378  54.1600025  11.6841613  62.7116919  54.9010504
  13.3890767  64.0609525  45.8932172  13.2730293  64.8117211  46.3224310
  14.1846654  63.8033478  46.1428259  13.4895357  64.1344372  45.9936263
   5.2721093  68.0503548  47.1801514   5.5936934  68.5908755  46.5762822
   5.9193189  67.4800319  47.3123804   5.4147148  68.0462723  47.1108549
   7.3222801  60.0519543  47.2635901   8.0202966  60.2307670  47.7557364
   7.6375134  59.5289882  46.6406290   7.4718138  60.0013315  47.2437911
   7.5110736  66.4389988  47.2515692   7.9504372  65.8307088  47.6970465
   7.3615399  66.0597361  46.4801157   7.5532202  66.2928459  47.2034860
   4.9782379  65.0333999  54.4534518   5.6231382  64.5406443  54.1345466
   5.2184156  65.1758786  55.2800596   5.1092965  64.9811442  54.5284051
   7.5168471  67.8788905  54.1041410   7.7991714  67.0840311  53.8828166
   8.2454631  68.3569493  54.1246471   7.6658034  67.8323502  54.0744425
   5.4949665  55.4211939  51.3457175   5.1652995  55.8723083  50.6760874
   4.8194666  55.3428103  51.8930182   5.3460101  55.4763074  51.3280399
  11.1120073  64.7917169  44.2046461  11.0271368  65.6478136  44.3496030
  11.6004456  64.5161493  44.8728621  11.1708970  64.8774490  44.3248543
  12.7026072  51.4097462  49.5906786  12.3879513  52.1000941  50.0227208
  12.1853014  51.3542244  48.8892287  12.5790543  51.5032351  49.5503735
  12.0438506  61.4101963  45.7044197  11.5149978  61.6261597  46.3641503
  12.5663526  62.1038102  45.6245166  12.0426959  61.5445100  45.7899796
  17.4986559  66.9848268  51.0777241  16.6684262  67.1958911  51.2410658
  17.4495811  66.1585322  50.8019525  17.3693295  66.8937874  51.0614606
   3.9338114  65.3065180  44.5051665   3.3495329  65.8115211  44.9117528
   3.5308209  65.0807567  43.7648257   3.7877418  65.3473428  44.4556690
   9.2159889  70.2646936  59.8741324   9.3043234  70.0773076  60.7219534
   9.6449601  69.6184365  59.4746170   9.2921991  70.1409943  59.9413075
   8.3915328  61.5530832  42.9820585   8.6311332  61.7608816  42.1695928
   8.7131169  60.7488341  43.0909530   8.4752486  61.4644933  42.8781138
   3.7005619  53.4824228  46.8280123   4.4551587  53.8502545  46.5897173
   3.5233153  53.8563782  47.5959303   3.7860097  53.5922416  46.9065012
  16.9940517  59.6318668  54.8727662  16.1568938  59.7020855  55.1075257
  16.9628748  59.6343163  54.0001965  16.8658800  59.6428895  54.7787210
   3.3905246  61.7751704  60.5876031   3.5625750  61.6657598  61.4361312
   3.9274604  62.4206109  60.3507223   3.4950250  61.8543706  60.6781128
   2.0562683  55.8894547  43.5258236   1.8738257  56.1066428  42.6999229
   2.9188296  56.0033559  43.5816851   2.1567273  55.9384445  43.4112723
   1.6677115  67.7282469  50.9681224   2.5066015  67.9605402  51.0154986
   1.6988884  66.8586780  50.8988259   1.7958833  67.6339415  50.9645869
   7.7362403  52.8920957  46.5607260   8.4648563  52.7136912  46.1145416
   7.8257295  53.7339037  46.7714438   7.8569065  52.9904836  46.5260778
  11.7170703  63.8274345  50.4639554  12.4728218  64.2605859  50.5028463
  11.8233028  63.1779114  51.0374190  11.8440874  63.7951829  50.5537579
  14.7550874  67.6547622  51.2141957  14.3186106  67.6584364  51.9700928
  14.4213790  68.3353121  50.7821534  14.6413494  67.7560078  51.2622789
  14.6748357  54.6961450  53.4571385  15.3174266  54.7659554  54.0433300
  14.9271378  54.0290673  52.9550927  14.8070489  54.6087798  53.4698664
   1.6024710  59.1668719  42.0380709   0.8882887  58.8806899  42.4503142
   2.0868679  59.5065345  42.6787097   1.5684074  59.1750369  42.1936344
   2.4465570  57.9062013  58.0695959   1.7537367  57.4358993  58.3156690
   3.0625897  57.6800318  58.6437666   2.4350100  57.8029145  58.1905111
  17.8895221  64.3728542  50.1061594  18.5511655  63.8119210  50.0057503
  17.2486633  63.8780573  50.4314285  17.8924088  64.2164951  50.1393934
   8.7772028  67.6698673  42.4142517   9.1923177  67.3383697  41.7227013
   7.9463958  67.4367576  42.2862654   8.7160037  67.5869929  42.2933365
  14.1760051  65.3893924  49.8473583  14.4115640  65.5339123  49.0200434
  14.3249615  66.1536332  50.2405097  14.2325855  65.5232979  49.7837187
   1.1706129  61.8727417  59.2122804   1.8946101  61.8580448  59.6987699
   1.2722265  62.5822772  58.7144772   1.2924338  61.9752120  59.2101591
  16.0050508  64.2295590  47.6843187  16.3358725  64.7623230  47.0783282
  16.5783596  64.2834478  48.3405138  16.1384187  64.3165159  47.6920968
  11.2182397  62.0760493  48.3666767  11.3129251  62.8149787  48.8206392
  10.5941241  61.6477968  48.8001331  11.1391427  62.1221814  48.4974914
   9.4734871  65.2546706  59.0157048  10.0473733  64.6173950  59.1705612
   9.3949675  65.2550788  58.1466705   9.5468106  65.1611817  58.9103459
  11.4705418  63.9209233  41.6003719  11.3885581  63.9911420  42.4658706
  12.1085139  64.4838977  41.4087459  11.5525256  64.0148204  41.6993668
   4.8298590  63.6869971  51.0678245   4.5717834  62.8541706  51.0409545
   4.8847072  63.9127584  50.2270745   4.7998367  63.5967742  50.9398382
   9.9099640  55.7898421  51.1682338   9.2055966  55.3007607  51.3266257
   9.9584614  55.8020896  50.2970782   9.8129691  55.7188069  51.0621678
   3.8033302  61.2407733  51.5543140   3.2282893  61.3999901  52.1907101
   3.4268978  60.6043142  51.0911590   3.6636114  61.1705546  51.5797698
   7.4706590  59.7131082  56.4135518   7.0821023  59.2885300  55.7587709
   6.8061289  59.9613232  56.9212545   7.3153518  59.6869804  56.3923386
  17.1129859  59.4706087  49.1883348  16.8566424  58.6586029  48.9981231
  17.9559173  59.4783654  48.9613536  17.1995885  59.3518085  49.1268165
  11.2932952  53.4105711  53.9259503  11.6743464  52.7283882  54.3127377
  10.4896236  53.1215313  53.7435167  11.2309414  53.2672760  53.9563558
   8.5745529  63.9429687  44.6112325   9.3886167  64.2344580  44.4995097
   8.5104670  63.2889549  44.0370618   8.6848268  63.8894882  44.5101163
  14.7955019  66.6255683  59.0241901  14.5593656  65.7943748  58.9053962
  15.4398248  66.5741290  59.6096745  14.8549690  66.4953371  59.0927794
   4.4453437  67.4151204  49.7384637   5.0827384  67.1762952  50.2836431
   4.8708508  67.6188363  49.0037798   4.6029603  67.4102215  49.7101795
   5.0856252  62.6353494  44.0759527   5.4701405  62.4161201  44.8276072
   4.8367872  63.4616440  44.2060603   5.1058324  62.7251640  44.2060603
   5.2524792  55.9159909  63.7922111   4.9378233  56.6859472  63.5291674
   4.9314725  55.3530165  63.2074338   5.1583711  55.9470178  63.6663461
  15.8191439  66.4100132  55.0870195  15.5137256  67.1428189  55.4483511
  15.0997655  66.0038061  54.8062981  15.6678782  66.4581865  55.0983332
   6.8274909  67.8923627  51.4178424   6.9013917  67.7298799  52.2720274
   7.6444415  68.0813817  51.1738905   6.9591267  67.8960369  51.5076449
  21.5193232  63.0493133  54.4138540  21.4517732  63.0689092  53.5441126
  21.5048894  63.8923460  54.6394210  21.5071988  63.1766867  54.3191017
   2.8056689  54.3050431  49.4068307   1.9379115  54.3773030  49.4725916
   3.0931894  55.1072510  49.5956282   2.7196437  54.4344578  49.4443074
  11.9289578  54.4528290  57.7379629  12.6743170  54.2638101  57.3243054
  11.5126883  54.9786528  57.1793485  11.9774552  54.5030436  57.5944202
  19.3051849  61.8237519  52.6885134  19.8559770  61.1905588  52.9282226
  19.2895964  62.3552912  53.3800638  19.3837045  61.8086467  52.8263992
   5.9574240  65.6576116  57.2345027   5.4585933  66.3691884  57.3129916
   6.7674464  65.9776783  57.1963190   6.0030346  65.8102965  57.2401596
   2.2202357  64.9199069  51.4807748   1.9315606  64.2936540  52.0153476
   3.0885705  64.8619356  51.5472429   2.3062609  64.8186613  51.5698703
  13.0080255  60.0633852  51.7989730  12.6645021  59.3424188  52.1496980
  13.1073298  59.8547704  50.9568089  12.9722298  59.9258056  51.7261410
   2.4234631  66.5594320  47.4050113   3.1780599  66.9407359  47.6185576
   1.8305243  67.0105464  47.8596810   2.4471344  66.6823147  47.5032992
  13.4693284  66.5259557  47.3413718  14.0351317  67.1852766  47.2572261
  12.8221188  66.8709255  47.8130121  13.4572041  66.6741498  47.3986475
   4.8841298  58.5157160  62.5307326   4.0741073  58.8214940  62.4197168
   5.3615984  59.2362743  62.6459910   4.8344776  58.6671762  62.5314397
   3.7432857  67.7302881  52.7790229   3.2213611  67.8703173  53.4642094
   4.1306878  66.9713546  52.9692346   3.7236558  67.6388405  52.9091305
   0.7324041  57.7808690  46.8485183   0.4448837  57.4109961  46.1117131
   1.4194510  58.2503546  46.5868888   0.7912939  57.7955660  46.7000259
   9.9399862  69.4698341  46.7650798   9.6986538  68.7366201  46.3577863
  10.1201195  70.0185198  46.1117131   9.9307486  69.4420732  46.6081021
   5.1699183  64.7606900  48.1771720   4.9741966  65.3681635  47.5832023
   5.3933528  64.0674844  47.6963394   5.1733824  64.7484426  48.0187801
   3.5677713  61.6461638  48.2952588   4.2900365  61.8102797  47.8356394
   3.0885706  62.3671303  48.1891928   3.6041444  61.7759868  48.2118202
  11.5271221  57.9825437  53.6749273  10.6882321  58.0086716  53.4387536
  11.5975588  58.6296173  54.2554620  11.4139614  58.0821563  53.7258390
   9.9740499  54.8810814  48.4076889  10.6766852  54.6818563  47.9296847
   9.7084688  54.1086757  48.7145733  10.0387131  54.7373780  48.3822331
  15.4028744  63.1893424  50.9610515  15.3162719  63.3448850  51.8145294
  14.9479224  63.8331499  50.5869920  15.3232001  63.3069179  51.0317622
   4.7369055  56.1446099  57.4607770   4.5452252  56.1601234  58.3107193
   5.5867651  56.3409774  57.4374425   4.8344777  56.1760451  57.5831064
   9.2754560  60.5104171  49.5836074   9.0289275  60.4299922  50.4172863
   9.6039683  59.7257639  49.3898602   9.2875804  60.3830436  49.6783598
  13.1702609  67.2187530  53.3722856  13.0316969  67.9168576  53.8771598
  12.3902607  67.0636187  53.0159037  13.0345836  67.2987697  53.3949130
  11.5080694  63.5183906  59.6245237  11.5028733  62.6463722  59.6287664
  12.2141688  63.7172075  59.1514693  11.6125698  63.4187780  59.5552273
   5.2351588  63.2460890  58.9959057   5.3794963  63.8262098  58.3602168
   5.5827236  63.6237186  59.7008912   5.3079049  63.3881594  59.0058052
   7.4071505  62.4451058  56.7784189   6.6594819  62.6382072  56.3732467
   7.5613030  61.6196278  56.5408310   7.3193933  62.3516169  56.6829595
  14.6655982  66.5765784  44.1339355  14.2862791  65.7902922  44.1268644
  14.0022227  67.1252641  43.9910999  14.5114457  66.5410608  44.1120152
   7.6473282  56.3401609  57.6679593   8.1045896  57.0725583  57.7952385
   7.7229611  55.9168074  58.4266849   7.7264252  56.3858847  57.7980669
  12.1200608  49.5191484  51.5373436  12.2384176  49.9767947  50.8040738
  11.9462784  48.7136745  51.2509653  12.1119779  49.4685256  51.3874369
   5.5255660  58.3303713  54.5121417   4.7351735  58.1495173  54.8338753
   5.9216283  57.5530665  54.4951711   5.4672536  58.1891174  54.5573965
  10.0121551  67.1591487  39.9528130  10.7794536  67.2191612  39.5433982
   9.5652860  66.5871928  39.4684449  10.0594978  67.0828063  39.8205841
  10.9099346  65.9646143  52.2380863  10.2344348  65.7331375  52.7394250
  10.9191722  65.3567326  51.6122968  10.8117851  65.8405068  52.2197015
   8.0393490  60.8063972  58.9944916   7.9752631  61.6673928  58.8665052
   8.1790678  60.4895965  58.1940467   8.0508960  60.8864138  58.8573129
  12.9116081  68.8211275  44.4691041  12.9935918  69.6278261  44.1452492
  13.3965823  68.8407234  45.1931814  12.9953239  68.9431938  44.5277939
   6.7212584  63.4996111  53.1361119   6.2974833  63.7000610  52.4000137
   6.5457439  62.6524959  53.2485418   6.6323465  63.4044893  53.0434809
   2.0095029  63.9948163  48.5689091   2.1659648  63.9294965  49.4245083
   2.3495622  64.7696715  48.3567771   2.0828264  64.0997361  48.6643685
   8.5474174  63.3706046  47.4382454   9.0889719  62.8676427  47.9021075
   8.8620733  63.3171241  46.6271940   8.6738571  63.2885467  47.3866266
  12.4191281  67.5808693  64.5509367  13.2326146  67.3093842  64.7114499
  12.2586247  67.2816233  63.7469563  12.5161230  67.4963620  64.4554772
   6.7160623  68.7623398  44.7222482   6.7853444  67.9037936  44.8615483
   7.4949079  68.9795279  44.3941507   6.8413474  68.6676262  44.6939640
   9.6963443  58.2642351  57.4904755   9.9105413  57.6253265  56.9368109
   9.0797342  58.7088175  57.0612617   9.6368772  58.2352494  57.3455186
  11.8602531  59.8731416  58.4288062  11.0479213  59.5657306  58.5101235
  12.3192466  59.3930416  58.9930774  11.8082916  59.7567908  58.5242656
  11.2707786  67.7511088  48.8765006  10.9122441  67.9225731  49.6529039
  10.7846497  68.2124293  48.3193005  11.1466483  67.8450059  48.9090275
   9.0878172  51.3742286  52.4792098   8.2171730  51.3481007  52.4325407
   9.3418513  51.2019479  51.6617943   8.9971732  51.3452430  52.3512234
   6.0596151  63.4310253  41.4165241   6.3488676  64.2075136  41.6908815
   6.1467950  62.9198985  42.1179740   6.1150407  63.4702172  41.5607739
   8.9556039  61.2791487  63.2116764   9.4255670  61.9033604  63.5984638
   9.0017919  60.6108463  63.7709979   9.0323914  61.2726168  63.3516836
   6.1127312  53.3848515  53.9365568   5.5965801  52.6928706  54.0617147
   5.5521241  54.0519292  53.8828167   5.9533826  53.3811772  53.9471634
   8.1819546  53.9241475  55.7658421   7.7951299  53.9490506  56.5471951
   7.6952483  53.3583153  55.3132937   8.0532055  53.8437226  55.8146324
  12.4312525  68.6414984  59.8232207  13.0692246  68.1475179  59.4894663
  11.7886617  68.5692384  59.2384434  12.4306752  68.5573992  59.6874562
  14.1569525  60.4904130  54.3898123  13.7297133  60.4030478  53.6346222
  13.5195578  60.5981905  54.9752967  13.9999132  60.4936790  54.3643564
   7.8476687  50.8108460  58.0568681   8.4769805  51.3468760  57.7789751
   8.0162550  50.7185819  58.9082246   7.9654482  50.8769823  58.1417209
   7.6490602  55.5979655  60.3295092   8.4764032  55.3264804  60.3853707
   7.6698448  56.3940497  60.6858910   7.7743452  55.6759409  60.3910275
  12.4866782  69.3334792  56.4637564  13.2759160  68.9823857  56.5839646
  12.6610380  70.1471180  56.2014198  12.6287063  69.4020649  56.4425432
   2.2260092  62.7443518  53.5165353   1.3848099  62.6447392  53.7244247
   2.4350100  63.5138998  53.8679673   2.1324785  62.8435561  53.5992668
  11.3400606  53.3444349  51.0253982  11.5450199  53.2766657  51.8710979
  11.0127030  54.1503170  50.9575160  11.3215854  53.4530289  51.1413637
   6.0376757  60.6724917  52.7662950   5.7339895  60.1180905  53.3673358
   5.3356178  60.8517127  52.2790985   5.8892967  60.6169699  52.7832656
   5.0942854  57.9825437  47.3307652   5.3702588  57.2644349  46.9185220
   5.6941523  58.5810357  47.1228758   5.2236119  57.9645808  47.2388413
  14.5934294  53.8976113  50.5056748  13.9808607  54.3846515  50.8910480
  14.6898469  53.2219604  51.0494399  14.5172191  53.8694422  50.6435606
   8.5953375  55.6538954  45.6054247   9.0497121  55.8249515  46.3302092
   9.0693420  55.0407065  45.2052023   8.7321695  55.5889839  45.6528009
   2.1168900  65.1387280  54.9356986   1.5256833  65.7796778  54.9060001
   2.8789924  65.5624897  54.9088285   2.1417161  65.2963119  54.9272133
   2.5129523  56.2989278  55.6025003   2.9731004  56.3728207  56.3400127
   2.5585630  57.0970532  55.2524825   2.5880078  56.4283425  55.6597760
   4.1612873  56.9655973  60.1697030   3.7698438  56.3189320  60.6052808
   4.3298735  57.5567408  60.7891286   4.1283783  56.9570241  60.3259736
  18.2359322  64.9693050  55.9334264  18.2942445  65.4179699  56.6794240
  17.6025789  65.3791863  55.4964344  18.1510617  65.0966784  55.9786812
  11.8758416  70.5896592  52.3689010  11.6778105  71.0787406  51.6745221
  11.2546127  70.7937833  52.9473143  11.7545981  70.6913130  52.3512233
   5.9366395  62.3581489  46.7099254   6.6808440  62.7455765  46.9482204
   6.0827091  61.5138914  46.8739742   6.0676980  62.2911961  46.7693224
   7.8545970  54.1531747  51.7431116   7.0082015  54.3254555  51.6172466
   7.8517103  53.3481091  52.0796944   7.7293120  54.0592776  51.7742243
   8.9244270  57.9306962  52.6093174   8.4504225  57.4048724  53.1198485
   9.2962406  57.3836435  52.0408035   8.9094159  57.7722958  52.6008321
  15.1881001  62.9909337  54.0199954  14.9479224  62.1515753  54.0242381
  15.6673008  63.0709504  54.7440728  15.2233185  62.8790737  54.1274757
  10.8527770  58.8243516  45.6718928  10.3250789  58.9072260  44.9824636
  11.3123478  59.5661388  45.6683572  10.8429621  58.9464179  45.5693623
  17.1886188  59.7710795  51.9729213  16.9495958  59.7306629  51.1349998
  17.3520089  60.6181947  52.0994934  17.1776492  59.8902880  51.8682695
  13.7932218  64.1560744  57.9034258  14.5166417  63.7033270  57.7245278
  13.5282181  64.4365410  57.1206586  13.8613492  64.1311713  57.7612974
   2.6619087  58.7520918  54.6387138   2.0372157  58.7639310  54.0313090
   2.3264681  59.2281093  55.2878378   2.5204578  58.8239435  54.6443706
   2.8460835  57.0946036  40.6959823   2.4973640  57.7465761  41.1591372
   2.3657281  57.0803149  39.9683694   2.7231079  57.1889090  40.6570914
  10.4064853  67.3947080  44.8028585  11.1299052  67.8605193  44.6593158
   9.9665444  67.4620690  44.0526182  10.4480545  67.4730917  44.6713366
   9.5751008  64.2544622  56.0529274   8.9608001  63.7102673  56.3477909
  10.0918293  63.7408859  55.5735090   9.5606670  64.0981031  56.0253502
   8.8147305  65.3248892  53.7873572   8.3874913  64.6998611  53.3539008
   8.8072249  65.0423814  54.6132579   8.7506446  65.1901673  53.8453400
   1.9309832  60.3614065  56.8562006   2.0903319  59.6057389  57.2613728
   1.7502726  60.9105005  57.5102744   1.9275191  60.3307879  57.0124712
   9.8730135  52.5275301  57.4112796   9.3770696  52.7238975  56.7204362
  10.6299197  52.9267969  57.2401597   9.9116960  52.6153035  57.2832932
   7.1433015  56.2017647  54.0016106   7.1675502  55.6677759  53.3128886
   7.3944488  55.6934956  54.6641697   7.1842933  56.0478551  53.9980751
   3.4234337  54.9288465  53.3821851   3.4632708  55.4297672  54.0956558
   2.5984001  55.0198859  53.1127774   3.3073863  55.0170281  53.4472389
   4.8448700  61.4448975  55.6795750   4.0140630  61.6122793  55.4730998
   4.7900217  61.0684926  56.4644635   4.7138115  61.4138706  55.7644278
   2.6532483  54.9357868  61.3152160   3.2785187  54.3920001  61.5881593
   2.1982963  54.4552785  60.7459951   2.6780744  54.7847349  61.2713754
   3.2184744  59.7204566  46.2085867   3.3587705  60.2177031  46.9114509
   3.7167277  59.0190861  46.3500081   3.3125825  59.6906545  46.3337446
   3.2484966  60.5871677  43.5378444   3.8830046  61.1832102  43.4727906
   3.3310577  60.2875135  44.3524314   3.3541517  60.6312586  43.6481531
  16.2267532  63.1187155  56.4064808  16.8185372  63.7584406  56.4383006
  16.6626527  62.4210192  56.6956875  16.3785963  63.1105505  56.4545641
   4.8263949  56.5185653  43.5123886   5.1479790  56.0388735  42.8583148
   5.0890893  57.3285299  43.3214698   4.9129975  56.5675551  43.3879378
   8.0560922  67.5404527  57.0322702   7.5486013  68.0940374  57.4763333
   7.7587568  67.6012817  56.2141477   7.9365807  67.6310838  56.9771159
  10.2223104  55.9057847  55.8747365  10.6478176  55.4530373  55.2630892
   9.6080097  55.3517918  56.1512153  10.1951750  55.7571823  55.8252390
   8.6617327  52.3772947  49.2837942   8.0185645  52.2270593  49.8523081
   8.3216734  52.1315292  48.5187047   8.5162404  52.3185069  49.2540957
  13.2516674  60.3332373  48.7067951  12.5807863  60.8762076  48.5781016
  13.9456424  60.8027229  48.4649646  13.2545541  60.4830645  48.6523478
  13.4144801  56.7888257  51.6158324  13.7672411  56.3617980  52.2904123
  12.5559603  56.7039101  51.7459400  13.3394246  56.7132998  51.7353334
   2.1128486  59.4195777  49.6741170   1.3940475  59.8359909  49.9414034
   2.4840848  59.9850016  49.1232809   2.0620418  59.5645058  49.6323977
  11.4128067  60.0523626  55.5643166  11.3925994  59.8706921  56.4177945
  11.4607268  60.9235644  55.5402750  11.4162708  60.1540164  55.6866461
   9.3574397  66.6410818  61.4891643   9.3170252  65.9960495  60.9036799
  10.1697715  66.5847435  61.8017055   9.4717550  66.5369785  61.4488592
   7.8875060  58.4593777  45.0114550   7.2939900  58.7810773  44.4599117
   7.9250338  57.6134872  44.8035656   7.8049450  58.3818105  44.8997321
  14.8468861  51.9106669  52.5442636  14.3399726  51.2035808  52.4763814
  15.6436295  51.5799858  52.6743713  14.8896100  51.7579820  52.5541631
  10.7632877  58.4173281  48.4416300  10.5346570  58.4405983  47.5994658
  11.0230953  57.5930748  48.5611311  10.7679065  58.2989361  48.3341498
   5.0452105  60.2707754  58.0441400   4.5331008  59.6628937  58.4026432
   4.8731602  60.9864347  58.5115376   4.9441742  60.2871053  58.1657624
   3.8177639  56.9549827  49.7370496   4.2935006  57.3166907  49.1020677
   3.3166239  57.6106295  50.0170639   3.8142998  57.1044016  49.6847237
  17.0489001  66.4271596  45.5283501  17.4322607  67.1762952  45.7581598
  16.2533114  66.6737415  45.2695490  16.9882783  66.5741289  45.5241074
   8.9221176  58.1931999  60.4843656   9.4792606  57.9645808  59.8522121
   8.5982241  58.9537664  60.2078868   8.9567586  58.2715836  60.3500153
   6.6404293  61.2799652  61.4495663   7.3915620  61.5951329  61.7635217
   6.8326869  61.0778823  60.6229585   6.7795707  61.2967034  61.3739059
   5.8604293  59.0991027  43.1043880   6.2403257  59.1170656  42.3194995
   5.1196889  59.5445016  42.9834727   5.8073130  59.1672802  42.9707448
  13.4889583  57.4073218  48.6919459  13.4883810  57.2521875  49.5503735
  13.2845763  58.2536206  48.6360844  13.4589361  57.5093839  48.8107398
  11.2130435  62.0870720  52.3455665  11.7084101  61.3693715  52.3059686
  10.4030211  61.7841518  52.2310152  11.1674328  61.9368367  52.3229391
   6.6589047  65.9368533  44.4952670   5.8500369  65.6135207  44.4485979
   7.1663956  65.2301756  44.4280918   6.6138713  65.7849850  44.4782964
  13.2782254  64.8374408  55.0332794  13.7037326  64.3148830  54.4803219
  12.9139174  65.4355245  54.5121417  13.2868857  64.8484635  54.8741804
   9.8660854  68.5508672  51.3633952  10.3372032  69.2648935  51.5323937
  10.2021032  67.9507422  51.8993821   9.9855969  68.5680136  51.4666328
   6.7830348  53.3236143  58.3192046   6.9158254  52.5267136  58.6473022
   7.1675501  53.8502546  58.8990322   6.8586677  53.2836059  58.4535549
  10.5034800  68.3426606  58.1261644   9.9555746  67.7184490  57.8581710
  10.9647829  68.5320878  57.4105724  10.4902009  68.2785656  57.9812075
   9.8562704  50.2466469  54.9173140   9.0508667  50.1364198  55.2340978
   9.7269439  50.3478924  54.0603005   9.7182836  50.2450139  54.8381180
  13.3128664  56.4111961  55.5112837  12.7291653  56.9121167  55.0990404
  13.6332958  55.9041517  54.8777160  13.2741840  56.4103796  55.3571344
   5.8523463  55.3252555  45.7871511   6.6739158  55.4950868  45.5453206
   5.3893114  55.4799816  45.0637809   5.9054626  55.3734288  45.6443156
   4.4418795  53.3195318  56.5669940   4.9863208  52.9786444  57.1574282
   4.4955731  54.1780779  56.7091225   4.5307915  53.3950577  56.6751814
  10.0693126  69.3477679  54.6570985  10.8891500  69.2040645  54.9187281
   9.7887204  69.9723878  55.1987423  10.1489869  69.4188031  54.7758925
  16.4682248  70.9397247  51.3457175  16.1385578  71.3908391  50.6760874
  15.7927250  70.8613411  51.8930182  16.3192685  70.9948382  51.3280399
  23.6758656  66.9282770  49.5906786  23.3612097  67.6186249  50.0227208
  23.1585598  66.8727552  48.8892287  23.5523126  67.0217659  49.5503735
  14.6738202  69.0009536  46.8280123  15.4284170  69.3687853  46.5897173
  14.4965737  69.3749090  47.5959303  14.7592681  69.1107724  46.9065012
  27.9673101  75.1503976  54.8727662  27.1301522  75.2206163  55.1075257
  27.9361332  75.1528471  54.0001965  27.8391383  75.1614203  54.7787210
  13.0295267  71.4079855  43.5258236  12.8470840  71.6251735  42.6999229
  13.8920880  71.5218867  43.5816851  13.1299856  71.4569753  43.4112723
  18.7094986  68.4106265  46.5607260  19.4381147  68.2322220  46.1145416
  18.7989879  69.2524345  46.7714438  18.8301648  68.5090144  46.5260778
  25.6480941  70.2146758  53.4571385  26.2906849  70.2844862  54.0433300
  25.9003962  69.5475981  52.9550927  25.7803073  70.1273106  53.4698664
  20.8832223  71.3083729  51.1682338  20.1788550  70.8192915  51.3266257
  20.9317198  71.3206204  50.2970782  20.7862275  71.2373377  51.0621678
  28.0862443  74.9891395  49.1883348  27.8299008  74.1771337  48.9981231
  28.9291757  74.9968962  48.9613536  28.1728468  74.8703392  49.1268165
  22.2665535  68.9291019  53.9259503  22.6476047  68.2469190  54.3127377
  21.4628820  68.6400621  53.7435167  22.2041997  68.7858068  53.9563558
  16.2257376  71.4345217  63.7922111  15.9110817  72.2044780  63.5291674
  15.9047308  70.8715473  63.2074338  16.1316295  71.4655486  63.6663461
  13.7789273  69.8235739  49.4068307  12.9111698  69.8958338  49.4725916
  14.0664477  70.6257818  49.5956282  13.6929021  69.9529886  49.4443074
  22.9022162  69.9713598  57.7379629  23.6475754  69.7823409  57.3243054
  22.4859466  70.4971836  57.1793485  22.9507136  70.0215744  57.5944202
  30.2784432  77.3422827  52.6885134  30.8292354  76.7090896  52.9282226
  30.2628548  77.8738219  53.3800638  30.3569629  77.3271775  52.8263992
  23.9812839  75.5819160  51.7989730  23.6377605  74.8609496  52.1496980
  24.0805881  75.3733012  50.9568089  23.9454882  75.4443364  51.7261410
  22.5003804  73.5010745  53.6749273  21.6614905  73.5272024  53.4387536
  22.5708171  74.1481481  54.2554620  22.3872198  73.6006871  53.7258390
  20.9473082  70.3996122  48.4076889  21.6499435  70.2003870  47.9296847
  20.6817271  69.6272065  48.7145733  21.0119715  70.2559088  48.3822331
  15.7101639  71.6631407  57.4607770  15.5184836  71.6786542  58.3107193
  16.5600235  71.8595082  57.4374425  15.8077361  71.6945759  57.5831064
  18.6205866  71.8586917  57.6679593  19.0778480  72.5910891  57.7952385
  18.6962194  71.4353382  58.4266849  18.6996835  71.9044155  57.7980669
  23.0933192  65.0376792  51.5373436  23.2116760  65.4953255  50.8040738
  22.9195367  64.2322053  51.2509653  23.0852363  64.9870564  51.3874369
  20.6696027  73.7827659  57.4904755  20.8837996  73.1438573  56.9368109
  20.0529926  74.2273482  57.0612617  20.6101356  73.7537802  57.3455186
  22.8335115  75.3916724  58.4288062  22.0211796  75.0842614  58.5101235
  23.2925049  74.9115724  58.9930774  22.7815499  75.2753216  58.5242656
  20.0610755  66.8927594  52.4792098  19.1904313  66.8666315  52.4325407
  20.3151097  66.7204786  51.6617943  19.9704315  66.8637738  52.3512234
  17.0859896  68.9033823  53.9365568  16.5698384  68.2114014  54.0617147
  16.5253825  69.5704600  53.8828167  16.9266409  68.8997080  53.9471634
  19.1552129  69.4426783  55.7658421  18.7683882  69.4675814  56.5471951
  18.6685067  68.8768461  55.3132937  19.0264638  69.3622534  55.8146324
  18.8209271  66.3293768  58.0568681  19.4502389  66.8654068  57.7789751
  18.9895134  66.2371127  58.9082246  18.9387066  66.3955130  58.1417209
  18.6223186  71.1164963  60.3295092  19.4496615  70.8450112  60.3853707
  18.6431032  71.9125805  60.6858910  18.7476036  71.1944717  60.3910275
  22.3133189  68.8629657  51.0253982  22.5182783  68.7951965  51.8710979
  21.9859613  69.6688478  50.9575160  22.2948437  68.9715597  51.1413637
  25.5666877  69.4161421  50.5056748  24.9541191  69.9031823  50.8910480
  25.6631052  68.7404912  51.0494399  25.4904775  69.3879730  50.6435606
  19.5685958  71.1724262  45.6054247  20.0229705  71.3434822  46.3302092
  20.0426004  70.5592373  45.2052023  19.7054278  71.1075147  45.6528009
  18.8278554  69.6717055  51.7431116  17.9814599  69.8439863  51.6172466
  18.8249686  68.8666399  52.0796944  18.7025704  69.5778084  51.7742243
  19.8976854  73.4492270  52.6093174  19.4236808  72.9234032  53.1198485
  20.2694990  72.9021743  52.0408035  19.8826743  73.2908266  52.6008321
  21.8260354  74.3428824  45.6718928  21.2983372  74.4257568  44.9824636
  22.2856062  75.0846696  45.6683572  21.8162204  74.4649487  45.5693623
  28.1618772  75.2896103  51.9729213  27.9228542  75.2491937  51.1349998
  28.3252673  76.1367255  52.0994934  28.1509075  75.4088188  51.8682695
  20.8462719  68.0460609  57.4112796  20.3503280  68.2424283  56.7204362
  21.6031781  68.4453277  57.2401597  20.8849543  68.1338343  57.2832932
  18.1165598  71.7202955  54.0016106  18.1408085  71.1863067  53.3128886
  18.3677072  71.2120264  54.6641697  18.1575517  71.5663859  53.9980751
  14.3966920  70.4473773  53.3821851  14.4365292  70.9482980  54.0956558
  13.5716585  70.5384167  53.1127774  14.2806446  70.5355589  53.4472389
  13.6265067  70.4543176  61.3152160  14.2517770  69.9105309  61.5881593
  13.1715547  69.9738093  60.7459951  13.6513328  70.3032657  61.2713754
  15.7996533  72.0370961  43.5123886  16.1212374  71.5574043  42.8583148
  16.0623477  72.8470607  43.3214698  15.8862558  72.0860859  43.3879378
  21.1955688  71.4243155  55.8747365  21.6210759  70.9715681  55.2630892
  20.5812681  70.8703225  56.1512153  21.1684333  71.2757131  55.8252390
  19.6349911  67.8958255  49.2837942  18.9918229  67.7455901  49.8523081
  19.2949318  67.6500600  48.5187047  19.4894988  67.8370377  49.2540957
  24.3877385  72.3073565  51.6158324  24.7404995  71.8803288  52.2904123
  23.5292186  72.2224409  51.7459400  24.3126829  72.2318306  51.7353334
  25.8201445  67.4291977  52.5442636  25.3132309  66.7221116  52.4763814
  26.6168878  67.0985166  52.6743713  25.8628684  67.2765128  52.5541631
  21.7365461  73.9358589  48.4416300  21.5079154  73.9591291  47.5994658
  21.9963537  73.1116056  48.5611311  21.7411649  73.8174669  48.3341498
  24.4622167  72.9258526  48.6919459  24.4616393  72.7707183  49.5503735
  24.2578347  73.7721513  48.6360844  24.4321945  73.0279147  48.8107398
  17.7562932  68.8421451  58.3192046  17.8890838  68.0452444  58.6473022
  18.1408085  69.3687854  58.8990322  17.8319261  68.8021367  58.4535549
  20.8295287  65.7651777  54.9173140  20.0241251  65.6549506  55.2340978
  20.7002023  65.8664232  54.0603005  20.6915420  65.7635447  54.8381180
  24.2861248  71.9297269  55.5112837  23.7024237  72.4306475  55.0990404
  24.6065542  71.4226825  54.8777160  24.2474423  71.9289104  55.3571344
  16.8256047  70.8437863  45.7871511  17.6471741  71.0136176  45.5453206
  16.3625698  70.9985124  45.0637809  16.8787209  70.8919596  45.6443156
  15.4151379  68.8380626  56.5669940  15.9595792  68.4971752  57.1574282
  15.4688315  69.6966087  56.7091225  15.5040498  68.9135885  56.6751814
   4.2892433  22.9050046  34.5553909   4.2586438  23.7594683  34.7272178
   4.8873782  22.6045338  35.1140052   4.3729591  22.9866542  34.6628711
   0.7985835  28.2612223  48.9167295   1.5052602  27.7664253  49.0454230
   0.9873770  28.7021304  48.1869953   0.9313740  28.2530573  48.8276341
   2.1109008  25.4802348  32.8272218   1.9948534  26.2310034  33.2564357
   2.9064894  25.2226301  33.0768306   2.2113597  25.5537195  32.9276310
   1.4244313  12.8290285  36.5246833   1.1097754  13.5193764  36.9567255
   0.9071254  12.7735068  35.8232334   1.3008783  12.9225174  36.4843782
   6.2204799  28.4041091  38.0117288   5.3902503  28.6151734  38.1750704
   6.1714052  27.5778145  37.7359571   6.0911535  28.3130697  37.9954653
   5.7158758  21.0511491  41.8067709   4.8787179  21.1213679  42.0415304
   5.6846989  21.0535986  40.9342012   5.5877040  21.0621718  41.7127257
   0.4388944  25.2467168  37.3979601   1.1946459  25.6798682  37.4368509
   0.5451268  24.5971938  37.9714237   0.5659114  25.2144652  37.4877626
   3.4769115  29.0740445  38.1482004   3.0404347  29.0777188  38.9040975
   3.1432030  29.7545944  37.7161581   3.3631735  29.1752901  38.1962836
   3.3966598  16.1154273  40.3911432   4.0392506  16.1852378  40.9773347
   3.6489618  15.4483496  39.8890974   3.5288730  16.0280622  40.4038711
   6.6113461  25.7921365  37.0401641   7.2729895  25.2312034  36.9397549
   5.9704873  25.2973396  37.3654332   6.6142328  25.6357774  37.0733981
   2.8978292  26.8086748  36.7813630   3.1333881  26.9531946  35.9540480
   3.0467855  27.5729156  37.1745143   2.9544095  26.9425802  36.7177234
   4.7268748  25.6488413  34.6183233   5.0576965  26.1816054  34.0123328
   5.3001836  25.7027301  35.2745184   4.8602427  25.7357982  34.6261015
   5.8348100  20.8898910  36.1223395   5.5784665  20.0778852  35.9321278
   6.6777414  20.8976477  35.8953582   5.9214125  20.7710908  36.0608212
   3.5173259  28.0448506  45.9581948   3.2811897  27.2136571  45.8394008
   4.1616488  27.9934114  46.5436792   3.5767930  27.9146194  46.0267841
   4.5409680  27.8292955  42.0210242   4.2355497  28.5621012  42.3823558
   3.8215895  27.4230885  41.7403028   4.3897022  27.8774688  42.0323379
  10.2411472  24.4685956  41.3478586  10.1735972  24.4881915  40.4781173
  10.2267134  25.3116283  41.5734257  10.2290228  24.5959690  41.2531063
   8.0270089  23.2430342  39.6225181   8.5778011  22.6098411  39.8622273
   8.0114205  23.7745735  40.3140685   8.1055286  23.2279290  39.7604039
   1.7298495  21.4826676  38.7329777   1.3863261  20.7617011  39.0837027
   1.8291538  21.2740527  37.8908135   1.6940538  21.3450879  38.6601457
   2.1911525  27.9452380  34.2753765   2.7569557  28.6045590  34.1912308
   1.5439428  28.2902078  34.7470167   2.1790281  28.0934321  34.3326522
   4.1246985  24.6086247  37.8950562   4.0380959  24.7641673  38.7485341
   3.6697465  25.2524323  37.5209967   4.0450241  24.7262002  37.9657668
   1.8920850  28.6380354  40.3062902   1.7535209  29.3361399  40.8111645
   1.1120847  28.4829010  39.9499084   1.7564076  28.7180520  40.3289177
   3.3874222  27.9958607  31.0679402   3.0081031  27.2095745  31.0608691
   2.7240468  28.5445464  30.9251046   3.2332697  27.9603431  31.0460199
   1.6334321  30.2404098  31.4031088   1.7154159  31.0471085  31.0792538
   2.1184063  30.2600058  32.1271861   1.7171479  30.3624761  31.4617986
   1.1409522  29.0001517  51.4849413   1.9544387  28.7286666  51.6454546
   0.9804488  28.7009057  50.6809609   1.2379470  28.9156443  51.3894819
   1.1530766  30.0607807  46.7572254   1.7910486  29.5668003  46.4234710
   0.5104857  29.9885208  46.1724481   1.1524992  29.9766816  46.6214609
   2.8787766  21.9096953  41.3238170   2.4515374  21.8223302  40.5686269
   2.2413819  22.0174729  41.9093014   2.7217373  21.9129613  41.2983611
   1.2085022  30.7527615  43.3977611   1.9977400  30.4016680  43.5179692
   1.3828620  31.5664004  43.1354245   1.3505304  30.8213472  43.3765479
   3.3152534  15.3168936  37.4396795   2.7026848  15.8039338  37.8250526
   3.4116709  14.6412427  37.9834446   3.2390432  15.2887245  37.5775653
   6.9577562  26.3885873  42.8674311   7.0160686  26.8372522  43.6134287
   6.3244030  26.7984686  42.4304391   6.8728857  26.5159608  42.9126859
   3.9099241  24.4102161  40.9540001   3.6697464  23.5708576  40.9582428
   4.3891249  24.4902327  41.6780775   3.9451425  24.2983560  41.0614803
   5.9104428  21.1903618  38.9069260   5.6714198  21.1499452  38.0690045
   6.0738330  22.0374770  39.0334981   5.8994732  21.3095703  38.8022742
   2.5150459  25.5753567  44.8374305   3.2384657  25.1226094  44.6585325
   2.2500421  25.8558233  44.0546633   2.5831732  25.5504536  44.6953021
   4.9485773  24.5379978  43.3404855   5.5403613  25.1777229  43.3723053
   5.3844767  23.8403015  43.6296922   5.1004204  24.5298328  43.3885688
   1.9734914  21.7525197  35.6407998   1.3026104  22.2954899  35.5121063
   2.6674664  22.2220052  35.3989692   1.9763781  21.9023468  35.5863525
   2.1363041  18.2081080  38.5498371   2.4890651  17.7810803  39.2244170
   1.2777843  18.1231924  38.6799447   2.0612486  18.1325821  38.6693381
   3.5687101  13.3299492  39.4782683   3.0617966  12.6228632  39.4103861
   4.3654535  12.9992681  39.6083760   3.6114341  13.1772644  39.4881678
   5.7707241  27.8464419  32.4623548   6.1540847  28.5955775  32.6921645
   4.9751355  28.0930238  32.2035537   5.7101024  27.9934113  32.4581121
   2.2107824  18.8266042  35.6259505   2.2102050  18.6714698  36.4843782
   2.0064004  19.6729029  35.5700891   2.1807601  18.9286662  35.7447445
   2.0000494  26.2567231  41.9672841   2.4255566  25.7341653  41.4143266
   1.6357414  26.8548068  41.4461464   2.0087097  26.2677458  41.8081851
   0.6756078  31.5802809  50.4766071   0.7853044  30.7911369  50.8322818
   1.0046975  31.4908745  49.6740409   0.7408484  31.4508662  50.4108461
   2.0346905  17.8304784  42.4452883   1.4509893  18.3313990  42.0330451
   2.3551199  17.3234340  41.8117207   1.9960080  17.8296619  42.2911391
  15.2625017  38.4235354  34.5553909  15.2319021  39.2779991  34.7272178
  15.8606366  38.1230646  35.1140052  15.3462175  38.5051850  34.6628711
   8.4624702  37.5111005  39.3106839   7.6062597  37.6719503  39.3615956
   8.5092355  36.6403069  39.3311900   8.3423813  37.4061807  39.3212905
   2.8465841  47.0473723  35.0744071   2.0948741  46.6689261  34.8460116
   3.2951853  47.0792156  34.3262881   2.8015508  46.9959330  34.9301573
  11.7718418  43.7797530  48.9167295  12.4785186  43.2849561  49.0454230
  11.9606354  44.2206612  48.1869953  11.9046324  43.7715881  48.8276341
   8.2990801  47.4699092  30.5029618   7.9642170  48.1476014  30.0673840
   8.8117672  47.0804403  29.9146489   8.3256382  47.5123670  30.3516409
   7.8395093  49.4213361  36.4440729   8.2234472  49.9900260  35.9045505
   7.7754234  48.6962871  35.9646545   7.8868520  49.3988824  36.2934592
  11.3076523  39.5703049  41.9538491  11.8532483  40.2488135  42.0132460
  11.2493399  39.4290510  41.0940072  11.3792437  39.6495050  41.8350551
   4.4250598  47.0592115  37.3406843   4.5260961  46.2492469  37.6503971
   3.8292343  46.9649061  36.7106522   4.3523136  46.9257143  37.2933082
  13.0841591  40.9987656  32.8272218  12.9681117  41.7495342  33.2564357
  13.8797478  40.7411609  33.0768306  13.1846181  41.0722503  32.9276310
   4.2651337  51.9769704  38.7421699   4.9088793  52.4182868  39.1317858
   4.5907593  51.1723130  38.6551958   4.4083166  51.9234899  38.7867176
   4.9671917  44.9881679  34.1141561   5.2887758  45.5286886  33.5102869
   5.6144013  44.4178450  34.2463851   5.1097972  44.9840854  34.0448596
   7.0173625  36.9897674  34.1975948   7.7153790  37.1685801  34.6897411
   7.3325958  36.4668013  33.5746337   7.1668962  36.9391446  34.1777958
   7.2061560  43.3768119  34.1855739   7.6455196  42.7685219  34.6310512
   7.0566223  42.9975492  33.4141204   7.2483026  43.2306590  34.1374906
   4.6733203  41.9712131  41.3874565   5.3182206  41.4784574  41.0685513
   4.9134980  42.1136917  42.2140643   4.8043788  41.9189573  41.4624098
   7.2119295  44.8167036  41.0381457   7.4942538  44.0218442  40.8168213
   7.9405455  45.2947624  41.0586518   7.3608858  44.7701633  41.0084472
   5.1900489  32.3590070  38.2797222   4.8603819  32.8101214  37.6100921
   4.5145490  32.2806234  38.8270229   5.0410925  32.4141206  38.2620445
  10.8070897  41.7295300  31.1386508  10.7222192  42.5856267  31.2836077
  11.2955280  41.4539624  31.8068667  10.8659794  41.8152622  31.2588590
  12.3976896  28.3475593  36.5246833  12.0830337  29.0379072  36.9567255
  11.8803838  28.2920376  35.8232334  12.2741367  28.4410482  36.4843782
  11.7389330  38.3480094  32.6384243  11.2100802  38.5639728  33.2981550
  12.2614350  39.0416233  32.5585213  11.7377783  38.4823231  32.7239843
  17.1937383  43.9226399  38.0117288  16.3635086  44.1337042  38.1750704
  17.1446635  43.0963453  37.7359571  17.0644118  43.8316005  37.9954653
   3.6288938  42.2443311  31.4391711   3.0446153  42.7493342  31.8457575
   3.2259033  42.0185698  30.6988303   3.4828242  42.2851559  31.3896737
   5.2547121  46.7530253  40.8465197   4.7374062  46.3937668  40.2426505
   5.9521512  46.2292427  40.8571264   5.2812702  46.6227941  40.7595456
   8.9110713  47.2025067  46.8081370   8.9994058  47.0151207  47.6559581
   9.3400425  46.5562497  46.4086217   8.9872815  47.0788075  46.8753122
   6.4781172  46.4856227  45.7899033   5.9152007  46.0728837  46.3138694
   7.2402196  46.4109133  46.2092176   6.5075621  46.4133627  45.9292033
   8.0866152  38.4908963  29.9160632   8.3262156  38.6986947  29.1035975
   8.4081993  37.6866472  30.0249577   8.1703310  38.4023064  29.8121185
   3.3956443  30.4202359  33.7620170   4.1502411  30.7880676  33.5237220
   3.2183977  30.7941913  34.5299350   3.4810921  30.5300547  33.8405058
   2.0377164  48.4754248  38.3935663   2.7397743  47.9606237  38.4508419
   1.9574647  48.8028399  39.1982538   2.1300924  48.4468474  38.5208455
  16.6891341  36.5696799  41.8067709  15.8519762  36.6398986  42.0415304
  16.6579572  36.5721294  40.9342012  16.5609624  36.5807026  41.7127257
   3.0856070  38.7129835  47.5216078   3.2576574  38.6035730  48.3701359
   3.6225428  39.3584240  47.2847270   3.1901074  38.7921837  47.6121175
   1.7513507  32.8272678  30.4598283   1.5689081  33.0444559  29.6339276
   2.6139120  32.9411691  30.5156897   1.8518097  32.8762576  30.3452770
   1.3627939  44.6660600  37.9021271   2.2016839  44.8983533  37.9495032
   1.3939708  43.7964912  37.8328306   1.4909657  44.5717547  37.8985915
   1.9880642  45.0861475  42.2034576   2.5278867  44.9432606  42.8737949
   1.3050589  45.4858226  42.5718603   1.9672796  45.1241146  42.3568998
   7.4313226  29.8299089  33.4947307   8.1599387  29.6515044  33.0485463
   7.5208119  30.6717168  33.7054485   7.5519889  29.9282967  33.4600824
  11.4121527  40.7652476  37.3979601  12.1679042  41.1983990  37.4368509
  11.5183852  40.1157246  37.9714237  11.5391698  40.7329960  37.4877626
  14.4501698  44.5925753  38.1482004  14.0136930  44.5962496  38.9040975
  14.1164614  45.2731252  37.7161581  14.3364318  44.6938209  38.1962836
   9.0230772  46.6334086  49.4725154   9.8071188  46.7464934  49.8380896
   8.8227366  45.8075223  49.6683840   9.1096797  46.5280805  49.5559540
  14.3699181  31.6339581  40.3911432  15.0125090  31.7037686  40.9773347
  14.6222202  30.9668804  39.8890974  14.5021313  31.5465930  40.4038711
   1.2975534  36.1046851  28.9720756   0.5833711  35.8185030  29.3843188
   1.7819503  36.4443476  29.6127143   1.2634898  36.1128500  29.1276391
   2.1416394  34.8440144  45.0036006   1.4488190  34.3737124  45.2496737
   2.7576721  34.6178449  45.5777713   2.1300924  34.7407276  45.1245158
   9.1801165  48.5444188  43.1191610   8.3816411  48.3043688  43.3765478
   9.6287177  48.5958581  43.8658657   9.1275776  48.5166579  43.2676534
   8.4722852  44.6076804  29.3482564   8.8874001  44.2761828  28.6567060
   7.6414782  44.3745707  29.2202701   8.4110861  44.5248060  29.2273412
  13.8710875  42.3272055  36.7813630  14.1066464  42.4717254  35.9540480
  14.0200439  43.0914463  37.1745143  13.9276678  42.4611110  36.7177234
   0.8656953  38.8105548  46.1462851   1.5896925  38.7958579  46.6327745
   0.9673089  39.5200904  45.6484819   0.9875162  38.9130252  46.1441638
  15.7001332  41.1673721  34.6183233  16.0309549  41.7001362  34.0123328
  16.2734420  41.2212609  35.2745184  15.8335011  41.2543290  34.6261015
   8.2401902  42.2904633  51.0111798   7.4474883  42.6048145  51.1964417
   8.3550829  42.5056101  50.1732582   8.1397313  42.3688470  50.9150133
  10.9133221  39.0138624  35.3006814  11.0080075  39.7527918  35.7546439
  10.2892065  38.5856100  35.7341378  10.8342251  39.0599945  35.4314961
   9.1685695  42.1924837  45.9497094   9.7424557  41.5552081  46.1045658
   9.0900499  42.1928919  45.0806752   9.2418930  42.0989948  45.8443505
  11.1656242  40.8587364  28.5343766  11.0836405  40.9289551  29.3998753
  11.8035963  41.4217108  28.3427506  11.2476080  40.9526335  28.6333715
   4.5249413  40.6248102  38.0018292   4.2668658  39.7919837  37.9749591
   4.5797896  40.8505715  37.1610792   4.4949191  40.5345873  37.8738429
   9.6050464  32.7276553  38.1022385   8.9006790  32.2385738  38.2606304
   9.6535438  32.7399027  37.2310829   9.5080515  32.6566200  37.9961724
   3.4984126  38.1785864  38.4883187   2.9233717  38.3378033  39.1247148
   3.1219802  37.5421273  38.0251637   3.3586938  38.1083677  38.5137745
   7.1657414  36.6509214  43.3475565   6.7771847  36.2263431  42.6927756
   6.5012113  36.8991363  43.8552592   7.0104342  36.6247935  43.3263433
  16.8080683  36.4084218  36.1223395  16.5517248  35.5964160  35.9321278
  17.6509997  36.4161785  35.8953582  16.8946709  36.2896216  36.0608212
  10.9883776  30.3483842  40.8599549  11.3694288  29.6662013  41.2467424
  10.1847060  30.0593444  40.6775214  10.9260238  30.2050891  40.8903605
   8.2696353  40.8807818  31.5452372   9.0836991  41.1722711  31.4335143
   8.2055494  40.2267681  30.9710665   8.3799092  40.8273013  31.4441209
  14.4905843  43.5633814  45.9581948  14.2544480  42.7321879  45.8394008
  15.1349072  43.5119422  46.5436792  14.5500513  43.4331502  46.0267841
   4.1404261  44.3529336  36.6724684   4.7778208  44.1141083  37.2176478
   4.5659332  44.5566495  35.9377845   4.2980427  44.3480346  36.6441841
   4.7807076  39.5731625  31.0099574   5.1652229  39.3539332  31.7616119
   4.5318696  40.3994571  31.1400650   4.8009148  39.6629772  31.1400650
   4.9475616  32.8538041  50.7262158   4.6329057  33.6237603  50.4631720
   4.6265549  32.2908297  50.1414385   4.8534535  32.8848309  50.6003508
  15.5142263  43.3478263  42.0210242  15.2088080  44.0806320  42.3823558
  14.7948479  42.9416193  41.7403028  15.3629606  43.3959996  42.0323379
   6.5225733  44.8301758  38.3518470   6.5964741  44.6676930  39.2060320
   7.3395239  45.0191948  38.1078952   6.6542091  44.8338501  38.4416496
   2.5007513  31.2428562  36.3408354   1.6329939  31.3151162  36.4065963
   2.7882718  32.0450641  36.5296329   2.4147261  31.3722709  36.3783121
  11.6240402  31.3906421  44.6719676  12.3693994  31.2016232  44.2583101
  11.2077707  31.9164659  44.1133532  11.6725376  31.4408567  44.5284249
   5.0630318  47.7936501  33.0831944   5.3528617  47.4025483  32.3591170
   5.7933799  47.9753206  33.5237219   5.2137203  47.7630315  33.0414751
   5.6525064  42.5954247  44.1685074   5.1536757  43.3070015  44.2469963
   6.4625288  42.9154914  44.1303237   5.6981170  42.7481096  44.1741643
   3.0036234  49.7703884  36.1492094   2.7836529  49.4801238  36.9418761
   2.7830756  49.1118839  35.6210006   2.9383828  49.6303592  36.1881002
   1.9153181  41.8577200  38.4147795   1.6266430  41.2314671  38.9493522
   2.7836529  41.7997488  38.4812476   2.0013433  41.7564744  38.5038750
  12.7031079  37.0011984  38.7329777  12.3595845  36.2802319  39.0837027
  12.8024122  36.7925835  37.8908135  12.6673122  36.8636187  38.6601457
   5.1704190  51.1433274  34.9322786   5.8228248  50.6109716  35.1613812
   4.4729799  50.7901926  35.3190660   5.1634908  51.0122797  35.0234954
   2.1185455  43.4972451  34.3390160   2.8731423  43.8785490  34.5525623
   1.5256067  43.9483595  34.7936857   2.1422168  43.6201279  34.4373039
  13.1644108  43.4637688  34.2753765  13.7302141  44.1230898  34.1912308
  12.5172012  43.8087386  34.7470167  13.1522865  43.6119629  34.3326522
   4.5792122  35.4535292  49.4647373   3.7691897  35.7593071  49.3537215
   5.0566808  36.1740874  49.5799957   4.5295600  35.6049893  49.4654444
   3.4383681  44.6681013  39.7130276   2.9164435  44.8081304  40.3982140
   3.8257702  43.9091677  39.9032393   3.4187382  44.5766536  39.8431352
   9.6350686  46.4076472  33.6990844   9.3937362  45.6744333  33.2917909
   9.8152019  46.9563329  33.0457178   9.6258310  46.3798863  33.5421067
   4.8650007  41.6985032  35.1111767   4.6692789  42.3059766  34.5172070
   5.0884352  41.0052976  34.6303441   4.8684648  41.6862557  34.9527847
   3.2628537  38.5839770  35.2292635   3.9851189  38.7480928  34.7696441
   2.7836530  39.3049434  35.1231975   3.2992268  38.7137999  35.1458249
  11.2222044  34.9203568  40.6089320  10.3833145  34.9464847  40.3727583
  11.2926412  35.5674304  41.1894667  11.1090438  35.0199694  40.6598437
   0.9136154  40.9897842  44.3346775   1.4257251  41.2682095  43.6855535
   0.6272496  41.7287136  44.7009588   0.9471017  41.1400196  44.2936653
   9.6691323  31.8188945  35.3416936  10.3717676  31.6196694  34.8636894
   9.4035511  31.0464888  35.6485779   9.7337955  31.6751911  35.3162377
  15.0979568  40.1271555  37.8950562  15.0113543  40.2826981  38.7485341
  14.6430048  40.7709631  37.5209967  15.0182825  40.2447310  37.9657668
   4.4319879  33.0824231  44.3947817   4.2403076  33.0979365  45.2447240
   5.2818475  33.2787905  44.3714471   4.5295601  33.1138582  44.5171111
   8.9705384  37.4482302  36.5176121   8.7240099  37.3678053  37.3512910
   9.2990507  36.6635770  36.3238649   8.9826628  37.3208568  36.6123644
  12.8653433  44.1565662  40.3062902  12.7267792  44.8546707  40.8111645
  12.0853431  44.0014318  39.9499084  12.7296660  44.2365828  40.3289177
  11.2031518  40.4562037  46.5585284  11.1979557  39.5841853  46.5627711
  11.9092512  40.6550206  46.0854740  11.3076522  40.3565911  46.4892320
   4.9302412  40.1839021  45.9299104   5.0745787  40.7640229  45.2942214
   5.2778060  40.5615318  46.6348959   5.0029873  40.3259725  45.9398099
   7.1022329  39.3829189  43.7124236   6.3545643  39.5760204  43.3072514
   7.2563854  38.5574409  43.4748357   7.0144757  39.2894301  43.6169642
   4.0030167  48.3741793  42.7960131   4.1519730  47.8144709  42.1433536
   4.7830169  48.4533794  43.1792650   4.1404260  48.3027358  42.7557080
  14.3606806  43.5143915  31.0679402  13.9813615  42.7281053  31.0608691
  13.6973051  44.0630772  30.9251046  14.2065281  43.4788739  31.0460199
   6.5283467  48.5456436  44.0744622   6.4527138  47.8765246  44.6295410
   6.4573326  49.2474224  44.5885288   6.5064074  48.5501343  44.2321470
   7.3424106  33.2779740  44.6019640   7.7996720  34.0103714  44.7292432
   7.4180435  32.8546205  45.3606895   7.4215076  33.3236978  44.7320716
  11.8151432  26.4569615  38.4713483  11.9335000  26.9146078  37.7380785
  11.6413608  25.6514876  38.1849700  11.8070603  26.4063387  38.3214416
   7.1853714  47.0657434  34.9068228   7.9503605  46.7967078  34.5850892
   7.0831804  46.5807445  35.6238291   7.2835210  46.9546999  34.9648056
   5.2206484  35.2681844  41.4461464   4.4302559  35.0873304  41.7678799
   5.6167107  34.4908796  41.4291758   5.1623360  35.1269305  41.4914012
   9.7072375  44.0969618  26.8868177  10.4745360  44.1569743  26.4774029
   9.2603684  43.5250060  26.4024496   9.7545802  44.0206194  26.7545888
  10.6050170  42.9024274  39.1720910   9.9295172  42.6709506  39.6734297
  10.6142546  42.2945457  38.5463015  10.5068675  42.7783199  39.1537062
   7.7344314  37.7442103  45.9284963   7.6703455  38.6052059  45.8005099
   7.8741502  37.4274096  45.1280514   7.7459784  37.8242270  45.7913175
  12.6066905  45.7589406  31.4031088  12.6886742  46.5656393  31.0792538
  13.0916647  45.7785366  32.1271861  12.6904063  45.8810069  31.4617986
   6.4163408  40.4374242  40.0701165   5.9925657  40.6378741  39.3340184
   6.2408263  39.5903090  40.1825465   6.3274289  40.3423024  39.9774856
   5.9175102  51.9524755  42.5322623   6.4071032  51.2535545  42.3498287
   5.3459334  51.6548625  43.1198680   5.9059631  51.8050979  42.5923664
   1.7045853  40.9326294  35.5029138   1.8610472  40.8673097  36.3585130
   2.0446446  41.7074846  35.2907818   1.7779088  41.0375492  35.5983732
   8.2424998  40.3084177  34.3722501   8.7840543  39.8054558  34.8361122
   8.5571557  40.2549372  33.5611986   8.3689395  40.2263598  34.3206313
  12.1142105  44.5186825  51.4849413  12.9276970  44.2471974  51.6454546
  11.9537071  44.2194365  50.6809609  12.2112054  44.4341751  51.3894819
   6.4111447  45.7001529  31.6562529   6.4804268  44.8416067  31.7955530
   7.1899903  45.9173410  31.3281554   6.5364297  45.6054393  31.6279687
   9.3914267  35.2020482  44.4244802   9.6056237  34.5631396  43.8708156
   8.7748166  35.6466306  43.9952663   9.3319596  35.1730626  44.2795233
  10.8018935  48.1239230  35.8699023  10.4098727  47.8205945  35.1521889
  10.9572007  48.9608320  35.6803976  10.7672525  48.2023067  35.7355520
  11.5553355  36.8109547  45.3628109  10.7430037  36.5035437  45.4441282
  12.0143290  36.3308547  45.9270821  11.5033740  36.6946039  45.4582703
  10.9658610  44.6889219  35.8105053  10.6073264  44.8603862  36.5869086
  10.4797321  45.1502425  35.2533052  10.8417307  44.7828190  35.8430322
   8.7828996  28.3120418  39.4132145   7.9122554  28.2859139  39.3665454
   9.0369337  28.1397610  38.5957990   8.6922556  28.2830561  39.2852281
   5.7546975  40.3688384  28.3505288   6.0439500  41.1453267  28.6248862
   5.8418774  39.8577116  29.0519787   5.8101231  40.4080303  28.4947785
   8.6506863  38.2169618  50.1456811   9.1206494  38.8411735  50.5324685
   8.6968743  37.5486594  50.7050026   8.7274738  38.2104299  50.2856883
   5.8078136  30.3226646  40.8705615   5.2916625  29.6306837  40.9957194
   5.2472065  30.9897423  40.8168214   5.6484649  30.3189904  40.8811681
   7.8770370  30.8619606  42.6998467   7.4902123  30.8868637  43.4811997
   7.3903307  30.2961285  42.2472984   7.7482879  30.7815357  42.7486371
  12.1263349  45.5793115  46.7572254  12.7643070  45.0853311  46.4234710
  11.4837441  45.5070515  46.1724481  12.1257576  45.4952123  46.6214609
  13.8520349  37.4282261  41.3238170  13.4247957  37.3408610  40.5686269
  13.2146402  37.5360036  41.9093014  13.6949956  37.4314921  41.2983611
   7.5427511  27.7486591  44.9908727   8.1720629  28.2846892  44.7129798
   7.7113374  27.6563950  45.8422293   7.6605306  27.8147954  45.0757255
   7.3441426  32.5357786  47.2635139   8.1714856  32.2642935  47.3193753
   7.3649272  33.3318628  47.6198957   7.4694276  32.6137540  47.3250322
  12.1817606  46.2712923  43.3977611  12.9709984  45.9201988  43.5179692
  12.3561204  47.0849312  43.1354245  12.3237887  46.3398780  43.3765479
   1.9210916  39.6821649  40.4505400   1.0798923  39.5825523  40.6584293
   2.1300924  40.4517129  40.8019720   1.8275609  39.7813692  40.5332715
  11.0351430  30.2822480  37.9594029  11.2401023  30.2144788  38.8051026
  10.7077854  31.0881301  37.8915207  11.0166678  30.3908420  38.0753684
   5.7327581  37.6103048  39.7002997   5.4290718  37.0559036  40.3013405
   5.0307002  37.7895258  39.2131031   5.5843791  37.5547831  39.7172703
   4.7893678  34.9203568  34.2647699   5.0653412  34.2022480  33.8525266
   5.3892347  35.5188488  34.0568805   4.9186943  34.9023939  34.1728460
   3.7945932  44.8252769  44.4075095   3.6866287  44.8354831  45.2737153
   4.0041713  45.6507549  44.2180049   3.8096043  44.9493844  44.5079187
  14.2885118  30.8354244  37.4396795  13.6759431  31.3224646  37.8250526
  14.3849292  30.1597735  37.9834446  14.2123015  30.8072553  37.5775653
   8.2904199  32.5917085  32.5394294   8.7447945  32.7627646  33.2642139
   8.7644244  31.9785196  32.1392070   8.4272519  32.5267971  32.5868056
   1.8119724  42.0765411  41.8697033   1.2207657  42.7174909  41.8400048
   2.5740748  42.5003029  41.8428332   1.8367985  42.2341250  41.8612180
   2.2080347  33.2367409  42.5365050   2.6681828  33.3106338  43.2740174
   2.2536454  34.0348663  42.1864871   2.2830902  33.3661556  42.5937807
   3.8563697  33.9034104  47.1037077   3.4649262  33.2567451  47.5392855
   4.0249559  34.4945539  47.7231333   3.8234607  33.8948372  47.2599783
  17.9310146  41.9071181  42.8674311  17.9893269  42.3557830  43.6134287
  17.2976613  42.3169994  42.4304391  17.8461441  42.0344916  42.9126859
  11.5709240  47.5274723  39.3029057  11.3728929  48.0165537  38.6085268
  10.9496951  47.7315964  39.8813190  11.4496805  47.6291261  39.2852280
   5.6317219  39.2959620  33.6439301   6.3759264  39.6833896  33.8822251
   5.7777915  38.4517045  33.8079789   5.7627804  39.2290092  33.7033271
   7.5496794  31.0909879  38.6771163   6.7032839  31.2632686  38.5512512
   7.5467926  30.2859222  39.0136991   7.4243944  30.9970908  38.7082290
   8.6195094  34.8685093  39.5433221   8.1455049  34.3426855  40.0538531
   8.9913230  34.3214566  38.9748082   8.6044983  34.7101090  39.5348368
  14.8831825  39.9287469  40.9540001  14.6430048  39.0893884  40.9582428
  15.3623832  40.0087635  41.6780775  14.9184009  39.8168868  41.0614803
  10.5478594  35.7621648  32.6058974  10.0201613  35.8450392  31.9164683
  11.0074302  36.5039519  32.6023619  10.5380445  35.8842310  32.5033670
  16.8837012  36.7088926  38.9069260  16.6446782  36.6684760  38.0690045
  17.0470913  37.5560078  39.0334981  16.8727315  36.8281011  38.8022742
  13.4883042  41.0938875  44.8374305  14.2117241  40.6411402  44.6585325
  13.2233004  41.3743541  44.0546633  13.5564315  41.0689844  44.6953021
   2.3569911  35.6899049  41.5727185   1.7322981  35.7017441  40.9653137
   2.0215505  36.1659224  42.2218425   2.2155402  35.7617566  41.5783753
   2.5411659  34.0324167  27.6299870   2.1924464  34.6843892  28.0931419
   2.0608105  34.0181280  26.9023741   2.4181903  34.1267221  27.5910961
  10.1015677  44.3325211  31.7368631  10.8249875  44.7983324  31.5933205
   9.6616268  44.3998821  30.9866228  10.1431369  44.4109048  31.6053413
   9.2701832  41.1922753  42.9869320   8.6558825  40.6480804  43.2817956
   9.7869117  40.6786990  42.5075137   9.2557494  41.0359162  42.9593549
   8.5098129  42.2627023  40.7213619   8.0825737  41.6376742  40.2879054
   8.5023073  41.9801945  41.5472626   8.4457270  42.1279804  40.7793447
   1.6260656  37.2992196  43.7902053   1.7854143  36.5435521  44.1953775
   1.4453550  37.8483136  44.4442791   1.6226015  37.2686010  43.9464759
   9.5680959  29.4653432  44.3452843   9.0721520  29.6617106  43.6544409
  10.3250021  29.8646100  44.1741644   9.6067784  29.5531166  44.2172979
   6.8383838  33.1395778  40.9356153   6.8626326  32.6055890  40.2468933
   7.0895312  32.6313087  41.5981744   6.8793757  32.9856682  40.9320798
   3.1185161  31.8666596  40.3161897   3.1583532  32.3675803  41.0296605
   2.2934825  31.9576990  40.0467820   3.0024687  31.9548413  40.3812436
   5.3014774  41.4327336  48.4182192   4.4510404  41.5699050  48.5539837
   5.4642901  40.6991114  48.8629894   5.1998637  41.3441437  48.5037791
   4.5399524  38.3827106  42.6135796   3.7091454  38.5500924  42.4071044
   4.4851041  38.0063057  43.3984682   4.4088939  38.3516837  42.6984324
   2.3483307  31.8735999  48.2492207   2.9736011  31.3298132  48.5221639
   1.8933787  31.3930917  47.6799997   2.3731568  31.7225480  48.2053801
   2.9135568  36.6582698  33.1425914   3.0538529  37.1555162  33.8454555
   3.4118101  35.9568992  33.2840128   3.0076649  36.6284676  33.2677493
   2.9435790  37.5249809  30.4718491   3.5780870  38.1210234  30.4067953
   3.0261401  37.2253266  31.2864361   3.0492341  37.5690717  30.5821577
  15.9218356  40.0565286  43.3404855  16.5136196  40.6962537  43.3723053
  16.3577351  39.3588323  43.6296922  16.0736787  40.0483636  43.3885688
   4.5214773  33.4563784  30.4463933   4.8430614  32.9766867  29.7923195
   4.7841717  34.2663430  30.2554745   4.6080799  33.5053682  30.3219425
   7.7511746  44.4782658  43.9662749   7.2436837  45.0318505  44.4103379
   7.4538392  44.5390948  43.1481523   7.6316631  44.5688970  43.9111206
   9.9173928  32.8435978  42.8087412  10.3429000  32.3908504  42.1970938
   9.3030921  32.2896049  43.0852199   9.8902574  32.6949954  42.7592437
  10.3619526  48.3945916  31.8966692   9.6448836  48.2206778  31.4313930
  11.0126264  48.1598488  31.3642178  10.3521377  48.3341709  31.7495910
   8.3568151  29.3151078  36.2177989   7.7136469  29.1648724  36.7863127
   8.0167558  29.0693423  35.4527094   8.2113228  29.2563200  36.1881004
  12.9467497  37.2710505  35.6407998  12.2758687  37.8140207  35.5121063
  13.6407248  37.7405360  35.3989692  12.9496365  37.4208776  35.5863525
   6.9954231  49.4107217  40.8719756   6.7719886  48.6526046  41.2403782
   6.5064075  49.4405238  40.1500196   6.8897680  49.3029441  40.8196497
  13.1095625  33.7266388  38.5498371  13.4623235  33.2996111  39.2244170
  12.2510426  33.6417232  38.6799447  13.0345070  33.6511129  38.6693381
   1.8079310  36.3573908  36.6081217   1.0891299  36.7738041  36.8754081
   2.1791672  36.9228147  36.0572855   1.7571242  36.5023189  36.5664024
  11.1078891  36.9901757  42.4983213  11.0876818  36.8085052  43.3517992
  11.1558091  37.8613775  42.4742797  11.1113532  37.0918295  42.6206508
   9.0525221  43.5788949  48.4231690   9.0121075  42.9338626  47.8376845
   9.8648539  43.5225566  48.7357102   9.1668374  43.4747916  48.3828639
   5.6432688  49.6307675  38.3256840   5.2293087  48.9681805  37.9360682
   6.3280062  49.7785534  37.8052535   5.6831060  49.5548333  38.1913338
   9.0097982  48.7897760  39.0780457   8.6114266  48.9000030  38.3101277
   8.3949202  48.9979826  39.6607017   8.8596872  48.8371328  39.0511756
   7.5825884  35.3971908  31.9454597   6.9890724  35.7188904  31.3939164
   7.6201162  34.5513003  31.7375703   7.5000273  35.3196236  31.8337368
  14.5419685  28.8484800  39.4782683  14.0350550  28.1413940  39.4103861
  15.3387119  28.5177989  39.6083760  14.5846924  28.6957951  39.4881678
  10.4583701  35.3551412  35.3756347  10.2297394  35.3784114  34.5334705
  10.7181777  34.5308879  35.4951358  10.4629889  35.2367492  35.2681545
   4.7402929  37.2085885  44.9781447   4.2281832  36.6007068  45.3366479
   4.5682425  37.9242478  45.4455423   4.6392566  37.2249185  45.0997671
   3.5128463  33.8927959  36.6710543   3.9885830  34.2545038  36.0360724
   3.0117063  34.5484426  36.9510685   3.5093822  34.0422147  36.6187284
  16.7439825  43.3649727  32.4623548  17.1273431  44.1141083  32.6921645
  15.9483938  43.6115546  32.2035537  16.6833607  43.5119421  32.4581121
   8.6172000  35.1310130  47.4183703   9.1743430  34.9023940  46.7862168
   8.2933065  35.8915796  47.1418915   8.6518410  35.2093967  47.2840200
   6.3355117  38.2177783  48.3835710   7.0866444  38.5329460  48.6975264
   6.5277693  38.0156954  47.5569632   6.4746531  38.2345165  48.3079106
  13.1840407  34.3451350  35.6259505  13.1834634  34.1900006  36.4843782
  12.9796587  35.1914337  35.5700891  13.1540185  34.4471970  35.7447445
  10.9081259  39.0248851  39.2795712  11.4034924  38.3071846  39.2399732
  10.0981035  38.7219649  39.1650199  10.8625152  38.8746498  39.2569438
   6.3539871  42.8746665  31.4292717   5.5451193  42.5513338  31.3826026
   6.8614780  42.1679887  31.3620965   6.3089537  42.7227981  31.4123011
  12.9733078  41.7752539  41.9672841  13.3988150  41.2526961  41.4143266
  12.6089998  42.3733376  41.4461464  12.9819681  41.7862766  41.8081851
   2.6087158  50.0716756  40.7270186   2.9233717  50.8853145  40.7347968
   3.0180571  49.6866975  41.3952346   2.7155256  50.1345459  40.8274278
   9.5611677  45.4886803  38.2973998  10.0322856  46.2027066  38.4663984
   9.8971856  44.8885553  38.8333868   9.6806792  45.5058267  38.4006374
  11.6488662  47.0988117  50.4766071  11.7585628  46.3096677  50.8322818
  11.9779559  47.0094053  49.6740409  11.7141068  46.9693969  50.4108461
   6.4781172  30.2614274  45.2532093   6.6109078  29.4645267  45.5813069
   6.8626325  30.7880677  45.8330369   6.5537501  30.2214190  45.3875596
  10.1985624  45.2804737  45.0601691   9.6506570  44.6562621  44.7921756
  10.6598652  45.4699009  44.3445770  10.1852833  45.2163788  44.9152122
   9.5513528  27.1844600  41.8513186   8.7459491  27.0742330  42.1681025
   9.4220263  27.2857056  40.9943052   9.4133660  27.1828270  41.7721227
  13.0079488  33.3490092  42.4452883  12.4242477  33.8499298  42.0330451
  13.3283782  32.8419648  41.8117207  12.9692663  33.3481927  42.2911391
   5.5474287  32.2630687  32.7211558   6.3689982  32.4328999  32.4793253
   5.0843938  32.4177948  31.9977856   5.6005450  32.3112420  32.5783202
   4.1369619  30.2573449  43.5009987   4.6814032  29.9164576  44.0914329
   4.1906555  31.1158910  43.6431272   4.2258739  30.3328708  43.6091860
   9.7643950  46.2855810  41.5911032  10.5842324  46.1418776  41.8527327
   9.4838028  46.9102009  42.1327470   9.8440693  46.3566162  41.7098972
  19.4357285  53.0296313  39.3106839  18.5795181  53.1904811  39.3615956
  19.4824939  52.1588377  39.3311900  19.3156397  52.9247115  39.3212905
  13.8198425  62.5659031  35.0744071  13.0681325  62.1874569  34.8460116
  14.2684437  62.5977464  34.3262881  13.7748092  62.5144638  34.9301573
  22.7451002  59.2982838  48.9167295  23.4517769  58.8034869  49.0454230
  22.9338937  59.7391920  48.1869953  22.8778907  59.2901189  48.8276341
  19.2723385  62.9884400  30.5029618  18.9374753  63.6661322  30.0673840
  19.7850255  62.5989711  29.9146489  19.2988966  63.0308978  30.3516409
  18.8127676  64.9398669  36.4440729  19.1967056  65.5085567  35.9045505
  18.7486817  64.2148179  35.9646545  18.8601103  64.9174132  36.2934592
  22.2809106  55.0888357  41.9538491  22.8265066  55.7673443  42.0132460
  22.2225983  54.9475818  41.0940072  22.3525021  55.1680358  41.8350551
  15.3983181  62.5777423  37.3406843  15.4993544  61.7677777  37.6503971
  14.8024926  62.4834369  36.7106522  15.3255720  62.4442451  37.2933082
  24.0574175  56.5172964  32.8272218  23.9413701  57.2680650  33.2564357
  24.8530062  56.2596917  33.0768306  24.1578764  56.5907811  32.9276310
  15.2383921  67.4955012  38.7421699  15.8821376  67.9368176  39.1317858
  15.5640176  66.6908438  38.6551958  15.3815749  67.4420207  38.7867176
   8.5948225  58.5997709  36.9659177   8.3598410  57.7665362  36.8591446
   8.7333866  58.8802375  36.1520378   8.5803888  58.5181213  36.8301532
  10.8938313  50.7683440  39.8643484  10.2743345  50.1776087  39.6953499
  10.7922177  51.3594875  39.2307808  10.7875988  50.7687522  39.7448474
  15.9404500  60.5066987  34.1141561  16.2620342  61.0472194  33.5102869
  16.5876597  59.9363758  34.2463851  16.0830556  60.5026162  34.0448596
  17.9906209  52.5082982  34.1975948  18.6886373  52.6871109  34.6897411
  18.3058541  51.9853321  33.5746337  18.1401546  52.4576754  34.1777958
  10.6207446  54.3135722  42.1087053  10.4966143  54.8998167  42.7436872
  11.2725730  53.8195917  42.4099328  10.6981095  54.3274526  42.2472983
  18.1794144  58.8953427  34.1855739  18.6187779  58.2870527  34.6310512
  18.0298807  58.5160800  33.4141204  18.2215610  58.7491898  34.1374906
  15.6465787  57.4897439  41.3874565  16.2914789  56.9969882  41.0685513
  15.8867564  57.6322225  42.2140643  15.7776372  57.4374881  41.4624098
  18.1851878  60.3352344  41.0381457  18.4675121  59.5403750  40.8168213
  18.9138039  60.8132932  41.0586518  18.3341442  60.2886941  41.0084472
  16.1633072  47.8775378  38.2797222  15.8336402  48.3286522  37.6100921
  15.4878074  47.7991542  38.8270229  16.0143508  47.9326514  38.2620445
  21.7803481  57.2480608  31.1386508  21.6954776  58.1041575  31.2836077
  22.2687864  56.9724932  31.8068667  21.8392378  57.3337929  31.2588590
  22.7121914  53.8665402  32.6384243  22.1833385  54.0825036  33.2981550
  23.2346934  54.5601541  32.5585213  22.7110367  54.0008539  32.7239843
  14.6021522  57.7628619  31.4391711  14.0178737  58.2678650  31.8457575
  14.1991617  57.5371006  30.6988303  14.4560825  57.8036867  31.3896737
  10.1565550  63.4783380  38.2415383   9.6733128  64.2033870  38.2174967
  10.9688868  63.7759510  38.3525541  10.2056298  63.6285734  38.2542662
  16.2279704  62.2715561  40.8465197  15.7106646  61.9122976  40.2426505
  16.9254095  61.7477735  40.8571264  16.2545285  62.1413249  40.7595456
  19.8843296  62.7210375  46.8081370  19.9726642  62.5336515  47.6559581
  20.3133009  62.0747804  46.4086217  19.9605399  62.5973383  46.8753122
  17.4513756  62.0041535  45.7899033  16.8884591  61.5914145  46.3138694
  18.2134779  61.9294441  46.2092176  17.4808205  61.9318935  45.9292033
  19.0598736  54.0094271  29.9160632  19.2994740  54.2172255  29.1035975
  19.3814577  53.2051780  30.0249577  19.1435894  53.9208372  29.8121185
  14.3689026  45.9387667  33.7620170  15.1234994  46.3065984  33.5237220
  14.1916561  46.3127221  34.5299350  14.4543505  46.0485855  33.8405058
  13.0109747  63.9939556  38.3935663  13.7130327  63.4791545  38.4508419
  12.9307230  64.3213707  39.1982538  13.1033508  63.9653782  38.5208455
  27.6623925  52.0882107  41.8067709  26.8252346  52.1584294  42.0415304
  27.6312156  52.0906602  40.9342012  27.5342207  52.0992334  41.7127257
  14.0588654  54.2315143  47.5216078  14.2309158  54.1221038  48.3701359
  14.5958011  54.8769548  47.2847270  14.1633658  54.3107145  47.6121175
  12.3360523  60.1845908  37.9021271  13.1749422  60.4168841  37.9495032
  12.3672292  59.3150219  37.8328306  12.4642240  60.0902854  37.8985915
  12.9613226  60.6046783  42.2034576  13.5011451  60.4617914  42.8737949
  12.2783172  61.0043534  42.5718603  12.9405380  60.6426454  42.3568998
  18.4045810  45.3484396  33.4947307  19.1331970  45.1700351  33.0485463
  18.4940703  46.1902476  33.7054485  18.5252472  45.4468275  33.4600824
  22.3854111  56.2837784  37.3979601  23.1411626  56.7169298  37.4368509
  22.4916435  55.6342554  37.9714237  22.5124281  56.2515268  37.4877626
  25.4234282  60.1111061  38.1482004  24.9869514  60.1147804  38.9040975
  25.0897197  60.7916560  37.7161581  25.3096902  60.2123517  38.1962836
  19.9963355  62.1519394  49.4725154  20.7803772  62.2650242  49.8380896
  19.7959950  61.3260531  49.6683840  20.0829381  62.0466113  49.5559540
   8.3650371  56.8247074  42.3568998   8.0988786  56.0086191  42.5159988
   8.3788935  56.8700230  41.4864513   8.3275093  56.7103979  42.2522480
  12.2708118  51.6232158  28.9720756  11.5566295  51.3370338  29.3843188
  12.7552087  51.9628784  29.6127143  12.2367481  51.6313808  29.1276391
  13.1148977  50.3625452  45.0036006  12.4220774  49.8922432  45.2496737
  13.7309305  50.1363757  45.5777713  13.1033507  50.2592584  45.1245158
  20.1533749  64.0629496  43.1191610  19.3548995  63.8228996  43.3765478
  20.6019760  64.1143889  43.8658657  20.1008360  64.0351887  43.2676534
  19.4455436  60.1262112  29.3482564  19.8606584  59.7947136  28.6567060
  18.6147365  59.8931015  29.2202701  19.3843445  60.0433368  29.2273412
   8.7743785  57.6105853  39.6380742   8.5919358  57.5852739  38.7853034
   9.5093453  58.0804791  39.6769651   8.8557848  57.6767216  39.5178661
  11.8389536  54.3290856  46.1462851  12.5629509  54.3143887  46.6327745
  11.9405673  55.0386212  45.6484819  11.9607745  54.4315559  46.1441638
  19.2134486  57.8089941  51.0111798  18.4207466  58.1233453  51.1964417
  19.3283413  58.0241409  50.1732582  19.1129896  57.8873778  50.9150133
  21.8865805  54.5323932  35.3006814  21.9812659  55.2713226  35.7546439
  21.2624648  54.1041407  35.7341378  21.8074835  54.5785253  35.4314961
  20.1418278  57.7110145  45.9497094  20.7157140  57.0737389  46.1045658
  20.0633082  57.7114227  45.0806752  20.2151513  57.6175256  45.8443505
   8.7414695  54.4899354  39.7879809   9.3188198  54.3535805  40.4272054
   8.0428757  54.0335138  40.0425393   8.7235716  54.4021620  39.9202098
  22.1388826  56.3772672  28.5343766  22.0568988  56.4474859  29.3998753
  22.7768546  56.9402416  28.3427506  22.2208663  56.4711643  28.6333715
  15.4981997  56.1433410  38.0018292  15.2401241  55.3105145  37.9749591
  15.5530480  56.3691023  37.1610792  15.4681775  56.0531181  37.8738429
  20.5783047  48.2461860  38.1022385  19.8739374  47.7571046  38.2606304
  20.6268022  48.2584335  37.2310829  20.4813099  48.1751508  37.9961724
  14.4716709  53.6971172  38.4883187  13.8966300  53.8563341  39.1247148
  14.0952386  53.0606581  38.0251637  14.3319522  53.6268985  38.5137745
  18.1389998  52.1694522  43.3475565  17.7504431  51.7448739  42.6927756
  17.4744696  52.4176671  43.8552592  17.9836926  52.1433243  43.3263433
   4.2173528  53.3411247  36.5027627   4.3033780  52.9643115  37.2841157
   4.8449326  52.9671693  36.0247586   4.3230079  53.2296729  36.5473105
  21.9616359  45.8669150  40.8599549  22.3426871  45.1847321  41.2467424
  21.1579644  45.5778752  40.6775214  21.8992821  45.7236199  40.8903605
  19.2428936  56.3993126  31.5452372  20.0569575  56.6908019  31.4335143
  19.1788077  55.7452988  30.9710665  19.3531675  56.3458321  31.4441209
  25.4638426  59.0819122  45.9581948  25.2277064  58.2507187  45.8394008
  26.1081655  59.0304729  46.5436792  25.5233097  58.9516810  46.0267841
  15.1136844  59.8714644  36.6724684  15.7510791  59.6326391  37.2176478
  15.5391916  60.0751802  35.9377845  15.2713011  59.8665654  36.6441841
   9.8049487  62.1102980  40.5558988   9.8453632  62.3817831  39.7278768
  10.3644011  62.6344888  40.9716776   9.8932833  62.2278735  40.4950876
  15.7539659  55.0916933  31.0099574  16.1384812  54.8724640  31.7616119
  15.5051280  55.9179879  31.1400650  15.7741732  55.1815080  31.1400650
  15.9208200  48.3723349  50.7262158  15.6061641  49.1422911  50.4631720
  15.5998132  47.8093605  50.1414385  15.8267119  48.4033617  50.6003508
  26.4874847  58.8663571  42.0210242  26.1820664  59.5991628  42.3823558
  25.7681063  58.4601500  41.7403028  26.3362189  58.9145304  42.0323379
  17.4958316  60.3487066  38.3518470  17.5697325  60.1862238  39.2060320
  18.3127823  60.5377256  38.1078952  17.6274675  60.3523809  38.4416496
  32.1876639  55.5056572  41.3478586  32.1201139  55.5252531  40.4781173
  32.1732301  56.3486899  41.5734257  32.1755396  55.6330306  41.2531063
  11.2564073  60.6944929  35.3812914  10.4302191  60.9406666  35.2547193
  11.3176064  60.6157010  36.2474972  11.1438240  60.7189878  35.4901858
  13.4740097  46.7613870  36.3408354  12.6062522  46.8336469  36.4065963
  13.7615301  47.5635949  36.5296329  13.3879845  46.8908017  36.3783121
  22.5972986  46.9091729  44.6719676  23.3426578  46.7201540  44.2583101
  22.1810290  47.4349967  44.1133532  22.6457960  46.9593875  44.5284249
  16.0362902  63.3121809  33.0831944  16.3261200  62.9210791  32.3591170
  16.7666383  63.4938514  33.5237219  16.1869786  63.2815623  33.0414751
  16.6257647  58.1139555  44.1685074  16.1269341  58.8255323  44.2469963
  17.4357872  58.4340222  44.1303237  16.6713754  58.2666404  44.1741643
  13.9768818  65.2889192  36.1492094  13.7569113  64.9986546  36.9418761
  13.7563340  64.6304147  35.6210006  13.9116412  65.1488900  36.1881002
  12.8885765  57.3762508  38.4147795  12.5999013  56.7499979  38.9493522
  13.7569113  57.3182796  38.4812476  12.9746017  57.2750052  38.5038750
  23.6763663  52.5197292  38.7329777  23.3328428  51.7987627  39.0837027
  23.7756705  52.3111143  37.8908135  23.6405705  52.3821495  38.6601457
  16.1436773  66.6618582  34.9322786  16.7960831  66.1295024  35.1613812
  15.4462382  66.3087234  35.3190660  16.1367491  66.5308105  35.0234954
  13.0918038  59.0157759  34.3390160  13.8464006  59.3970798  34.5525623
  12.4988651  59.4668903  34.7936857  13.1154752  59.1386587  34.4373039
  24.1376692  58.9822996  34.2753765  24.7034724  59.6416206  34.1912308
  23.4904595  59.3272694  34.7470167  24.1255448  59.1304937  34.3326522
  15.5524705  50.9720600  49.4647373  14.7424481  51.2778379  49.3537215
  16.0299392  51.6926182  49.5799957  15.5028184  51.1235201  49.4654444
  14.4116265  60.1866321  39.7130276  13.8897018  60.3266612  40.3982140
  14.7990285  59.4276985  39.9032393  14.3919966  60.0951844  39.8431352
  11.4007449  50.2372129  33.7825230  11.1132245  49.8673400  33.0457178
  12.0877917  50.7066985  33.5208935  11.4596346  50.2519099  33.6340306
  20.6083270  61.9261780  33.6990844  20.3669946  61.1929640  33.2917909
  20.7884603  62.4748637  33.0457178  20.5990894  61.8984171  33.5421067
  15.8382590  57.2170340  35.1111767  15.6425373  57.8245074  34.5172070
  16.0616936  56.5238284  34.6303441  15.8417231  57.2047865  34.9527847
  14.2361120  54.1025078  35.2292635  14.9583772  54.2666236  34.7696441
  13.7569113  54.8234742  35.1231975  14.2724851  54.2323307  35.1458249
  22.1954628  50.4388876  40.6089320  21.3565729  50.4650155  40.3727583
  22.2658995  51.0859612  41.1894667  22.0823022  50.5385002  40.6598437
  11.8868737  56.5083150  44.3346775  12.3989834  56.7867403  43.6855535
  11.6005080  57.2472444  44.7009588  11.9203600  56.6585504  44.2936653
  20.6423906  47.3374253  35.3416936  21.3450259  47.1382002  34.8636894
  20.3768095  46.5650196  35.6485779  20.7070539  47.1937219  35.3162377
   8.9735643  51.0153342  34.6310511   9.0751780  51.8179503  34.9591487
   9.7691530  50.8140678  34.3333592   9.1063549  51.1039241  34.6345867
  15.4052463  48.6009539  44.3947817  15.2135660  48.6164673  45.2447240
  16.2551058  48.7973213  44.3714471  15.5028184  48.6323890  44.5171111
   9.7899376  51.1300520  42.3731633   9.6484867  50.2784461  42.4976141
  10.0739939  51.1729181  41.5493839   9.8107222  51.0100270  42.2699257
  19.9437968  52.9667610  36.5176121  19.6972682  52.8863361  37.3512910
  20.2723091  52.1821078  36.3238649  19.9559211  52.8393876  36.6123644
  23.8386017  59.6750970  40.3062902  23.7000376  60.3732015  40.8111645
  23.0586015  59.5199626  39.9499084  23.7029244  59.7551136  40.3289177
  22.1764102  55.9747345  46.5585284  22.1712140  55.1027161  46.5627711
  22.8825096  56.1735514  46.0854740  22.2809106  55.8751219  46.4892320
  15.9034995  55.7024329  45.9299104  16.0478371  56.2825537  45.2942214
  16.2510644  56.0800625  46.6348959  15.9762457  55.8445033  45.9398099
  18.0754913  54.9014497  43.7124236  17.3278227  55.0945512  43.3072514
  18.2296438  54.0759717  43.4748357  17.9877340  54.8079609  43.6169642
  14.9762750  63.8927101  42.7960131  15.1252314  63.3330016  42.1433536
  15.7562752  63.9719102  43.1792650  15.1136844  63.8212666  42.7557080
  25.3339390  59.0329223  31.0679402  24.9546198  58.2466361  31.0608691
  24.6705635  59.5816080  30.9251046  25.1797864  58.9974047  31.0460199
  17.5016051  64.0641743  44.0744622  17.4259722  63.3950554  44.6295410
  17.4305910  64.7659532  44.5885288  17.4796658  64.0686651  44.2321470
  18.3156690  48.7965048  44.6019640  18.7729304  49.5289022  44.7292432
  18.3913018  48.3731513  45.3606895  18.3947659  48.8422286  44.7320716
  10.5589681  49.0430868  45.6909083  10.0231870  48.4311226  46.0069851
  10.6207446  49.6179004  46.3442750  10.4885313  49.0377795  45.8344510
  18.1586298  62.5842742  34.9068228  18.9236189  62.3152386  34.5850892
  18.0564388  62.0992753  35.6238291  18.2567793  62.4732307  34.9648056
  16.1939067  50.7867152  41.4461464  15.4035142  50.6058612  41.7678799
  16.5899690  50.0094104  41.4291758  16.1355944  50.6454613  41.4914012
  20.6804958  59.6154926  26.8868177  21.4477943  59.6755051  26.4774029
  20.2336267  59.0435368  26.4024496  20.7278386  59.5391502  26.7545888
  21.5782754  58.4209582  39.1720910  20.9027756  58.1894814  39.6734297
  21.5875130  57.8130765  38.5463015  21.4801258  58.2968507  39.1537062
  18.7076898  53.2627411  45.9284963  18.6436039  54.1237367  45.8005099
  18.8474086  52.9459404  45.1280514  18.7192368  53.3427578  45.7913175
  23.5799488  61.2774714  31.4031088  23.6619326  62.0841701  31.0792538
  24.0649231  61.2970674  32.1271861  23.6636646  61.3995377  31.4617986
  17.3895992  55.9559550  40.0701165  16.9658241  56.1564049  39.3340184
  17.2140847  55.1088398  40.1825465  17.3006872  55.8608332  39.9774856
  16.8907685  67.4710063  42.5322623  17.3803615  66.7720852  42.3498287
  16.3191917  67.1733933  43.1198680  16.8792215  67.3236287  42.5923664
  12.6778437  56.4511602  35.5029138  12.8343056  56.3858404  36.3585130
  13.0179030  57.2260154  35.2907818  12.7511671  56.5560800  35.5983732
  19.2157581  55.8269485  34.3722501  19.7573127  55.3239866  34.8361122
  19.5304140  55.7734680  33.5611986  19.3421978  55.7448906  34.3206313
  23.0874689  60.0372133  51.4849413  23.9009554  59.7657281  51.6454546
  22.9269655  59.7379673  50.6809609  23.1844637  59.9527059  51.3894819
  17.3844031  61.2186837  31.6562529  17.4536851  60.3601375  31.7955530
  18.1632486  61.4358718  31.3281554  17.5096881  61.1239701  31.6279687
  20.3646851  50.7205790  44.4244802  20.5788820  50.0816704  43.8708156
  19.7480750  51.1651614  43.9952663  20.3052180  50.6915933  44.2795233
  21.7751519  63.6424538  35.8699023  21.3831310  63.3391253  35.1521889
  21.9304591  64.4793628  35.6803976  21.7405108  63.7208375  35.7355520
   9.2512698  53.6346552  35.8189905   9.6311663  54.0531097  35.1550173
   8.6768063  54.2160008  36.1258749   9.2224023  53.7824411  35.7666646
  22.5285939  52.3294855  45.3628109  21.7162620  52.0220745  45.4441282
  22.9875873  51.8493855  45.9270821  22.4766323  52.2131347  45.4582703
  21.9391193  60.2074527  35.8105053  21.5805848  60.3789170  36.5869086
  21.4529904  60.6687733  35.2533052  21.8149890  60.3013498  35.8430322
  19.7561579  43.8305725  39.4132145  18.8855137  43.8044447  39.3665454
  20.0101921  43.6582918  38.5957990  19.6655139  43.8015869  39.2852281
  16.7279559  55.8873692  28.3505288  17.0172084  56.6638575  28.6248862
  16.8151358  55.3762424  29.0519787  16.7833815  55.9265611  28.4947785
  19.6239446  53.7354926  50.1456811  20.0939077  54.3597043  50.5324685
  19.6701326  53.0671902  50.7050026  19.7007322  53.7289607  50.2856883
  16.7810720  45.8411954  40.8705615  16.2649208  45.1492145  40.9957194
  16.2204649  46.5082731  40.8168214  16.6217233  45.8375212  40.8811681
  18.8502953  46.3804914  42.6998467  18.4634706  46.4053945  43.4811997
  18.3635891  45.8146593  42.2472984  18.7215462  46.3000665  42.7486371
  23.0995933  61.0978423  46.7572254  23.7375653  60.6038619  46.4234710
  22.4570024  61.0255823  46.1724481  23.0990159  61.0137431  46.6214609
  24.8252933  52.9467569  41.3238170  24.3980541  52.8593917  40.5686269
  24.1878986  53.0545344  41.9093014  24.6682540  52.9500229  41.2983611
  18.5160095  43.2671899  44.9908727  19.1453213  43.8032199  44.7129798
  18.6845958  43.1749258  45.8422293  18.6337890  43.3333262  45.0757255
  18.3174010  48.0543094  47.2635139  19.1447439  47.7828243  47.3193753
  18.3381856  48.8503936  47.6198957  18.4426860  48.1322848  47.3250322
  23.1550189  61.7898231  43.3977611  23.9442567  61.4387296  43.5179692
  23.3293787  62.6034620  43.1354245  23.2970471  61.8584088  43.3765479
  12.8943500  55.2006957  40.4505400  12.0531506  55.1010831  40.6584293
  13.1033508  55.9702437  40.8019720  12.8008192  55.2999000  40.5332715
  10.3719067  52.8226494  38.2790150   9.9775764  52.8969506  37.5040260
   9.8159183  53.2084440  38.8298512  10.2321879  52.8908268  38.2457810
  16.7060165  53.1288356  39.7002997  16.4023302  52.5744344  40.3013405
  16.0039585  53.3080566  39.2131031  16.5576374  53.0733138  39.7172703
  15.7626262  50.4388876  34.2647699  16.0385996  49.7207788  33.8525266
  16.3624931  51.0373796  34.0568805  15.8919526  50.4209247  34.1728460
  14.7678516  60.3438077  44.4075095  14.6598870  60.3540139  45.2737153
  14.9774297  61.1692857  44.2180049  14.7828627  60.4679152  44.5079187
  19.2636782  48.1102393  32.5394294  19.7180529  48.2812954  33.2642139
  19.7376828  47.4970504  32.1392070  19.4005102  48.0453278  32.5868056
  12.7852308  57.5950719  41.8697033  12.1940241  58.2360217  41.8400048
  13.5473331  58.0188336  41.8428332  12.8100568  57.7526558  41.8612180
  13.1812930  48.7552717  42.5365050  13.6414412  48.8291646  43.2740174
  13.2269037  49.5533971  42.1864871  13.2563486  48.8846864  42.5937807
  14.8296280  49.4219412  47.1037077  14.4381845  48.7752759  47.5392855
  14.9982143  50.0130847  47.7231333  14.7967190  49.4133680  47.2599783
  28.9042729  57.4256489  42.8674311  28.9625853  57.8743138  43.6134287
  28.2709197  57.8355302  42.4304391  28.8194024  57.5530224  42.9126859
  22.5441824  63.0460031  39.3029057  22.3461512  63.5350845  38.6085268
  21.9229535  63.2501272  39.8813190  22.4229388  63.1476569  39.2852280
  16.6049802  54.8144928  33.6439301  17.3491847  55.2019204  33.8822251
  16.7510498  53.9702353  33.8079789  16.7360387  54.7475400  33.7033271
  18.5229378  46.6095187  38.6771163  17.6765423  46.7817994  38.5512512
  18.5200510  45.8044530  39.0136991  18.3976528  46.5156215  38.7082290
  19.5927678  50.3870401  39.5433221  19.1187632  49.8612163  40.0538531
  19.9645814  49.8399874  38.9748082  19.5777567  50.2286398  39.5348368
   9.9700708  52.3841908  44.9116766  10.8326321  52.2837617  44.8254096
   9.6392491  51.8036617  44.3502338  10.0485905  52.2833534  44.8162172
  25.8564409  55.4472777  40.9540001  25.6162631  54.6079192  40.9582428
  26.3356416  55.5272943  41.6780775  25.8916592  55.3354176  41.0614803
  21.5211178  51.2806956  32.6058974  20.9934196  51.3635700  31.9164683
  21.9806886  52.0224827  32.6023619  21.5113028  51.4027618  32.5033670
  27.8569596  52.2274234  38.9069260  27.6179366  52.1870068  38.0690045
  28.0203497  53.0745386  39.0334981  27.8459899  52.3466319  38.8022742
  24.4615626  56.6124183  44.8374305  25.1849825  56.1596710  44.6585325
  24.1965588  56.8928849  44.0546633  24.5296899  56.5875152  44.6953021
  13.3302494  51.2084357  41.5727185  12.7055564  51.2202749  40.9653137
  12.9948089  51.6844532  42.2218425  13.1887986  51.2802874  41.5783753
  13.5144243  49.5509475  27.6299870  13.1657047  50.2029200  28.0931419
  13.0340689  49.5366588  26.9023741  13.3914487  49.6452529  27.5910961
  10.0428170  59.2684817  43.0130949   9.5128094  58.5777256  43.0625924
  10.3153263  59.2595002  42.1843657  10.0052892  59.1651949  42.8978365
  21.0748260  59.8510519  31.7368631  21.7982459  60.3168632  31.5933205
  20.6348851  59.9184129  30.9866228  21.1163952  59.9294356  31.6053413
  20.2434415  56.7108061  42.9869320  19.6291408  56.1666112  43.2817956
  20.7601700  56.1972298  42.5075137  20.2290078  56.5544470  42.9593549
  19.4830712  57.7812331  40.7213619  19.0558320  57.1562050  40.2879054
  19.4755657  57.4987253  41.5472626  19.4189854  57.6465112  40.7793447
  12.5993240  52.8177504  43.7902053  12.7586726  52.0620829  44.1953775
  12.4186133  53.3668444  44.4442791  12.5958598  52.7871318  43.9464759
  20.5413542  44.9838740  44.3452843  20.0454104  45.1802414  43.6544409
  21.2982605  45.3831408  44.1741644  20.5800367  45.0716474  44.2172979
  17.8116422  48.6581086  40.9356153  17.8358909  48.1241198  40.2468933
  18.0627896  48.1498395  41.5981744  17.8526341  48.5041990  40.9320798
   5.3224012  55.9412581  40.3699297   5.2167461  55.8959425  39.5051381
   4.5724232  56.2866361  40.6513582   5.1959615  55.9853489  40.2836627
  14.0917744  47.3851904  40.3161897  14.1316116  47.8861111  41.0296605
  13.2667409  47.4762298  40.0467820  13.9757270  47.4733720  40.3812436
  16.2747357  56.9512644  48.4182192  15.4242988  57.0884358  48.5539837
  16.4375485  56.2176422  48.8629894  16.1731221  56.8626745  48.5037791
  15.5132108  53.9012414  42.6135796  14.6824037  54.0686232  42.4071044
  15.4583625  53.5248365  43.3984682  15.3821523  53.8702145  42.6984324
  13.3215891  47.3921307  48.2492207  13.9468594  46.8483440  48.5221639
  12.8666371  46.9116224  47.6799997  13.3464152  47.2410788  48.2053801
  13.8868152  52.1768006  33.1425914  14.0271113  52.6740470  33.8454555
  14.3850684  51.4754300  33.2840128  13.9809232  52.1469984  33.2677493
  13.9168374  53.0435117  30.4718491  14.5513453  53.6395542  30.4067953
  13.9993985  52.7438574  31.2864361  14.0224925  53.0876025  30.5821577
  26.8950940  55.5750594  43.3404855  27.4868780  56.2147845  43.3723053
  27.3309934  54.8773631  43.6296922  27.0469371  55.5668944  43.3885688
  15.4947357  48.9749092  30.4463933  15.8163198  48.4952174  29.7923195
  15.7574301  49.7848738  30.2554745  15.5813382  49.0238990  30.3219425
  18.7244330  59.9967966  43.9662749  18.2169421  60.5503813  44.4103379
  18.4270976  60.0576256  43.1481523  18.6049214  60.0874277  43.9111206
  20.8906512  48.3621286  42.8087412  21.3161583  47.9093812  42.1970938
  20.2763505  47.8081357  43.0852199  20.8635157  48.2135262  42.7592437
  10.4221362  55.2402957  33.7408037  10.9313591  55.8367465  34.1219342
  10.8955634  54.9728931  33.0584457  10.5664737  55.2888773  33.6962560
  21.3352110  63.9131224  31.8966692  20.6181420  63.7392086  31.4313930
  21.9858847  63.6783796  31.3642178  21.3253960  63.8527017  31.7495910
  19.3300735  44.8336386  36.2177989  18.6869053  44.6834032  36.7863127
  18.9900142  44.5878731  35.4527094  19.1845812  44.7748508  36.1881004
  23.9200081  52.7895813  35.6407998  23.2491271  53.3325515  35.5121063
  24.6139831  53.2590668  35.3989692  23.9228949  52.9394084  35.5863525
  17.9686815  64.9292525  40.8719756  17.7452469  64.1711354  41.2403782
  17.4796658  64.9590546  40.1500196  17.8630264  64.8214749  40.8196497
  24.0828209  49.2451696  38.5498371  24.4355819  48.8181419  39.2244170
  23.2243010  49.1602540  38.6799447  24.0077653  49.1696437  38.6693381
  12.7811894  51.8759216  36.6081217  12.0623883  52.2923348  36.8754081
  13.1524256  52.4413455  36.0572855  12.7303825  52.0208497  36.5664024
  22.0811474  52.5087065  42.4983213  22.0609402  52.3270360  43.3517992
  22.1290675  53.3799083  42.4742797  22.0846115  52.6103603  42.6206508
  20.0257804  59.0974257  48.4231690  19.9853659  58.4523934  47.8376845
  20.8381122  59.0410874  48.7357102  20.1400958  58.9933224  48.3828639
  16.6165272  65.1492983  38.3256840  16.2025670  64.4867113  37.9360682
  17.3012646  65.2970841  37.8052535  16.6563643  65.0733641  38.1913338
  19.9830566  64.3083068  39.0780457  19.5846849  64.4185338  38.3101277
  19.3681785  64.5165134  39.6607017  19.8329455  64.3556636  39.0511756
  18.5558468  50.9157216  31.9454597  17.9623307  51.2374212  31.3939164
  18.5933746  50.0698311  31.7375703  18.4732857  50.8381544  31.8337368
  21.4316284  50.8736720  35.3756347  21.2029977  50.8969422  34.5334705
  21.6914361  50.0494187  35.4951358  21.4362473  50.7552800  35.2681545
  15.7135513  52.7271193  44.9781447  15.2014416  52.1192376  45.3366479
  15.5415009  53.4427786  45.4455423  15.6125150  52.7434493  45.0997671
  10.5601228  51.1708769  47.6283809  10.3903818  51.8310143  47.0832016
  10.1167177  51.3815330  48.3496298  10.4700561  51.2994751  47.6545438
  14.4861047  49.4113267  36.6710543  14.9618413  49.7730346  36.0360724
  13.9849647  50.0669734  36.9510685  14.4826406  49.5607455  36.6187284
  19.5904583  50.6495438  47.4183703  20.1476013  50.4209247  46.7862168
  19.2665648  51.4101104  47.1418915  19.6250993  50.7279275  47.2840200
   7.4603292  54.0755634  42.8872299   6.9130012  53.4056280  43.0053167
   8.2495670  53.7085482  42.9515766   7.4955476  53.9220621  42.9140999
  17.3087701  53.7363091  48.3835710  18.0599027  54.0514768  48.6975264
  17.5010277  53.5342262  47.5569632  17.4479115  53.7530473  48.3079106
  16.5287700  51.5554466  30.0383927  16.9086665  51.5734096  29.2535041
  15.7880296  52.0008455  29.9174774  16.4756538  51.6236241  29.9047495
   6.2190262  53.2876442  40.0418322   6.0412023  52.8353051  40.7673237
   5.9309284  54.0902603  40.2256799   6.1503215  53.3399000  40.1761825
  21.8813843  54.5434159  39.2795712  22.3767508  53.8257154  39.2399732
  21.0713618  54.2404957  39.1650199  21.8357736  54.3931806  39.2569438
  17.3272454  58.3931973  31.4292717  16.5183777  58.0698646  31.3826026
  17.8347363  57.6865195  31.3620965  17.2822121  58.2413289  31.4123011
   7.9562731  55.8204166  37.1540081   7.0908251  55.8089856  37.0422852
   8.0561547  55.6334389  38.0011220   7.8436898  55.7910227  37.2629025
  23.9465662  57.2937847  41.9672841  24.3720733  56.7712269  41.4143266
  23.5822581  57.8918684  41.4461464  23.9552264  57.3048074  41.8081851
  13.5819741  65.5902064  40.7270186  13.8966300  66.4038453  40.7347968
  13.9913155  65.2052283  41.3952346  13.6887839  65.6530767  40.8274278
  20.5344261  61.0072111  38.2973998  21.0055439  61.7212374  38.4663984
  20.8704440  60.4070861  38.8333868  20.6539376  61.0243575  38.4006374
  22.6221246  62.6173424  50.4766071  22.7318211  61.8281985  50.8322818
  22.9512142  62.5279361  49.6740409  22.6873651  62.4879277  50.4108461
  17.4513756  45.7799582  45.2532093  17.5841662  44.9830575  45.5813069
  17.8358909  46.3065985  45.8330369  17.5270085  45.7399498  45.3875596
  21.1718207  60.7990045  45.0601691  20.6239153  60.1747929  44.7921756
  21.6331236  60.9884317  44.3445770  21.1585417  60.7349095  44.9152122
  20.5246111  42.7029908  41.8513186  19.7192075  42.5927637  42.1681025
  20.3952847  42.8042364  40.9943052  20.3866244  42.7013578  41.7721227
  23.9812072  48.8675400  42.4452883  23.3975061  49.3684606  42.0330451
  24.3016366  48.3604956  41.8117207  23.9425247  48.8667235  42.2911391
  16.5206871  47.7815995  32.7211558  17.3422565  47.9514307  32.4793253
  16.0576522  47.9363256  31.9977856  16.5738033  47.8297728  32.5783202
  15.1102203  45.7758757  43.5009987  15.6546616  45.4349884  44.0914329
  15.1639138  46.6344218  43.6431272  15.1991322  45.8514016  43.6091860
  10.9232762  59.5375173  40.3748795  11.5277619  59.4971007  39.7462616
  10.7160074  60.3846325  40.4052851  10.9821659  59.6563175  40.2864911
  20.7376534  61.8041118  41.5911032  21.5574907  61.6604084  41.8527327
  20.4570611  62.4287317  42.1327470  20.8173277  61.8751470  41.7098972
   6.1584044  58.5209790  40.2447718   6.0608322  57.7106062  40.5537775
   6.9412913  58.5001584  39.8593986   6.2600180  58.3976881  40.2334581
  37.2090184  69.4605970  34.5553909  37.1784188  70.3150606  34.7272178
  37.8071533  69.1601262  35.1140052  37.2927342  69.5422466  34.6628711
  30.4089869  68.5481621  39.3106839  29.5527764  68.7090119  39.3615956
  30.4557523  67.6773685  39.3311900  30.2888980  68.4432423  39.3212905
  33.7183585  74.8168146  48.9167295  34.4250353  74.3220177  49.0454230
  33.9071521  75.2577228  48.1869953  33.8511491  74.8086497  48.8276341
  33.2541690  70.6073665  41.9538491  33.7997650  71.2858751  42.0132460
  33.1958566  70.4661125  41.0940072  33.3257604  70.6865666  41.8350551
  35.0306759  72.0358272  32.8272218  34.9146284  72.7865958  33.2564357
  35.8262645  71.7782225  33.0768306  35.1311348  72.1093119  32.9276310
  21.8670896  66.2868748  39.8643484  21.2475928  65.6961395  39.6953499
  21.7654760  66.8780183  39.2307808  21.7608572  66.2872830  39.7448474
  26.9137084  76.0252295  34.1141561  27.2352925  76.5657502  33.5102869
  27.5609181  75.4549066  34.2463851  27.0563139  76.0211470  34.0448596
  28.9638792  68.0268290  34.1975948  29.6618957  68.2056417  34.6897411
  29.2791125  67.5038629  33.5746337  29.1134129  67.9762062  34.1777958
  21.5940030  69.8321030  42.1087053  21.4698726  70.4183475  42.7436872
  22.2458314  69.3381225  42.4099328  21.6713679  69.8459834  42.2472983
  29.1526728  74.4138735  34.1855739  29.5920363  73.8055835  34.6310512
  29.0031390  74.0346108  33.4141204  29.1948193  74.2677206  34.1374906
  26.6198371  73.0082747  41.3874565  27.2647373  72.5155190  41.0685513
  26.8600148  73.1507533  42.2140643  26.7508956  72.9560189  41.4624098
  29.1584462  75.8537652  41.0381457  29.4407705  75.0589058  40.8168213
  29.8870622  76.3318240  41.0586518  29.3074026  75.8072249  41.0084472
  27.1365656  63.3960686  38.2797222  26.8068986  63.8471830  37.6100921
  26.4610658  63.3176850  38.8270229  26.9876092  63.4511822  38.2620445
  32.7536064  72.7665916  31.1386508  32.6687359  73.6226883  31.2836077
  33.2420447  72.4910240  31.8068667  32.8124961  72.8523237  31.2588590
  33.6854497  69.3850710  32.6384243  33.1565969  69.6010344  33.2981550
  34.2079517  70.0786849  32.5585213  33.6842950  69.5193847  32.7239843
  39.1402550  74.9597015  38.0117288  38.3100253  75.1707658  38.1750704
  39.0911803  74.1334069  37.7359571  39.0109286  74.8686621  37.9954653
  25.5754105  73.2813927  31.4391711  24.9911320  73.7863958  31.8457575
  25.1724200  73.0556314  30.6988303  25.4293409  73.3222175  31.3896737
  30.8575880  78.2395683  46.8081370  30.9459226  78.0521823  47.6559581
  31.2865592  77.5933112  46.4086217  30.9337982  78.1158691  46.8753122
  30.0331320  69.5279579  29.9160632  30.2727323  69.7357563  29.1035975
  30.3547161  68.7237088  30.0249577  30.1168477  69.4393680  29.8121185
  25.3421610  61.4572975  33.7620170  26.0967578  61.8251292  33.5237220
  25.1649144  61.8312529  34.5299350  25.4276088  61.5671163  33.8405058
  38.6356508  67.6067415  41.8067709  37.7984930  67.6769602  42.0415304
  38.6044739  67.6091910  40.9342012  38.5074791  67.6177642  41.7127257
  25.0321238  69.7500451  47.5216078  25.2041741  69.6406346  48.3701359
  25.5690595  70.3954856  47.2847270  25.1366242  69.8292453  47.6121175
  23.6978674  63.8643294  30.4598283  23.5154248  64.0815175  29.6339276
  24.5604287  63.9782306  30.5156897  23.7983264  63.9133192  30.3452770
  33.3586694  71.8023092  37.3979601  34.1144209  72.2354606  37.4368509
  33.4649019  71.1527862  37.9714237  33.4856865  71.7700576  37.4877626
  36.3966865  75.6296369  38.1482004  35.9602097  75.6333111  38.9040975
  36.0629781  76.3101868  37.7161581  36.2829485  75.7308825  38.1962836
  30.9695939  77.6704702  49.4725154  31.7536356  77.7835550  49.8380896
  30.7692534  76.8445839  49.6683840  31.0561964  77.5651421  49.5559540
  19.3382954  72.3432382  42.3568998  19.0721370  71.5271499  42.5159988
  19.3521519  72.3885537  41.4864513  19.3007677  72.2289287  42.2522480
  36.3164348  62.6710197  40.3911432  36.9590257  62.7408301  40.9773347
  36.5687369  62.0039420  39.8890974  36.4486480  62.5836545  40.4038711
  23.2440701  67.1417466  28.9720756  22.5298879  66.8555646  29.3843188
  23.7284670  67.4814092  29.6127143  23.2100065  67.1499116  29.1276391
  24.0881561  65.8810760  45.0036006  23.3953358  65.4107740  45.2496737
  24.7041888  65.6549065  45.5777713  24.0766091  65.7777892  45.1245158
  39.5311212  72.3477289  37.0401641  40.1927646  71.7867957  36.9397549
  38.8902624  71.8529320  37.3654332  39.5340079  72.1913698  37.0733981
  30.4188019  75.6447420  29.3482564  30.8339168  75.3132444  28.6567060
  29.5879949  75.4116323  29.2202701  30.3576028  75.5618676  29.2273412
  19.7476368  73.1291161  39.6380742  19.5651941  73.1038047  38.7853034
  20.4826037  73.5990099  39.6769651  19.8290432  73.1952524  39.5178661
  35.8176042  73.3642671  36.7813630  36.0531632  73.5087870  35.9540480
  35.9665606  74.1285079  37.1745143  35.8741846  73.4981726  36.7177234
  22.8122120  69.8476164  46.1462851  23.5362092  69.8329195  46.6327745
  22.9138256  70.5571519  45.6484819  22.9340329  69.9500867  46.1441638
  37.6466499  72.2044337  34.6183233  37.9774716  72.7371977  34.0123328
  38.2199587  72.2583225  35.2745184  37.7800178  72.2913906  34.6261015
  30.1867069  73.3275249  51.0111798  29.3940050  73.6418761  51.1964417
  30.3015996  73.5426717  50.1732582  30.0862480  73.4059086  50.9150133
  32.8598388  70.0509240  35.3006814  32.9545243  70.7898534  35.7546439
  32.2357232  69.6226715  35.7341378  32.7807418  70.0970561  35.4314961
  31.1150862  73.2295453  45.9497094  31.6889724  72.5922697  46.1045658
  31.0365666  73.2299535  45.0806752  31.1884097  73.1360564  45.8443505
  19.7147278  70.0084662  39.7879809  20.2920781  69.8721113  40.4272054
  19.0161340  69.5520446  40.0425393  19.6968300  69.9206928  39.9202098
  33.1121410  71.8957980  28.5343766  33.0301572  71.9660167  29.3998753
  33.7501130  72.4587724  28.3427506  33.1941247  71.9896951  28.6333715
  26.4714581  71.6618718  38.0018292  26.2133825  70.8290453  37.9749591
  26.5263063  71.8876331  37.1610792  26.4414359  71.5716489  37.8738429
  31.5515631  63.7647168  38.1022385  30.8471958  63.2756354  38.2606304
  31.6000605  63.7769643  37.2310829  31.4545682  63.6936816  37.9961724
  25.4449293  69.2156480  38.4883187  24.8698884  69.3748649  39.1247148
  25.0684969  68.5791889  38.0251637  25.3052105  69.1454293  38.5137745
  29.1122581  67.6879829  43.3475565  28.7237014  67.2634047  42.6927756
  28.4477280  67.9361979  43.8552592  28.9569509  67.6618551  43.3263433
  38.7545851  67.4454834  36.1223395  38.4982415  66.6334776  35.9321278
  39.5975165  67.4532401  35.8953582  38.8411876  67.3266832  36.0608212
  15.1906112  68.8596555  36.5027627  15.2766364  68.4828423  37.2841157
  15.8181909  68.4857001  36.0247586  15.2962663  68.7482037  36.5473105
  32.9348943  61.3854458  40.8599549  33.3159455  60.7032629  41.2467424
  32.1312227  61.0964060  40.6775214  32.8725405  61.2421507  40.8903605
  30.2161520  71.9178434  31.5452372  31.0302159  72.2093327  31.4335143
  30.1520661  71.2638296  30.9710665  30.3264259  71.8643629  31.4441209
  36.4371010  74.6004430  45.9581948  36.2009647  73.7692495  45.8394008
  37.0814239  74.5490037  46.5436792  36.4965681  74.4702118  46.0267841
  26.0869428  75.3899951  36.6724684  26.7243375  75.1511699  37.2176478
  26.5124500  75.5937110  35.9377845  26.2445594  75.3850962  36.6441841
  26.7272243  70.6102241  31.0099574  27.1117396  70.3909948  31.7616119
  26.4783863  71.4365187  31.1400650  26.7474316  70.7000388  31.1400650
  26.8940783  63.8908656  50.7262158  26.5794224  64.6608219  50.4631720
  26.5730716  63.3278912  50.1414385  26.7999702  63.9218925  50.6003508
  37.4607430  74.3848879  42.0210242  37.1553248  75.1176936  42.3823558
  36.7413646  73.9786808  41.7403028  37.3094773  74.4330612  42.0323379
  28.4690900  75.8672374  38.3518470  28.5429908  75.7047546  39.2060320
  29.2860406  76.0562564  38.1078952  28.6007259  75.8709116  38.4416496
  43.1609223  71.0241880  41.3478586  43.0933723  71.0437839  40.4781173
  43.1464885  71.8672207  41.5734257  43.1487979  71.1515614  41.2531063
  24.4472680  62.2799178  36.3408354  23.5795106  62.3521777  36.4065963
  24.7347885  63.0821257  36.5296329  24.3612428  62.4093325  36.3783121
  33.5705569  62.4277037  44.6719676  34.3159161  62.2386848  44.2583101
  33.1542874  62.9535275  44.1133532  33.6190543  62.4779183  44.5284249
  40.9467840  69.7986266  39.6225181  41.4975762  69.1654335  39.8622273
  40.9311955  70.3301659  40.3140685  41.0253036  69.7835214  39.7604039
  27.5990231  73.6324863  44.1685074  27.1001924  74.3440631  44.2469963
  28.4090455  73.9525530  44.1303237  27.6446338  73.7851712  44.1741643
  23.8618348  72.8947816  38.4147795  23.5731597  72.2685287  38.9493522
  24.7301696  72.8368104  38.4812476  23.9478600  72.7935360  38.5038750
  34.6496246  68.0382599  38.7329777  34.3061012  67.3172935  39.0837027
  34.7489289  67.8296451  37.8908135  34.6138289  67.9006803  38.6601457
  24.0650622  74.5343067  34.3390160  24.8196590  74.9156106  34.5525623
  23.4721234  74.9854211  34.7936857  24.0887335  74.6571895  34.4373039
  35.1109275  74.5008304  34.2753765  35.6767308  75.1601513  34.1912308
  34.4637179  74.8458002  34.7470167  35.0988032  74.6490245  34.3326522
  26.5257289  66.4905907  49.4647373  25.7157065  66.7963687  49.3537215
  27.0031976  67.2111490  49.5799957  26.4760768  66.6420509  49.4654444
  25.3848848  75.7051628  39.7130276  24.8629602  75.8451920  40.3982140
  25.7722869  74.9462293  39.9032393  25.3652549  75.6137152  39.8431352
  22.3740032  65.7557437  33.7825230  22.0864828  65.3858708  33.0457178
  23.0610501  66.2252293  33.5208935  22.4328930  65.7704407  33.6340306
  31.5815853  77.4447088  33.6990844  31.3402529  76.7114948  33.2917909
  31.7617186  77.9933945  33.0457178  31.5723477  77.4169479  33.5421067
  26.8115174  72.7355648  35.1111767  26.6157957  73.3430382  34.5172070
  27.0349520  72.0423592  34.6303441  26.8149815  72.7233173  34.9527847
  25.2093704  69.6210385  35.2292635  25.9316356  69.7851544  34.7696441
  24.7301697  70.3420050  35.1231975  25.2457435  69.7508615  35.1458249
  33.1687212  65.9574184  40.6089320  32.3298312  65.9835463  40.3727583
  33.2391579  66.6044920  41.1894667  33.0555605  66.0570310  40.6598437
  22.8601321  72.0268458  44.3346775  23.3722418  72.3052711  43.6855535
  22.5737663  72.7657752  44.7009588  22.8936184  72.1770812  44.2936653
  37.0444735  71.1642171  37.8950562  36.9578710  71.3197597  38.7485341
  36.5895215  71.8080247  37.5209967  36.9647992  71.2817926  37.9657668
  19.9468227  66.5338650  34.6310511  20.0484363  67.3364811  34.9591487
  20.7424114  66.3325986  34.3333592  20.0796133  66.6224548  34.6345867
  26.3785046  64.1194846  44.3947817  26.1868243  64.1349981  45.2447240
  27.2283642  64.3158521  44.3714471  26.4760768  64.1509198  44.5171111
  20.7631959  66.6485828  42.3731633  20.6217451  65.7969769  42.4976141
  21.0472523  66.6914489  41.5493839  20.7839805  66.5285578  42.2699257
  30.9170552  68.4852918  36.5176121  30.6705266  68.4048669  37.3512910
  31.2455675  67.7006386  36.3238649  30.9291795  68.3579183  36.6123644
  34.8118600  75.1936277  40.3062902  34.6732960  75.8917323  40.8111645
  34.0318598  75.0384934  39.9499084  34.6761827  75.2736444  40.3289177
  33.1496685  71.4932653  46.5585284  33.1444724  70.6212469  46.5627711
  33.8557679  71.6920822  46.0854740  33.2541689  71.3936527  46.4892320
  26.8767579  71.2209637  45.9299104  27.0210955  71.8010845  45.2942214
  27.2243227  71.5985933  46.6348959  26.9495040  71.3630341  45.9398099
  29.0487496  70.4199805  43.7124236  28.3010810  70.6130819  43.3072514
  29.2029021  69.5945025  43.4748357  28.9609924  70.3264916  43.6169642
  36.3071973  74.5514531  31.0679402  35.9278782  73.7651669  31.0608691
  35.6438219  75.1001388  30.9251046  36.1530448  74.5159355  31.0460199
  29.2889273  64.3150356  44.6019640  29.7461887  65.0474330  44.7292432
  29.3645602  63.8916821  45.3606895  29.3680243  64.3607594  44.7320716
  21.5322264  64.5616176  45.6909083  20.9964454  63.9496534  46.0069851
  21.5940029  65.1364311  46.3442750  21.4617897  64.5563103  45.8344510
  33.7616599  57.4940231  38.4713483  33.8800167  57.9516694  37.7380785
  33.5878775  56.6885492  38.1849700  33.7535770  57.4434003  38.3214416
  27.1671651  66.3052460  41.4461464  26.3767726  66.1243920  41.7678799
  27.5632274  65.5279412  41.4291758  27.1088527  66.1639921  41.4914012
  31.6537542  75.1340234  26.8868177  32.4210527  75.1940359  26.4774029
  31.2068851  74.5620675  26.4024496  31.7010969  75.0576810  26.7545888
  32.5515337  73.9394890  39.1720910  31.8760339  73.7080122  39.6734297
  32.5607713  73.3316073  38.5463015  32.4533842  73.8153815  39.1537062
  29.6809481  68.7812719  45.9284963  29.6168623  69.6422675  45.8005099
  29.8206669  68.4644712  45.1280514  29.6924951  68.8612885  45.7913175
  34.5532072  76.7960022  31.4031088  34.6351909  77.6027008  31.0792538
  35.0381814  76.8155981  32.1271861  34.6369230  76.9180685  31.4617986
  28.3628575  71.4744858  40.0701165  27.9390824  71.6749357  39.3340184
  28.1873430  70.6273706  40.1825465  28.2739456  71.3793640  39.9774856
  23.6511020  71.9696910  35.5029138  23.8075639  71.9043712  36.3585130
  23.9911613  72.7445462  35.2907818  23.7244255  72.0746108  35.5983732
  30.1890165  71.3454793  34.3722501  30.7305710  70.8425174  34.8361122
  30.5036724  71.2919988  33.5611986  30.3154562  71.2634214  34.3206313
  34.0607272  75.5557441  51.4849413  34.8742138  75.2842589  51.6454546
  33.9002239  75.2564981  50.6809609  34.1577221  75.4712367  51.3894819
  28.3576615  76.7372145  31.6562529  28.4269435  75.8786683  31.7955530
  29.1365070  76.9544026  31.3281554  28.4829465  76.6425009  31.6279687
  31.3379434  66.2391098  44.4244802  31.5521404  65.6002012  43.8708156
  30.7213333  66.6836922  43.9952663  31.2784763  66.2101241  44.2795233
  20.2245282  69.1531860  35.8189905  20.6044247  69.5716405  35.1550173
  19.6500647  69.7345316  36.1258749  20.1956607  69.3009719  35.7666646
  33.5018522  67.8480163  45.3628109  32.6895204  67.5406053  45.4441282
  33.9608457  67.3679163  45.9270821  33.4498907  67.7316655  45.4582703
  32.9123777  75.7259835  35.8105053  32.5538432  75.8974478  36.5869086
  32.4262488  76.1873040  35.2533052  32.7882474  75.8198806  35.8430322
  27.7012142  71.4059000  28.3505288  27.9904667  72.1823883  28.6248862
  27.7883941  70.8947732  29.0519787  27.7566399  71.4450919  28.4947785
  30.5972030  69.2540234  50.1456811  31.0671661  69.8782351  50.5324685
  30.6433910  68.5857210  50.7050026  30.6739906  69.2474915  50.2856883
  27.7543303  61.3597262  40.8705615  27.2381792  60.6677453  40.9957194
  27.1937232  62.0268039  40.8168214  27.5949817  61.3560519  40.8811681
  29.8235537  61.8990222  42.6998467  29.4367290  61.9239253  43.4811997
  29.3368474  61.3331900  42.2472984  29.6948046  61.8185973  42.7486371
  34.0728516  76.6163731  46.7572254  34.7108237  76.1223926  46.4234710
  33.4302608  76.5441131  46.1724481  34.0722743  76.5322739  46.6214609
  35.7985516  68.4652877  41.3238170  35.3713124  68.3779225  40.5686269
  35.1611569  68.5730652  41.9093014  35.6415124  68.4685537  41.2983611
  29.4892679  58.7857207  44.9908727  30.1185797  59.3217507  44.7129798
  29.6578541  58.6934566  45.8422293  29.6070473  58.8518570  45.0757255
  29.2906593  63.5728402  47.2635139  30.1180023  63.3013551  47.3193753
  29.3114439  64.3689244  47.6198957  29.4159443  63.6508156  47.3250322
  34.1282773  77.3083539  43.3977611  34.9175151  76.9572604  43.5179692
  34.3026371  78.1219928  43.1354245  34.2703054  77.3769396  43.3765479
  23.8676083  70.7192265  40.4505400  23.0264090  70.6196139  40.6584293
  24.0766091  71.4887745  40.8019720  23.7740776  70.8184308  40.5332715
  21.3451650  68.3411802  38.2790150  20.9508348  68.4154814  37.5040260
  20.7891767  68.7269748  38.8298512  21.2054463  68.4093576  38.2457810
  27.6792748  68.6473664  39.7002997  27.3755886  68.0929652  40.3013405
  26.9772169  68.8265874  39.2131031  27.5308958  68.5918446  39.7172703
  26.7358845  65.9574184  34.2647699  27.0118580  65.2393096  33.8525266
  27.3357515  66.5559104  34.0568805  26.8652110  65.9394555  34.1728460
  23.7584891  73.1136027  41.8697033  23.1672824  73.7545525  41.8400048
  24.5205915  73.5373644  41.8428332  23.7833152  73.2711866  41.8612180
  24.1545514  64.2738025  42.5365050  24.6146995  64.3476954  43.2740174
  24.2001621  65.0719279  42.1864871  24.2296069  64.4032172  42.5937807
  25.8028864  64.9404720  47.1037077  25.4114429  64.2938067  47.5392855
  25.9714726  65.5316155  47.7231333  25.7699774  64.9318988  47.2599783
  39.8775313  72.9441797  42.8674311  39.9358436  73.3928446  43.6134287
  39.2441780  73.3540610  42.4304391  39.7926608  73.0715531  42.9126859
  33.5174407  78.5645339  39.3029057  33.3194096  79.0536153  38.6085268
  32.8962118  78.7686580  39.8813190  33.3961972  78.6661877  39.2852280
  27.5782386  70.3330236  33.6439301  28.3224431  70.7204512  33.8822251
  27.7243082  69.4887661  33.8079789  27.7092971  70.2660708  33.7033271
  29.4961961  62.1280494  38.6771163  28.6498006  62.3003302  38.5512512
  29.4933094  61.3229838  39.0136991  29.3709111  62.0341523  38.7082290
  30.5660262  65.9055709  39.5433221  30.0920216  65.3797471  40.0538531
  30.9378397  65.3585182  38.9748082  30.5510151  65.7471705  39.5348368
  20.9433292  67.9027216  44.9116766  21.8058905  67.8022925  44.8254096
  20.6125075  67.3221925  44.3502338  21.0218488  67.8018842  44.8162172
  36.8296992  70.9658085  40.9540001  36.5895215  70.1264500  40.9582428
  37.3088999  71.0458251  41.6780775  36.8649176  70.8539484  41.0614803
  32.4943761  66.7992263  32.6058974  31.9666780  66.8821007  31.9164683
  32.9539469  67.5410135  32.6023619  32.4845612  66.9212926  32.5033670
  38.8302179  67.7459542  38.9069260  38.5911949  67.7055376  38.0690045
  38.9936080  68.5930694  39.0334981  38.8192483  67.8651627  38.8022742
  35.4348209  72.1309491  44.8374305  36.1582408  71.6782017  44.6585325
  35.1698172  72.4114157  44.0546633  35.5029483  72.1060460  44.6953021
  24.3035078  66.7269665  41.5727185  23.6788148  66.7388057  40.9653137
  23.9680673  67.2029840  42.2218425  24.1620570  66.7988182  41.5783753
  24.4876826  65.0694783  27.6299870  24.1389631  65.7214508  28.0931419
  24.0073272  65.0551896  26.9023741  24.3647070  65.1637837  27.5910961
  21.0160753  74.7870125  43.0130949  20.4860678  74.0962564  43.0625924
  21.2885847  74.7780310  42.1843657  20.9785476  74.6837256  42.8978365
  32.0480844  75.3695827  31.7368631  32.7715043  75.8353940  31.5933205
  31.6081435  75.4369437  30.9866228  32.0896536  75.4479664  31.6053413
  31.2166999  72.2293369  42.9869320  30.6023992  71.6851420  43.2817956
  31.7334284  71.7157606  42.5075137  31.2022661  72.0729778  42.9593549
  30.4563296  73.2997639  40.7213619  30.0290904  72.6747358  40.2879054
  30.4488240  73.0172561  41.5472626  30.3922437  73.1650420  40.7793447
  23.5725823  68.3362812  43.7902053  23.7319310  67.5806137  44.1953775
  23.3918717  68.8853752  44.4442791  23.5691182  68.3056626  43.9464759
  31.5146126  60.5024048  44.3452843  31.0186687  60.6987722  43.6544409
  32.2715188  60.9016716  44.1741644  31.5532951  60.5901782  44.2172979
  28.7849006  64.1766394  40.9356153  28.8091493  63.6426506  40.2468933
  29.0360479  63.6683703  41.5981744  28.8258924  64.0227298  40.9320798
  16.2956595  71.4597889  40.3699297  16.1900045  71.4144733  39.5051381
  15.5456815  71.8051669  40.6513582  16.1692198  71.5038797  40.2836627
  25.0650328  62.9037212  40.3161897  25.1048699  63.4046419  41.0296605
  24.2399993  62.9947606  40.0467820  24.9489854  62.9919028  40.3812436
  27.2479941  72.4697952  48.4182192  26.3975571  72.6069666  48.5539837
  27.4108068  71.7361730  48.8629894  27.1463804  72.3812053  48.5037791
  26.4864691  69.4197722  42.6135796  25.6556621  69.5871540  42.4071044
  26.4316208  69.0433673  43.3984682  26.3554106  69.3887453  42.6984324
  24.2948475  62.9106615  48.2492207  24.9201178  62.3668748  48.5221639
  23.8398954  62.4301532  47.6799997  24.3196735  62.7596096  48.2053801
  24.8600735  67.6953313  33.1425914  25.0003696  68.1925778  33.8454555
  25.3583268  66.9939608  33.2840128  24.9541816  67.6655292  33.2677493
  24.8900957  68.5620424  30.4718491  25.5246037  69.1580850  30.4067953
  24.9726568  68.2623882  31.2864361  24.9957508  68.6061333  30.5821577
  37.8683523  71.0935902  43.3404855  38.4601364  71.7333153  43.3723053
  38.3042518  70.3958939  43.6296922  38.0201954  71.0854252  43.3885688
  26.4679940  64.4934400  30.4463933  26.7895781  64.0137482  29.7923195
  26.7306884  65.3034046  30.2554745  26.5545966  64.5424298  30.3219425
  29.6976913  75.5153274  43.9662749  29.1902004  76.0689121  44.4103379
  29.4003559  75.5761564  43.1481523  29.5781798  75.6059585  43.9111206
  31.8639095  63.8806594  42.8087412  32.2894167  63.4279120  42.1970938
  31.2496088  63.3266665  43.0852199  31.8367741  63.7320570  42.7592437
  21.3953945  70.7588265  33.7408037  21.9046175  71.3552773  34.1219342
  21.8688218  70.4914239  33.0584457  21.5397321  70.8074081  33.6962560
  34.8932665  68.3081120  35.6407998  34.2223855  68.8510823  35.5121063
  35.5872415  68.7775976  35.3989692  34.8961532  68.4579392  35.5863525
  35.0560792  64.7637004  38.5498371  35.4088402  64.3366727  39.2244170
  34.1975594  64.6787848  38.6799447  34.9810237  64.6881745  38.6693381
  23.7544477  67.3944524  36.6081217  23.0356466  67.8108656  36.8754081
  24.1256839  67.9598763  36.0572855  23.7036409  67.5393805  36.5664024
  33.0544058  68.0272373  42.4983213  33.0341985  67.8455668  43.3517992
  33.1023259  68.8984391  42.4742797  33.0578699  68.1288911  42.6206508
  30.9990388  74.6159565  48.4231690  30.9586243  73.9709242  47.8376845
  31.8113706  74.5596182  48.7357102  31.1133541  74.5118532  48.3828639
  29.5291051  66.4342524  31.9454597  28.9355891  66.7559520  31.3939164
  29.5666329  65.5883619  31.7375703  29.4465441  66.3566852  31.8337368
  36.4884852  59.8855416  39.4782683  35.9815717  59.1784556  39.4103861
  37.2852286  59.5548605  39.6083760  36.5312091  59.7328567  39.4881678
  32.4048868  66.3922028  35.3756347  32.1762561  66.4154730  34.5334705
  32.6646944  65.5679495  35.4951358  32.4095056  66.2738108  35.2681545
  26.6868096  68.2456501  44.9781447  26.1747000  67.6377684  45.3366479
  26.5147593  68.9613094  45.4455423  26.5857734  68.2619801  45.0997671
  21.5333811  66.6894077  47.6283809  21.3636401  67.3495451  47.0832016
  21.0899761  66.9000638  48.3496298  21.4433145  66.8180059  47.6545438
  25.4593631  64.9298574  36.6710543  25.9350997  65.2915654  36.0360724
  24.9582230  65.5855042  36.9510685  25.4558990  65.0792763  36.6187284
  38.6904992  74.4020343  32.4623548  39.0738598  75.1511699  32.6921645
  37.8949105  74.6486162  32.2035537  38.6298774  74.5490036  32.4581121
  30.5637167  66.1680746  47.4183703  31.1208597  65.9394555  46.7862168
  30.2398232  66.9286412  47.1418915  30.5983577  66.2464583  47.2840200
  18.4335876  69.5940942  42.8872299  17.8862595  68.9241588  43.0053167
  19.2228254  69.2270790  42.9515766  18.4688059  69.4405929  42.9140999
  28.2820284  69.2548399  48.3835710  29.0331611  69.5700076  48.6975264
  28.4742861  69.0527570  47.5569632  28.4211698  69.2715781  48.3079106
  27.5020284  67.0739774  30.0383927  27.8819249  67.0919403  29.2535041
  26.7612880  67.5193763  29.9174774  27.4489121  67.1421549  29.9047495
  35.1305574  65.3821965  35.6259505  35.1299801  65.2270622  36.4843782
  34.9261754  66.2284953  35.5700891  35.1005352  65.4842586  35.7447445
  17.1922845  68.8061750  40.0418322  17.0144606  68.3538359  40.7673237
  16.9041867  69.6087911  40.2256799  17.1235798  68.8584308  40.1761825
  32.8546426  70.0619467  39.2795712  33.3500092  69.3442462  39.2399732
  32.0446202  69.7590265  39.1650199  32.8090320  69.9117114  39.2569438
  28.3005038  73.9117281  31.4292717  27.4916361  73.5883954  31.3826026
  28.8079947  73.2050503  31.3620965  28.2554705  73.7598597  31.4123011
  18.9295315  71.3389474  37.1540081  18.0640835  71.3275164  37.0422852
  19.0294131  71.1519697  38.0011220  18.8169482  71.3095535  37.2629025
  34.9198245  72.8123155  41.9672841  35.3453317  72.2897577  41.4143266
  34.5555165  73.4103992  41.4461464  34.9284848  72.8233382  41.8081851
  31.5076845  76.5257419  38.2973998  31.9788023  77.2397682  38.4663984
  31.8437023  75.9256169  38.8333868  31.6271960  76.5428883  38.4006374
  33.5953829  78.1358732  50.4766071  33.7050795  77.3467293  50.8322818
  33.9244726  78.0464669  49.6740409  33.6606235  78.0064585  50.4108461
  28.4246340  61.2984890  45.2532093  28.5574245  60.5015883  45.5813069
  28.8091492  61.8251293  45.8330369  28.5002668  61.2584806  45.3875596
  32.1450791  76.3175353  45.0601691  31.5971737  75.6933237  44.7921756
  32.6063820  76.5069625  44.3445770  32.1318000  76.2534403  44.9152122
  31.4978695  58.2215216  41.8513186  30.6924658  58.1112945  42.1681025
  31.3685430  58.3227671  40.9943052  31.3598828  58.2198886  41.7721227
  34.9544655  64.3860708  42.4452883  34.3707644  64.8869914  42.0330451
  35.2748949  63.8790264  41.8117207  34.9157831  64.3852543  42.2911391
  27.4939454  63.3001302  32.7211558  28.3155149  63.4699615  32.4793253
  27.0309105  63.4548563  31.9977856  27.5470617  63.3483035  32.5783202
  26.0834786  61.2944065  43.5009987  26.6279199  60.9535192  44.0914329
  26.1371722  62.1529526  43.6431272  26.1723906  61.3699324  43.6091860
  31.7109117  77.3226426  41.5911032  32.5307491  77.1789392  41.8527327
  31.4303195  77.9472625  42.1327470  31.7905861  77.3936778  41.7098972
  38.1098239  78.9145994  38.2797222  37.7801569  79.3657138  37.6100921
  37.4343241  78.8362158  38.8270229  37.9608676  78.9697129  38.2620445
  45.3174647  74.9031517  36.5246833  45.0028088  75.5934996  36.9567255
  44.8001589  74.8476299  35.8232334  45.1939117  74.9966406  36.4843782
  36.3154193  76.9758283  33.7620170  37.0700161  77.3436600  33.5237220
  36.1381728  77.3497837  34.5299350  36.4008672  77.0856471  33.8405058
  49.6089092  83.1252723  41.8067709  48.7717513  83.1954910  42.0415304
  49.5777323  83.1277218  40.9342012  49.4807374  83.1362950  41.7127257
  40.3510977  76.3855012  33.4947307  41.0797138  76.2070967  33.0485463
  40.4405870  77.2273092  33.7054485  40.4717639  76.4838891  33.4600824
  47.2896932  78.1895505  40.3911432  47.9322840  78.2593609  40.9773347
  47.5419953  77.5224728  39.8890974  47.4219064  78.1021853  40.4038711
  42.5248214  79.2832476  38.1022385  41.8204541  78.7941662  38.2606304
  42.5733189  79.2954951  37.2310829  42.4278266  79.2122124  37.9961724
  49.7278434  82.9640142  36.1223395  49.4714999  82.1520084  35.9321278
  50.5707748  82.9717709  35.8953582  49.8144460  82.8452140  36.0608212
  43.9081527  76.9039766  40.8599549  44.2892038  76.2217937  41.2467424
  43.1044811  76.6149368  40.6775214  43.8457988  76.7606815  40.8903605
  37.8673367  79.4093964  50.7262158  37.5526808  80.1793527  50.4631720
  37.5463300  78.8464220  50.1414385  37.7732286  79.4404233  50.6003508
  35.4205264  77.7984486  36.3408354  34.5527689  77.8707085  36.4065963
  35.7080468  78.6006565  36.5296329  35.3345012  77.9278633  36.3783121
  44.5438153  77.9462345  44.6719676  45.2891745  77.7572156  44.2583101
  44.1275457  78.4720583  44.1133532  44.5923127  77.9964491  44.5284249
  44.1419795  81.4759492  40.6089320  43.3030896  81.5020771  40.3727583
  44.2124162  82.1230228  41.1894667  44.0288189  81.5755618  40.6598437
  42.5889073  78.3744869  35.3416936  43.2915426  78.1752617  34.8636894
  42.3233262  77.6020812  35.6485779  42.6535706  78.2307835  35.3162377
  37.3517630  79.6380154  44.3947817  37.1600827  79.6535289  45.2447240
  38.2016226  79.8343829  44.3714471  37.4493352  79.6694506  44.5171111
  40.2621857  79.8335664  44.6019640  40.7194471  80.5659638  44.7292432
  40.3378186  79.4102129  45.3606895  40.3412827  79.8792902  44.7320716
  44.7349183  73.0125539  38.4713483  44.8532751  73.4702002  37.7380785
  44.5611358  72.2070800  38.1849700  44.7268354  72.9619311  38.3214416
  41.7026746  74.8676341  39.4132145  40.8320304  74.8415062  39.3665454
  41.9567088  74.6953533  38.5957990  41.6120307  74.8386485  39.2852281
  38.7275887  76.8782570  40.8705615  38.2114376  76.1862761  40.9957194
  38.1669816  77.5453347  40.8168214  38.5682400  76.8745827  40.8811681
  40.7968120  77.4175530  42.6998467  40.4099874  77.4424561  43.4811997
  40.3101058  76.8517208  42.2472984  40.6680629  77.3371281  42.7486371
  40.4625262  74.3042515  44.9908727  41.0918380  74.8402815  44.7129798
  40.6311125  74.2119874  45.8422293  40.5803057  74.3703878  45.0757255
  40.2639177  79.0913710  47.2635139  41.0912606  78.8198859  47.3193753
  40.2847023  79.8874552  47.6198957  40.3892027  79.1693464  47.3250322
  43.9549181  76.8378404  37.9594029  44.1598774  76.7700712  38.8051026
  43.6275605  77.6437225  37.8915207  43.9364428  76.9464344  38.0753684
  47.2082868  77.3910168  37.4396795  46.5957182  77.8780570  37.8250526
  47.3047043  76.7153659  37.9834446  47.1320766  77.3628477  37.5775653
  41.2101949  79.1473009  32.5394294  41.6645696  79.3183570  33.2642139
  41.6841995  78.5341120  32.1392070  41.3470269  79.0823894  32.5868056
  40.4694545  77.6465802  38.6771163  39.6230590  77.8188610  38.5512512
  40.4665677  76.8415146  39.0136991  40.3441695  77.5526831  38.7082290
  41.5392845  81.4241017  39.5433221  41.0652799  80.8982779  40.0538531
  41.9110981  80.8770490  38.9748082  41.5242734  81.2657013  39.5348368
  49.8034763  83.2644850  38.9069260  49.5644533  83.2240684  38.0690045
  49.9668664  84.1116002  39.0334981  49.7925066  83.3836935  38.8022742
  42.4878710  76.0209356  44.3452843  41.9919271  76.2173030  43.6544409
  43.2447772  76.4202024  44.1741644  42.5265534  76.1087090  44.2172979
  39.7581589  79.6951702  40.9356153  39.7824076  79.1611814  40.2468933
  40.0093063  79.1869011  41.5981744  39.7991508  79.5412606  40.9320798
  36.0382911  78.4222520  40.3161897  36.0781283  78.9231727  41.0296605
  35.2132576  78.5132914  40.0467820  35.9222437  78.5104336  40.3812436
  35.2681058  78.4291923  48.2492207  35.8933761  77.8854056  48.5221639
  34.8131538  77.9486840  47.6799997  35.2929319  78.2781404  48.2053801
  42.8371679  79.3991902  42.8087412  43.2626750  78.9464428  42.1970938
  42.2228672  78.8451972  43.0852199  42.8100324  79.2505878  42.7592437
  41.2765902  75.8707002  36.2177989  40.6334220  75.7204648  36.7863127
  40.9365309  75.6249347  35.4527094  41.1310979  75.8119124  36.1881004
  46.0293376  80.2822312  38.5498371  46.3820986  79.8552035  39.2244170
  45.1708177  80.1973156  38.6799447  45.9542820  80.2067053  38.6693381
  47.4617436  75.4040724  39.4782683  46.9548300  74.6969863  39.4103861
  48.2584869  75.0733913  39.6083760  47.5044675  75.2513875  39.4881678
  43.3781452  81.9107336  35.3756347  43.1495145  81.9340038  34.5334705
  43.6379528  81.0864803  35.4951358  43.3827640  81.7923416  35.2681545
  46.1038158  80.9007273  35.6259505  46.1032384  80.7455930  36.4843782
  45.8994338  81.7470260  35.5700891  46.0737936  81.0027894  35.7447445
  39.3978923  76.8170198  45.2532093  39.5306829  76.0201191  45.5813069
  39.7824076  77.3436601  45.8330369  39.4735252  76.7770114  45.3875596
  42.4711278  73.7400524  41.8513186  41.6657242  73.6298253  42.1681025
  42.3418014  73.8412979  40.9943052  42.3331411  73.7384194  41.7721227
  45.9277239  79.9046016  42.4452883  45.3440228  80.4055222  42.0330451
  46.2481533  79.3975572  41.8117207  45.8890414  79.9037851  42.2911391
  38.4672038  78.8186610  32.7211558  39.2887732  78.9884923  32.4793253
  38.0041689  78.9733871  31.9977856  38.5203200  78.8668343  32.5783202
  37.0567370  76.8129373  43.5009987  37.6011783  76.4720499  44.0914329
  37.1104306  77.6714834  43.6431272  37.1456489  76.8884632  43.6091860
  14.9575841  15.3613485  21.4893955  14.9269845  16.2158122  21.6612225
  15.5557190  15.0608778  22.0480099  15.0412999  15.4429982  21.5968758
   8.1575526  14.4489136  26.2446886   7.3013421  14.6097634  26.2956003
   8.2043179  13.5781200  26.2651947   8.0374637  14.3439938  26.2552952
   2.5416665  23.9851854  22.0084117   1.7899565  23.6067392  21.7800162
   2.9902677  24.0170287  21.2602928   2.4966332  23.9337461  21.8641620
  11.4669242  20.7175662  35.8507342  12.1736009  20.2227692  35.9794276
  11.6557178  21.1584743  35.1210000  11.5997148  20.7094012  35.7616387
   7.9941625  24.4077223  17.4369665   7.6592994  25.0854145  17.0013887
   8.5068496  24.0182535  16.8486536   8.0207206  24.4501802  17.2856456
   7.5345917  26.3591492  23.3780776   7.9185296  26.9278391  22.8385551
   7.4705058  25.6341002  22.8986592   7.5819344  26.3366955  23.2274639
  11.0027347  16.5081180  28.8878537  11.5483307  17.1866267  28.9472507
  10.9444223  16.3668641  28.0280119  11.0743261  16.5873182  28.7690598
   4.1201422  23.9970246  24.2746890   4.2211784  23.1870600  24.5844018
   3.5243167  23.9027192  23.6446568   4.0473960  23.8635274  24.2273128
  12.7792415  17.9365787  19.7612265  12.6631941  18.6873473  20.1904403
  13.5748302  17.6789740  20.0108352  12.8797005  18.0100634  19.8616357
   3.9602161  28.9147835  25.6761746   4.6039617  29.3560999  26.0657904
   4.2858417  28.1101261  25.5892005   4.1033990  28.8613030  25.7207223
   4.6622741  21.9259810  21.0481608   4.9838582  22.4665017  20.4442916
   5.3094837  21.3556581  21.1803897   4.8048796  21.9218985  20.9788643
   6.7124449  13.9275805  21.1315994   7.4104614  14.1063933  21.6237458
   7.0276781  13.4046144  20.5086384   6.8619786  13.8769577  21.1118005
   6.9012384  20.3146250  21.1195786   7.3406020  19.7063351  21.5650559
   6.7517047  19.9353623  20.3481251   6.9433850  20.1684721  21.0714953
   4.3684027  18.9090262  28.3214611   5.0133030  18.4162705  28.0025560
   4.6085804  19.0515048  29.1480690   4.4994612  18.8567704  28.3964145
   6.9070119  21.7545168  27.9721504   7.1893362  20.9596573  27.7508260
   7.6356279  22.2325755  27.9926565   7.0559682  21.7079765  27.9424519
  10.5021721  18.6673431  18.0726555  10.4173016  19.5234398  18.2176124
  10.9906104  18.3917755  18.7408714  10.5610618  18.7530753  18.1928637
  11.4340154  15.2858225  19.5724290  10.9051626  15.5017859  20.2321596
  11.9565174  15.9794364  19.4925260  11.4328607  15.4201362  19.6579889
  16.8888207  20.8604530  24.9457335  16.0585910  21.0715174  25.1090751
  16.8397459  20.0341584  24.6699618  16.7594942  20.7694136  24.9294700
   4.9497945  23.6908384  27.7805244   4.4324886  23.3315799  27.1766552
   5.6472336  23.1670559  27.7911310   4.9763526  23.5606072  27.6935503
   8.6061537  24.1403198  33.7421417   8.6944882  23.9529339  34.5899628
   9.0351249  23.4940628  33.3426264   8.6823639  24.0166206  33.8093169
   6.1731996  23.4234358  32.7239079   5.6102831  23.0106968  33.2478741
   6.9353020  23.3487264  33.1432223   6.2026445  23.3511759  32.8632080
   1.7327988  25.4132379  25.3275710   2.4348567  24.8984368  25.3848466
   1.6525471  25.7406531  26.1322585   1.8251748  25.3846605  25.4548502
  16.3842165  13.5074931  28.7407756  15.5470586  13.5777118  28.9755350
  16.3530396  13.5099425  27.8682058  16.2560448  13.5185158  28.6467304
   2.7806894  15.6507966  34.4556125   2.9527398  15.5413861  35.3041406
   3.3176252  16.2962372  34.2187317   2.8851898  15.7299968  34.5461221
   1.0578763  21.6038731  24.8361318   1.8967663  21.8361664  24.8835079
   1.0890532  20.7343043  24.7668353   1.1860481  21.5095678  24.8325962
   1.6831466  22.0239606  29.1374623   2.2229691  21.8810737  29.8077995
   1.0001412  22.4236357  29.5058649   1.6623620  22.0619277  29.2909045
  11.1072351  17.7030607  24.3319647  11.8629866  18.1362121  24.3708556
  11.2134676  17.0535377  24.9054284  11.2342522  17.6708091  24.4217673
  14.1452522  21.5303884  25.0822050  13.7087754  21.5340627  25.8381022
  13.8115438  22.2109383  24.6501628  14.0315142  21.6316340  25.1302883
   8.7181596  23.5712217  36.4065201   9.5022012  23.6843065  36.7720943
   8.5178190  22.7453354  36.6023887   8.8047621  23.4658937  36.4899587
  14.0650005   8.5717712  27.3251478  14.7075914   8.6415817  27.9113394
  14.3173026   7.9046935  26.8231020  14.1972137   8.4844061  27.3378758
   8.8751989  25.4822319  30.0531656   8.0767235  25.2421819  30.3105525
   9.3238001  25.5336712  30.7998704   8.8226600  25.4544710  30.2016581
  17.2796868  18.2484804  23.9741688  17.9413303  17.6875473  23.8737596
  16.6388280  17.7536835  24.2994379  17.2825736  18.0921213  24.0074028
   8.1673676  21.5454936  16.2822611   8.5824825  21.2139959  15.5907107
   7.3365606  21.3123838  16.1542748   8.1061685  21.4626192  16.1613458
  13.5661699  19.2650187  23.7153676  13.8017288  19.4095386  22.8880527
  13.7151263  20.0292595  24.1085190  13.6227502  19.3989241  23.6517280
   0.5607777  15.7483680  33.0802898   1.2847749  15.7336710  33.5667792
   0.6623913  16.4579035  32.5824866   0.6825986  15.8508383  33.0781684
  15.3952156  18.1051853  21.5523280  15.7260373  18.6379493  20.9463375
  15.9685244  18.1590740  22.2085231  15.5285835  18.1921421  21.5601062
   7.9352726  19.2282764  37.9451845   7.1425707  19.5426276  38.1304464
   8.0501653  19.4434233  37.1072629   7.8348137  19.3066601  37.8490179
  10.6084045  15.9516755  22.2346860  10.7030899  16.6906049  22.6886486
   9.9842889  15.5234231  22.6681425  10.5293075  15.9978076  22.3655008
   8.8636519  19.1302968  32.8837141   9.4375380  18.4930212  33.0385705
   8.7851323  19.1307050  32.0146799   8.9369754  19.0368079  32.7783552
   4.2200237  17.5626233  24.9358339   3.9619482  16.7297968  24.9089638
   4.2748720  17.7883846  24.0950839   4.1900015  17.4724004  24.8078475
   9.3001288   9.6654684  25.0362431   8.5957614   9.1763869  25.1946351
   9.3486262   9.6777158  24.1650876   9.2031339   9.5944332  24.9301771
   3.1934950  15.1163995  25.4223233   2.6184541  15.2756164  26.0587194
   2.8170626  14.4799405  24.9591684   3.0537762  15.0461808  25.4477792
   6.8608238  13.5887345  30.2815612   6.4722671  13.1641563  29.6267803
   6.1962937  13.8369494  30.7892639   6.7055166  13.5626066  30.2603480
  16.5031507  13.3462349  23.0563442  16.2468072  12.5342291  22.8661325
  17.3460821  13.3539917  22.8293629  16.5897533  13.2274347  22.9948259
  10.6834600   7.2861974  27.7939596  11.0645112   6.6040145  28.1807470
   9.8797884   6.9971576  27.6115261  10.6211062   7.1429022  27.8243652
   7.9647177  17.8185949  18.4792419   8.7787815  18.1100842  18.3675190
   7.9006318  17.1645812  17.9050712   8.0749916  17.7651144  18.3781256
  14.1856667  20.5011945  32.8921995  13.9495304  19.6700010  32.7734055
  14.8299896  20.4497553  33.4776839  14.2451337  20.3709633  32.9607888
   3.8355085  21.2907467  23.6064731   4.4729032  21.0519214  24.1516524
   4.2610156  21.4944626  22.8717892   3.9931251  21.2858477  23.5781888
  15.2093087  20.2856394  28.9550289  14.9038904  21.0184451  29.3163605
  14.4899303  19.8794324  28.6743075  15.0580430  20.3338127  28.9663426
   6.2176557  21.7679889  25.2858517   6.2915565  21.6055061  26.1400367
   7.0346063  21.9570079  25.0418999   6.3492915  21.7716632  25.3756543
  20.9094879  16.9249395  28.2818633  20.8419380  16.9445354  27.4121220
  20.8950542  17.7679722  28.5074304  20.8973636  17.0523130  28.1871110
  11.3191226   8.3284553  31.6059723  12.0644818   8.1394363  31.1923148
  10.9028531   8.8542791  31.0473579  11.3676200   8.3786698  31.4624296
   4.7581142  24.7314632  20.0171991   5.0479441  24.3403614  19.2931217
   5.4884623  24.9131337  20.4577266   4.9088027  24.7008446  19.9754798
  18.6953497  15.6993781  26.5565228  19.2461418  15.0661850  26.7962320
  18.6797612  16.2309174  27.2480732  18.7738693  15.6842729  26.6944086
   5.3475888  19.5332378  31.1025121   4.8487581  20.2448146  31.1810010
   6.1576112  19.8533045  31.0643284   5.3931994  19.6859227  31.1081690
   2.6987058  26.7082015  23.0832140   2.4787353  26.4179370  23.8758807
   2.4781580  26.0496970  22.5550053   2.6334652  26.5681723  23.1221049
   1.6104005  18.7955331  25.3487842   1.3217254  18.1692803  25.8833569
   2.4787353  18.7375619  25.4152522   1.6964257  18.6942876  25.4378797
  12.3981903  13.9390115  25.6669824  12.0546669  13.2180450  26.0177074
  12.4974946  13.7303966  24.8248182  12.3623946  13.8014318  25.5941504
   4.8655014  28.0811405  21.8662833   5.5179072  27.5487847  22.0953859
   4.1680622  27.7280057  22.2530707   4.8585732  27.9500928  21.9575000
   1.8136279  20.4350582  21.2730207   2.5682247  20.8163622  21.4865670
   1.2206891  20.8861726  21.7276904   1.8372992  20.5579410  21.3713085
  12.8594932  20.4015819  21.2093812  13.4252965  21.0609029  21.1252355
  12.2122836  20.7465517  21.6810214  12.8473689  20.5497760  21.2666568
   4.2742946  12.3913423  36.3987419   3.4642721  12.6971203  36.2877262
   4.7517632  13.1119005  36.5140003   4.2246424  12.5428024  36.3994490
   3.1334505  21.6059144  26.6470322   2.6115259  21.7459435  27.3322187
   3.5208525  20.8469808  26.8372440   3.1138206  21.5144668  26.7771399
   9.3301510  23.3454603  20.6330891   9.0888186  22.6122464  20.2257956
   9.5102843  23.8941460  19.9797225   9.3209134  23.3176994  20.4761114
   4.5600831  18.6363163  22.0451813   4.3643613  19.2437897  21.4512116
   4.7835176  17.9431107  21.5643487   4.5635472  18.6240688  21.8867894
   2.9579361  15.5217901  22.1632682   3.6802013  15.6859059  21.7036488
   2.4787354  16.2427566  22.0572022   2.9943091  15.6516130  22.0798296
  10.9172868  11.8581700  27.5429367  10.0783969  11.8842978  27.3067630
  10.9877236  12.5052435  28.1234713  10.8041262  11.9577825  27.5938484
   9.3642147   8.7567077  22.2756983  10.0668499   8.5574825  21.7976941
   9.0986335   7.9843019  22.5825826   9.4288779   8.6130043  22.2502424
  14.7930392  17.0649686  24.8290609  14.7064367  17.2205112  25.6825387
  14.3380872  17.7087762  24.4550014  14.7133649  17.1825441  24.8997715
   4.1270703  10.0202362  31.3287863   3.9353900  10.0357496  32.1787287
   4.9769299  10.2166036  31.3054518   4.2246425  10.0516713  31.4511158
   8.6656208  14.3860433  23.4516168   8.4190923  14.3056184  24.2852957
   8.9941331  13.6013901  23.2578696   8.6777452  14.2586699  23.5463691
  12.5604257  21.0943793  27.2402949  12.4218616  21.7924839  27.7451692
  11.7804255  20.9392449  26.8839131  12.4247484  21.1743959  27.2629223
  10.8982342  17.3940168  33.4925331  10.8930381  16.5219985  33.4967757
  11.6043336  17.5928337  33.0194787  11.0027346  17.2944042  33.4232366
   4.6253236  17.1217152  32.8639151   4.7696611  17.7018360  32.2282261
   4.9728884  17.4993449  33.5689006   4.6980697  17.2637856  32.8738146
   6.7973153  16.3207320  30.6464283   6.0496467  16.5138335  30.2412561
   6.9514678  15.4952540  30.4088404   6.7095581  16.2272432  30.5509689
   3.6980991  25.3119924  29.7300178   3.8470554  24.7522840  29.0773582
   4.4780993  25.3911926  30.1132697   3.8355084  25.2405489  29.6897127
  14.0557630  20.4522047  18.0019449  13.6764439  19.6659184  17.9948738
  13.3923875  21.0008904  17.8591093  13.9016105  20.4166871  17.9800245
   6.2234291  25.4834567  31.0084669   6.1477962  24.8143377  31.5635457
   6.1524150  26.1852355  31.5225335   6.2014898  25.4879474  31.1661517
   7.0374930  10.2157871  31.5359686   7.4947544  10.9481845  31.6632479
   7.1131259   9.7924336  32.2946942   7.1165900  10.2615109  31.6660763
   6.8804538  24.0035566  21.8408275   7.6454429  23.7345209  21.5190939
   6.7782628  23.5185576  22.5578338   6.9786034  23.8925130  21.8988102
   4.9157308  12.2059975  28.3801510   4.1253383  12.0251435  28.7018846
   5.3117931  11.4286928  28.3631805   4.8574184  12.0647436  28.4254059
  10.3000994  19.8402405  26.1060956   9.6245996  19.6087637  26.6074343
  10.3093370  19.2323588  25.4803061  10.2019499  19.7161330  26.0877109
   7.4295138  14.6820234  32.8625009   7.3654279  15.5430191  32.7345146
   7.5692326  14.3652227  32.0620561   7.4410608  14.7620401  32.7253222
  12.3017729  22.6967538  18.3371134  12.3837566  23.5034524  18.0132585
  12.7867471  22.7163497  19.0611908  12.3854887  22.8188200  18.3958033
   6.1114232  17.3752373  27.0041212   5.6876481  17.5756873  26.2680231
   5.9359087  16.5281221  27.1165512   6.0225113  17.2801155  26.9114902
   5.6125925  28.8902886  29.4662670   6.1021856  28.1913676  29.2838334
   5.0410158  28.5926756  30.0538727   5.6010455  28.7429110  29.5263710
   1.3996677  17.8704425  22.4369185   1.5561296  17.8051228  23.2925177
   1.7397270  18.6452977  22.2247864   1.4729912  17.9753623  22.5323779
   7.9375822  17.2462309  21.3062548   8.4791367  16.7432690  21.7701169
   8.2522381  17.1927503  20.4952033   8.0640219  17.1641729  21.2546360
  11.8092929  21.4564956  38.4189460  12.6227794  21.1850105  38.5794593
  11.6487895  21.1572496  37.6149656  11.9062877  21.3719882  38.3234866
   6.1062271  22.6379660  18.5902576   6.1755092  21.7794199  18.7295576
   6.8850726  22.8551541  18.2621601   6.2315121  22.5432524  18.5619733
   9.0865091  12.1398613  31.3584849   9.3007061  11.5009527  30.8048202
   8.4698990  12.5844437  30.9292710   9.0270420  12.1108757  31.2135280
  10.4969759  25.0617361  22.8039069  10.1049551  24.7584076  22.0861936
  10.6522831  25.8986451  22.6144023  10.4623349  25.1401198  22.6695566
  11.2504179  13.7487678  32.2968156  10.4380861  13.4413569  32.3781328
  11.7094114  13.2686678  32.8610868  11.1984564  13.6324171  32.3922750
  10.6609434  21.6267350  22.7445100  10.3024088  21.7981993  23.5209132
  10.1748144  22.0880556  22.1873098  10.5368131  21.7206321  22.7770369
   8.3457687  15.1547750  37.0796858   8.8157318  15.7789866  37.4664732
   8.3919567  14.4864725  37.6390073   8.4225562  15.1482430  37.2196929
  11.8214173  22.5171246  33.6912301  12.4593894  22.0231442  33.3574757
  11.1788265  22.4448647  33.1064528  11.8208400  22.4330255  33.5554656
   7.0392250   9.4735917  34.1975186   7.8665680   9.2021066  34.2533800
   7.0600096  10.2696759  34.5539004   7.1645100   9.5515672  34.2590369
  11.8768430  23.2091054  30.3317658  12.6660808  22.8580119  30.4519739
  12.0512027  24.0227443  30.0694291  12.0188711  23.2776912  30.3105526
   1.6161740  16.6199780  27.3845446   0.7749747  16.5203654  27.5924340
   1.8251748  17.3895260  27.7359767   1.5226433  16.7191823  27.4672761
  10.7302254   7.2200611  24.8934076  10.9351847   7.1522919  25.7391073
  10.4028678   8.0259432  24.8255253  10.7117502   7.3286552  25.0093731
   5.4278405  14.5481179  26.6343044   5.1241542  13.9937168  27.2353452
   4.7257826  14.7273389  26.1471078   5.2794615  14.4925962  26.6512750
   3.4896756  21.7630900  31.3415142   3.3817111  21.7732962  32.2077200
   3.6992537  22.5885680  31.1520095   3.5046867  21.8871975  31.4419233
  13.9835942   7.7732375  24.3736841  13.3710255   8.2602778  24.7590573
  14.0800116   7.0975866  24.9174493  13.9073839   7.7450684  24.5115700
   1.5070548  19.0143542  28.8037079   0.9158481  19.6553041  28.7740094
   2.2691571  19.4381160  28.7768379   1.5318809  19.1719381  28.7952227
   3.5514520  10.8412235  34.0377124   3.1600086  10.1945582  34.4732902
   3.7200383  11.4323670  34.6571379   3.5185431  10.8326503  34.1939830
  17.6260969  18.8449312  29.8014358  17.6844093  19.2935961  30.5474334
  16.9927437  19.2548125  29.3644438  17.5412265  18.9723047  29.8466906
  11.2660064  24.4652854  26.2369104  11.0679753  24.9543669  25.5425315
  10.6447775  24.6694096  26.8153237  11.1447629  24.5669392  26.2192327
   5.3268043  16.2337751  20.5779348   6.0710087  16.6212027  20.8162298
   5.4728739  15.3895176  20.7419836   5.4578628  16.1668224  20.6373318
   8.3145918  11.8063224  26.4773267   7.8405873  11.2804986  26.9878578
   8.6864054  11.2592697  25.9088129   8.2995807  11.6479221  26.4688415
  14.5782649  16.8665600  27.8880048  14.3380872  16.0272015  27.8922474
  15.0574656  16.9465767  28.6120821  14.6134833  16.7547000  27.9954850
  16.5787836  13.6467057  25.8409307  16.3397606  13.6062891  25.0030092
  16.7421737  14.4938209  25.9675028  16.5678139  13.7659142  25.7362789
  13.1833866  18.0317006  31.7714352  13.9068065  17.5789533  31.5925372
  12.9183828  18.3121672  30.9886680  13.2515139  18.0067975  31.6293067
   2.0520734  12.6277180  28.5067231   1.4273805  12.6395572  27.8993184
   1.7166329  13.1037355  29.1558472   1.9106226  12.6995697  28.5123800
   9.7966501  21.2703342  18.6708678  10.5200699  21.7361455  18.5273251
   9.3567092  21.3376952  17.9206275   9.8382193  21.3487179  18.5393460
   8.9652656  18.1300885  29.9209367   8.3509649  17.5858935  30.2158002
   9.4819941  17.6165121  29.4415183   8.9508318  17.9737294  29.8933596
   8.2048953  19.2005155  27.6553666   7.7776561  18.5754873  27.2219101
   8.1973897  18.9180076  28.4812673   8.1408094  19.0657935  27.7133493
   1.3211480  14.2370328  30.7242100   1.4804967  13.4813652  31.1293822
   1.1404373  14.7861267  31.3782837   1.3176839  14.2064141  30.8804806
   9.2631783   6.4031563  31.2792889   8.7672344   6.5995237  30.5884456
  10.0200845   6.8024232  31.1081691   9.3018608   6.4909297  31.1513026
   6.5334662  10.0773909  27.8696200   6.5577150   9.5434021  27.1808980
   6.7846136   9.5691218  28.5321790   6.5744581   9.9234813  27.8660844
   4.9965598  18.3705467  35.3522239   4.1461228  18.5077182  35.4879884
   5.1593725  17.6369246  35.7969940   4.8949461  18.2819569  35.4377838
   4.2350348  15.3205237  29.5475843   3.4042278  15.4879055  29.3411091
   4.1801865  14.9441188  30.3324728   4.1039763  15.2894969  29.6324371
  15.6169180  16.9943417  30.2744902  16.2087020  17.6340668  30.3063100
  16.0528175  16.2966454  30.5636969  15.7687611  16.9861768  30.3225734
   7.4462570  21.4160790  30.9002796   6.9387661  21.9696636  31.3443426
   7.1489216  21.4769079  30.0821570   7.3267455  21.5067101  30.8451252
   9.6124752   9.7814109  29.7427459  10.0379824   9.3286636  29.1310985
   8.9981745   9.2274180  30.0192246   9.5853397   9.6328085  29.6932484
  10.0570350  25.3324047  18.8306739   9.3399660  25.1584909  18.3653977
  10.7077088  25.0976620  18.2982225  10.0472201  25.2719840  18.6835957
  12.6418321  14.2088636  22.5748044  11.9709511  14.7518338  22.4461110
  13.3358072  14.6783491  22.3329739  12.6447189  14.3586907  22.5203572
   6.6905055  26.3485348  27.8059803   6.4670710  25.5904177  28.1743829
   6.2014898  26.3783369  27.0840242   6.5848504  26.2407572  27.7536544
  12.8046449  10.6644519  25.4838418  13.1574059  10.2374242  26.1584216
  11.9461250  10.5795363  25.6139494  12.7295894  10.5889260  25.6033428
   1.5030134  13.2952039  23.5421264   0.7842123  13.7116172  23.8094128
   1.8742496  13.8606278  22.9912902   1.4522066  13.4401321  23.5004071
  10.8029715  13.9279888  29.4323260  10.7827642  13.7463183  30.2858039
  10.8508915  14.7991907  29.4082843  10.8064356  14.0296426  29.5546555
   8.7476045  20.5167080  35.3571736   8.7071899  19.8716757  34.7716892
   9.5599363  20.4603697  35.6697148   8.8619198  20.4126047  35.3168686
   5.3383512  26.5685806  25.2596887   4.9243911  25.9059936  24.8700729
   6.0230886  26.7163665  24.7392581   5.3781884  26.4926464  25.1253384
   8.7048806  25.7275891  26.0120504   8.3065089  25.8378162  25.2441324
   8.0900026  25.9357957  26.5947064   8.5547696  25.7749459  25.9851803
  14.2370509   5.7862931  26.4122730  13.7301374   5.0792071  26.3443908
  15.0337943   5.4556120  26.5423807  14.2797748   5.6336083  26.4221725
  10.1534525  12.2929543  22.3096394   9.9248218  12.3162245  21.4674752
  10.4132601  11.4687011  22.4291404  10.1580713  12.1745623  22.2021592
   4.4353753  14.1464017  31.9121494   3.9232656  13.5385200  32.2706525
   4.2633249  14.8620609  32.3795470   4.3343390  14.1627316  32.0337718
   3.2079287  10.8306090  23.6050589   3.6836654  11.1923170  22.9700771
   2.7067887  11.4862557  23.8850732   3.2044646  10.9800279  23.5527330
  16.4390649  20.3027858  19.3963594  16.8224255  21.0519214  19.6261692
  15.6434762  20.5493678  19.1375584  16.3784431  20.4497552  19.3921168
   8.3122824  12.0688261  34.3523750   8.8694254  11.8402071  33.7202215
   7.9883889  12.8293927  34.0758962   8.3469234  12.1472098  34.2180247
   6.0305941  15.1555914  35.3175757   6.7817268  15.4707591  35.6315311
   6.2228517  14.9535085  34.4909678   6.1697355  15.1723296  35.2419152
  12.8791231  11.2829481  22.5599552  12.8785457  11.1278137  23.4183828
  12.6747411  12.1292468  22.5040938  12.8491009  11.3850102  22.6787492
  10.6032083  15.9626983  26.2135759  11.0985748  15.2449978  26.1739779
   9.7931859  15.6597780  26.0990246  10.5575976  15.8124629  26.1909485
   6.0490695  19.8124796  18.3632763   5.2402017  19.4891469  18.3166073
   6.5565603  19.1058018  18.2961012   6.0040361  19.6606112  18.3463058
  12.6683902  18.7130670  28.9012888  13.0938973  18.1905092  28.3483313
  12.3040822  19.3111508  28.3801511  12.6770505  18.7240897  28.7421898
   2.3037982  27.0094888  27.6610233   2.6184541  27.8231276  27.6688015
   2.7131395  26.6245106  28.3292392   2.4106080  27.0723590  27.7614325
   9.2562501  22.4264934  25.2314045   9.7273680  23.1405197  25.4004030
   9.5922680  21.8263685  25.7673915   9.3757616  22.4436399  25.3346421
  11.3439486  24.0366248  37.4106117  11.4536451  23.2474808  37.7662865
  11.6730383  23.9472184  36.6080455  11.4091892  23.9072101  37.3448508
   9.8936448  22.2182869  31.9941738   9.3457394  21.5940752  31.7261803
  10.3549476  22.4077141  31.2785817   9.8803657  22.1541919  31.8492169
  12.7030312  10.2868223  29.3792930  12.1193301  10.7877429  28.9670498
  13.0234606   9.7797779  28.7457253  12.6643487  10.2860058  29.2251437
   9.4594774  23.2233941  28.5251079  10.2793148  23.0796907  28.7867374
   9.1788852  23.8480140  29.0667517   9.5391517  23.2944293  28.6439018
  19.1308109  29.9674444  26.2446886  18.2746005  30.1282942  26.2956003
  19.1775763  29.0966508  26.2651947  19.0107221  29.8625246  26.2552952
  13.5149249  39.5037162  22.0084117  12.7632148  39.1252700  21.7800162
  13.9635261  39.5355595  21.2602928  13.4698916  39.4522769  21.8641620
  18.9674209  39.9262531  17.4369665  18.6325577  40.6039453  17.0013887
  19.4801079  39.5367843  16.8486536  18.9939790  39.9687110  17.2856456
  18.5078500  41.8776800  23.3780776  18.8917879  42.4463699  22.8385551
  18.4437641  41.1526310  22.8986592  18.5551927  41.8552263  23.2274639
  15.0934005  39.5155554  24.2746890  15.1944368  38.7055908  24.5844018
  14.4975750  39.4212500  23.6446568  15.0206544  39.3820582  24.2273128
  23.7524999  33.4551095  19.7612265  23.6364525  34.2058781  20.1904403
  24.5480886  33.1975048  20.0108352  23.8529588  33.5285942  19.8616357
  14.9334745  44.4333143  25.6761746  15.5772200  44.8746307  26.0657904
  15.2591000  43.6286569  25.5892005  15.0766573  44.3798338  25.7207223
   8.2899049  35.5375841  23.8999224   8.0549234  34.7043493  23.7931492
   8.4284690  35.8180506  23.0860425   8.2754712  35.4559344  23.7641579
  10.5889137  27.7061571  26.7983531   9.9694168  27.1154218  26.6293546
  10.4873000  28.2973006  26.1647854  10.4826812  27.7065654  26.6788521
  15.6355324  37.4445118  21.0481608  15.9571165  37.9850325  20.4442916
  16.2827421  36.8741889  21.1803897  15.7781380  37.4404293  20.9788643
  17.6857032  29.4461113  21.1315994  18.3837197  29.6249240  21.6237458
  18.0009365  28.9231452  20.5086384  17.8352370  29.3954885  21.1118005
  10.3158270  31.2513853  29.0427100  10.1916967  31.8376298  29.6776919
  10.9676554  30.7574049  29.3439375  10.3931919  31.2652657  29.1813030
  17.8744968  35.8331558  21.1195786  18.3138603  35.2248658  21.5650559
  17.7249631  35.4538931  20.3481251  17.9166434  35.6870029  21.0714953
  15.3416611  34.4275570  28.3214611  15.9865613  33.9348013  28.0025560
  15.5818388  34.5700356  29.1480690  15.4727196  34.3753012  28.3964145
  17.8802702  37.2730476  27.9721504  18.1625945  36.4781881  27.7508260
  18.6088863  37.7511063  27.9926565  18.0292266  37.2265073  27.9424519
  15.8583896  24.8153510  25.2137269  15.5287226  25.2664653  24.5440968
  15.1828898  24.7369673  25.7610275  15.7094332  24.8704645  25.1960492
  21.4754304  34.1858739  18.0726555  21.3905600  35.0419706  18.2176124
  21.9638688  33.9103063  18.7408714  21.5343202  34.2716061  18.1928637
  23.0660304  20.8039032  23.4586880  22.7513745  21.4942511  23.8907302
  22.5487246  20.7483815  22.7572380  22.9424774  20.8973921  23.4183829
  22.4072738  30.8043533  19.5724290  21.8784209  31.0203167  20.2321596
  22.9297758  31.4979672  19.4925260  22.4061191  30.9386670  19.6579889
  14.2972345  34.7006750  18.3731758  13.7129561  35.2056782  18.7797622
  13.8942441  34.4749137  17.6328350  14.1511649  34.7414998  18.3236783
   9.8516374  40.4161511  25.1755430   9.3683952  41.1412001  25.1515013
  10.6639692  40.7137641  25.2865587   9.9007122  40.5663865  25.1882709
  15.9230528  39.2093692  27.7805244  15.4057470  38.8501107  27.1766552
  16.6204919  38.6855866  27.7911310  15.9496109  39.0791380  27.6935503
  18.7549560  30.9472402  16.8500679  18.9945564  31.1550386  16.0376022
  19.0765401  30.1429911  16.9589623  18.8386718  30.8586503  16.7461232
  14.0639850  22.8765798  20.6960217  14.8185818  23.2444115  20.4577267
  13.8867385  23.2505352  21.4639396  14.1494329  22.9863986  20.7745105
  12.7060571  40.9317687  25.3275710  13.4081151  40.4169676  25.3848466
  12.6258054  41.2591839  26.1322585  12.7984332  40.9031913  25.4548502
  13.7539478  31.1693274  34.4556125  13.9259982  31.0599169  35.3041406
  14.2908835  31.8147680  34.2187317  13.8584482  31.2485276  34.5461221
  12.4196915  25.2836117  17.3938330  12.2372488  25.5007998  16.5679322
  13.2822528  25.3975130  17.4496944  12.5201504  25.3326015  17.2792817
  12.0311347  37.1224039  24.8361318  12.8700246  37.3546972  24.8835079
  12.0623116  36.2528351  24.7668353  12.1593064  37.0280986  24.8325962
  12.6564050  37.5424914  29.1374623  13.1962275  37.3996045  29.8077995
  11.9733996  37.9421665  29.5058649  12.6356204  37.5804585  29.2909045
  18.0996634  22.2862528  20.4287354  18.8282794  22.1078483  19.9825510
  18.1891527  23.1280607  20.6394532  18.2203296  22.3846406  20.3940871
   8.0601195  33.7625205  29.2909045   7.7939610  32.9464322  29.4500035
   8.0739759  33.8078361  28.4204560   8.0225917  33.6482110  29.1862527
  11.9658942  28.5610290  15.9060803  11.2517119  28.2748469  16.3183235
  12.4502911  28.9006915  16.5467190  11.9318305  28.5691939  16.0616438
  12.8099801  27.3003583  31.9376052  12.1171598  26.8300563  32.1836784
  13.4260129  27.0741888  32.5117760  12.7984331  27.1970715  32.0585205
  19.1406260  37.0640244  16.2822611  19.5557408  36.7325267  15.5907107
  18.3098189  36.8309146  16.1542748  19.0794268  36.9811500  16.1613458
   8.4694609  34.5483985  26.5720789   8.2870182  34.5230871  25.7193081
   9.2044277  35.0182922  26.6109698   8.5508672  34.6145347  26.4518707
  24.5394283  34.7835495  23.7153676  24.7749872  34.9280693  22.8880527
  24.6883846  35.5477903  24.1085190  24.5960086  34.9174549  23.6517280
  11.5340360  31.2668987  33.0802898  12.2580333  31.2522018  33.5667792
  11.6356497  31.9764343  32.5824866  11.6558569  31.3693691  33.0781684
  26.3684739  33.6237160  21.5523280  26.6992957  34.1564801  20.9463375
  26.9417828  33.6776048  22.2085231  26.5018419  33.7106729  21.5601062
  18.9085310  34.7468072  37.9451845  18.1158290  35.0611584  38.1304464
  19.0234237  34.9619540  37.1072629  18.8080720  34.8251909  37.8490179
  21.5816629  31.4702063  22.2346860  21.6763483  32.2091357  22.6886486
  20.9575472  31.0419539  22.6681425  21.5025659  31.5163384  22.3655008
   8.4365519  31.4277485  26.7219856   9.0139021  31.2913936  27.3612101
   7.7379581  30.9713269  26.9765440   8.4186540  31.3399751  26.8542145
  21.8339650  33.3150803  15.4683812  21.7519812  33.3852990  16.3338799
  22.4719370  33.8780547  15.2767553  21.9159487  33.4089774  15.5673762
  15.1932821  33.0811541  24.9358339  14.9352065  32.2483276  24.9089638
  15.2481304  33.3069154  24.0950839  15.1632599  32.9909312  24.8078475
  20.2733871  25.1839992  25.0362431  19.5690198  24.6949177  25.1946351
  20.3218845  25.1962466  24.1650876  20.1763923  25.1129640  24.9301771
  14.1667533  30.6349303  25.4223233  13.5917124  30.7941472  26.0587194
  13.7903209  29.9984713  24.9591684  14.0270346  30.5647116  25.4477792
  17.8340822  29.1072653  30.2815612  17.4455255  28.6826870  29.6267803
  17.1695520  29.3554802  30.7892639  17.6787750  29.0811374  30.2603480
   3.9124352  30.2789378  23.4367674   3.9984604  29.9021247  24.2181204
   4.5400150  29.9049824  22.9587632   4.0180903  30.1674860  23.4813151
  18.9379760  33.3371257  18.4792419  19.7520399  33.6286150  18.3675190
  18.8738901  32.6831120  17.9050712  19.0482499  33.2836452  18.3781256
  14.8087668  36.8092775  23.6064731  15.4461615  36.5704522  24.1516524
  15.2342740  37.0129934  22.8717892  14.9663835  36.8043785  23.5781888
   9.5000311  39.0481111  27.4899035   9.5404456  39.3195962  26.6618814
  10.0594835  39.5723019  27.9056823   9.5883657  39.1656866  27.4290923
  15.4490483  32.0295065  17.9439620  15.8335636  31.8102771  18.6956165
  15.2002104  32.8558010  18.0740697  15.4692556  32.1193211  18.0740697
  15.6159024  25.3101480  37.6602205  15.3012465  26.0801042  37.3971767
  15.2948956  24.7471736  37.0754432  15.5217943  25.3411748  37.5343555
  17.1909140  37.2865197  25.2858517  17.2648149  37.1240369  26.1400367
  18.0078647  37.4755387  25.0418999  17.3225499  37.2901940  25.3756543
  10.9514897  37.6323060  22.3152961  10.1253015  37.8784797  22.1887239
  11.0126888  37.5535141  23.1815019  10.8389064  37.6568009  22.4241905
  13.1690921  23.6992001  23.2748401  12.3013346  23.7714601  23.3406010
  13.4566125  24.5014080  23.4636376  13.0830669  23.8286148  23.3123167
  15.7313726  40.2499940  20.0171991  16.0212024  39.8588922  19.2931217
  16.4617207  40.4316645  20.4577266  15.8820610  40.2193754  19.9754798
  16.3208471  35.0517686  31.1025121  15.8220165  35.7633454  31.1810010
  17.1308695  35.3718353  31.0643284  16.3664578  35.2044535  31.1081690
  13.6719642  42.2267323  23.0832140  13.4519937  41.9364678  23.8758807
  13.4514164  41.5682278  22.5550053  13.6067236  42.0867031  23.1221049
  12.5836589  34.3140639  25.3487842  12.2949837  33.6878111  25.8833569
  13.4519937  34.2560927  25.4152522  12.6696841  34.2128184  25.4378797
  15.8387597  43.5996713  21.8662833  16.4911655  43.0673155  22.0953859
  15.1413206  43.2465365  22.2530707  15.8318315  43.4686236  21.9575000
  12.7868862  35.9535890  21.2730207  13.5414830  36.3348929  21.4865670
  12.1939475  36.4047034  21.7276904  12.8105576  36.0764718  21.3713085
  23.8327516  35.9201127  21.2093812  24.3985548  36.5794337  21.1252355
  23.1855419  36.2650825  21.6810214  23.8206272  36.0683068  21.2666568
  15.2475529  27.9098731  36.3987419  14.4375305  28.2156510  36.2877262
  15.7250216  28.6304313  36.5140003  15.1979008  28.0613332  36.3994490
  14.1067089  37.1244452  26.6470322  13.5847842  37.2644743  27.3322187
  14.4941109  36.3655116  26.8372440  14.0870790  37.0329976  26.7771399
  11.0958273  27.1750260  20.7165277  10.8083069  26.8051531  19.9797224
  11.7828741  27.6445116  20.4548982  11.1547170  27.1897230  20.5680353
  20.3034094  38.8639911  20.6330891  20.0620770  38.1307772  20.2257956
  20.4835427  39.4126768  19.9797225  20.2941718  38.8362302  20.4761114
  15.5333414  34.1548471  22.0451813  15.3376197  34.7623205  21.4512116
  15.7567760  33.4616415  21.5643487  15.5368055  34.1425996  21.8867894
  13.9311944  31.0403209  22.1632682  14.6534596  31.2044367  21.7036488
  13.4519937  31.7612874  22.0572022  13.9675675  31.1701438  22.0798296
  11.5819561  33.4461281  31.2686822  12.0940658  33.7245534  30.6195581
  11.2955904  34.1850575  31.6349635  11.6154424  33.5963635  31.2276700
  20.3374730  24.2752385  22.2756983  21.0401083  24.0760133  21.7976941
  20.0718919  23.5028327  22.5825826  20.4021363  24.1315351  22.2502424
   8.6686467  27.9531473  21.5650558   8.7702604  28.7557634  21.8931534
   9.4642354  27.7518809  21.2673639   8.8014373  28.0417372  21.5685914
  15.1003286  25.5387670  31.3287863  14.9086483  25.5542804  32.1787287
  15.9501882  25.7351344  31.3054518  15.1979008  25.5702021  31.4511158
   9.4850199  28.0678651  29.3071680   9.3435691  27.2162592  29.4316188
   9.7690763  28.1107312  28.4833886   9.5058046  27.9478401  29.2039304
  19.6388792  29.9045741  23.4516168  19.3923506  29.8241492  24.2852957
  19.9673915  29.1199209  23.2578696  19.6510035  29.7772007  23.5463691
  15.5985819  32.6402460  32.8639151  15.7429195  33.2203668  32.2282261
  15.9461468  33.0178757  33.5689006  15.6713280  32.7823164  32.8738146
  14.6713574  40.8305232  29.7300178  14.8203138  40.2708148  29.0773582
  15.4513576  40.9097233  30.1132697  14.8087668  40.7590797  29.6897127
  25.0290214  35.9707354  18.0019449  24.6497022  35.1844492  17.9948738
  24.3656459  36.5194211  17.8591093  24.8748688  35.9352178  17.9800245
  18.0107514  25.7343179  31.5359686  18.4680128  26.4667153  31.6632479
  18.0863842  25.3109644  32.2946942  18.0898483  25.7800417  31.6660763
  10.2540505  25.9808999  32.6249130   9.7182694  25.3689357  32.9409897
  10.3158269  26.5557135  33.2782797  10.1836137  25.9755927  32.7684557
  22.4834839  18.9133054  25.4053529  22.6018408  19.3709518  24.6720832
  22.3097015  18.1078315  25.1189747  22.4754010  18.8626826  25.2554463
  17.8537122  39.5220874  21.8408275  18.6187013  39.2530517  21.5190939
  17.7515212  39.0370884  22.5578338  17.9518617  39.4110438  21.8988102
  15.8889891  27.7245283  28.3801510  15.0985966  27.5436743  28.7018846
  16.2850514  26.9472236  28.3631805  15.8306768  27.5832744  28.4254059
  20.3755782  36.5533057  13.8208224  21.1428767  36.6133182  13.4114076
  19.9287091  35.9813499  13.3364543  20.4229209  36.4769633  13.6885934
  21.2733578  35.3587713  26.1060956  20.5978580  35.1272945  26.6074343
  21.2825954  34.7508896  25.4803061  21.1752082  35.2346638  26.0877109
  18.4027722  30.2005542  32.8625009  18.3386863  31.0615499  32.7345146
  18.5424909  29.8837535  32.0620561  18.4143192  30.2805709  32.7253222
  23.2750312  38.2152846  18.3371134  23.3570150  39.0219832  18.0132585
  23.7600055  38.2348805  19.0611908  23.3587470  38.3373508  18.3958033
  17.0846816  32.8937681  27.0041212  16.6609065  33.0942180  26.2680231
  16.9091671  32.0466529  27.1165512  16.9957696  32.7986463  26.9114902
  16.5858509  44.4088194  29.4662670  17.0754439  43.7098984  29.2838334
  16.0142741  44.1112064  30.0538727  16.5743039  44.2614418  29.5263710
  12.3729261  33.3889733  22.4369185  12.5293880  33.3236536  23.2925177
  12.7129854  34.1638285  22.2247864  12.4462495  33.4938931  22.5323779
  18.9108405  32.7647616  21.3062548  19.4523951  32.2617998  21.7701169
  19.2254964  32.7112811  20.4952033  19.0372802  32.6827037  21.2546360
  17.0794855  38.1564968  18.5902576  17.1487675  37.2979506  18.7295576
  17.8583310  38.3736849  18.2621601  17.2047705  38.0617832  18.5619733
  21.4702342  40.5802669  22.8039069  21.0782134  40.2769384  22.0861936
  21.6255415  41.4171759  22.6144023  21.4355932  40.6586506  22.6695566
   8.9463522  30.5724683  22.7529952   9.3262487  30.9909228  22.0890219
   8.3718887  31.1538139  23.0598795   8.9174847  30.7202542  22.7006693
  21.6342017  37.1452658  22.7445100  21.2756672  37.3167301  23.5209132
  21.1480728  37.6065864  22.1873098  21.5100714  37.2391629  22.7770369
  19.4512403  20.7683857  26.3472191  18.5805961  20.7422578  26.3005501
  19.7052744  20.5961049  25.5298037  19.3605963  20.7394000  26.2192328
  16.4230383  32.8251824  15.2845334  16.7122907  33.6016706  15.5588909
  16.5102181  32.3140555  15.9859834  16.4784639  32.8643742  15.4287832
  19.3190270  30.6733058  37.0796858  19.7889901  31.2975174  37.4664732
  19.3652150  30.0050033  37.6390073  19.3958146  30.6667738  37.2196929
  16.4761544  22.7790085  27.8045662  15.9600032  22.0870277  27.9297241
  15.9155473  23.4460862  27.7508260  16.3168057  22.7753343  27.8151728
  18.5453777  23.3183045  29.6338514  18.1585530  23.3432077  30.4152044
  18.0586714  22.7524724  29.1813031  18.4166286  23.2378796  29.6826418
  18.2110919  20.2050031  31.9248774  18.8404037  20.7410331  31.6469845
  18.3796782  20.1127390  32.7762340  18.3288713  20.2711393  32.0097302
  18.0124834  24.9921225  34.1975186  18.8398263  24.7206374  34.2533800
  18.0332680  25.7882067  34.5539004  18.1377684  25.0700980  34.2590369
  12.5894324  32.1385088  27.3845446  11.7482330  32.0388962  27.5924340
  12.7984332  32.9080568  27.7359767  12.4959016  32.2377131  27.4672761
  10.0669891  29.7604625  25.2130197   9.6726588  29.8347637  24.4380307
   9.5110007  30.1462571  25.7638559   9.9272703  29.8286400  25.1797857
  21.7034837  22.7385919  24.8934076  21.9084431  22.6708227  25.7391073
  21.3761261  23.5444740  24.8255253  21.6850085  22.8471859  25.0093731
  16.4010988  30.0666487  26.6343044  16.0974126  29.5122476  27.2353452
  15.6990409  30.2458697  26.1471078  16.2527198  30.0111270  26.6512750
  15.4577086  27.3767007  21.1987746  15.7336820  26.6585920  20.7865313
  16.0575755  27.9751927  20.9908852  15.5870350  27.3587378  21.1068507
  14.4629339  37.2816208  31.3415142  14.3549694  37.2918270  32.2077200
  14.6725121  38.1070988  31.1520095  14.4779451  37.4057283  31.4419233
  24.9568525  23.2917683  24.3736841  24.3442839  23.7788085  24.7590573
  25.0532700  22.6161174  24.9174493  24.8806423  23.2635992  24.5115700
  18.9587606  25.0480524  19.4734341  19.4131353  25.2191085  20.1982185
  19.4327652  24.4348635  19.0732117  19.0955926  24.9831410  19.5208102
  12.4803131  34.5328850  28.8037079  11.8891065  35.1738349  28.7740094
  13.2424155  34.9566468  28.7768379  12.5051392  34.6904689  28.7952227
  12.8763754  25.6930848  29.4705097  13.3365236  25.7669778  30.2080221
  12.9219861  26.4912102  29.1204918  12.9514310  25.8224995  29.5277853
  14.5247104  26.3597543  34.0377124  14.1332669  25.7130890  34.4732902
  14.6932967  26.9508978  34.6571379  14.4918014  26.3511811  34.1939830
  22.2392648  39.9838162  26.2369104  22.0412336  40.4728976  25.5425315
  21.6180359  40.1879403  26.8153237  22.1180212  40.0854700  26.2192327
  16.3000626  31.7523059  20.5779348  17.0442671  32.1397335  20.8162298
  16.4461322  30.9080484  20.7419836  16.4311211  31.6853532  20.6373318
  18.2180202  23.5473318  25.6111209  17.3716247  23.7196125  25.4852559
  18.2151334  22.7422661  25.9477038  18.0927351  23.4534347  25.6422336
  19.2878502  27.3248532  26.4773267  18.8138456  26.7990294  26.9878578
  19.6596638  26.7778005  25.9088129  19.2728391  27.1664529  26.4688415
   9.6651532  29.3220039  31.8456813  10.5277145  29.2215748  31.7594143
   9.3343315  28.7414748  31.2842385   9.7436728  29.2211666  31.7502219
  21.2162002  28.2185087  19.5399021  20.6885020  28.3013831  18.8504730
  21.6757710  28.9602958  19.5363666  21.2063852  28.3405749  19.4373716
  13.0253318  28.1462488  28.5067231  12.4006388  28.1580880  27.8993184
  12.6898913  28.6222663  29.1558472  12.8838810  28.2181005  28.5123800
  13.2095067  26.4887606  14.5639916  12.8607871  27.1407332  15.0271466
  12.7291513  26.4744719  13.8363788  13.0865311  26.5830660  14.5251008
   9.7378994  36.2062948  29.9470996   9.2078918  35.5155387  29.9965970
  10.0104087  36.1973133  29.1183704   9.7003716  36.1030080  29.8318412
  20.7699084  36.7888650  18.6708678  21.4933283  37.2546763  18.5273251
  20.3299675  36.8562260  17.9206275  20.8114776  36.8672487  18.5393460
  19.1781536  34.7190463  27.6553666  18.7509144  34.0940181  27.2219101
  19.1706481  34.4365384  28.4812673  19.1140678  34.5843243  27.7133493
  12.2944063  29.7555636  30.7242100  12.4537550  28.9998960  31.1293822
  12.1136957  30.3046575  31.3782837  12.2909422  29.7249449  30.8804806
  20.2364366  21.9216871  31.2792889  19.7404928  22.1180545  30.5884456
  20.9933428  22.3209539  31.1081691  20.2751191  22.0094605  31.1513026
  17.5067246  25.5959217  27.8696200  17.5309733  25.0619329  27.1808980
  17.7578720  25.0876526  28.5321790  17.5477165  25.4420121  27.8660844
   5.0174836  32.8790712  27.3039344   4.9118285  32.8337556  26.4391428
   4.2675056  33.2244493  27.5853629   4.8910439  32.9231620  27.2176674
  13.7868568  24.3230035  27.2501944  13.8266940  24.8239242  27.9636652
  12.9618233  24.4140429  26.9807867  13.6708094  24.4111852  27.3152482
  15.9698181  33.8890775  35.3522239  15.1193812  34.0262490  35.4879884
  16.1326309  33.1554554  35.7969940  15.8682045  33.8004877  35.4377838
  15.2082932  30.8390545  29.5475843  14.3774861  31.0064363  29.3411091
  15.1534449  30.4626496  30.3324728  15.0772347  30.8080276  29.6324371
  13.0166715  24.3299438  35.1832254  13.6419418  23.7861571  35.4561686
  12.5617195  23.8494356  34.6140044  13.0414976  24.1788919  35.1393848
  13.5818975  29.1146137  20.0765961  13.7221937  29.6118601  20.7794602
  14.0801508  28.4132431  20.2180175  13.6760056  29.0848115  20.2017540
  13.6119198  29.9813248  17.4058538  14.2464277  30.5773673  17.3407999
  13.6944809  29.6816705  18.2204408  13.7175749  30.0254156  17.5161624
  15.1898181  25.9127223  17.3803980  15.5114022  25.4330306  16.7263242
  15.4525124  26.7226869  17.1894791  15.2764206  25.9617121  17.2559472
  18.4195153  36.9346097  30.9002796  17.9120245  37.4881944  31.3443426
  18.1221800  36.9954387  30.0821570  18.3000038  37.0252409  30.8451252
  10.1172186  32.1781088  20.6748084  10.6264415  32.7745596  21.0559389
  10.5906458  31.9107062  19.9924503  10.2615561  32.2266904  20.6302606
  21.0302934  40.8509355  18.8306739  20.3132244  40.6770217  18.3653977
  21.6809671  40.6161927  18.2982225  21.0204784  40.7905148  18.6835957
  17.6637639  41.8670656  27.8059803  17.4403293  41.1089485  28.1743829
  17.1747482  41.8968677  27.0840242  17.5581088  41.7592880  27.7536544
  23.7779032  26.1829827  25.4838418  24.1306643  25.7559550  26.1584216
  22.9193834  26.0980671  25.6139494  23.7028477  26.1074568  25.6033428
  12.4762717  28.8137347  23.5421264  11.7574707  29.2301480  23.8094128
  12.8475080  29.3791586  22.9912902  12.4254649  28.9586628  23.5004071
  16.3116096  42.0871114  25.2596887  15.8976494  41.4245244  24.8700729
  16.9963470  42.2348973  24.7392581  16.3514467  42.0111772  25.1253384
  19.6781390  41.2461199  26.0120504  19.2797673  41.3563469  25.2441324
  19.0632609  41.4543265  26.5947064  19.5280279  41.2934767  25.9851803
  18.2509292  27.8535347  18.8794644  17.6574131  28.1752343  18.3279211
  18.2884570  27.0076442  18.6715750  18.1683681  27.7759675  18.7677415
  25.2103093  21.3048239  26.4122730  24.7033957  20.5977379  26.3443908
  26.0070526  20.9741428  26.5423807  25.2530332  21.1521391  26.4221725
  21.1267108  27.8114851  22.3096394  20.8980801  27.8347553  21.4674752
  21.3865185  26.9872318  22.4291404  21.1313296  27.6930931  22.2021592
  15.4086337  29.6649324  31.9121494  14.8965240  29.0570507  32.2706525
  15.2365833  30.3805917  32.3795470  15.3075974  29.6812624  32.0337718
  10.2552052  28.1086900  34.5623856  10.0854642  28.7688275  34.0172062
   9.8118001  28.3193461  35.2836345  10.1651385  28.2372882  34.5885485
  14.1811871  26.3491398  23.6050589  14.6569237  26.7108478  22.9700771
  13.6800471  27.0047865  23.8850732  14.1777230  26.4985586  23.5527330
  27.4123233  35.8213166  19.3963594  27.7956838  36.5704522  19.6261692
  26.6167346  36.0678985  19.1375584  27.3517015  35.9682860  19.3921168
  19.2855407  27.5873569  34.3523750  19.8426837  27.3587379  33.7202215
  18.9616472  28.3479235  34.0758962  19.3201817  27.6657406  34.2180247
  17.0038524  30.6741222  35.3175757  17.7549851  30.9892899  35.6315311
  17.1961101  30.4720393  34.4909678  17.1429939  30.6908604  35.2419152
  16.2238524  28.4932598  16.9723973  16.6037489  28.5112227  16.1875088
  15.4831120  28.9386586  16.8514821  16.1707362  28.5614372  16.8387542
  23.8523815  26.8014789  22.5599552  23.8518041  26.6463445  23.4183828
  23.6479995  27.6477776  22.5040938  23.8223592  26.9035409  22.6787492
   5.9141086  30.2254573  26.9758369   5.7362847  29.7731182  27.7013284
   5.6260108  31.0280735  27.1596846   5.8454039  30.2777131  27.1101872
  17.0223278  35.3310104  18.3632763  16.2134601  35.0076777  18.3166073
  17.5298187  34.6243326  18.2961012  16.9772945  35.1791420  18.3463058
   7.6513555  32.7582297  24.0880128   6.7859075  32.7467987  23.9762899
   7.7512371  32.5712520  24.9351267   7.5387722  32.7288358  24.1969072
  13.2770565  42.5280196  27.6610233  13.5917124  43.3416584  27.6688015
  13.6863979  42.1430414  28.3292392  13.3838663  42.5908898  27.7614325
  20.2295085  37.9450242  25.2314045  20.7006263  38.6590505  25.4004030
  20.5655263  37.3448992  25.7673915  20.3490200  37.9621707  25.3346421
  17.1464580  22.7177713  32.1872140  17.2792486  21.9208706  32.5153116
  17.5309733  23.2444116  32.7670416  17.2220909  22.6777630  32.3215643
  20.2196935  19.6408039  28.7853233  19.4142899  19.5305769  29.1021072
  20.0903671  19.7420495  27.9283099  20.0817068  19.6391709  28.7061274
  16.2157695  24.7194126  19.6551605  17.0373389  24.8892439  19.4133300
  15.7527346  24.8741387  18.9317903  16.2688857  24.7675859  19.5123249
  14.8053027  22.7136888  30.4350034  15.3497440  22.3728015  31.0254375
  14.8589962  23.5722349  30.5771318  14.8942146  22.7892147  30.5431907
  10.6183585  36.4753304  27.3088842  11.2228443  36.4349138  26.6802662
  10.4110898  37.3224456  27.3392898  10.6772483  36.5941306  27.2204958
   5.8534868  35.4587922  27.1787765   5.7559146  34.6484193  27.4877821
   6.6363737  35.4379715  26.7934033   5.9551004  35.3355012  27.1674628
  36.9041008  46.3984101  21.4893955  36.8735012  47.2528738  21.6612225
  37.5022357  46.0979393  22.0480099  36.9878166  46.4800597  21.5968758
  30.1040693  45.4859752  26.2446886  29.2478588  45.6468250  26.2956003
  30.1508347  44.6151816  26.2651947  29.9839804  45.3810554  26.2552952
  24.4881833  55.0222470  22.0084117  23.7364732  54.6438008  21.7800162
  24.9367844  55.0540903  21.2602928  24.4431499  54.9708077  21.8641620
  29.9406792  55.4447839  17.4369665  29.6058161  56.1224761  17.0013887
  30.4533663  55.0553150  16.8486536  29.9672374  55.4872417  17.2856456
  29.4811084  57.3962108  23.3780776  29.8650463  57.9649007  22.8385551
  29.4170225  56.6711618  22.8986592  29.5284511  57.3737571  23.2274639
  32.9492514  47.5451796  28.8878537  33.4948474  48.2236882  28.9472507
  32.8909390  47.4039257  28.0280119  33.0208428  47.6243797  28.7690598
  26.0666589  55.0340862  24.2746890  26.1676952  54.2241216  24.5844018
  25.4708334  54.9397808  23.6446568  25.9939127  54.9005890  24.2273128
  34.7257582  48.9736403  19.7612265  34.6097108  49.7244089  20.1904403
  35.5213469  48.7160356  20.0108352  34.8262172  49.0471250  19.8616357
  25.9067328  59.9518451  25.6761746  26.5504784  60.3931615  26.0657904
  26.2323584  59.1471877  25.5892005  26.0499157  59.8983646  25.7207223
  19.2631633  51.0561148  23.8999224  19.0281817  50.2228801  23.7931492
  19.4017274  51.3365814  23.0860425  19.2487295  50.9744652  23.7641579
  21.5621720  43.2246879  26.7983531  20.9426752  42.6339526  26.6293546
  21.4605584  43.8158314  26.1647854  21.4559396  43.2250962  26.6788521
  26.6087908  52.9630426  21.0481608  26.9303749  53.5035633  20.4442916
  27.2560005  52.3927197  21.1803897  26.7513963  52.9589601  20.9788643
  28.6589616  44.9646421  21.1315994  29.3569781  45.1434548  21.6237458
  28.9741949  44.4416760  20.5086384  28.8084953  44.9140193  21.1118005
  21.2890853  46.7699161  29.0427100  21.1649550  47.3561606  29.6776919
  21.9409138  46.2759356  29.3439375  21.3664503  46.7837965  29.1813030
  28.8477551  51.3516866  21.1195786  29.2871187  50.7433966  21.5650559
  28.6982214  50.9724239  20.3481251  28.8899017  51.2055337  21.0714953
  26.3149194  49.9460878  28.3214611  26.9598197  49.4533321  28.0025560
  26.5550971  50.0885664  29.1480690  26.4459780  49.8938320  28.3964145
  28.8535286  52.7915784  27.9721504  29.1358529  51.9967189  27.7508260
  29.5821446  53.2696371  27.9926565  29.0024850  52.7450380  27.9424519
  26.8316480  40.3338818  25.2137269  26.5019810  40.7849961  24.5440968
  26.1561481  40.2554981  25.7610275  26.6826916  40.3889953  25.1960492
  32.4486888  49.7044047  18.0726555  32.3638183  50.5605014  18.2176124
  32.9371271  49.4288371  18.7408714  32.5075785  49.7901369  18.1928637
  33.3805321  46.3228841  19.5724290  32.8516793  46.5388475  20.2321596
  33.9030341  47.0164980  19.4925260  33.3793774  46.4571978  19.6579889
  25.2704929  50.2192058  18.3731758  24.6862144  50.7242089  18.7797622
  24.8675024  49.9934445  17.6328350  25.1244233  50.2600306  18.3236783
  20.8248958  55.9346819  25.1755430  20.3416536  56.6597309  25.1515013
  21.6372276  56.2322949  25.2865587  20.8739705  56.0849173  25.1882709
  26.8963112  54.7279000  27.7805244  26.3790053  54.3686415  27.1766552
  27.5937503  54.2041174  27.7911310  26.9228693  54.5976688  27.6935503
  29.7282143  46.4657710  16.8500679  29.9678147  46.6735694  16.0376022
  30.0497984  45.6615219  16.9589623  29.8119301  46.3771811  16.7461232
  25.0372434  38.3951106  20.6960217  25.7918402  38.7629423  20.4577267
  24.8599968  38.7690660  21.4639396  25.1226912  38.5049294  20.7745105
  23.6793155  56.4502995  25.3275710  24.3813734  55.9354984  25.3848466
  23.5990638  56.7777146  26.1322585  23.7716915  56.4217221  25.4548502
  23.3929498  40.8021425  17.3938330  23.2105072  41.0193306  16.5679322
  24.2555111  40.9160438  17.4496944  23.4934088  40.8511323  17.2792817
  23.0043930  52.6409347  24.8361318  23.8432830  52.8732280  24.8835079
  23.0355700  51.7713659  24.7668353  23.1325648  52.5466294  24.8325962
  23.6296633  53.0610222  29.1374623  24.1694858  52.9181353  29.8077995
  22.9466580  53.4606973  29.5058649  23.6088787  53.0989893  29.2909045
  29.0729218  37.8047836  20.4287354  29.8015378  37.6263791  19.9825510
  29.1624110  38.6465915  20.6394532  29.1935880  37.9031714  20.3940871
  19.0333778  49.2810513  29.2909045  18.7672194  48.4649630  29.4500035
  19.0472343  49.3263669  28.4204560  18.9958501  49.1667418  29.1862527
  22.9391525  44.0795598  15.9060803  22.2249703  43.7933777  16.3183235
  23.4235494  44.4192223  16.5467190  22.9050889  44.0877247  16.0616438
  30.1138843  52.5825551  16.2822611  30.5289992  52.2510575  15.5907107
  29.2830773  52.3494454  16.1542748  30.0526852  52.4996807  16.1613458
  19.4427192  50.0669293  26.5720789  19.2602765  50.0416179  25.7193081
  20.1776861  50.5368230  26.6109698  19.5241256  50.1330655  26.4518707
  22.5072944  46.7854295  33.0802898  23.2312916  46.7707326  33.5667792
  22.6089080  47.4949651  32.5824866  22.6291153  46.8878999  33.0781684
  32.5549212  46.9887371  22.2346860  32.6496067  47.7276665  22.6886486
  31.9308056  46.5604847  22.6681425  32.4758242  47.0348692  22.3655008
  19.4098102  46.9462793  26.7219856  19.9871605  46.8099244  27.3612101
  18.7112164  46.4898577  26.9765440  19.3919124  46.8585059  26.8542145
  32.8072233  48.8336111  15.4683812  32.7252396  48.9038298  16.3338799
  33.4451954  49.3965855  15.2767553  32.8892071  48.9275082  15.5673762
  26.1665405  48.5996849  24.9358339  25.9084649  47.7668584  24.9089638
  26.2213887  48.8254462  24.0950839  26.1365182  48.5094620  24.8078475
  31.2466455  40.7025300  25.0362431  30.5422781  40.2134485  25.1946351
  31.2951429  40.7147774  24.1650876  31.1496506  40.6314948  24.9301771
  25.1400117  46.1534611  25.4223233  24.5649708  46.3126780  26.0587194
  24.7635793  45.5170020  24.9591684  25.0002929  46.0832424  25.4477792
  28.8073405  44.6257961  30.2815612  28.4187838  44.2012178  29.6267803
  28.1428104  44.8740110  30.7892639  28.6520333  44.5996682  30.2603480
  38.4496675  44.3832965  23.0563442  38.1933239  43.5712907  22.8661325
  39.2925988  44.3910532  22.8293629  38.5362700  44.2644963  22.9948259
  14.8856936  45.7974686  23.4367674  14.9717187  45.4206554  24.2181204
  15.5132733  45.4235132  22.9587632  14.9913487  45.6860168  23.4813151
  32.6299767  38.3232589  27.7939596  33.0110279  37.6410760  28.1807470
  31.8263051  38.0342191  27.6115261  32.5676229  38.1799638  27.8243652
  29.9112344  48.8556565  18.4792419  30.7252982  49.1471458  18.3675190
  29.8471485  48.2016428  17.9050712  30.0215083  48.8021760  18.3781256
  25.7820252  52.3278083  23.6064731  26.4194199  52.0889830  24.1516524
  26.2075323  52.5315242  22.8717892  25.9396418  52.3229093  23.5781888
  20.4732894  54.5666419  27.4899035  20.5137040  54.8381270  26.6618814
  21.0327418  55.0908327  27.9056823  20.5616240  54.6842174  27.4290923
  26.4223067  47.5480372  17.9439620  26.8068220  47.3288079  18.6956165
  26.1734687  48.3743318  18.0740697  26.4425140  47.6378519  18.0740697
  28.1641724  52.8050505  25.2858517  28.2380732  52.6425677  26.1400367
  28.9811230  52.9940695  25.0418999  28.2958082  52.8087248  25.3756543
  21.9247481  53.1508368  22.3152961  21.0985598  53.3970105  22.1887239
  21.9859472  53.0720449  23.1815019  21.8121648  53.1753317  22.4241905
  24.1423504  39.2177309  23.2748401  23.2745930  39.2899909  23.3406010
  24.4298709  40.0199388  23.4636376  24.0563252  39.3471456  23.3123167
  26.7046310  55.7685248  20.0171991  26.9944608  55.3774230  19.2931217
  27.4349790  55.9501953  20.4577266  26.8553194  55.7379062  19.9754798
  24.6452225  57.7452631  23.0832140  24.4252521  57.4549985  23.8758807
  24.4246747  57.0867586  22.5550053  24.5799819  57.6052339  23.1221049
  23.5569172  49.8325947  25.3487842  23.2682421  49.2063419  25.8833569
  24.4252520  49.7746235  25.4152522  23.6429424  49.7313492  25.4378797
  26.8120181  59.1182021  21.8662833  27.4644239  58.5858463  22.0953859
  26.1145790  58.7650673  22.2530707  26.8050899  58.9871544  21.9575000
  23.7601446  51.4721198  21.2730207  24.5147414  51.8534237  21.4865670
  23.1672058  51.9232342  21.7276904  23.7838159  51.5950026  21.3713085
  34.8060099  51.4386435  21.2093812  35.3718132  52.0979645  21.1252355
  34.1588003  51.7836133  21.6810214  34.7938856  51.5868376  21.2666568
  25.0799672  52.6429760  26.6470322  24.5580426  52.7830051  27.3322187
  25.4673693  51.8840424  26.8372440  25.0603373  52.5515284  26.7771399
  22.0690856  42.6935568  20.7165277  21.7815652  42.3236839  19.9797224
  22.7561325  43.1630424  20.4548982  22.1279754  42.7082538  20.5680353
  31.2766677  54.3825219  20.6330891  31.0353353  53.6493080  20.2257956
  31.4568010  54.9312076  19.9797225  31.2674301  54.3547610  20.4761114
  26.5065998  49.6733779  22.0451813  26.3108781  50.2808513  21.4512116
  26.7300344  48.9801723  21.5643487  26.5100639  49.6611304  21.8867894
  24.9044528  46.5588517  22.1632682  25.6267180  46.7229675  21.7036488
  24.4252521  47.2798181  22.0572022  24.9408259  46.6886746  22.0798296
  32.8638036  42.8952315  27.5429367  32.0249136  42.9213594  27.3067630
  32.9342403  43.5423051  28.1234713  32.7506429  42.9948441  27.5938484
  22.5552145  48.9646589  31.2686822  23.0673242  49.2430842  30.6195581
  22.2688487  49.7035883  31.6349635  22.5887008  49.1148943  31.2276700
  31.3107314  39.7937692  22.2756983  32.0133667  39.5945441  21.7976941
  31.0451503  39.0213635  22.5825826  31.3753946  39.6500658  22.2502424
  19.6419051  43.4716781  21.5650558  19.7435187  44.2742942  21.8931534
  20.4374938  43.2704117  21.2673639  19.7746957  43.5602680  21.5685914
  30.6121375  45.4231049  23.4516168  30.3656090  45.3426800  24.2852957
  30.9406499  44.6384517  23.2578696  30.6242619  45.2957315  23.5463691
  34.5069424  52.1314409  27.2402949  34.3683784  52.8295454  27.7451692
  33.7269422  51.9763065  26.8839131  34.3712651  52.2114575  27.2629223
  25.6446158  56.3490540  29.7300178  25.7935721  55.7893456  29.0773582
  26.4246160  56.4282541  30.1132697  25.7820251  56.2776105  29.6897127
  36.0022797  51.4892662  18.0019449  35.6229606  50.7029800  17.9948738
  35.3389043  52.0379519  17.8591093  35.8481272  51.4537486  17.9800245
  28.1699458  56.5205183  31.0084669  28.0943129  55.8513993  31.5635457
  28.0989317  57.2222971  31.5225335  28.1480065  56.5250090  31.1661517
  28.8269705  55.0406181  21.8408275  29.5919596  54.7715825  21.5190939
  28.7247795  54.5556192  22.5578338  28.9251201  54.9295746  21.8988102
  26.8622475  43.2430591  28.3801510  26.0718550  43.0622051  28.7018846
  27.2583098  42.4657543  28.3631805  26.8039351  43.1018052  28.4254059
  31.3488366  52.0718365  13.8208224  32.1161351  52.1318490  13.4114076
  30.9019675  51.4998807  13.3364543  31.3961793  51.9954941  13.6885934
  32.2466161  50.8773021  26.1060956  31.5711163  50.6458253  26.6074343
  32.2558537  50.2694204  25.4803061  32.1484666  50.7531946  26.0877109
  34.2482896  53.7338153  18.3371134  34.3302733  54.5405140  18.0132585
  34.7332638  53.7534113  19.0611908  34.3320054  53.8558816  18.3958033
  28.0579399  48.4122989  27.0041212  27.6341648  48.6127488  26.2680231
  27.8824254  47.5651837  27.1165512  27.9690280  48.3171771  26.9114902
  27.5591093  59.9273502  29.4662670  28.0487023  59.2284292  29.2838334
  26.9875325  59.6297372  30.0538727  27.5475623  59.7799726  29.5263710
  23.3461844  48.9075041  22.4369185  23.5026463  48.8421844  23.2925177
  23.6862437  49.6823593  22.2247864  23.4195079  49.0124239  22.5323779
  29.8840989  48.2832924  21.3062548  30.4256534  47.7803305  21.7701169
  30.1987548  48.2298119  20.4952033  30.0105386  48.2012345  21.2546360
  28.0527438  53.6750276  18.5902576  28.1220259  52.8164814  18.7295576
  28.8315894  53.8922157  18.2621601  28.1780289  53.5803140  18.5619733
  32.4434926  56.0987977  22.8039069  32.0514718  55.7954692  22.0861936
  32.5987998  56.9357067  22.6144023  32.4088516  56.1771814  22.6695566
  19.9196106  46.0909991  22.7529952  20.2995070  46.5094536  22.0890219
  19.3451470  46.6723447  23.0598795  19.8907431  46.2387850  22.7006693
  32.6074601  52.6637966  22.7445100  32.2489256  52.8352609  23.5209132
  32.1213312  53.1251172  22.1873098  32.4833298  52.7576937  22.7770369
  27.3962966  48.3437131  15.2845334  27.6855491  49.1202014  15.5588909
  27.4834765  47.8325863  15.9859834  27.4517222  48.3829050  15.4287832
  23.5626907  47.6570396  27.3845446  22.7214914  47.5574270  27.5924340
  23.7716915  48.4265876  27.7359767  23.4691600  47.7562439  27.4672761
  21.0402474  45.2789933  25.2130197  20.6459172  45.3532945  24.4380307
  20.4842591  45.6647879  25.7638559  20.9005287  45.3471708  25.1797857
  27.3743572  45.5851795  26.6343044  27.0706710  45.0307783  27.2353452
  26.6722993  45.7644005  26.1471078  27.2259782  45.5296578  26.6512750
  26.4309669  42.8952315  21.1987746  26.7069403  42.1771228  20.7865313
  27.0308338  43.4937235  20.9908852  26.5602934  42.8772686  21.1068507
  25.4361923  52.8001516  31.3415142  25.3282278  52.8103578  32.2077200
  25.6457705  53.6256296  31.1520095  25.4512034  52.9242591  31.4419233
  35.9301109  38.8102991  24.3736841  35.3175422  39.2973393  24.7590573
  36.0265284  38.1346482  24.9174493  35.8539006  38.7821300  24.5115700
  29.9320190  40.5665832  19.4734341  30.3863936  40.7376393  20.1982185
  30.4060235  39.9533943  19.0732117  30.0688510  40.5016718  19.5208102
  23.4535715  50.0514158  28.8037079  22.8623648  50.6923656  28.7740094
  24.2156739  50.4751776  28.7768379  23.4783976  50.2089997  28.7952227
  27.2733210  47.2708367  20.5779348  28.0175255  47.6582643  20.8162298
  27.4193906  46.4265792  20.7419836  27.4043795  47.2038840  20.6373318
  30.2611086  42.8433840  26.4773267  29.7871040  42.3175602  26.9878578
  30.6329221  42.2963313  25.9088129  30.2460974  42.6849837  26.4688415
  32.1894585  43.7370395  19.5399021  31.6617604  43.8199139  18.8504730
  32.6490293  44.4788266  19.5363666  32.1796436  43.8591057  19.4373716
  23.9985902  43.6647796  28.5067231  23.3738972  43.6766188  27.8993184
  23.6631497  44.1407971  29.1558472  23.8571393  43.7366313  28.5123800
  24.1827650  42.0072914  14.5639916  23.8340455  42.6592639  15.0271466
  23.7024096  41.9930027  13.8363788  24.0597894  42.1015968  14.5251008
  20.7111577  51.7248256  29.9470996  20.1811502  51.0340695  29.9965970
  20.9836671  51.7158441  29.1183704  20.6736300  51.6215388  29.8318412
  31.7431668  52.3073958  18.6708678  32.4665867  52.7732071  18.5273251
  31.3032259  52.3747568  17.9206275  31.7847360  52.3857795  18.5393460
  30.9117823  49.1671500  29.9209367  30.2974816  48.6229551  30.2158002
  31.4285108  48.6535737  29.4415183  30.8973485  49.0107909  29.8933596
  30.1514120  50.2375770  27.6553666  29.7241728  49.6125489  27.2219101
  30.1439064  49.9550692  28.4812673  30.0873261  50.1028551  27.7133493
  23.2676647  45.2740944  30.7242100  23.4270134  44.5184268  31.1293822
  23.0869541  45.8231883  31.3782837  23.2642006  45.2434757  30.8804806
  28.4799830  41.1144525  27.8696200  28.5042317  40.5804637  27.1808980
  28.7311303  40.6061834  28.5321790  28.5209748  40.9605429  27.8660844
  15.9907419  48.3976020  27.3039344  15.8850869  48.3522864  26.4391428
  15.2407639  48.7429801  27.5853629  15.8643022  48.4416928  27.2176674
  24.7601152  39.8415343  27.2501944  24.7999523  40.3424550  27.9636652
  23.9350816  39.9325737  26.9807867  24.6440678  39.9297160  27.3152482
  26.1815515  46.3575853  29.5475843  25.3507445  46.5249671  29.3411091
  26.1267032  45.9811804  30.3324728  26.0504930  46.3265584  29.6324371
  24.5551559  44.6331445  20.0765961  24.6954520  45.1303909  20.7794602
  25.0534092  43.9317739  20.2180175  24.6492640  44.6033423  20.2017540
  24.5851781  45.4998556  17.4058538  25.2196861  46.0958981  17.3407999
  24.6677392  45.2002013  18.2204408  24.6908332  45.5439464  17.5161624
  26.1630764  41.4312531  17.3803980  26.4846605  40.9515614  16.7263242
  26.4257708  42.2412177  17.1894791  26.2496790  41.4802429  17.2559472
  21.0904769  47.6966396  20.6748084  21.5996999  48.2930904  21.0559389
  21.5639042  47.4292370  19.9924503  21.2348145  47.7452212  20.6302606
  32.0035517  56.3694663  18.8306739  31.2864827  56.1955525  18.3653977
  32.6542255  56.1347235  18.2982225  31.9937368  56.3090456  18.6835957
  34.5883489  45.2459252  22.5748044  33.9174678  45.7888954  22.4461110
  35.2823239  45.7154107  22.3329739  34.5912356  45.3957523  22.5203572
  28.6370222  57.3855964  27.8059803  28.4135877  56.6274793  28.1743829
  28.1480066  57.4153985  27.0840242  28.5313671  57.2778188  27.7536544
  34.7511616  41.7015135  25.4838418  35.1039226  41.2744858  26.1584216
  33.8926418  41.6165979  25.6139494  34.6761061  41.6259876  25.6033428
  23.4495301  44.3322655  23.5421264  22.7307290  44.7486788  23.8094128
  23.8207663  44.8976894  22.9912902  23.3987233  44.4771936  23.5004071
  27.2848679  57.6056422  25.2596887  26.8709078  56.9430552  24.8700729
  27.9696054  57.7534281  24.7392581  27.3247051  57.5297080  25.1253384
  30.6513973  56.7646507  26.0120504  30.2530257  56.8748777  25.2441324
  30.0365193  56.9728573  26.5947064  30.5012863  56.8120075  25.9851803
  29.2241875  43.3720655  18.8794644  28.6306715  43.6937651  18.3279211
  29.2617153  42.5261750  18.6715750  29.1416265  43.2944983  18.7677415
  32.0999692  43.3300159  22.3096394  31.8713385  43.3532861  21.4674752
  32.3597768  42.5057626  22.4291404  32.1045880  43.2116239  22.2021592
  25.1544454  41.8676706  23.6050589  25.6301821  42.2293785  22.9700771
  24.6533054  42.5233173  23.8850732  25.1509813  42.0170894  23.5527330
  18.1286700  46.5319073  29.8212346  17.5813419  45.8619719  29.9393214
  18.9179078  46.1648921  29.8855813  18.1638883  46.3784060  29.8481046
  27.1971108  44.0117905  16.9723973  27.5770072  44.0297535  16.1875088
  26.4563704  44.4571894  16.8514821  27.1439945  44.0799680  16.8387542
  34.8256398  42.3200097  22.5599552  34.8250625  42.1648753  23.4183828
  34.6212578  43.1663084  22.5040938  34.7956176  42.4220717  22.6787492
  16.8873669  45.7439881  26.9758369  16.7095430  45.2916490  27.7013284
  16.5992691  46.5466042  27.1596846  16.8186622  45.7962439  27.1101872
  32.5497250  46.9997598  26.2135759  33.0450916  46.2820593  26.1739779
  31.7397026  46.6968396  26.0990246  32.5041144  46.8495245  26.1909485
  27.9955862  50.8495412  18.3632763  27.1867184  50.5262085  18.3166073
  28.5030771  50.1428634  18.2961012  27.9505529  50.6976728  18.3463058
  18.6246139  48.2767605  24.0880128  17.7591658  48.2653295  23.9762899
  18.7244955  48.0897828  24.9351267  18.5120306  48.2473666  24.1969072
  24.2503149  58.0465503  27.6610233  24.5649708  58.8601892  27.6688015
  24.6596562  57.6615722  28.3292392  24.3571247  58.1094206  27.7614325
  31.2027669  53.4635550  25.2314045  31.6738847  54.1775813  25.4004030
  31.5387847  52.8634300  25.7673915  31.3222784  53.4807014  25.3346421
  27.1890278  40.2379434  19.6551605  28.0105973  40.4077747  19.4133300
  26.7259929  40.3926695  18.9317903  27.2421441  40.2861167  19.5123249
  16.8267451  50.9773229  27.1787765  16.7291729  50.1669501  27.4877821
  17.6096321  50.9565023  26.7934033  16.9283588  50.8540320  27.1674628
  35.4614416  70.5407778  22.0084117  34.7097316  70.1623316  21.7800162
  35.9100428  70.5726211  21.2602928  35.4164083  70.4893385  21.8641620
  44.3866993  67.2731585  35.8507342  45.0933760  66.7783616  35.9794276
  44.5754928  67.7140667  35.1210000  44.5194899  67.2649936  35.7616387
  40.9139376  70.9633147  17.4369665  40.5790744  71.6410069  17.0013887
  41.4266246  70.5738458  16.8486536  40.9404957  71.0057725  17.2856456
  40.4543667  72.9147416  23.3780776  40.8383047  73.4834314  22.8385551
  40.3902809  72.1896926  22.8986592  40.5017094  72.8922879  23.2274639
  43.9225097  63.0637104  28.8878537  44.4681057  63.7422190  28.9472507
  43.8641974  62.9224565  28.0280119  43.9941012  63.1429105  28.7690598
  37.0399172  70.5526170  24.2746890  37.1409535  69.7426524  24.5844018
  36.4440918  70.4583116  23.6446568  36.9671711  70.4191198  24.2273128
  45.6990166  64.4921711  19.7612265  45.5829692  65.2429397  20.1904403
  46.4946053  64.2345664  20.0108352  45.7994756  64.5656558  19.8616357
  36.8799912  75.4703759  25.6761746  37.5237367  75.9116923  26.0657904
  37.2056167  74.6657185  25.5892005  37.0231741  75.4168954  25.7207223
  30.2364217  66.5746456  23.8999224  30.0014401  65.7414109  23.7931492
  30.3749857  66.8551122  23.0860425  30.2219879  66.4929960  23.7641579
  37.5820492  68.4815734  21.0481608  37.9036333  69.0220941  20.4442916
  38.2292588  67.9112505  21.1803897  37.7246547  68.4774909  20.9788643
  39.6322200  60.4831729  21.1315994  40.3302364  60.6619856  21.6237458
  39.9474532  59.9602068  20.5086384  39.7817537  60.4325501  21.1118005
  39.8210135  66.8702174  21.1195786  40.2603771  66.2619274  21.5650559
  39.6714798  66.4909547  20.3481251  39.8631601  66.7240645  21.0714953
  39.8267869  68.3101091  27.9721504  40.1091112  67.5152497  27.7508260
  40.5554030  68.7881679  27.9926565  39.9757433  68.2635688  27.9424519
  43.4219472  65.2229355  18.0726555  43.3370767  66.0790322  18.2176124
  43.9103855  64.9473679  18.7408714  43.4808369  65.3086676  18.1928637
  44.3537905  61.8414149  19.5724290  43.8249376  62.0573783  20.2321596
  44.8762925  62.5350288  19.4925260  44.3526358  61.9757286  19.6579889
  49.8085958  67.4160454  24.9457335  48.9783661  67.6271097  25.1090751
  49.7595210  66.5897508  24.6699618  49.6792693  67.3250060  24.9294700
  36.2437513  65.7377366  18.3731758  35.6594728  66.2427397  18.7797622
  35.8407608  65.5119753  17.6328350  36.0976816  65.7785614  18.3236783
  31.7981541  71.4532127  25.1755430  31.3149119  72.1782617  25.1515013
  32.6104860  71.7508257  25.2865587  31.8472289  71.6034481  25.1882709
  37.8695695  70.2464308  27.7805244  37.3522637  69.8871723  27.1766552
  38.5670087  69.7226482  27.7911310  37.8961276  70.1161996  27.6935503
  41.5259287  70.6959122  33.7421417  41.6142633  70.5085262  34.5899628
  41.9549000  70.0496551  33.3426264  41.6021390  70.5722130  33.8093169
  39.0929747  69.9790282  32.7239079  38.5300582  69.5662892  33.2478741
  39.8550771  69.9043188  33.1432223  39.1224196  69.9067682  32.8632080
  40.7014727  61.9843018  16.8500679  40.9410731  62.1921002  16.0376022
  41.0230568  61.1800527  16.9589623  40.7851885  61.8957119  16.7461232
  36.0105017  53.9136414  20.6960217  36.7650985  54.2814731  20.4577267
  35.8332552  54.2875968  21.4639396  36.0959496  54.0234602  20.7745105
  34.6525739  71.9688303  25.3275710  35.3546318  71.4540292  25.3848466
  34.5723222  72.2962454  26.1322585  34.7449499  71.9402529  25.4548502
  34.3662082  56.3206733  17.3938330  34.1837655  56.5378614  16.5679322
  35.2287695  56.4345746  17.4496944  34.4666671  56.3696631  17.2792817
  33.9776514  68.1594655  24.8361318  34.8165413  68.3917588  24.8835079
  34.0088283  67.2898966  24.7668353  34.1058232  68.0651602  24.8325962
  34.6029217  68.5795530  29.1374623  35.1427442  68.4366661  29.8077995
  33.9199163  68.9792281  29.5058649  34.5821371  68.6175201  29.2909045
  44.0270102  64.2586531  24.3319647  44.7827617  64.6918045  24.3708556
  44.1332426  63.6091301  24.9054284  44.1540272  64.2264015  24.4217673
  47.0650273  68.0859808  25.0822050  46.6285505  68.0896551  25.8381022
  46.7313188  68.7665307  24.6501628  46.9512893  68.1872264  25.1302883
  41.6379347  70.1268141  36.4065201  42.4219763  70.2398989  36.7720943
  41.4375941  69.3009278  36.6023887  41.7245372  70.0214860  36.4899587
  33.9124109  59.5980905  15.9060803  33.1982286  59.3119085  16.3183235
  34.3968078  59.9377531  16.5467190  33.8783472  59.6062555  16.0616438
  41.7949740  72.0378243  30.0531656  40.9964986  71.7977743  30.3105525
  42.2435751  72.0892636  30.7998704  41.7424351  72.0100634  30.2016581
  41.0871427  68.1010859  16.2822611  41.5022575  67.7695883  15.5907107
  40.2563357  67.8679762  16.1542748  41.0259436  68.0182115  16.1613458
  30.4159776  65.5854600  26.5720789  30.2335349  65.5601486  25.7193081
  31.1509445  66.0553538  26.6109698  30.4973840  65.6515963  26.4518707
  46.4859450  65.8206110  23.7153676  46.7215039  65.9651309  22.8880527
  46.6349014  66.5848518  24.1085190  46.5425253  65.9545165  23.6517280
  48.3149907  64.6607776  21.5523280  48.6458124  65.1935416  20.9463375
  48.8882995  64.7146664  22.2085231  48.4483586  64.7477345  21.5601062
  40.8550477  65.7838688  37.9451845  40.0623458  66.0982200  38.1304464
  40.9699404  65.9990156  37.1072629  40.7545887  65.8622525  37.8490179
  43.5281796  62.5072679  22.2346860  43.6228650  63.2461973  22.6886486
  42.9040639  62.0790155  22.6681425  43.4490826  62.5534000  22.3655008
  41.7834270  65.6858892  32.8837141  42.3573131  65.0486136  33.0385705
  41.7049073  65.6862974  32.0146799  41.8567504  65.5924003  32.7783552
  43.7804817  64.3521419  15.4683812  43.6984980  64.4223606  16.3338799
  44.4184538  64.9151163  15.2767553  43.8624654  64.4460390  15.5673762
  37.1397988  64.1182157  24.9358339  36.8817232  63.2853892  24.9089638
  37.1946471  64.3439770  24.0950839  37.1097766  64.0279928  24.8078475
  25.8589519  61.3159994  23.4367674  25.9449771  60.9391862  24.2181204
  26.4865317  60.9420440  22.9587632  25.9646070  61.2045476  23.4813151
  40.8844927  64.3741873  18.4792419  41.6985566  64.6656766  18.3675190
  40.8204068  63.7201735  17.9050712  40.9947666  64.3207068  18.3781256
  47.1054417  67.0567869  32.8921995  46.8693055  66.2255934  32.7734055
  47.7497646  67.0053476  33.4776839  47.1649088  66.9265557  32.9607888
  36.7552835  67.8463391  23.6064731  37.3926782  67.6075138  24.1516524
  37.1807907  68.0500550  22.8717892  36.9129002  67.8414401  23.5781888
  31.4465478  70.0851727  27.4899035  31.4869623  70.3566578  26.6618814
  32.0060002  70.6093635  27.9056823  31.5348824  70.2027482  27.4290923
  37.3955651  63.0665680  17.9439620  37.7800803  62.8473387  18.6956165
  37.1467271  63.8928626  18.0740697  37.4157723  63.1563827  18.0740697
  39.1374307  68.3235813  25.2858517  39.2113316  68.1610985  26.1400367
  39.9543814  68.5126003  25.0418999  39.2690666  68.3272556  25.3756543
  32.8980064  68.6693676  22.3152961  32.0718182  68.9155413  22.1887239
  32.9592055  68.5905757  23.1815019  32.7854231  68.6938625  22.4241905
  37.6778893  71.2870556  20.0171991  37.9677192  70.8959538  19.2931217
  38.4082374  71.4687261  20.4577266  37.8285777  71.2564370  19.9754798
  38.2673638  66.0888302  31.1025121  37.7685332  66.8004070  31.1810010
  39.0773863  66.4088969  31.0643284  38.3129745  66.2415151  31.1081690
  35.6184809  73.2637939  23.0832140  35.3985104  72.9735293  23.8758807
  35.3979331  72.6052894  22.5550053  35.5532403  73.1237647  23.1221049
  34.5301756  65.3511255  25.3487842  34.2415005  64.7248726  25.8833569
  35.3985104  65.2931543  25.4152522  34.6162008  65.2498799  25.4378797
  37.7852764  74.6367329  21.8662833  38.4376822  74.1043771  22.0953859
  37.0878373  74.2835981  22.2530707  37.7783482  74.5056852  21.9575000
  34.7334029  66.9906506  21.2730207  35.4879997  67.3719545  21.4865670
  34.1404642  67.4417650  21.7276904  34.7570743  67.1135334  21.3713085
  45.7792683  66.9571743  21.2093812  46.3450715  67.6164953  21.1252355
  45.1320586  67.3021441  21.6810214  45.7671439  67.1053684  21.2666568
  36.0532256  68.1615068  26.6470322  35.5313009  68.3015359  27.3322187
  36.4406276  67.4025732  26.8372440  36.0335957  68.0700591  26.7771399
  33.0423440  58.2120876  20.7165277  32.7548236  57.8422147  19.9797224
  33.7293908  58.6815732  20.4548982  33.1012337  58.2267846  20.5680353
  42.2499261  69.9010527  20.6330891  42.0085937  69.1678388  20.2257956
  42.4300594  70.4497384  19.9797225  42.2406885  69.8732918  20.4761114
  37.4798582  65.1919087  22.0451813  37.2841364  65.7993821  21.4512116
  37.7032927  64.4987031  21.5643487  37.4833223  65.1796612  21.8867894
  35.8777112  62.0773825  22.1632682  36.5999763  62.2414983  21.7036488
  35.3985104  62.7983489  22.0572022  35.9140842  62.2072054  22.0798296
  30.6151635  58.9902089  21.5650558  30.7167771  59.7928250  21.8931534
  31.4107521  58.7889425  21.2673639  30.7479540  59.0787988  21.5685914
  41.5853959  60.9416357  23.4516168  41.3388673  60.8612108  24.2852957
  41.9139082  60.1569825  23.2578696  41.5975203  60.8142623  23.5463691
  45.4802008  67.6499717  27.2402949  45.3416367  68.3480762  27.7451692
  44.7002006  67.4948373  26.8839131  45.3445235  67.7299883  27.2629223
  43.8180093  63.9496092  33.4925331  43.8128131  63.0775908  33.4967757
  44.5241087  64.1484261  33.0194787  43.9225097  63.8499966  33.4232366
  36.6178741  71.8675848  29.7300178  36.7668305  71.3078764  29.0773582
  37.3978743  71.9467849  30.1132697  36.7552835  71.7961413  29.6897127
  46.9755381  67.0077970  18.0019449  46.5962189  66.2215108  17.9948738
  46.3121626  67.5564827  17.8591093  46.8213855  66.9722794  17.9800245
  39.1432042  72.0390491  31.0084669  39.0675713  71.3699301  31.5635457
  39.0721901  72.7408279  31.5225335  39.1212649  72.0435398  31.1661517
  39.8002289  70.5591489  21.8408275  40.5652180  70.2901133  21.5190939
  39.6980379  70.0741500  22.5578338  39.8983784  70.4481054  21.8988102
  42.3220949  67.5903673  13.8208224  43.0893934  67.6503798  13.4114076
  41.8752258  67.0184115  13.3364543  42.3694377  67.5140249  13.6885934
  43.2198745  66.3958329  26.1060956  42.5443747  66.1643561  26.6074343
  43.2291121  65.7879512  25.4803061  43.1217249  66.2717254  26.0877109
  45.2215479  69.2523461  18.3371134  45.3035317  70.0590448  18.0132585
  45.7065222  69.2719421  19.0611908  45.3052637  69.3744124  18.3958033
  39.0311983  63.9308297  27.0041212  38.6074232  64.1312796  26.2680231
  38.8556838  63.0837145  27.1165512  38.9422863  63.8357079  26.9114902
  38.5323676  75.4458810  29.4662670  39.0219607  74.7469600  29.2838334
  37.9607909  75.1482680  30.0538727  38.5208206  75.2985034  29.5263710
  34.3194428  64.4260349  22.4369185  34.4759047  64.3607152  23.2925177
  34.6595021  65.2008901  22.2247864  34.3927663  64.5309547  22.5323779
  40.8573572  63.8018232  21.3062548  41.3989118  63.2988613  21.7701169
  41.1720131  63.7483427  20.4952033  40.9837969  63.7197653  21.2546360
  44.7290680  68.0120880  38.4189460  45.5425545  67.7406029  38.5794593
  44.5685646  67.7128420  37.6149656  44.8260628  67.9275806  38.3234866
  39.0260022  69.1935584  18.5902576  39.0952842  68.3350122  18.7295576
  39.8048477  69.4107465  18.2621601  39.1512872  69.0988448  18.5619733
  43.4167510  71.6173285  22.8039069  43.0247301  71.3140000  22.0861936
  43.5720582  72.4542375  22.6144023  43.3821099  71.6957122  22.6695566
  30.8928689  61.6095299  22.7529952  31.2727654  62.0279844  22.0890219
  30.3184054  62.1908755  23.0598795  30.8640014  61.7573158  22.7006693
  43.5807184  68.1823274  22.7445100  43.2221839  68.3537917  23.5209132
  43.0945895  68.6436480  22.1873098  43.4565881  68.2762245  22.7770369
  38.3695550  63.8622439  15.2845334  38.6588075  64.6387322  15.5588909
  38.4567349  63.3511171  15.9859834  38.4249806  63.9014358  15.4287832
  44.7411924  69.0727170  33.6912301  45.3791644  68.5787366  33.3574757
  44.0986015  69.0004570  33.1064528  44.7406150  68.9886178  33.5554656
  44.7966180  69.7646978  30.3317658  45.5858559  69.4136043  30.4519739
  44.9709778  70.5783367  30.0694291  44.9386462  69.8332835  30.3105526
  32.0135058  60.7975241  25.2130197  31.6191755  60.8718253  24.4380307
  31.4575175  61.1833187  25.7638559  31.8737870  60.8657016  25.1797857
  37.4042253  58.4137623  21.1987746  37.6801987  57.6956535  20.7865313
  38.0040922  59.0122543  20.9908852  37.5335517  58.3957994  21.1068507
  36.4094507  68.3186824  31.3415142  36.3014862  68.3288886  32.2077200
  36.6190288  69.1441604  31.1520095  36.4244618  68.4427899  31.4419233
  44.1857815  71.0208778  26.2369104  43.9877504  71.5099592  25.5425315
  43.5645526  71.2250019  26.8153237  44.0645379  71.1225316  26.2192327
  38.2465793  62.7893675  20.5779348  38.9907838  63.1767951  20.8162298
  38.3926489  61.9451100  20.7419836  38.3776378  62.7224147  20.6373318
  46.1031617  64.5872930  31.7714352  46.8265816  64.1345457  31.5925372
  45.8381579  64.8677596  30.9886680  46.1712890  64.5623899  31.6293067
  35.1560234  57.5258222  14.5639916  34.8073038  58.1777947  15.0271466
  34.6756680  57.5115335  13.8363788  35.0330478  57.6201276  14.5251008
  31.6844161  67.2433564  29.9470996  31.1544085  66.5526003  29.9965970
  31.9569254  67.2343749  29.1183704  31.6468883  67.1400696  29.8318412
  42.7164251  67.8259266  18.6708678  43.4398450  68.2917379  18.5273251
  42.2764842  67.8932876  17.9206275  42.7579943  67.9043103  18.5393460
  41.8850406  64.6856808  29.9209367  41.2707399  64.1414859  30.2158002
  42.4017691  64.1721045  29.4415183  41.8706069  64.5293217  29.8933596
  41.1246703  65.7561078  27.6553666  40.6974312  65.1310797  27.2219101
  41.1171648  65.4736000  28.4812673  41.0605845  65.6213859  27.7133493
  26.9640003  63.9161328  27.3039344  26.8583452  63.8708172  26.4391428
  26.2140223  64.2615108  27.5853629  26.8375606  63.9602236  27.2176674
  37.9163348  64.9261391  35.3522239  37.0658979  65.0633105  35.4879884
  38.0791476  64.1925169  35.7969940  37.8147212  64.8375492  35.4377838
  35.5284143  60.1516753  20.0765961  35.6687104  60.6489217  20.7794602
  36.0266675  59.4503047  20.2180175  35.6225224  60.1218731  20.2017540
  35.5584365  61.0183864  17.4058538  36.1929444  61.6144289  17.3407999
  35.6409976  60.7187321  18.2204408  35.6640916  61.0624772  17.5161624
  37.1363348  56.9497839  17.3803980  37.4579189  56.4700922  16.7263242
  37.3990292  57.7597485  17.1894791  37.2229373  56.9987737  17.2559472
  40.3660321  67.9716713  30.9002796  39.8585412  68.5252560  31.3443426
  40.0686967  68.0325003  30.0821570  40.2465206  68.0623025  30.8451252
  32.0637353  63.2151704  20.6748084  32.5729582  63.8116212  21.0559389
  32.5371625  62.9477678  19.9924503  32.2080729  63.2637520  20.6302606
  42.9768101  71.8879971  18.8306739  42.2597411  71.7140833  18.3653977
  43.6274839  71.6532543  18.2982225  42.9669951  71.8275764  18.6835957
  39.6102806  72.9041272  27.8059803  39.3868460  72.1460101  28.1743829
  39.1212649  72.9339293  27.0840242  39.5046255  72.7963496  27.7536544
  34.4227885  59.8507963  23.5421264  33.7039874  60.2672095  23.8094128
  34.7940247  60.4162202  22.9912902  34.3719816  59.9957244  23.5004071
  41.6673795  67.0723004  35.3571736  41.6269650  66.4272681  34.7716892
  42.4797114  67.0159621  35.6697148  41.7816949  66.9681971  35.3168686
  38.2581263  73.1241730  25.2596887  37.8441661  72.4615860  24.8700729
  38.9428637  73.2719588  24.7392581  38.2979635  73.0482388  25.1253384
  41.6246557  72.2831815  26.0120504  41.2262840  72.3934085  25.2441324
  41.0097777  72.4913881  26.5947064  41.4745446  72.3305383  25.9851803
  40.1974459  58.8905963  18.8794644  39.6039298  59.2122959  18.3279211
  40.2349737  58.0447058  18.6715750  40.1148848  58.8130291  18.7677415
  49.3588400  66.8583782  19.3963594  49.7422005  67.6075138  19.6261692
  48.5632513  67.1049601  19.1375584  49.2982182  67.0053476  19.3921168
  29.1019283  62.0504381  29.8212346  28.5546003  61.3805027  29.9393214
  29.8911661  61.6834229  29.8855813  29.1371467  61.8969368  29.8481046
  38.1703691  59.5303213  16.9723973  38.5502656  59.5482843  16.1875088
  37.4296287  59.9757202  16.8514821  38.1172529  59.5984988  16.8387542
  27.8606253  61.2625189  26.9758369  27.6828014  60.8101798  27.7013284
  27.5725275  62.0651350  27.1596846  27.7919206  61.3147747  27.1101872
  43.5229834  62.5182906  26.2135759  44.0183499  61.8005901  26.1739779
  42.7129610  62.2153704  26.0990246  43.4773727  62.3680553  26.1909485
  38.9688445  66.3680720  18.3632763  38.1599768  66.0447393  18.3166073
  39.4763354  65.6613942  18.2961012  38.9238112  66.2162036  18.3463058
  29.5978723  63.7952913  24.0880128  28.7324242  63.7838603  23.9762899
  29.6977538  63.6083136  24.9351267  29.4852890  63.7658974  24.1969072
  35.2235732  73.5650811  27.6610233  35.5382291  74.3787200  27.6688015
  35.6329146  73.1801030  28.3292392  35.3303830  73.6279514  27.7614325
  42.1760252  68.9820858  25.2314045  42.6471430  69.6961121  25.4004030
  42.5120431  68.3819608  25.7673915  42.2955367  68.9992322  25.3346421
  44.2637237  70.5922172  37.4106117  44.3734202  69.8030732  37.7662865
  44.5928133  70.5028108  36.6080455  44.3289643  70.4628024  37.3448508
  42.8134198  68.7738792  31.9941738  42.2655144  68.1496676  31.7261803
  43.2747227  68.9633064  31.2785817  42.8001408  68.7097842  31.8492169
  38.1622862  55.7564742  19.6551605  38.9838556  55.9263054  19.4133300
  37.6992513  55.9112003  18.9317903  38.2154024  55.8046475  19.5123249
  32.5648753  67.5123920  27.3088842  33.1693610  67.4719754  26.6802662
  32.3576065  68.3595072  27.3392898  32.6237650  67.6311922  27.2204958
  42.3792525  69.7789865  28.5251079  43.1990899  69.6352831  28.7867374
  42.0986602  70.4036064  29.0667517  42.4589268  69.8500217  28.6439018
  27.8000035  66.4958537  27.1787765  27.7024313  65.6854809  27.4877821
  28.5828905  66.4750331  26.7934033  27.9016171  66.3725628  27.1674628
  58.8506175  77.4354717  21.4893955  58.8200179  78.2899353  21.6612225
  59.4487524  77.1350009  22.0480099  58.9343333  77.5171213  21.5968758
  52.0505860  76.5230368  26.2446886  51.1943755  76.6838866  26.2956003
  52.0973514  75.6522432  26.2651947  51.9304971  76.4181170  26.2552952
  55.3599576  82.7916893  35.8507342  56.0666344  82.2968924  35.9794276
  55.5487512  83.2325975  35.1210000  55.4927482  82.7835244  35.7616387
  54.8957681  78.5822412  28.8878537  55.4413641  79.2607498  28.9472507
  54.8374557  78.4409872  28.0280119  54.9673595  78.6614413  28.7690598
  43.5086888  74.2617495  26.7983531  42.8891919  73.6710142  26.6293546
  43.4070751  74.8528930  26.1647854  43.4024563  74.2621577  26.6788521
  50.6054783  76.0017037  21.1315994  51.3034948  76.1805164  21.6237458
  50.9207116  75.4787376  20.5086384  50.7550120  75.9510809  21.1118005
  43.2356021  77.8069777  29.0427100  43.1114717  78.3932222  29.6776919
  43.8874305  77.3129972  29.3439375  43.3129670  77.8208581  29.1813030
  48.2614362  80.9831494  28.3214611  48.9063364  80.4903937  28.0025560
  48.5016139  81.1256280  29.1480690  48.3924947  80.9308936  28.3964145
  50.8000453  83.8286399  27.9721504  51.0823696  83.0337805  27.7508260
  51.5286613  84.3066987  27.9926565  50.9490017  83.7820996  27.9424519
  48.7781647  71.3709433  25.2137269  48.4484977  71.8220577  24.5440968
  48.1026649  71.2925597  25.7610275  48.6292083  71.4260569  25.1960492
  55.9858055  67.3594956  23.4586880  55.6711496  68.0498435  23.8907302
  55.4684996  67.3039739  22.7572380  55.8622525  67.4529845  23.4183829
  46.9837601  69.4321722  20.6960217  47.7383569  69.8000039  20.4577267
  46.8065135  69.8061276  21.4639396  47.0692079  69.5419910  20.7745105
  60.2772500  75.5816162  28.7407756  59.4400921  75.6518349  28.9755350
  60.2460731  75.5840657  27.8682058  60.1490782  75.5926389  28.6467304
  46.6737229  77.7249198  34.4556125  46.8457732  77.6155093  35.3041406
  47.2106586  78.3703603  34.2187317  46.7782233  77.8041200  34.5461221
  45.3394666  71.8392041  17.3938330  45.1570239  72.0563922  16.5679322
  46.2020279  71.9531053  17.4496944  45.4399255  71.8881939  17.2792817
  51.0194385  68.8418451  20.4287354  51.7480545  68.6634406  19.9825510
  51.1089278  69.6836531  20.6394532  51.1401047  68.9402330  20.3940871
  55.0002685  79.7771839  24.3319647  55.7560200  80.2103353  24.3708556
  55.1065010  79.1276609  24.9054284  55.1272856  79.7449323  24.4217673
  40.9798946  80.3181129  29.2909045  40.7137361  79.5020246  29.4500035
  40.9937510  80.3634285  28.4204560  40.9423668  80.2038034  29.1862527
  57.9580339  70.6458944  27.3251478  58.6006248  70.7157048  27.9113394
  58.2103360  69.9788167  26.8231020  58.0902472  70.5585293  27.3378758
  44.8856693  75.1166213  15.9060803  44.1714870  74.8304393  16.3183235
  45.3700661  75.4562839  16.5467190  44.8516056  75.1247863  16.0616438
  45.7297552  73.8559507  31.9376052  45.0369349  73.3856487  32.1836784
  46.3457879  73.6297812  32.5117760  45.7182082  73.7526639  32.0585205
  41.3892359  81.1039908  26.5720789  41.2067932  81.0786794  25.7193081
  42.1242028  81.5738846  26.6109698  41.4706423  81.1701271  26.4518707
  44.4538111  77.8224911  33.0802898  45.1778083  77.8077942  33.5667792
  44.5554247  78.5320266  32.5824866  44.5756320  77.9249614  33.0781684
  51.8283060  81.3023996  37.9451845  51.0356041  81.6167508  38.1304464
  51.9431987  81.5175464  37.1072629  51.7278471  81.3807833  37.8490179
  54.5014379  78.0257987  22.2346860  54.5961234  78.7647281  22.6886486
  53.8773223  77.5975462  22.6681425  54.4223409  78.0719308  22.3655008
  52.7566853  81.2044200  32.8837141  53.3305715  80.5671444  33.0385705
  52.6781657  81.2048282  32.0146799  52.8300088  81.1109311  32.7783552
  41.3563270  77.9833409  26.7219856  41.9336772  77.8469860  27.3612101
  40.6577331  77.5269193  26.9765440  41.3384291  77.8955675  26.8542145
  48.1130572  79.6367465  24.9358339  47.8549816  78.8039200  24.9089638
  48.1679055  79.8625078  24.0950839  48.0830350  79.5465236  24.8078475
  53.1931622  71.7395915  25.0362431  52.4887949  71.2505101  25.1946351
  53.2416596  71.7518390  24.1650876  53.0961673  71.6685563  24.9301771
  47.0865284  77.1905227  25.4223233  46.5114875  77.3497396  26.0587194
  46.7100960  76.5540636  24.9591684  46.9468096  77.1203040  25.4477792
  50.7538573  75.6628576  30.2815612  50.3653005  75.2382794  29.6267803
  50.0893271  75.9110726  30.7892639  50.5985500  75.6367298  30.2603480
  60.3961842  75.4203581  23.0563442  60.1398407  74.6083523  22.8661325
  61.2391156  75.4281148  22.8293629  60.4827867  75.3015579  22.9948259
  36.8322103  76.8345302  23.4367674  36.9182355  76.4577170  24.2181204
  37.4597900  76.4605748  22.9587632  36.9378654  76.7230784  23.4813151
  54.5764934  69.3603205  27.7939596  54.9575446  68.6781376  28.1807470
  53.7728218  69.0712807  27.6115261  54.5141396  69.2170254  27.8243652
  47.7285419  83.3648699  23.6064731  48.3659366  83.1260446  24.1516524
  48.1540491  83.5685857  22.8717892  47.8861585  83.3599709  23.5781888
  48.3688234  78.5850988  17.9439620  48.7533387  78.3658695  18.6956165
  48.1199854  79.4113934  18.0740697  48.3890307  78.6749135  18.0740697
  48.5356775  71.8657403  37.6602205  48.2210216  72.6356966  37.3971767
  48.2146707  71.3027660  37.0754432  48.4415694  71.8967672  37.5343555
  50.1106891  83.8421121  25.2858517  50.1845899  83.6796293  26.1400367
  50.9276397  84.0311311  25.0418999  50.2423250  83.8457863  25.3756543
  46.0888671  70.2547925  23.2748401  45.2211097  70.3270524  23.3406010
  46.3763876  71.0570004  23.4636376  46.0028420  70.3842072  23.3123167
  55.2121560  70.4025784  31.6059723  55.9575152  70.2135595  31.1923148
  54.7958865  70.9284022  31.0473579  55.2606534  70.4527930  31.4624296
  62.5883831  77.7735013  26.5565228  63.1391753  77.1403082  26.7962320
  62.5727946  78.3050406  27.2480732  62.6669027  77.7583961  26.6944086
  49.2406222  81.6073610  31.1025121  48.7417916  82.3189378  31.1810010
  50.0506446  81.9274277  31.0643284  49.2862329  81.7600459  31.1081690
  45.5034340  80.8696563  25.3487842  45.2147588  80.2434034  25.8833569
  46.3717688  80.8116851  25.4152522  45.5894591  80.7684107  25.4378797
  56.2912237  76.0131347  25.6669824  55.9477003  75.2921682  26.0177074
  56.3905280  75.8045198  24.8248182  56.2554280  75.8755550  25.5941504
  45.7066613  82.5091814  21.2730207  46.4612581  82.8904853  21.4865670
  45.1137226  82.9602958  21.7276904  45.7303326  82.6320642  21.3713085
  48.1673280  74.4654655  36.3987419  47.3573056  74.7712434  36.2877262
  48.6447967  75.1860237  36.5140003  48.1176759  74.6169256  36.3994490
  44.0156024  73.7306184  20.7165277  43.7280819  73.3607455  19.9797224
  44.7026492  74.2001040  20.4548982  44.0744921  73.7453154  20.5680353
  48.4531165  80.7104395  22.0451813  48.2573948  81.3179129  21.4512116
  48.6765511  80.0172339  21.5643487  48.4565806  80.6981920  21.8867894
  46.8509695  77.5959132  22.1632682  47.5732347  77.7600291  21.7036488
  46.3717688  78.3168797  22.0572022  46.8873426  77.7257362  22.0798296
  54.8103203  73.9322931  27.5429367  53.9714303  73.9584210  27.3067630
  54.8807570  74.5793667  28.1234713  54.6971596  74.0319057  27.5938484
  44.5017312  80.0017205  31.2686822  45.0138409  80.2801458  30.6195581
  44.2153654  80.7406499  31.6349635  44.5352175  80.1519559  31.2276700
  53.2572481  70.8308308  22.2756983  53.9598834  70.6316057  21.7976941
  52.9916670  70.0584251  22.5825826  53.3219113  70.6871274  22.2502424
  58.6860727  79.1390918  24.8290609  58.5994701  79.2946344  25.6825387
  58.2311206  79.7828994  24.4550014  58.6063983  79.2566673  24.8997715
  41.5884218  74.5087397  21.5650558  41.6900355  75.3113558  21.8931534
  42.3840105  74.3074733  21.2673639  41.7212124  74.5973296  21.5685914
  48.0201037  72.0943593  31.3287863  47.8284234  72.1098728  32.1787287
  48.8699633  72.2907268  31.3054518  48.1176759  72.1257945  31.4511158
  42.4047950  74.6234575  29.3071680  42.2633442  73.7718516  29.4316188
  42.6888514  74.6663236  28.4833886  42.4255796  74.5034325  29.2039304
  52.5586543  76.4601665  23.4516168  52.3121257  76.3797416  24.2852957
  52.8871666  75.6755133  23.2578696  52.5707786  76.3327930  23.5463691
  54.7912677  79.4681400  33.4925331  54.7860715  78.5961216  33.4967757
  55.4973670  79.6669569  33.0194787  54.8957681  79.3685274  33.4232366
  48.5183570  79.1958384  32.8639151  48.6626946  79.7759592  32.2282261
  48.8659218  79.5734680  33.5689006  48.5911031  79.3379088  32.8738146
  50.6903487  78.3948552  30.6464283  49.9426801  78.5879566  30.2412561
  50.8445012  77.5693772  30.4088404  50.6025915  78.3013664  30.5509689
  50.9305264  72.2899103  31.5359686  51.3877878  73.0223077  31.6632479
  51.0061593  71.8665568  32.2946942  51.0096234  72.3356341  31.6660763
  43.1738255  72.5364923  32.6249130  42.6380445  71.9245281  32.9409897
  43.2356020  73.1113059  33.2782797  43.1033888  72.5311850  32.7684557
  55.4032590  65.4688978  25.4053529  55.5216158  65.9265441  24.6720832
  55.2294766  64.6634239  25.1189747  55.3951761  65.4182750  25.2554463
  48.8087642  74.2801207  28.3801510  48.0183717  74.0992667  28.7018846
  49.2048265  73.5028159  28.3631805  48.7504518  74.1388668  28.4254059
  54.1931328  81.9143637  26.1060956  53.5176330  81.6828869  26.6074343
  54.2023705  81.3064820  25.4803061  54.0949833  81.7902562  26.0877109
  51.3225472  76.7561466  32.8625009  51.2584614  77.6171422  32.7345146
  51.4622660  76.4393459  32.0620561  51.3340943  76.8361633  32.7253222
  50.0044566  79.4493605  27.0041212  49.5806815  79.6498104  26.2680231
  49.8289422  78.6022453  27.1165512  49.9155447  79.3542387  26.9114902
  45.2927011  79.9445657  22.4369185  45.4491630  79.8792459  23.2925177
  45.6327604  80.7194209  22.2247864  45.3660246  80.0494855  22.5323779
  51.8306156  79.3203540  21.3062548  52.3721701  78.8173921  21.7701169
  52.1452715  79.2668735  20.4952033  51.9570553  79.2382961  21.2546360
  52.9795425  74.2139845  31.3584849  53.1937395  73.5750759  30.8048202
  52.3629324  74.6585669  30.9292710  52.9200755  74.1849988  31.2135280
  41.8661273  77.1280607  22.7529952  42.2460238  77.5465152  22.0890219
  41.2916638  77.7094063  23.0598795  41.8372598  77.2758466  22.7006693
  55.1434513  75.8228910  32.2968156  54.3311195  75.5154800  32.3781328
  55.6024448  75.3427910  32.8610868  55.0914898  75.7065402  32.3922750
  52.2388021  77.2288981  37.0796858  52.7087652  77.8531098  37.4664732
  52.2849901  76.5605957  37.6390073  52.3155897  77.2223662  37.2196929
  49.3959294  69.3346009  27.8045662  48.8797783  68.6426200  27.9297241
  48.8353223  70.0016786  27.7508260  49.2365808  69.3309266  27.8151728
  51.4651528  69.8738969  29.6338514  51.0783281  69.8988000  30.4152044
  50.9784465  69.3080648  29.1813031  51.3364037  69.7934720  29.6826418
  57.4401507  76.4401624  28.2578216  57.0129115  76.3527972  27.5026316
  56.8027560  76.5479399  28.8433061  57.2831115  76.4434284  28.2323658
  50.9322585  71.5477149  34.1975186  51.7596014  71.2762298  34.2533800
  50.9530431  72.3437991  34.5539004  51.0575435  71.6256903  34.2590369
  45.5092074  78.6941012  27.3845446  44.6680081  78.5944886  27.5924340
  45.7182082  79.4636492  27.7359767  45.4156767  78.7933055  27.4672761
  42.9867641  76.3160549  25.2130197  42.5924339  76.3903561  24.4380307
  42.4307758  76.7018495  25.7638559  42.8470454  76.3842323  25.1797857
  54.6232588  69.2941843  24.8934076  54.8282181  69.2264151  25.7391073
  54.2959012  70.1000664  24.8255253  54.6047836  69.4027783  25.0093731
  49.3208739  76.6222411  26.6343044  49.0171877  76.0678399  27.2353452
  48.6188160  76.8014621  26.1471078  49.1724949  76.5667193  26.6512750
  48.3774836  73.9322931  21.1987746  48.6534571  73.2141843  20.7865313
  48.9773506  74.5307851  20.9908852  48.5068101  73.9143302  21.1068507
  57.8766276  69.8473607  24.3736841  57.2640589  70.3344009  24.7590573
  57.9730451  69.1717098  24.9174493  57.8004173  69.8191916  24.5115700
  51.8785357  71.6036448  19.4734341  52.3329103  71.7747009  20.1982185
  52.3525403  70.9904559  19.0732117  52.0153677  71.5387333  19.5208102
  45.4000882  81.0884774  28.8037079  44.8088815  81.7294272  28.7740094
  46.1621906  81.5122391  28.7768379  45.4249143  81.2460613  28.7952227
  45.7961505  72.2486772  29.4705097  46.2562987  72.3225701  30.2080221
  45.8417612  73.0468026  29.1204918  45.8712060  72.3780919  29.5277853
  47.4444855  72.9153467  34.0377124  47.0530420  72.2686814  34.4732902
  47.6130717  73.5064902  34.6571379  47.4115765  72.9067735  34.1939830
  49.2198377  78.3078983  20.5779348  49.9640422  78.6953259  20.8162298
  49.3659073  77.4636408  20.7419836  49.3508962  78.2409455  20.6373318
  51.1377952  70.1029241  25.6111209  50.2913997  70.2752049  25.4852559
  51.1349085  69.2978585  25.9477038  51.0125102  70.0090270  25.6422336
  52.2076253  73.8804456  26.4773267  51.7336207  73.3546218  26.9878578
  52.5794388  73.3333929  25.9088129  52.1926142  73.7220452  26.4688415
  42.5849283  75.8775963  31.8456813  43.4474896  75.7771672  31.7594143
  42.2541066  75.2970672  31.2842385  42.6634479  75.7767589  31.7502219
  58.4712983  78.9406832  27.8880048  58.2311206  78.1013247  27.8922474
  58.9504990  79.0206998  28.6120821  58.5065167  78.8288231  27.9954850
  54.1359752  74.7741010  19.5399021  53.6082771  74.8569754  18.8504730
  54.5955460  75.5158882  19.5363666  54.1261603  74.8961673  19.4373716
  60.4718170  75.7208289  25.8409307  60.2327940  75.6804123  25.0030092
  60.6352072  76.5679441  25.9675028  60.4608474  75.8400374  25.7362789
  57.0764200  80.1058238  31.7714352  57.7998399  79.6530764  31.5925372
  56.8114163  80.3862904  30.9886680  57.1445474  80.0809207  31.6293067
  45.9451069  74.7018412  28.5067231  45.3204139  74.7136804  27.8993184
  45.6096664  75.1778587  29.1558472  45.8036561  74.7736929  28.5123800
  46.1292817  73.0443530  14.5639916  45.7805622  73.6963255  15.0271466
  45.6489263  73.0300643  13.8363788  46.0063061  73.1386584  14.5251008
  52.8582990  80.2042116  29.9209367  52.2439983  79.6600167  30.2158002
  53.3750275  79.6906353  29.4415183  52.8438652  80.0478525  29.8933596
  52.0979287  81.2746386  27.6553666  51.6706895  80.6496105  27.2219101
  52.0904231  80.9921308  28.4812673  52.0338428  81.1399167  27.7133493
  45.2141814  76.3111559  30.7242100  45.3735301  75.5554884  31.1293822
  45.0334708  76.8602499  31.3782837  45.2107173  76.2805373  30.8804806
  53.1562117  68.4772795  31.2792889  52.6602678  68.6736469  30.5884456
  53.9131179  68.8765463  31.1081691  53.1948942  68.5650529  31.1513026
  50.4264997  72.1515141  27.8696200  50.4507484  71.6175253  27.1808980
  50.6776470  71.6432450  28.5321790  50.4674915  71.9976045  27.8660844
  37.9372587  79.4346636  27.3039344  37.8316036  79.3893480  26.4391428
  37.1872807  79.7800416  27.5853629  37.8108189  79.4787544  27.2176674
  46.7066319  70.8785959  27.2501944  46.7464691  71.3795166  27.9636652
  45.8815984  70.9696353  26.9807867  46.5905845  70.9667775  27.3152482
  48.8895932  80.4446699  35.3522239  48.0391562  80.5818413  35.4879884
  49.0524060  79.7110477  35.7969940  48.7879795  80.3560800  35.4377838
  48.1280682  77.3946469  29.5475843  47.2972612  77.5620287  29.3411091
  48.0732200  77.0182420  30.3324728  47.9970097  77.3636200  29.6324371
  45.9364466  70.8855362  35.1832254  46.5617169  70.3417495  35.4561686
  45.4814946  70.4050279  34.6140044  45.9612726  70.7344843  35.1393848
  46.5016726  75.6702060  20.0765961  46.6419687  76.1674525  20.7794602
  46.9999259  74.9688355  20.2180175  46.5957807  75.6404039  20.2017540
  46.5316949  76.5369172  17.4058538  47.1662028  77.1329597  17.3407999
  46.6142559  76.2372629  18.2204408  46.6373500  76.5810080  17.5161624
  59.5099514  79.0684649  30.2744902  60.1017355  79.7081900  30.3063100
  59.9458509  78.3707686  30.5636969  59.6617946  79.0602999  30.3225734
  48.1095931  72.4683147  17.3803980  48.4311772  71.9886229  16.7263242
  48.3722875  73.2782793  17.1894791  48.1961957  72.5173045  17.2559472
  51.3392904  83.4902021  30.9002796  50.8317995  84.0437868  31.3443426
  51.0419550  83.5510311  30.0821570  51.2197789  83.5808332  30.8451252
  53.5055086  71.8555341  29.7427459  53.9310158  71.4027867  29.1310985
  52.8912080  71.3015412  30.0192246  53.4783732  71.7069317  29.6932484
  43.0369936  78.7337012  20.6748084  43.5462166  79.3301520  21.0559389
  43.5104209  78.4662986  19.9924503  43.1813312  78.7822828  20.6302606
  51.9449309  68.3270441  23.1518036  51.3017627  68.1768087  23.7203174
  51.6048716  68.0812786  22.3867140  51.7994387  68.2682563  23.1221051
  56.5348656  76.2829867  22.5748044  55.8639846  76.8259570  22.4461110
  57.2288406  76.7524723  22.3329739  56.5377523  76.4328139  22.5203572
  56.6976783  72.7385751  25.4838418  57.0504393  72.3115474  26.1584216
  55.8391585  72.6536595  25.6139494  56.6226228  72.6630492  25.6033428
  45.3960468  75.3693271  23.5421264  44.6772457  75.7857403  23.8094128
  45.7672830  75.9347510  22.9912902  45.3452400  75.5142552  23.5004071
  54.6960049  76.0021120  29.4323260  54.6757976  75.8204415  30.2858039
  54.7439250  76.8733138  29.4082843  54.6994690  76.1037658  29.5546555
  52.6406379  82.5908312  35.3571736  52.6002234  81.9457989  34.7716892
  53.4529697  82.5344929  35.6697148  52.7549532  82.4867279  35.3168686
  51.1707043  74.4091271  18.8794644  50.5771882  74.7308267  18.3279211
  51.2082320  73.5632366  18.6715750  51.0881432  74.3315599  18.7677415
  58.1300843  67.8604163  26.4122730  57.6231708  67.1533303  26.3443908
  58.9268277  67.5297352  26.5423807  58.1728082  67.7077314  26.4221725
  54.0464859  74.3670775  22.3096394  53.8178552  74.3903477  21.4674752
  54.3062935  73.5428242  22.4291404  54.0511047  74.2486855  22.2021592
  48.3284088  76.2205248  31.9121494  47.8162991  75.6126431  32.2706525
  48.1563584  76.9361841  32.3795470  48.2273725  76.2368548  32.0337718
  43.1749802  74.6642824  34.5623856  43.0052393  75.3244198  34.0172062
  42.7315752  74.8749385  35.2836345  43.0849136  74.7928806  34.5885485
  47.1009622  72.9047322  23.6050589  47.5766988  73.2664401  22.9700771
  46.5998221  73.5603789  23.8850732  47.0974981  73.0541510  23.5527330
  52.2053158  74.1429493  34.3523750  52.7624588  73.9143302  33.7202215
  51.8814223  74.9035159  34.0758962  52.2399568  74.2213330  34.2180247
  40.0751867  77.5689689  29.8212346  39.5278586  76.8990335  29.9393214
  40.8644245  77.2019537  29.8855813  40.1104050  77.4154676  29.8481046
  49.9236275  77.2297146  35.3175757  50.6747602  77.5448823  35.6315311
  50.1158852  77.0276317  34.4909678  50.0627689  77.2464528  35.2419152
  49.1436275  75.0488521  16.9723973  49.5235240  75.0668150  16.1875088
  48.4028871  75.4942510  16.8514821  49.0905113  75.1170296  16.8387542
  56.7721565  73.3570713  22.5599552  56.7715792  73.2019369  23.4183828
  56.5677745  74.2033700  22.5040938  56.7421343  73.4591333  22.6787492
  38.8338836  76.7810497  26.9758369  38.6560597  76.3287106  27.7013284
  38.5457858  77.5836658  27.1596846  38.7651789  76.8333055  27.1101872
  54.4962417  78.0368214  26.2135759  54.9916083  77.3191209  26.1739779
  53.6862193  77.7339012  26.0990246  54.4506311  77.8865861  26.1909485
  40.5711306  79.3138221  24.0880128  39.7056826  79.3023911  23.9762899
  40.6710122  79.1268444  24.9351267  40.4585473  79.2844282  24.1969072
  56.5614236  80.7871902  28.9012888  56.9869308  80.2646324  28.3483313
  56.1971156  81.3852739  28.3801511  56.5700839  80.7982129  28.7421898
  53.1492836  84.5006166  25.2314045  53.6204014  85.2146429  25.4004030
  53.4853014  83.9004916  25.7673915  53.2687951  84.5177630  25.3346421
  50.0662331  69.2733637  32.1872140  50.1990236  68.4764630  32.5153116
  50.4507483  69.8000040  32.7670416  50.1418659  69.2333553  32.3215643
  53.7866782  84.2924100  31.9941738  53.2387728  83.6681984  31.7261803
  54.2479811  84.4818372  31.2785817  53.7733991  84.2283150  31.8492169
  56.5960646  72.3609455  29.3792930  56.0123635  72.8618661  28.9670498
  56.9164940  71.8539011  28.7457253  56.5573822  72.3601290  29.2251437
  49.1355446  71.2750050  19.6551605  49.9571140  71.4448362  19.4133300
  48.6725096  71.4297310  18.9317903  49.1886608  71.3231782  19.5123249
  47.7250777  69.2692812  30.4350034  48.2695190  68.9283939  31.0254375
  47.7787713  70.1278273  30.5771318  47.8139897  69.3448071  30.5431907
  22.1352650  13.1739101  22.7847389  22.8419417  12.6791131  22.9134323
  22.3240585  13.6148182  22.0550047  22.2680555  13.1657451  22.6956434
  19.2744944  16.5966637  20.6761464  19.3628290  16.4092778  21.5239674
  19.7034657  15.9504067  20.2766311  19.3507046  16.4729645  20.7433216
  16.8415404  15.8797797  19.6579126  16.2786239  15.4670407  20.1818787
  17.6036427  15.8050703  20.0772270  16.8709852  15.8075198  19.7972127
  13.4490302   8.1071405  21.3896172  13.6210806   7.9977300  22.2381453
  13.9859659   8.7525811  21.1527364  13.5535306   8.1863407  21.4801268
  19.3865003  16.0275656  23.3405248  20.1705420  16.1406504  23.7060990
  19.1861598  15.2016793  23.5363933  19.4731029  15.9222376  23.4239634
  19.5435397  17.9385758  16.9871703  18.7450642  17.6985258  17.2445572
  19.9921408  17.9900151  17.7338751  19.4910008  17.9108149  17.1356627
  18.6036134  11.6846203  24.8791891  17.8109114  11.9989715  25.0644511
  18.7185061  11.8997672  24.0412676  18.5031544  11.7630040  24.7830226
  19.5319926  11.5866407  19.8177188  20.1058788  10.9493651  19.9725752
  19.4534730  11.5870489  18.9486846  19.6053161  11.4931518  19.7123599
  24.8540074  12.9575385  19.8262041  24.6178712  12.1263449  19.7074102
  25.4983303  12.9060992  20.4116886  24.9134745  12.8273073  19.8947935
  25.8776495  12.7419833  15.8890336  25.5722312  13.4747890  16.2503651
  25.1582710  12.3357763  15.6083122  25.7263837  12.7901566  15.9003473
  31.5778287   9.3812834  15.2158680  31.5102787   9.4008793  14.3461267
  31.5633949  10.2243161  15.4414351  31.5657043   9.5086569  15.1211157
  16.0159295  11.9895818  18.0365168  15.5170989  12.7011585  18.1150056
  16.8259519  12.3096484  17.9983330  16.0615402  12.1422666  18.0421736
  14.9426353   4.8476862  23.3327466  14.1326129   5.1534642  23.2217308
  15.4201040   5.5682444  23.4480050  14.8929832   4.9991463  23.3334537
  21.5665750   9.8503607  20.4265378  21.5613788   8.9783424  20.4307804
  22.2726744  10.0491776  19.9534833  21.6710754   9.7507481  20.3572413
  15.2936643   9.5780591  19.7979198  15.4380019  10.1581799  19.1622308
  15.6412292   9.9556888  20.5029053  15.3664104   9.7201295  19.8078193
  14.3664398  17.7683363  16.6640225  14.5153962  17.2086279  16.0113629
  15.1464400  17.8475365  17.0472744  14.5038492  17.6968928  16.6237174
  16.8917699  17.9398006  17.9424716  16.8161370  17.2706816  18.4975504
  16.8207558  18.6415794  18.4565382  16.8698306  17.9442913  18.1001564
  16.2809333  21.3466326  16.4002716  16.7705263  20.6477115  16.2178381
  15.7093565  21.0490196  16.9878774  16.2693863  21.1992549  16.4603757
  22.4776337  13.9128395  25.3529507  23.2911202  13.6413544  25.5134640
  22.3171303  13.6135935  24.5489703  22.5746285  13.8283321  25.2574913
  21.9187587   6.2051117  19.2308202  21.1064268   5.8977008  19.3121375
  22.3777521   5.7250117  19.7950915  21.8667971   6.0887610  19.3262797
  19.0141094   7.6111189  24.0136905  19.4840725   8.2353305  24.4004779
  19.0602974   6.9428164  24.5730119  19.0908970   7.6045869  24.1536976
  22.4897581  14.9734685  20.6252348  23.1277301  14.4794881  20.2914804
  21.8471672  14.9012086  20.0404574  22.4891807  14.8893694  20.4894703
  22.5451837  15.6654494  17.2657704  23.3344215  15.3143558  17.3859786
  22.7195435  16.4790882  17.0034338  22.6872119  15.7340351  17.2445572
  14.1580163  14.2194339  18.2755189  14.0500518  14.2296401  19.1417247
  14.3675945  15.0449120  18.0860142  14.1730274  14.3435414  18.3759280
  28.2944377  11.3012751  16.7354404  28.3527501  11.7499400  17.4814381
  27.6610845  11.7111564  16.2984484  28.2095672  11.4286486  16.7806953
  21.9343472  16.9216293  13.1709151  21.7363160  17.4107108  12.4765362
  21.3131183  17.1257535  13.7493284  21.8131036  17.0232831  13.1532374
  23.8517274  10.4880445  18.7054399  24.5751472  10.0352972  18.5265419
  23.5867236  10.7685111  17.9226727  23.9198547  10.4631414  18.5633114
  15.6649005  10.8268906  22.2862286  14.8144636  10.9640621  22.4219930
  15.8277133  10.0932685  22.7309987  15.5632869  10.7383008  22.3717885
  26.2852588   9.4506856  17.2084949  26.8770428  10.0904107  17.2403147
  26.7211582   8.7529893  17.4977015  26.4371019   9.4425207  17.2565781
  18.1145977  13.8724229  17.8342843  17.6071069  14.4260075  18.2783473
  17.8172624  13.9332519  17.0161617  17.9950862  13.9630540  17.7791299
  17.3588463  18.8048787  14.7399849  17.1354117  18.0467616  15.1083876
  16.8698306  18.8346808  14.0180289  17.2531912  18.6971011  14.6876590
  19.4159452  12.9730519  22.2911783  19.3755307  12.3280196  21.7056939
  20.2282770  12.9167136  22.6037195  19.5302606  12.8689486  22.2508732
  18.9806231   4.5251700  21.2863796  19.5377661   4.2965510  20.6542262
  18.6567296   5.2857366  21.0099009  19.0152641   4.6035537  21.1520293
  16.6989348   7.6119354  22.2515804  17.4500675   7.9271030  22.5655358
  16.8911925   7.4098525  21.4249725  16.8380763   7.6286735  22.1759199
  23.3367309  11.1694109  15.8352935  23.7622381  10.6468531  15.2823360
  22.9724229  11.7674947  15.3141558  23.3453912  11.1804336  15.6761944
  12.9721389  19.4658327  14.5950280  13.2867948  20.2794715  14.6028062
  13.3814803  19.0808545  15.2632439  13.0789487  19.5287029  14.6954372
  22.0122893  16.4929687  24.3446164  22.1219859  15.7038247  24.7002911
  22.3413790  16.4035623  23.5420502  22.0775299  16.3635540  24.2788555
  20.5619855  14.6746308  18.9281785  20.0140801  14.0504191  18.6601850
  21.0232884  14.8640580  18.2125864  20.5487065  14.6105358  18.7832216
  20.1278182  15.6797380  15.4591126  20.9476555  15.5360346  15.7207421
  19.8472259  16.3043579  16.0007564  20.2074925  15.7507732  15.5779065
  36.5991832  23.3362232   8.4234002  36.5685836  24.1906869   8.5952272
  37.1973181  23.0357525   8.9820146  36.6828990  23.4178729   8.5308805
  29.7991517  22.4237883  13.1786933  28.9429412  22.5846381  13.2296049
  29.8459170  21.5529947  13.1991994  29.6790628  22.3188685  13.1892999
  24.1832656  31.9600601   8.9424164  23.4315556  31.5816139   8.7140209
  24.6318668  31.9919035   8.1942975  24.1382323  31.9086208   8.7981666
  29.6357616  32.3825970   4.3709711  29.3008985  33.0602892   3.9353933
  30.1484487  31.9931282   3.7826583  29.6623197  32.4250549   4.2196503
  29.1761908  34.3340239  10.3120823  29.5601287  34.9027138   9.7725598
  29.1121049  33.6089749   9.8326639  29.2235335  34.3115703  10.1614685
  32.6443338  24.4829927  15.8218584  33.1899298  25.1615014  15.8812554
  32.5860214  24.3417388  14.9620166  32.7159252  24.5621929  15.7030645
  25.7617413  31.9718993  11.2086937  25.8627776  31.1619347  11.5184064
  25.1659158  31.8775939  10.5786615  25.6889951  31.8384021  11.1613175
  34.4208406  25.9114534   6.6952312  34.3047932  26.6622220   7.1244450
  35.2164293  25.6538487   6.9448399  34.5212996  25.9849381   6.7956404
  25.6018152  36.8896582  12.6101793  26.2455608  37.3309746  12.9997951
  25.9274408  36.0850008  12.5232052  25.7449981  36.8361777  12.6547270
  18.9582457  27.9939280  10.8339270  18.7232641  27.1606932  10.7271539
  19.0968098  28.2743945  10.0200471  18.9438119  27.9122783  10.6981625
  21.2572544  20.1625010  13.7323578  20.6377576  19.5717657  13.5633593
  21.1556408  20.7536445  13.0987901  21.1510220  20.1629093  13.6128568
  26.3038732  29.9008557   7.9821654  26.6254573  30.4413764   7.3782963
  26.9510828  29.3305328   8.1143944  26.4464787  29.8967732   7.9128690
  28.3540440  21.9024552   8.0656041  29.0520605  22.0812680   8.5577504
  28.6692773  21.3794891   7.4426431  28.5035777  21.8518324   8.0458051
  20.9841677  23.7077292  15.9767147  20.8600374  24.2939737  16.6116966
  21.6359962  23.2137488  16.2779422  21.0615327  23.7216096  16.1153076
  28.5428375  28.2894997   8.0535833  28.9822011  27.6812098   8.4990605
  28.3933038  27.9102370   7.2821298  28.5849841  28.1433468   8.0055000
  26.0100018  26.8839009  15.2554658  26.6549021  26.3911452  14.9365607
  26.2501795  27.0263795  16.0820736  26.1410603  26.8316451  15.3304191
  28.5486110  29.7293915  14.9061551  28.8309353  28.9345320  14.6848307
  29.2772270  30.2074502  14.9266612  28.6975673  29.6828512  14.8764566
  26.5267304  17.2716949  12.1477316  26.1970634  17.7228092  11.4781015
  25.8512305  17.1933112  12.6950322  26.3777740  17.3268084  12.1300539
  32.1437712  26.6422178   5.0066602  32.0589007  27.4983145   5.1516171
  32.6322095  26.3666502   5.6748761  32.2026609  26.7279500   5.1268683
  33.7343711  13.2602472  10.3926926  33.4197152  13.9505950  10.8247349
  33.2170653  13.2047254   9.6912427  33.6108182  13.3537360  10.3523876
  33.0756145  23.2606973   6.5064337  32.5467617  23.4766606   7.1661643
  33.5981165  23.9543111   6.4265306  33.0744598  23.3950109   6.5919936
  38.5304198  28.8353277  11.8797381  37.7001901  29.0463921  12.0430798
  38.4813450  28.0090332  11.6039665  38.4010933  28.7442883  11.8634747
  20.5199782  32.8724950  12.1095477  20.0367360  33.5975440  12.0855060
  21.3323100  33.1701080  12.2205634  20.5690529  33.0227304  12.1222756
  26.5913936  31.6657131  14.7145291  26.0740877  31.3064546  14.1106599
  27.2888327  31.1419306  14.7251357  26.6179517  31.5354819  14.6275550
  27.8147987  31.3983105  19.6579126  27.2518822  30.9855715  20.1818787
  28.5769011  31.3236011  20.0772270  27.8442436  31.3260506  19.7972127
  23.3743979  33.3881126  12.2615756  24.0764558  32.8733115  12.3188513
  23.2941462  33.7155278  13.0662632  23.4667739  33.3595353  12.3888549
  38.0258156  21.4823678  15.6747803  37.1886577  21.5525865  15.9095397
  37.9946387  21.4848172  14.8022105  37.8976439  21.4933905  15.5807351
  24.4222885  23.6256713  21.3896172  24.5943389  23.5162608  22.2381453
  24.9592243  24.2711119  21.1527364  24.5267889  23.7048715  21.4801268
  22.6994754  29.5787478  11.7701364  23.5383654  29.8110411  11.8175126
  22.7306523  28.7091790  11.7008400  22.8276472  29.4844425  11.7666009
  23.3247457  29.9988354  16.0714670  23.8645682  29.8559485  16.7418042
  22.6417404  30.3985104  16.4398696  23.3039611  30.0368024  16.2249092
  32.7488342  25.6779354  11.2659694  33.5045857  26.1110868  11.3048603
  32.8550667  25.0284124  11.8394330  32.8758513  25.6456838  11.3557720
  35.7868513  29.5052631  12.0162097  35.3503745  29.5089374  12.7721069
  35.4531429  30.1858130  11.5841675  35.6731133  29.6065087  12.0642930
  18.7284602  26.2188644  16.2249091  18.4623018  25.4027761  16.3840082
  18.7423167  26.2641800  15.3544607  18.6909325  26.1045549  16.1202573
  35.7065996  16.5466459  14.2591525  36.3491905  16.6164564  14.8453441
  35.9589017  15.8795682  13.7571067  35.8388128  16.4592808  14.2718804
  23.4783209  19.7567023  18.8716099  22.7855005  19.2864002  19.1176831
  24.0943536  19.5305327  19.4457806  23.4667739  19.6534154  18.9925252
  30.5167980  33.4571066  16.9871703  29.7183226  33.2170566  17.2445572
  30.9653992  33.5085459  17.7338751  30.4642591  33.4293457  17.1356627
  38.9212860  26.2233551  10.9081735  39.5829294  25.6624220  10.8077643
  38.2804271  25.7285582  11.2334426  38.9241727  26.0669960  10.9414075
  29.8089667  29.5203683   3.2162658  30.2240816  29.1888707   2.5247154
  28.9781597  29.2872585   3.0882794  29.7477676  29.4374939   3.0953505
  19.1378016  27.0047424  13.5060836  18.9553589  26.9794310  12.6533128
  19.8727685  27.4746362  13.5449745  19.2192080  27.0708786  13.3858754
  35.2077690  27.2398934  10.6493723  35.4433279  27.3844133   9.8220574
  35.3567254  28.0041342  11.0425237  35.2643493  27.3737988  10.5857327
  22.2023768  23.7232427  20.0142944  22.9263740  23.7085457  20.5007839
  22.3039904  24.4327782  19.5164913  22.3241977  23.8257130  20.0121731
  37.0368147  26.0800600   8.4863327  37.3676364  26.6128240   7.8803422
  37.6101235  26.1339487   9.1425278  37.1701826  26.1670168   8.4941109
  32.2500036  23.9265502   9.1686907  32.3446890  24.6654796   9.6226533
  31.6258880  23.4982978   9.6021472  32.1709066  23.9726823   9.2995055
  30.5052510  27.1051715  19.8177188  31.0791372  26.4678959  19.9725752
  30.4267314  27.1055797  18.9486846  30.5785745  27.0116826  19.7123599
  19.1048926  23.8840924  13.6559902  19.6822429  23.7477375  14.2952148
  18.4062988  23.4276709  13.9105487  19.0869948  23.7963191  13.7882192
  25.8616229  25.5374980  11.8698386  25.6035473  24.7046715  11.8429685
  25.9164711  25.7632593  11.0290886  25.8316006  25.4472751  11.7418522
  30.9417279  17.6403431  11.9702478  30.2373605  17.1512616  12.1286397
  30.9902253  17.6525905  11.0990923  30.8447330  17.5693079  11.8641818
  24.8350941  23.0912743  12.3563280  24.2600532  23.2504911  12.9927241
  24.4586617  22.4548152  11.8931731  24.6953753  23.0210555  12.3817839
  28.5024229  21.5636092  17.2155659  28.1138662  21.1390310  16.5607850
  27.8378928  21.8118241  17.7232685  28.3471157  21.5374813  17.1943527
  38.1447498  21.3211096   9.9903489  37.8884063  20.5091038   9.8001372
  38.9876812  21.3288664   9.7633676  38.2313524  21.2023094   9.9288306
  32.3250591  15.2610721  14.7279643  32.7061103  14.5788892  15.1147517
  31.5213875  14.9720323  14.5455307  32.2627053  15.1177769  14.7583699
  29.6063168  25.7934696   5.4132466  30.4203806  26.0849589   5.3015237
  29.5422309  25.1394559   4.8390759  29.7165907  25.7399891   5.3121303
  35.8272658  28.4760693  19.8262041  35.5911295  27.6448757  19.7074102
  36.4715887  28.4246300  20.4116886  35.8867329  28.3458380  19.8947935
  25.4771076  29.2656214  10.5404778  26.1145023  29.0267961  11.0856571
  25.9026147  29.4693373   9.8057938  25.6347242  29.2607224  10.5121935
  20.1683718  31.5044550  14.4239082  20.2087864  31.7759401  13.5958861
  20.7278242  32.0286458  14.8396869  20.2567064  31.6220305  14.3630970
  26.2842431  17.7664919  24.5942251  25.9695872  18.5364482  24.3311814
  25.9632364  17.2035175  24.0094478  26.1901350  17.7975187  24.4683601
  36.8509078  28.2605141  15.8890336  36.5454895  28.9933198  16.2503651
  36.1315294  27.8543071  15.6083122  36.6996421  28.3086874  15.9003473
  27.8592548  29.7428636  12.2198564  27.9331556  29.5803808  13.0740414
  28.6762054  29.9318826  11.9759046  27.9908906  29.7465379  12.3096590
  42.5510871  24.8998142  15.2158680  42.4835371  24.9194101  14.3461267
  42.5366533  25.7428469  15.4414351  42.5389627  25.0271877  15.1211157
  21.6198304  30.0886499   9.2493008  20.7936422  30.3348236   9.1227286
  21.6810296  30.0098580  10.1155066  21.5072471  30.1131448   9.3581952
  32.9607217  16.3033300  18.5399770  33.7060809  16.1143110  18.1263195
  32.5444522  16.8291538  17.9813626  33.0092191  16.3535445  18.3964343
  26.3997133  32.7063380   6.9512037  26.6895432  32.3152361   6.2271264
  27.1300614  32.8880084   7.3917313  26.5504018  32.6757193   6.9094844
  40.3369488  23.6742528  13.4905274  40.8877409  23.0410597  13.7302367
  40.3213603  24.2057921  14.1820779  40.4154684  23.6591476  13.6284133
  26.9891879  27.5081125  18.0365168  26.4903572  28.2196893  18.1150056
  27.7992103  27.8281792  17.9983330  27.0347985  27.6607974  18.0421736
  24.3403049  34.6830762  10.0172187  24.1203345  34.3928117  10.8098854
  24.1197571  34.0245717   9.4890100  24.2750643  34.5430470  10.0561096
  23.2519996  26.7704078  12.2827889  22.9633245  26.1441550  12.8173616
  24.1203344  26.7124366  12.3492569  23.3380248  26.6691623  12.3718843
  34.0397894  21.9138862  12.6009871  33.6962660  21.1929197  12.9517120
  34.1390937  21.7052713  11.7588229  34.0039937  21.7763065  12.5281551
  26.5071005  36.0560152   8.8002880  27.1595063  35.5236594   9.0293906
  25.8096614  35.7028804   9.1870754  26.5001723  35.9249675   8.8915047
  23.4552270  28.4099330   8.2070254  24.2098238  28.7912369   8.4205716
  22.8622882  28.8610473   8.6616950  23.4788983  28.5328157   8.3053132
  34.5010923  28.3764566   8.1433859  35.0668956  29.0357776   8.0592402
  33.8538827  28.7214264   8.6150261  34.4889680  28.5246507   8.2006615
  25.9158937  20.3662170  23.3327466  25.1058712  20.6719950  23.2217308
  26.3933623  21.0867752  23.4480050  25.8662415  20.5176771  23.3334537
  24.7750496  29.5807891  13.5810369  24.2531250  29.7208183  14.2662234
  25.1624517  28.8218555  13.7712487  24.7554197  29.4893415  13.7111446
  30.9717501  31.3203350   7.5670938  30.7304177  30.5871211   7.1598003
  31.1518834  31.8690207   6.9137271  30.9625125  31.2925741   7.4101161
  26.2016822  26.6111910   8.9791860  26.0059605  27.2186644   8.3852163
  26.4251167  25.9179854   8.4983534  26.2051463  26.5989435   8.8207941
  24.5995352  23.4966648   9.0972729  25.3218004  23.6607806   8.6376535
  24.1203345  24.2176313   8.9912068  24.6359083  23.6264877   9.0138343
  32.5588860  19.8330447  14.4769414  31.7199960  19.8591725  14.2407677
  32.6293227  20.4801182  15.0574760  32.4457253  19.9326572  14.5278530
  22.2502969  25.9024720  18.2026869  22.7624066  26.1808973  17.5535628
  21.9639311  26.6414014  18.5689682  22.2837832  26.0527074  18.1616747
  31.0058138  16.7315824   9.2097030  31.7084491  16.5323572   8.7316988
  30.7402326  15.9591766   9.5165873  31.0704770  16.5878790   9.1842471
  36.4346383  25.0398433  11.7630655  36.3480358  25.1953859  12.6165434
  35.9796863  25.6836509  11.3890060  36.3549640  25.1574188  11.8337762
  25.7686694  17.9951109  18.2627910  25.5769891  18.0106243  19.1127334
  26.6185290  18.1914783  18.2394565  25.8662416  18.0265460  18.3851205
  20.1533607  20.5242090  16.2411727  20.0119099  19.6726031  16.3656235
  20.4374170  20.5670751  15.4173933  20.1741453  20.4041840  16.1379351
  30.3072199  22.3609180  10.3856215  30.0606914  22.2804931  11.2193004
  30.6357322  21.5762648  10.1918742  30.3193443  22.2335446  10.4803738
  34.2020248  29.0692540  14.1742996  34.0634607  29.7673586  14.6791738
  33.4220246  28.9141196  13.8179178  34.0663475  29.1492706  14.1969270
  26.2669227  25.0965899  19.7979198  26.4112602  25.6767107  19.1622308
  26.6144875  25.4742196  20.5029053  26.3396688  25.2386603  19.8078193
  28.4389144  24.2956067  17.5804330  27.6912458  24.4887082  17.1752608
  28.5930669  23.4701287  17.3428451  28.3511572  24.2021179  17.4849735
  25.3396982  33.2868671  16.6640225  25.4886545  32.7271587  16.0113629
  26.1196984  33.3660673  17.0472744  25.4771075  33.2154236  16.6237174
  35.6973621  28.4270794   4.9359495  35.3180430  27.6407931   4.9288785
  35.0339866  28.9757651   4.7931140  35.5432096  28.3915618   4.9140292
  27.8650282  33.4583314  17.9424716  27.7893953  32.7892124  18.4975504
  27.7940141  34.1601102  18.4565382  27.8430889  33.4628221  18.1001564
  28.6790921  18.1906618  18.4699733  29.1363535  18.9230592  18.5972525
  28.7547250  17.7673083  19.2286989  28.7581891  18.2363856  18.6000810
  20.9223912  18.4372438  19.5589177  20.3866102  17.8252796  19.8749944
  20.9841677  19.0120574  20.2122844  20.8519545  18.4319366  19.7024604
  33.1518247  11.3696493  12.3393576  33.2701815  11.8272957  11.6060879
  32.9780423  10.5641755  12.0529794  33.1437418  11.3190265  12.1894510
  28.5220529  31.9784313   8.7748322  29.2870420  31.7093956   8.4530986
  28.4198619  31.4934323   9.4918384  28.6202025  31.8673877   8.8328149
  26.5573299  20.1808722  15.3141557  25.7669374  20.0000182  15.6358893
  26.9533922  19.4035675  15.2971852  26.4990175  20.0396183  15.3594106
  31.9416985  27.8151152  13.0401003  31.2661987  27.5836384  13.5414390
  31.9509361  27.2072335  12.4143108  31.8435490  27.6910077  13.0217155
  29.0711129  22.6568981  19.7965056  29.0070270  23.5178938  19.6685193
  29.2108317  22.3400974  18.9960608  29.0826599  22.7369148  19.6593269
  33.9433720  30.6716285   5.2711181  34.0253557  31.4783271   4.9472632
  34.4283462  30.6912244   5.9951955  34.0270878  30.7936947   5.3298080
  27.7530223  25.3501121  13.9381259  27.3292472  25.5505620  13.2020277
  27.5775078  24.5029969  14.0505559  27.6641104  25.2549902  13.8454949
  27.2541917  36.8651633  16.4002716  27.7437847  36.1662423  16.2178381
  26.6826149  36.5675503  16.9878774  27.2426447  36.7177857  16.4603757
  23.0412668  25.8453172   9.3709232  23.1977287  25.7799975  10.2265224
  23.3813261  26.6201725   9.1587911  23.1145903  25.9502370   9.4663826
  29.5791813  25.2211056   8.2402595  30.1207358  24.7181437   8.7041215
  29.8938372  25.1676250   7.4292080  29.7056210  25.1390476   8.1886407
  27.7478262  30.6128407   5.5242623  27.8171083  29.7542946   5.6635623
  28.5266718  30.8300288   5.1961647  27.8731113  30.5181271   5.4959780
  30.7281082  20.1147360  18.2924895  30.9423052  19.4758274  17.7388249
  30.1114981  20.5593184  17.8632757  30.6686411  20.0857504  18.1475326
  32.1385750  33.0366108   9.7379116  31.7465542  32.7332824   9.0201982
  32.2938822  33.8735198   9.5484070  32.1039340  33.1149945   9.6035613
  32.8920170  21.7236425  19.2308202  32.0796852  21.4162316  19.3121375
  33.3510105  21.2435425  19.7950915  32.8400555  21.6072918  19.3262797
  32.3025425  29.6016097   9.6785147  31.9440080  29.7730740  10.4549179
  31.8164136  30.0629303   9.1213145  32.1784122  29.6955068   9.7110416
  30.1195811  13.2247296  13.2812238  29.2489369  13.1986017  13.2345548
  30.3736152  13.0524488  12.4638084  30.0289371  13.1957439  13.1532375
  29.9873678  23.1296497  24.0136905  30.4573309  23.7538613  24.4004779
  30.0335558  22.4613472  24.5730119  30.0641553  23.1231177  24.1536976
  27.1444951  15.2353524  14.7385708  26.6283440  14.5433716  14.8637287
  26.5838880  15.9024301  14.6848307  26.9851464  15.2316782  14.7491774
  29.2137185  15.7746484  16.5678561  28.8268938  15.7995516  17.3492091
  28.7270122  15.2088163  16.1153078  29.0849694  15.6942235  16.6166465
  35.1887164  22.3409139  15.1918263  34.7614772  22.2535488  14.4366363
  34.5513217  22.4486915  15.7773107  35.0316771  22.3441799  15.1663705
  28.8794326  12.6613470  18.8588821  29.5087444  13.1973770  18.5809891
  29.0480189  12.5690829  19.7102387  28.9972121  12.7274832  18.9437349
  28.6808241  17.4484664  21.1315233  29.5081671  17.1769813  21.1873847
  28.7016087  18.2445506  21.4879051  28.8061091  17.5264419  21.1930415
  33.5184421  31.1839801  17.2657704  34.3076799  30.8328866  17.3859786
  33.6928019  31.9976190  17.0034338  33.6604702  31.2525659  17.2445572
  23.2577731  24.5948527  14.3185493  22.4165738  24.4952401  14.5264387
  23.4667739  25.3644007  14.6699814  23.1642424  24.6940571  14.4012808
  20.7353298  22.2168064  12.1470244  20.3409996  22.2911076  11.3720354
  20.1793415  22.6026010  12.6978606  20.5956110  22.2849839  12.1137904
  32.3718245  15.1949358  11.8274123  32.5767838  15.1271666  12.6731120
  32.0444669  16.0008179  11.7595300  32.3533493  15.3035299  11.9433778
  27.0694396  22.5229926  13.5683091  26.7657534  21.9685915  14.1693498
  26.3673817  22.7022136  13.0811125  26.9210606  22.4674709  13.5852796
  25.1312747  29.7379647  18.2755189  25.0233102  29.7481709  19.1417247
  25.3408529  30.5634427  18.0860142  25.1462858  29.8620722  18.3759280
  35.6251933  15.7481122  11.3076888  35.0126246  16.2351525  11.6930620
  35.7216107  15.0724613  11.8514539  35.5489830  15.7199431  11.4455746
  23.1486539  26.9892290  15.7377126  22.5574472  27.6301788  15.7080141
  23.9107563  27.4129907  15.7108426  23.1734800  27.1468128  15.7292273
  23.5447162  18.1494287  16.4045144  24.0048643  18.2233217  17.1420267
  23.5903269  18.9475541  16.0544965  23.6197717  18.2788434  16.4617900
  25.1930512  18.8160982  20.9717171  24.8016077  18.1694329  21.4072949
  25.3616374  19.4072417  21.5911426  25.1601422  18.8075250  21.1279877
  39.2676961  26.8198059  16.7354404  39.3260084  27.2684708  17.4814381
  38.6343428  27.2296872  16.2984484  39.1828256  26.9471794  16.7806953
  32.9076055  32.4401601  13.1709151  32.7095744  32.9292416  12.4765362
  32.2863766  32.6442843  13.7493284  32.7863620  32.5418139  13.1532374
  26.9684034  24.2086498   7.5119395  27.7126079  24.5960774   7.7502345
  27.1144730  23.3643923   7.6759883  27.0994619  24.1416971   7.5713365
  28.8863609  16.0036757  12.5451256  28.0399654  16.1759565  12.4192606
  28.8834742  15.1986101  12.8817085  28.7610759  15.9097786  12.5762383
  29.9561909  19.7811971  13.4113314  29.4821864  19.2553733  13.9218625
  30.3280045  19.2341444  12.8428176  29.9411798  19.6227968  13.4028461
  20.3334940  21.7783478  18.7796860  21.1960553  21.6779187  18.6934190
  20.0026723  21.1978187  18.2182432  20.4120136  21.6775105  18.6842266
  36.2198640  24.8414347  14.8220095  35.9796863  24.0020762  14.8262521
  36.6990647  24.9214514  15.5460868  36.2550824  24.7295747  14.9294897
  38.2203827  21.6215804  12.7749354  37.9813597  21.5811638  11.9370138
  38.3837728  22.4686956  12.9015075  38.2094131  21.7407889  12.6702836
  34.8249857  26.0065753  18.7054399  35.5484056  25.5538280  18.5265419
  34.5599820  26.2870419  17.9226727  34.8931130  25.9816722  18.5633114
  23.6936726  20.6025927  15.4407278  23.0689796  20.6144319  14.8333231
  23.3582320  21.0786102  16.0898518  23.5522217  20.6744444  15.4463847
  20.4062401  28.6626387  16.8811042  19.8762326  27.9718826  16.9306017
  20.6787494  28.6536572  16.0523751  20.3687123  28.5593519  16.7658458
  31.4382492  29.2452089   5.6048725  32.1616691  29.7110202   5.4613298
  30.9983083  29.3125699   4.8546322  31.4798184  29.3235926   5.4733506
  30.6068647  26.1049632  16.8549414  29.9925640  25.5607682  17.1498049
  31.1235932  25.5913868  16.3755230  30.5924309  25.9486041  16.8273642
  29.8464944  27.1753902  14.5893713  29.4192552  26.5503620  14.1559148
  29.8389888  26.8928824  15.4152720  29.7824085  27.0406682  14.6473540
  22.9627471  22.2119075  17.6582147  23.1220958  21.4562399  18.0633869
  22.7820365  22.7610014  18.3122884  22.9592830  22.1812888  17.8144853
  30.9047774  14.3780310  18.2132936  30.4088335  14.5743984  17.5224503
  31.6616836  14.7772979  18.0421738  30.9434599  14.4658044  18.0853073
  28.1750654  18.0522656  14.8036247  28.1993141  17.5182768  14.1149027
  28.4262127  17.5439965  15.4661837  28.2160572  17.8983560  14.8000891
  15.6858243  25.3354151  14.2379391  15.5801692  25.2900995  13.3731475
  14.9358463  25.6807932  14.5193676  15.5593846  25.3795059  14.1516720
  24.4551976  16.7793474  14.1841991  24.4950347  17.2802681  14.8976698
  23.6301640  16.8703868  13.9147914  24.3391502  16.8675291  14.2492529
  26.6381589  26.3454214  22.2862286  25.7877219  26.4825929  22.4219930
  26.8009716  25.6117993  22.7309987  26.5365452  26.2568316  22.3717885
  25.8766339  23.2953984  16.4815890  25.0458269  23.4627802  16.2751138
  25.8217856  22.9189935  17.2664775  25.7455754  23.2643716  16.5664418
  23.6850122  16.7862877  22.1172301  24.3102826  16.2425010  22.3901733
  23.2300602  16.3057795  21.5480091  23.7098383  16.6352359  22.0733894
  37.2585171  24.9692164  17.2084949  37.8503011  25.6089415  17.2403147
  37.6944166  24.2715201  17.4977015  37.4103602  24.9610515  17.2565781
  29.0878561  29.3909537  17.8342843  28.5803652  29.9445383  18.2783473
  28.7905207  29.4517826  17.0161617  28.9683446  29.4815848  17.7791299
  31.2540743  17.7562856  16.6767506  31.6795815  17.3035383  16.0651032
  30.6397736  17.2022927  16.9532293  31.2269389  17.6076832  16.6272531
  31.6986341  33.3072794   5.7646786  30.9815651  33.1333657   5.2994023
  32.3493079  33.0725367   5.2322272  31.6888192  33.2468587   5.6176004
  34.2834313  22.1837383   9.5088091  33.6125502  22.7267085   9.3801157
  34.9774063  22.6532238   9.2669786  34.2863180  22.3335654   9.4543619
  28.3321046  34.3234095  14.7399849  28.1086701  33.5652924  15.1083876
  27.8430890  34.3532116  14.0180289  28.2264495  34.2156319  14.6876590
  34.4462440  18.6393266  12.4178464  34.7990050  18.2122989  13.0924263
  33.5877241  18.5544110  12.5479541  34.3711885  18.5638007  12.5373475
  23.1446125  21.2700786  10.4761311  22.4258114  21.6864919  10.7434174
  23.5158487  21.8355025   9.9252949  23.0938057  21.4150068  10.4344118
  32.4445706  21.9028635  16.3663307  32.4243633  21.7211930  17.2198086
  32.4924907  22.7740654  16.3422890  32.4480347  22.0045173  16.4886601
  30.3892036  28.4915827  22.2911783  30.3487891  27.8465504  21.7056939
  31.2015354  28.4352444  22.6037195  30.5035189  28.3874794  22.2508732
  26.9799503  34.5434553  12.1936934  26.5659902  33.8808683  11.8040776
  27.6646877  34.6912412  11.6732628  27.0197875  34.4675211  12.0593431
  30.3464797  33.7024638  12.9460551  29.9481081  33.8126909  12.1781371
  29.7316017  33.9106705  13.5287110  30.1963687  33.7498206  12.9191850
  35.8786500  13.7611678  13.3462777  35.3717365  13.0540818  13.2783954
  36.6753934  13.4304867  13.4763853  35.9213739  13.6084830  13.3561772
  31.7950516  20.2678291   9.2436441  31.5664209  20.2910992   8.4014799
  32.0548592  19.4435758   9.3631451  31.7996704  20.1494370   9.1361638
  26.0769744  22.1212764  18.8461541  25.5648647  21.5133947  19.2046572
  25.9049241  22.8369356  19.3135517  25.9759381  22.1376063  18.9677764
  20.9235459  20.5650339  21.4963903  20.7538049  21.2251714  20.9512109
  20.4801409  20.7756900  22.2176392  20.8334793  20.6936321  21.5225532
  24.8495278  18.8054837  10.5390636  25.3252645  19.1671917   9.9040817
  24.3483878  19.4611304  10.8190779  24.8460637  18.9549026  10.4867377
  38.0806640  28.2776605   6.3303641  38.4640246  29.0267961   6.5601738
  37.2850753  28.5242425   6.0715630  38.0200422  28.4246299   6.3261215
  29.9538815  20.0437008  21.2863796  30.5110245  19.8150818  20.6542262
  29.6299880  20.8042674  21.0099009  29.9885225  20.1220845  21.1520293
  17.8237524  23.4697204  16.7552392  17.2764243  22.7997850  16.8733261
  18.6129902  23.1027052  16.8195860  17.8589707  23.3162191  16.7821093
  27.6721932  23.1304662  22.2515804  28.4233259  23.4456338  22.5655358
  27.8644508  22.9283832  21.4249725  27.8113346  23.1472043  22.1759199
  34.5207222  19.2578228   9.4939599  34.5201449  19.1026884  10.3523875
  34.3163402  20.1041215   9.4380985  34.4907000  19.3598849   9.6127538
  16.5824493  22.6818012  13.9098416  16.4046254  22.2294621  14.6353331
  16.2943515  23.4844174  14.0936893  16.5137446  22.7340570  14.0441918
  32.2448074  23.9375730  13.1475806  32.7401739  23.2198725  13.1079826
  31.4347850  23.6346527  13.0330293  32.1991967  23.7873376  13.1249532
  27.6906686  27.7873543   5.2972810  26.8818008  27.4640216   5.2506120
  28.1981595  27.0806765   5.2301059  27.6456352  27.6354859   5.2803105
  18.3196963  25.2145736  11.0220175  17.4542482  25.2031426  10.9102946
  18.4195779  25.0275959  11.8691314  18.2071130  25.1851797  11.1309119
  34.3099893  26.6879417  15.8352935  34.7354965  26.1653839  15.2823360
  33.9456813  27.2860255  15.3141558  34.3186496  26.6989644  15.6761944
  23.9453973  34.9843635  14.5950280  24.2600532  35.7980023  14.6028062
  24.3547386  34.5993853  15.2632439  24.0522071  35.0472337  14.6954372
  30.8978492  30.4013681  12.1654092  31.3689671  31.1153944  12.3344077
  31.2338671  29.8012432  12.7013962  31.0173608  30.4185146  12.2686468
  27.8147987  15.1741152  19.1212187  27.9475893  14.3772145  19.4493162
  28.1993140  15.7007555  19.7010462  27.8904316  15.1341069  19.2555690
  31.5352439  30.1931616  18.9281785  30.9873385  29.5689499  18.6601850
  31.9965468  30.3825888  18.2125864  31.5219648  30.1290666  18.7832216
  30.8880343  12.0971478  15.7193280  30.0826306  11.9869208  16.0361118
  30.7587078  12.1983934  14.8623146  30.7500475  12.0955148  15.6401320
  34.3446303  18.2616970  16.3132977  33.7609292  18.7626177  15.9010544
  34.6650597  17.7546526  15.6797300  34.3059478  18.2608805  16.1591484
  25.4736434  15.1700327  17.3690081  26.0180847  14.8291454  17.9594422
  25.5273370  16.0285789  17.5111365  25.5625554  15.2455586  17.4771954
  21.2866993  28.9316743  14.2428888  21.8911850  28.8912577  13.6142709
  21.0794305  29.7787895  14.2732944  21.3455890  29.0504746  14.1545005
  31.1010765  31.1982688  15.4591126  31.9209139  31.0545654  15.7207421
  30.8204843  31.8228887  16.0007564  31.1807508  31.2693040  15.5779065
  16.5218275  27.9151361  14.1127812  16.4242553  27.1047632  14.4217868
  17.3047145  27.8943154  13.7274080  16.6234412  27.7918451  14.1014675
  47.5724415  38.8547540   8.4234002  47.5418420  39.7092177   8.5952272
  48.1705764  38.5542833   8.9820146  47.6561573  38.9364037   8.5308805
  40.7724100  37.9423191  13.1786933  39.9161996  38.1031689  13.2296049
  40.8191754  37.0715255  13.1991994  40.6523212  37.8373993  13.1892999
  35.1565240  47.4785909   8.9424164  34.4048140  47.1001447   8.7140209
  35.6051252  47.5104342   8.1942975  35.1114907  47.4271516   8.7981666
  40.6090200  47.9011278   4.3709711  40.2741568  48.5788200   3.9353933
  41.1217070  47.5116590   3.7826583  40.6355781  47.9435857   4.2196503
  40.1494491  49.8525547  10.3120823  40.5333871  50.4212446   9.7725598
  40.0853632  49.1275057   9.8326639  40.1967918  49.8301010  10.1614685
  43.6175921  40.0015235  15.8218584  44.1631881  40.6800321  15.8812554
  43.5592798  39.8602696  14.9620166  43.6891836  40.0807237  15.7030645
  36.7349996  47.4904301  11.2086937  36.8360359  46.6804655  11.5184064
  36.1391741  47.3961247  10.5786615  36.6622535  47.3569329  11.1613175
  45.3940990  41.4299842   6.6952312  45.2780516  42.1807528   7.1244450
  46.1896877  41.1723795   6.9448399  45.4945579  41.5034689   6.7956404
  36.5750736  52.4081890  12.6101793  37.2188191  52.8495054  12.9997951
  36.9006991  51.6035316  12.5232052  36.7182564  52.3547085  12.6547270
  29.9315041  43.5124588  10.8339270  29.6965225  42.6792240  10.7271539
  30.0700681  43.7929253  10.0200471  29.9170703  43.4308091  10.6981625
  32.2305128  35.6810318  13.7323578  31.6110160  35.0902965  13.5633593
  32.1288992  36.2721753  13.0987901  32.1242803  35.6814401  13.6128568
  37.2771316  45.4193865   7.9821654  37.5987157  45.9599072   7.3782963
  37.9243412  44.8490636   8.1143944  37.4197371  45.4153040   7.9128690
  39.3273024  37.4209860   8.0656041  40.0253188  37.5997987   8.5577504
  39.6425356  36.8980199   7.4426431  39.4768361  37.3703632   8.0458051
  31.9574261  39.2262600  15.9767147  31.8332958  39.8125045  16.6116966
  32.6092545  38.7322796  16.2779422  32.0347910  39.2401404  16.1153076
  39.5160959  43.8080305   8.0535833  39.9554594  43.1997405   8.4990605
  39.3665622  43.4287678   7.2821298  39.5582425  43.6618776   8.0055000
  36.9832602  42.4024317  15.2554658  37.6281605  41.9096760  14.9365607
  37.2234379  42.5449103  16.0820736  37.1143187  42.3501759  15.3304191
  39.5218693  45.2479223  14.9061551  39.8041936  44.4530628  14.6848307
  40.2504854  45.7259810  14.9266612  39.6708257  45.2013820  14.8764566
  37.4999887  32.7902257  12.1477316  37.1703217  33.2413400  11.4781015
  36.8244889  32.7118420  12.6950322  37.3510323  32.8453392  12.1300539
  43.1170296  42.1607486   5.0066602  43.0321591  43.0168453   5.1516171
  43.6054679  41.8851810   5.6748761  43.1759193  42.2464808   5.1268683
  44.7076295  28.7787779  10.3926926  44.3929736  29.4691258  10.8247349
  44.1903237  28.7232562   9.6912427  44.5840765  28.8722668  10.3523876
  44.0488729  38.7792280   6.5064337  43.5200200  38.9951914   7.1661643
  44.5713749  39.4728419   6.4265306  44.0477182  38.9135417   6.5919936
  49.5036782  44.3538585  11.8797381  48.6734485  44.5649229  12.0430798
  49.4546034  43.5275639  11.6039665  49.3743517  44.2628191  11.8634747
  35.9388337  42.6755497   5.3071805  35.3545552  43.1805529   5.7137669
  35.5358432  42.4497884   4.5668397  35.7927640  42.7163745   5.2576830
  31.4932365  48.3910258  12.1095477  31.0099943  49.1160748  12.0855060
  32.3055683  48.6886388  12.2205634  31.5423113  48.5412612  12.1222756
  37.5646519  47.1842439  14.7145291  37.0473461  46.8249854  14.1106599
  38.2620910  46.6604613  14.7251357  37.5912100  47.0540127  14.6275550
  38.7880571  46.9168413  19.6579126  38.2251406  46.5041023  20.1818787
  39.5501594  46.8421319  20.0772270  38.8175020  46.8445814  19.7972127
  40.3965551  38.9221149   3.7840726  40.6361555  39.1299133   2.9716069
  40.7181392  38.1178658   3.8929670  40.4802709  38.8335250   3.6801279
  35.7055841  30.8514545   7.6300264  36.4601809  31.2192862   7.3917314
  35.5283376  31.2254099   8.3979443  35.7910320  30.9612733   7.7085152
  34.3476562  48.9066434  12.2615756  35.0497142  48.3918423  12.3188513
  34.2674046  49.2340586  13.0662632  34.4400323  48.8780660  12.3888549
  48.9990740  37.0008986  15.6747803  48.1619161  37.0711173  15.9095397
  48.9678971  37.0033480  14.8022105  48.8709022  37.0119213  15.5807351
  35.3955469  39.1442021  21.3896172  35.5675973  39.0347916  22.2381453
  35.9324827  39.7896427  21.1527364  35.5000473  39.2234023  21.4801268
  34.0612906  33.2584864   4.3278377  33.8788479  33.4756745   3.5019369
  34.9238519  33.3723877   4.3836991  34.1617495  33.3074762   4.2132864
  33.6727338  45.0972786  11.7701364  34.5116237  45.3295719  11.8175126
  33.7039107  44.2277098  11.7008400  33.8009055  45.0029733  11.7666009
  34.2980041  45.5173661  16.0714670  34.8378266  45.3744792  16.7418042
  33.6149987  45.9170412  16.4398696  34.2772195  45.5553332  16.2249092
  39.7412625  30.2611275   7.3627400  40.4698786  30.0827230   6.9165557
  39.8307518  31.1029354   7.5734578  39.8619287  30.3595153   7.3280918
  43.7220926  41.1964662  11.2659694  44.4778441  41.6296176  11.3048603
  43.8283250  40.5469432  11.8394330  43.8491096  41.1642146  11.3557720
  46.7601097  45.0237939  12.0162097  46.3236329  45.0274682  12.7721069
  46.4264012  45.7043438  11.5841675  46.6463717  45.1250395  12.0642930
  29.7017186  41.7373952  16.2249091  29.4355601  40.9213069  16.3840082
  29.7155750  41.7827108  15.3544607  29.6641908  41.6230857  16.1202573
  46.6798580  32.0651767  14.2591525  47.3224488  32.1349872  14.8453441
  46.9321601  31.3980990  13.7571067  46.8120712  31.9778116  14.2718804
  33.6074933  36.5359037   2.8400850  32.8933110  36.2497216   3.2523282
  34.0918902  36.8755662   3.4807237  33.5734296  36.5440686   2.9956485
  34.4515792  35.2752331  18.8716099  33.7587589  34.8049310  19.1176831
  35.0676120  35.0490635  19.4457806  34.4400322  35.1719462  18.9925252
  41.4900564  48.9756374  16.9871703  40.6915810  48.7355874  17.2445572
  41.9386575  49.0270767  17.7338751  41.4375175  48.9478765  17.1356627
  49.8945443  41.7418859  10.9081735  50.5561877  41.1809528  10.8077643
  49.2536855  41.2470890  11.2334426  49.8974311  41.5855268  10.9414075
  40.7822251  45.0388991   3.2162658  41.1973399  44.7074014   2.5247154
  39.9514180  44.8057893   3.0882794  40.7210260  44.9560247   3.0953505
  30.1110600  42.5232732  13.5060836  29.9286173  42.4979618  12.6533128
  30.8460269  42.9931669  13.5449745  30.1924663  42.5894094  13.3858754
  46.1810274  42.7584242  10.6493723  46.4165863  42.9029440   9.8220574
  46.3299837  43.5226650  11.0425237  46.2376077  42.8923296  10.5857327
  33.1756351  39.2417734  20.0142944  33.8996324  39.2270765  20.5007839
  33.2772488  39.9513090  19.5164913  33.2974560  39.3442438  20.0121731
  48.0100731  41.5985908   8.4863327  48.3408948  42.1313548   7.8803422
  48.5833819  41.6524795   9.1425278  48.1434410  41.6855476   8.4941109
  43.2232620  39.4450810   9.1686907  43.3179474  40.1840104   9.6226533
  42.5991463  39.0168286   9.6021472  43.1441650  39.4912131   9.2995055
  41.4785093  42.6237023  19.8177188  42.0523955  41.9864267  19.9725752
  41.3999897  42.6241105  18.9486846  41.5518328  42.5302134  19.7123599
  30.0781510  39.4026232  13.6559902  30.6555013  39.2662683  14.2952148
  29.3795572  38.9462016  13.9105487  30.0602531  39.3148499  13.7882192
  43.4755641  41.2899550   2.4023859  43.3935803  41.3601737   3.2678846
  44.1135361  41.8529294   2.2107600  43.5575478  41.3838521   2.5013809
  36.8348812  41.0560288  11.8698386  36.5768056  40.2232023  11.8429685
  36.8897295  41.2817901  11.0290886  36.8048590  40.9658059  11.7418522
  41.9149862  33.1588739  11.9702478  41.2106189  32.6697924  12.1286397
  41.9634837  33.1711213  11.0990923  41.8179914  33.0878387  11.8641818
  35.8083524  38.6098050  12.3563280  35.2333116  38.7690219  12.9927241
  35.4319201  37.9733460  11.8931731  35.6686337  38.5395863  12.3817839
  39.4756813  37.0821400  17.2155659  39.0871246  36.6575617  16.5607850
  38.8111511  37.3303549  17.7232685  39.3203741  37.0560121  17.1943527
  49.1180082  36.8396404   9.9903489  48.8616647  36.0276346   9.8001372
  49.9609396  36.8473972   9.7633676  49.2046107  36.7208402   9.9288306
  25.5540343  38.2538125  10.3707721  25.6400595  37.8769994  11.1521251
  26.1816141  37.8798571   9.8927679  25.6596894  38.1423607  10.4153198
  43.2983174  30.7796028  14.7279643  43.6793686  30.0974200  15.1147517
  42.4946459  30.4905631  14.5455307  43.2359636  30.6363077  14.7583699
  40.5795751  41.3120004   5.4132466  41.3936390  41.6034897   5.3015237
  40.5154892  40.6579867   4.8390759  40.6898490  41.2585199   5.3121303
  46.8005241  43.9946000  19.8262041  46.5643879  43.1634065  19.7074102
  47.4448470  43.9431608  20.4116886  46.8599912  43.8643688  19.8947935
  36.4503659  44.7841522  10.5404778  37.0877606  44.5453269  11.0856571
  36.8758731  44.9878681   9.8057938  36.6079826  44.7792532  10.5121935
  31.1416302  47.0229858  14.4239082  31.1820447  47.2944709  13.5958861
  31.7010826  47.5471766  14.8396869  31.2299648  47.1405613  14.3630970
  37.0906474  40.0043812   4.8779667  37.4751627  39.7851518   5.6296212
  36.8418095  40.8306757   5.0080744  37.1108547  40.0941958   5.0080744
  47.8241662  43.7790449  15.8890336  47.5187479  44.5118506  16.2503651
  47.1047878  43.3728379  15.6083122  47.6729004  43.8272182  15.9003473
  38.8325131  45.2613944  12.2198564  38.9064140  45.0989116  13.0740414
  39.6494638  45.4504134  11.9759046  38.9641490  45.2650687  12.3096590
  53.5243454  40.4183450  15.2158680  53.4567954  40.4379409  14.3461267
  53.5099117  41.2613777  15.4414351  53.5122211  40.5457185  15.1211157
  32.5930888  45.6071807   9.2493008  31.7669006  45.8533544   9.1227286
  32.6542879  45.5283888  10.1155066  32.4805055  45.6316756   9.3581952
  34.8106912  31.6740748  10.2088448  33.9429337  31.7463348  10.2746057
  35.0982116  32.4762827  10.3976423  34.7246660  31.8034895  10.2463214
  43.9339801  31.8218608  18.5399770  44.6793393  31.6328418  18.1263195
  43.5177105  32.3476846  17.9813626  43.9824775  31.8720753  18.3964343
  37.3729717  48.2248687   6.9512037  37.6628015  47.8337669   6.2271264
  38.1033198  48.4065392   7.3917313  37.5236601  48.1942501   6.9094844
  51.3102071  39.1927836  13.4905274  51.8609993  38.5595905  13.7302367
  51.2946187  39.7243229  14.1820779  51.3887268  39.1776784  13.6284133
  37.9624462  43.0266433  18.0365168  37.4636156  43.7382201  18.1150056
  38.7724687  43.3467100  17.9983330  38.0080569  43.1793282  18.0421736
  35.3135633  50.2016070  10.0172187  35.0935928  49.9113425  10.8098854
  35.0930155  49.5431025   9.4890100  35.2483227  50.0615778  10.0561096
  34.2252580  42.2889386  12.2827889  33.9365828  41.6626858  12.8173616
  35.0935928  42.2309674  12.3492569  34.3112832  42.1876931  12.3718843
  45.0130478  37.4324170  12.6009871  44.6695244  36.7114505  12.9517120
  45.1123520  37.2238021  11.7588229  44.9772521  37.2948373  12.5281551
  37.4803588  51.5745460   8.8002880  38.1327646  51.0421902   9.0293906
  36.7829197  51.2214112   9.1870754  37.4734306  51.4434983   8.8915047
  34.4284853  43.9284637   8.2070254  35.1830821  44.3097676   8.4205716
  33.8355466  44.3795781   8.6616950  34.4521567  44.0513465   8.3053132
  45.4743507  43.8949874   8.1433859  46.0401539  44.5543084   8.0592402
  44.8271410  44.2399572   8.6150261  45.4622263  44.0431815   8.2006615
  36.8891520  35.8847478  23.3327466  36.0791296  36.1905257  23.2217308
  37.3666207  36.6053060  23.4480050  36.8394999  36.0362079  23.3334537
  35.7483080  45.0993199  13.5810369  35.2263833  45.2393490  14.2662234
  36.1357100  44.3403863  13.7712487  35.7286781  45.0078723  13.7111446
  32.7374264  35.1499008   7.6505324  32.4499060  34.7800278   6.9137271
  33.4244732  35.6193863   7.3889029  32.7963161  35.1645977   7.5020400
  41.9450085  46.8388658   7.5670938  41.7036761  46.1056519   7.1598003
  42.1251418  47.3875515   6.9137271  41.9357709  46.8111049   7.4101161
  37.1749405  42.1297218   8.9791860  36.9792188  42.7371952   8.3852163
  37.3983751  41.4365162   8.4983534  37.1784046  42.1174743   8.8207941
  35.5727935  39.0151956   9.0972729  36.2950587  39.1793114   8.6376535
  35.0935928  39.7361621   8.9912068  35.6091666  39.1450185   9.0138343
  43.5321443  35.3515755  14.4769414  42.6932544  35.3777033  14.2407677
  43.6025810  35.9986490  15.0574760  43.4189837  35.4511880  14.5278530
  33.2235552  41.4210028  18.2026869  33.7356649  41.6994281  17.5535628
  32.9371895  42.1599322  18.5689682  33.2570415  41.5712382  18.1616747
  41.9790721  32.2501132   9.2097030  42.6817074  32.0508880   8.7316988
  41.7134910  31.4777074   9.5165873  42.0437354  32.1064098   9.1842471
  47.4078967  40.5583741  11.7630655  47.3212941  40.7139167  12.6165434
  46.9529447  41.2021817  11.3890060  47.3282224  40.6759496  11.8337762
  30.3102458  35.9280220   8.4990605  30.4118595  36.7306381   8.8271580
  31.1058345  35.7267556   8.2013686  30.4430364  36.0166119   8.5025960
  36.7419278  33.5136417  18.2627910  36.5502475  33.5291551  19.1127334
  37.5917874  33.7100091  18.2394565  36.8395000  33.5450768  18.3851205
  31.1266191  36.0427398  16.2411727  30.9851682  35.1911339  16.3656235
  31.4106754  36.0856059  15.4173933  31.1474037  35.9227148  16.1379351
  41.2804783  37.8794488  10.3856215  41.0339497  37.7990239  11.2193004
  41.6089906  37.0947956  10.1918742  41.2926027  37.7520754  10.4803738
  45.1752832  44.5877848  14.1742996  45.0367191  45.2858894  14.6791738
  44.3952830  44.4326504  13.8179178  45.0396059  44.6678014  14.1969270
  37.2401810  40.6151207  19.7979198  37.3845186  41.1952415  19.1622308
  37.5877459  40.9927504  20.5029053  37.3129272  40.7571911  19.8078193
  39.4121728  39.8141375  17.5804330  38.6645042  40.0072390  17.1752608
  39.5663253  38.9886595  17.3428451  39.3244155  39.7206487  17.4849735
  36.3129565  48.8053979  16.6640225  36.4619129  48.2456895  16.0113629
  37.0929567  48.8845980  17.0472744  36.4503659  48.7339544  16.6237174
  46.6706205  43.9456102   4.9359495  46.2913013  43.1593239   4.9288785
  46.0072450  44.4942959   4.7931140  46.5164679  43.9100925   4.9140292
  38.8382866  48.9768622  17.9424716  38.7626537  48.3077432  18.4975504
  38.7672725  49.6786410  18.4565382  38.8163473  48.9813529  18.1001564
  39.6523505  33.7091926  18.4699733  40.1096119  34.4415900  18.5972525
  39.7279833  33.2858391  19.2286989  39.7314474  33.7549164  18.6000810
  31.8956496  33.9557746  19.5589177  31.3598685  33.3438104  19.8749944
  31.9574261  34.5305882  20.2122844  31.8252129  33.9504674  19.7024604
  44.1250831  26.8881801  12.3393576  44.2434399  27.3458265  11.6060879
  43.9513006  26.0827062  12.0529794  44.1170002  26.8375573  12.1894510
  39.4953113  47.4969621   8.7748322  40.2603004  47.2279264   8.4530986
  39.3931203  47.0119631   9.4918384  39.5934608  47.3859185   8.8328149
  37.5305883  35.6994030  15.3141557  36.7401957  35.5185490  15.6358893
  37.9266505  34.9220983  15.2971852  37.4722759  35.5581491  15.3594106
  42.0171773  44.5281804   0.7548271  42.7844758  44.5881929   0.3454123
  41.5703082  43.9562246   0.2704589  42.0645201  44.4518380   0.6225981
  42.9149569  43.3336460  13.0401003  42.2394571  43.1021692  13.5414390
  42.9241945  42.7257643  12.4143108  42.8168073  43.2095385  13.0217155
  40.0443713  38.1754289  19.7965056  39.9802854  39.0364246  19.6685193
  40.1840901  37.8586282  18.9960608  40.0559183  38.2554456  19.6593269
  44.9166303  46.1901593   5.2711181  44.9986141  46.9968579   4.9472632
  45.4016046  46.2097552   5.9951955  45.0003461  46.3122255   5.3298080
  38.7262807  40.8686428  13.9381259  38.3025056  41.0690928  13.2020277
  38.5507662  40.0215276  14.0505559  38.6373687  40.7735210  13.8454949
  34.0145252  41.3638480   9.3709232  34.1709871  41.2985283  10.2265224
  34.3545845  42.1387032   9.1587911  34.0878487  41.4687678   9.4663826
  40.5524396  40.7396363   8.2402595  41.0939942  40.2366745   8.7041215
  40.8670955  40.6861558   7.4292080  40.6788793  40.6575784   8.1886407
  38.7210846  46.1313715   5.5242623  38.7903666  45.2728253   5.6635623
  39.4999301  46.3485596   5.1961647  38.8463696  46.0366579   5.4959780
  41.7013666  35.6332668  18.2924895  41.9155635  34.9943582  17.7388249
  41.0847565  36.0778492  17.8632757  41.6418995  35.6042812  18.1475326
  43.1118334  48.5551416   9.7379116  42.7198125  48.2518131   9.0201982
  43.2671406  49.3920506   9.5484070  43.0771923  48.6335253   9.6035613
  30.5879513  38.5473430   9.6869999  30.9678478  38.9657975   9.0230266
  30.0134878  39.1286886   9.9938842  30.5590838  38.6951289   9.6346740
  43.8652754  37.2421733  19.2308202  43.0529435  36.9347624  19.3121375
  44.3242688  36.7620733  19.7950915  43.8133138  37.1258226  19.3262797
  43.2758008  45.1201405   9.6785147  42.9172663  45.2916048  10.4549179
  42.7896719  45.5814611   9.1213145  43.1516705  45.2140376   9.7110416
  41.0928394  28.7432604  13.2812238  40.2221952  28.7171325  13.2345548
  41.3468736  28.5709796  12.4638084  41.0021954  28.7142747  13.1532375
  38.0646374  40.8000571   2.2185381  38.3538899  41.5765453   2.4928955
  38.1518173  40.2889302   2.9199880  38.1200630  40.8392489   2.3627879
  38.1177535  30.7538832  14.7385708  37.6016023  30.0619024  14.8637287
  37.5571464  31.4209609  14.6848307  37.9584048  30.7502090  14.7491774
  40.1869768  31.2931792  16.5678561  39.8001521  31.3180824  17.3492091
  39.7002706  30.7273471  16.1153078  40.0582277  31.2127543  16.6166465
  46.1619748  37.8594447  15.1918263  45.7347356  37.7720796  14.4366363
  45.5245801  37.9672223  15.7773107  46.0049355  37.8627107  15.1663705
  39.8526910  28.1798778  18.8588821  40.4820028  28.7159078  18.5809891
  40.0212773  28.0876137  19.7102387  39.9704705  28.2460140  18.9437349
  39.6540825  32.9669972  21.1315233  40.4814254  32.6955121  21.1873847
  39.6748671  33.7630814  21.4879051  39.7793675  33.0449727  21.1930415
  44.4917004  46.7025109  17.2657704  45.2809382  46.3514174  17.3859786
  44.6660602  47.5161498  17.0034338  44.6337286  46.7710967  17.2445572
  34.2310315  40.1133835  14.3185493  33.3898321  40.0137709  14.5264387
  34.4400323  40.8829315  14.6699814  34.1375007  40.2125878  14.4012808
  31.7085882  37.7353372  12.1470244  31.3142579  37.8096384  11.3720354
  31.1525999  38.1211318  12.6978606  31.5688694  37.8035147  12.1137904
  43.3450828  30.7134666  11.8274123  43.5500422  30.6456974  12.6731120
  43.0177252  31.5193487  11.7595300  43.3266076  30.8220607  11.9433778
  38.0426980  38.0415234  13.5683091  37.7390117  37.4871223  14.1693498
  37.3406400  38.2207444  13.0811125  37.8943189  37.9860017  13.5852796
  37.0993077  35.3515754   8.1327793  37.3752811  34.6334667   7.7205360
  37.6991746  35.9500674   7.9248899  37.2286341  35.3336125   8.0408554
  36.1045331  45.2564955  18.2755189  35.9965686  45.2667017  19.1417247
  36.3141112  46.0819735  18.0860142  36.1195442  45.3806030  18.3759280
  46.5984516  31.2666430  11.3076888  45.9858830  31.7536832  11.6930620
  46.6948691  30.5909921  11.8514539  46.5222414  31.2384739  11.4455746
  40.6003597  33.0229271   6.4074388  41.0547344  33.1939832   7.1322232
  41.0743643  32.4097382   6.0072163  40.7371917  32.9580157   6.4548149
  34.1219123  42.5077597  15.7377126  33.5307056  43.1487096  15.7080141
  34.8840146  42.9315215  15.7108426  34.1467383  42.6653436  15.7292273
  34.5179745  33.6679595  16.4045144  34.9781227  33.7418525  17.1420267
  34.5635852  34.4660849  16.0544965  34.5930301  33.7973742  16.4617900
  36.1663095  34.3346290  20.9717171  35.7748660  33.6879637  21.4072949
  36.3348958  34.9257725  21.5911426  36.1334005  34.3260558  21.1279877
  50.2409544  42.3383367  16.7354404  50.2992668  42.7870016  17.4814381
  49.6076012  42.7482180  16.2984484  50.1560839  42.4657102  16.7806953
  43.8808639  47.9586909  13.1709151  43.6828327  48.4477723  12.4765362
  43.2596350  48.1628150  13.7493284  43.7596203  48.0603447  13.1532374
  37.9416617  39.7271806   7.5119395  38.6858662  40.1146082   7.7502345
  38.0877313  38.8829231   7.6759883  38.0727202  39.6602279   7.5713365
  39.8596193  31.5222065  12.5451256  39.0132238  31.6944873  12.4192606
  39.8567325  30.7171408  12.8817085  39.7343343  31.4283094  12.5762383
  40.9294493  35.2997279  13.4113314  40.4554447  34.7739041  13.9218625
  41.3012629  34.7526752  12.8428176  40.9144382  35.1413276  13.4028461
  31.3067523  37.2968786  18.7796860  32.1693136  37.1964495  18.6934190
  30.9759306  36.7163495  18.2182432  31.3852720  37.1960413  18.6842266
  47.1931224  40.3599655  14.8220095  46.9529446  39.5206070  14.8262521
  47.6723231  40.4399822  15.5460868  47.2283407  40.2481055  14.9294897
  42.8577993  36.1933834   6.4739068  42.3301011  36.2762578   5.7844777
  43.3173701  36.9351705   6.4703713  42.8479843  36.3154496   6.3713763
  49.1936411  37.1401112  12.7749354  48.9546181  37.0996946  11.9370138
  49.3570312  37.9872264  12.9015075  49.1826714  37.2593197  12.6702836
  45.7982441  41.5251061  18.7054399  46.5216640  41.0723588  18.5265419
  45.5332403  41.8055727  17.9226727  45.8663714  41.5002030  18.5633114
  34.6669309  36.1211235  15.4407278  34.0422379  36.1329627  14.8333231
  34.3314904  36.5971410  16.0898518  34.5254801  36.1929752  15.4463847
  34.8511058  34.4636353   1.4979963  34.5023862  35.1156079   1.9611512
  34.3707504  34.4493466   0.7703834  34.7281302  34.5579407   1.4591054
  31.3794985  44.1811695  16.8811042  30.8494909  43.4904134  16.9306017
  31.6520078  44.1721880  16.0523751  31.3419707  44.0778827  16.7658458
  42.4115075  44.7637397   5.6048725  43.1349274  45.2295510   5.4613298
  41.9715666  44.8311007   4.8546322  42.4530767  44.8421234   5.4733506
  41.5801230  41.6234940  16.8549414  40.9658223  41.0792990  17.1498049
  42.0968515  41.1099176  16.3755230  41.5656893  41.4671349  16.8273642
  40.8197527  42.6939210  14.5893713  40.3925135  42.0688928  14.1559148
  40.8122472  42.4114131  15.4152720  40.7556669  42.5591990  14.6473540
  33.9360055  37.7304383  17.6582147  34.0953541  36.9747707  18.0633869
  33.7552948  38.2795322  18.3122884  33.9325414  37.6998196  17.8144853
  41.8780358  29.8965618  18.2132936  41.3820919  30.0929292  17.5224503
  42.6349420  30.2958286  18.0421738  41.9167182  29.9843352  18.0853073
  39.1483237  33.5707964  14.8036247  39.1725724  33.0368076  14.1149027
  39.3994711  33.0625273  15.4661837  39.1893156  33.4168868  14.8000891
  26.6590827  40.8539459  14.2379391  26.5534276  40.8086303  13.3731475
  25.9091047  41.1993240  14.5193676  26.5326430  40.8980367  14.1516720
  35.4284559  32.2978782  14.1841991  35.4682931  32.7987989  14.8976698
  34.6034224  32.3889176  13.9147914  35.3124085  32.3860599  14.2492529
  37.6114172  41.8639522  22.2862286  36.7609803  42.0011237  22.4219930
  37.7742300  41.1303301  22.7309987  37.5098036  41.7753624  22.3717885
  36.8498923  38.8139292  16.4815890  36.0190852  38.9813110  16.2751138
  36.7950440  38.4375243  17.2664775  36.7188338  38.7829023  16.5664418
  35.2234967  37.0894884   7.0106008  35.3637928  37.5867348   7.7134649
  35.7217499  36.3881178   7.1520221  35.3176047  37.0596862   7.1357587
  35.2535189  37.9561995   4.3398584  35.8880268  38.5522420   4.2748046
  35.3360800  37.6565452   5.1544455  35.3591740  38.0002903   4.4501671
  48.2317755  40.4877472  17.2084949  48.8235595  41.1274723  17.2403147
  48.6676749  39.7900509  17.4977015  48.3836186  40.4795822  17.2565781
  36.8314172  33.8875970   4.3144026  37.1530013  33.4079053   3.6603289
  37.0941116  34.6975616   4.1234838  36.9180197  33.9365868   4.1899519
  40.0611145  44.9094845  17.8342843  39.5536236  45.4630691  18.2783473
  39.7637791  44.9703134  17.0161617  39.9416030  45.0001156  17.7791299
  42.2273327  33.2748164  16.6767506  42.6528398  32.8220691  16.0651032
  41.6130320  32.7208235  16.9532293  42.2001972  33.1262140  16.6272531
  31.7588177  40.1529835   7.6088131  32.2680406  40.7494343   7.9899436
  32.2322449  39.8855809   6.9264550  31.9031553  40.2015651   7.5642653
  42.6718925  48.8258102   5.7646786  41.9548235  48.6518964   5.2994023
  43.3225662  48.5910674   5.2322272  42.6620775  48.7653895   5.6176004
  40.6667550  29.7463264  10.0858083  40.0235868  29.5960910  10.6543221
  40.3266957  29.5005609   9.3207187  40.5212627  29.6875386  10.0561098
  45.2566896  37.7022691   9.5088091  44.5858086  38.2452393   9.3801157
  45.9506646  38.1717546   9.2669786  45.2595764  37.8520962   9.4543619
  39.3053630  49.8419403  14.7399849  39.0819284  49.0838232  15.1083876
  38.8163473  49.8717424  14.0180289  39.1997079  49.7341627  14.6876590
  45.4195024  34.1578574  12.4178464  45.7722634  33.7308297  13.0924263
  44.5609825  34.0729418  12.5479541  45.3444468  34.0823315  12.5373475
  34.1178709  36.7886094  10.4761311  33.3990698  37.2050227  10.7434174
  34.4891071  37.3540333   9.9252949  34.0670640  36.9335375  10.4344118
  43.4178289  37.4213943  16.3663307  43.3976217  37.2397238  17.2198086
  43.4657490  38.2925961  16.3422890  43.4212930  37.5230481  16.4886601
  41.3624619  44.0101135  22.2911783  41.3220474  43.3650812  21.7056939
  42.1747937  43.9537752  22.6037195  41.4767773  43.9060102  22.2508732
  37.9532087  50.0619861  12.1936934  37.5392485  49.3993991  11.8040776
  38.6379461  50.2097720  11.6732628  37.9930458  49.9860519  12.0593431
  41.3197381  49.2209946  12.9460551  40.9213664  49.3312216  12.1781371
  40.7048600  49.4292012  13.5287110  41.1696270  49.2683514  12.9191850
  39.8925283  35.8284094   5.8134690  39.2990122  36.1501090   5.2619257
  39.9300561  34.9825189   5.6055797  39.8099672  35.7508422   5.7017462
  46.8519084  29.2796986  13.3462777  46.3449948  28.5726126  13.2783954
  47.6486517  28.9490175  13.4763853  46.8946323  29.1270138  13.3561772
  42.7683100  35.7863598   9.2436441  42.5396793  35.8096300   8.4014799
  43.0281176  34.9621065   9.3631451  42.7729288  35.6679678   9.1361638
  37.0502328  37.6398071  18.8461541  36.5381231  37.0319254  19.2046572
  36.8781824  38.3554664  19.3135517  36.9491965  37.6561371  18.9677764
  35.8227862  34.3240145  10.5390636  36.2985228  34.6857225   9.9040817
  35.3216462  34.9796612  10.8190779  35.8193221  34.4734334  10.4867377
  49.0539224  43.7961913   6.3303641  49.4372829  44.5453269   6.5601738
  48.2583337  44.0427733   6.0715630  48.9933006  43.9431607   6.3261215
  40.9271398  35.5622316  21.2863796  41.4842828  35.3336126  20.6542262
  40.6032463  36.3227982  21.0099009  40.9617808  35.6406153  21.1520293
  28.7970107  38.9882512  16.7552392  28.2496827  38.3183158  16.8733261
  29.5862485  38.6212360  16.8195860  28.8322291  38.8347499  16.7821093
  38.6454516  38.6489969  22.2515804  39.3965843  38.9641646  22.5655358
  38.8377092  38.4469140  21.4249725  38.7845930  38.6657351  22.1759199
  37.8654515  36.4681345   3.9064020  38.2453480  36.4860974   3.1215135
  37.1247111  36.9135333   3.7854868  37.8123353  36.5363119   3.7727588
  45.4939806  34.7763536   9.4939599  45.4934032  34.6212192  10.3523875
  45.2895986  35.6226523   9.4380985  45.4639584  34.8784157   9.6127538
  27.5557077  38.2003320  13.9098416  27.3778838  37.7479929  14.6353331
  27.2676099  39.0029482  14.0936893  27.4870030  38.2525878  14.0441918
  43.2180658  39.4561038  13.1475806  43.7134323  38.7384033  13.1079826
  42.4080433  39.1531835  13.0330293  43.1724551  39.3058684  13.1249532
  38.6639269  43.3058851   5.2972810  37.8550592  42.9825524   5.2506120
  39.1714178  42.5992073   5.2301059  38.6188936  43.1540167   5.2803105
  29.2929547  40.7331044  11.0220175  28.4275066  40.7216734  10.9102946
  29.3928362  40.5461267  11.8691314  29.1803713  40.7037105  11.1309119
  45.2832477  42.2064725  15.8352935  45.7087548  41.6839147  15.2823360
  44.9189396  42.8045562  15.3141558  45.2919079  42.2174952  15.6761944
  34.9186556  50.5028943  14.5950280  35.2333115  51.3165331  14.6028062
  35.3279970  50.1179161  15.2632439  35.0254654  50.5657645  14.6954372
  41.8711076  45.9198989  12.1654092  42.3422254  46.6339252  12.3344077
  42.2071255  45.3197739  12.7013962  41.9906191  45.9370454  12.2686468
  38.7880571  30.6926460  19.1212187  38.9208477  29.8957453  19.4493162
  39.1725724  31.2192863  19.7010462  38.8636900  30.6526377  19.2555690
  42.5085022  45.7116923  18.9281785  41.9605968  45.0874807  18.6601850
  42.9698051  45.9011196  18.2125864  42.4952232  45.6475974  18.7832216
  41.8612926  27.6156786  15.7193280  41.0558890  27.5054516  16.0361118
  41.7319662  27.7169242  14.8623146  41.7233059  27.6140456  15.6401320
  45.3178887  33.7802278  16.3132977  44.7341876  34.2811484  15.9010544
  45.6383181  33.2731834  15.6797300  45.2792062  33.7794113  16.1591484
  37.8573686  32.6942873   6.5891652  38.6789380  32.8641186   6.3473347
  37.3943337  32.8490134   5.8657949  37.9104848  32.7424606   6.4463296
  36.4469018  30.6885635  17.3690081  36.9913431  30.3476762  17.9594422
  36.5005954  31.5471097  17.5111365  36.5358137  30.7640894  17.4771954
  32.2599577  44.4502051  14.2428888  32.8644434  44.4097885  13.6142709
  32.0526889  45.2973203  14.2732944  32.3188474  44.5690054  14.1545005
  42.0743349  46.7167996  15.4591126  42.8941722  46.5730962  15.7207421
  41.7937426  47.3414195  16.0007564  42.1540092  46.7878348  15.5779065
  27.4950859  43.4336669  14.1127812  27.3975137  42.6232940  14.4217868
  28.2779729  43.4128462  13.7274080  27.5966995  43.3103759  14.1014675
  58.5456999  54.3732848   8.4234002  58.5151003  55.2277485   8.5952272
  59.1438348  54.0728140   8.9820146  58.6294157  54.4549344   8.5308805
  51.7456684  53.4608499  13.1786933  50.8894579  53.6216997  13.2296049
  51.7924338  52.5900563  13.1991994  51.6255795  53.3559301  13.1892999
  46.1297824  62.9971217   8.9424164  45.3780723  62.6186755   8.7140209
  46.5783835  63.0289650   8.1942975  46.0847490  62.9456824   8.7981666
  55.0550400  59.7295025  22.7847389  55.7617168  59.2347055  22.9134323
  55.2438336  60.1704106  22.0550047  55.1878306  59.7213375  22.6956434
  54.5908505  55.5200543  15.8218584  55.1364465  56.1985629  15.8812554
  54.5325381  55.3788004  14.9620166  54.6624419  55.5992544  15.7030645
  47.7082580  63.0089609  11.2086937  47.8092943  62.1989963  11.5184064
  47.1124325  62.9146555  10.5786615  47.6355118  62.8754637  11.1613175
  47.5483319  67.9267198  12.6101793  48.1920775  68.3680362  12.9997951
  47.8739575  67.1220624  12.5232052  47.6915148  67.8732393  12.6547270
  40.9047624  59.0309895  10.8339270  40.6697809  58.1977548  10.7271539
  41.0433265  59.3114561  10.0200471  40.8903287  58.9493399  10.6981625
  43.2037712  51.1995626  13.7323578  42.5842743  50.6088273  13.5633593
  43.1021575  51.7907061  13.0987901  43.0975387  51.1999709  13.6128568
  50.3005607  52.9395168   8.0656041  50.9985772  53.1183295   8.5577504
  50.6157940  52.4165507   7.4426431  50.4500944  52.8888940   8.0458051
  42.9306845  54.7447908  15.9767147  42.8065541  55.3310353  16.6116966
  43.5825129  54.2508103  16.2779422  43.0080494  54.7586712  16.1153076
  50.4893543  59.3265613   8.0535833  50.9287178  58.7182713   8.4990605
  50.3398205  58.9472986   7.2821298  50.5315008  59.1804084   8.0055000
  47.9565186  57.9209625  15.2554658  48.6014188  57.4282068  14.9365607
  48.1966963  58.0634411  16.0820736  48.0875771  57.8687067  15.3304191
  50.4951277  60.7664531  14.9061551  50.7774520  59.9715936  14.6848307
  51.2237437  61.2445118  14.9266612  50.6440841  60.7199128  14.8764566
  48.4732471  48.3087565  12.1477316  48.1435801  48.7598708  11.4781015
  47.7977473  48.2303728  12.6950322  48.3242907  48.3638700  12.1300539
  55.6808879  44.2973087  10.3926926  55.3662320  44.9876566  10.8247349
  55.1635820  44.2417870   9.6912427  55.5573349  44.3907976  10.3523876
  60.4769365  59.8723893  11.8797381  59.6467068  60.0834536  12.0430798
  60.4278618  59.0460947  11.6039665  60.3476101  59.7813499  11.8634747
  42.4664949  63.9095566  12.1095477  41.9832527  64.6346056  12.0855060
  43.2788267  64.2071696  12.2205634  42.5155696  64.0597920  12.1222756
  48.5379103  62.7027747  14.7145291  48.0206044  62.3435162  14.1106599
  49.2353494  62.1789921  14.7251357  48.5644684  62.5725435  14.6275550
  52.1942695  63.1522561  20.6761464  52.2826041  62.9648701  21.5239674
  52.6232407  62.5059991  20.2766311  52.2704797  63.0285569  20.7433216
  49.7613155  62.4353721  19.6579126  49.1983989  62.0226331  20.1818787
  50.5234178  62.3606627  20.0772270  49.7907603  62.3631122  19.7972127
  46.6788425  46.3699853   7.6300264  47.4334393  46.7378170   7.3917314
  46.5015959  46.7439407   8.3979443  46.7642903  46.4798041   7.7085152
  45.3209146  64.4251742  12.2615756  46.0229725  63.9103731  12.3188513
  45.2406629  64.7525894  13.0662632  45.4132906  64.3965968  12.3888549
  59.9723324  52.5194293  15.6747803  59.1351745  52.5896481  15.9095397
  59.9411554  52.5218788  14.8022105  59.8441606  52.5304520  15.5807351
  45.0345489  48.7770172   4.3278377  44.8521063  48.9942053   3.5019369
  45.8971102  48.8909185   4.3836991  45.1350079  48.8260070   4.2132864
  44.6459921  60.6158094  11.7701364  45.4848821  60.8481027  11.8175126
  44.6771691  59.7462406  11.7008400  44.7741639  60.5215041  11.7666009
  45.2712624  61.0358969  16.0714670  45.8110849  60.8930100  16.7418042
  44.5882571  61.4355720  16.4398696  45.2504778  61.0738640  16.2249092
  50.7145209  45.7796583   7.3627400  51.4431369  45.6012538   6.9165557
  50.8040102  46.6214662   7.5734578  50.8351871  45.8780461   7.3280918
  54.6953509  56.7149970  11.2659694  55.4511024  57.1481484  11.3048603
  54.8015834  56.0654740  11.8394330  54.8223680  56.6827454  11.3557720
  57.7333680  60.5423247  12.0162097  57.2968912  60.5459990  12.7721069
  57.3996596  61.2228746  11.5841675  57.6196300  60.6435703  12.0642930
  40.6749770  57.2559260  16.2249091  40.4088185  56.4398377  16.3840082
  40.6888334  57.3012416  15.3544607  40.6374492  57.1416165  16.1202573
  57.6531163  47.5837075  14.2591525  58.2957072  47.6535180  14.8453441
  57.9054184  46.9166298  13.7571067  57.7853295  47.4963424  14.2718804
  44.5807516  52.0544345   2.8400850  43.8665694  51.7682524   3.2523282
  45.0651485  52.3940970   3.4807237  44.5466880  52.0625994   2.9956485
  52.4633147  64.4941682  16.9871703  51.6648393  64.2541182  17.2445572
  52.9119159  64.5456075  17.7338751  52.4107759  64.4664073  17.1356627
  60.8678027  57.2604167  10.9081735  61.5294461  56.6994836  10.8077643
  60.2269439  56.7656198  11.2334426  60.8706894  57.1040576  10.9414075
  41.0843183  58.0418040  13.5060836  40.9018756  58.0164926  12.6533128
  41.8192852  58.5116977  13.5449745  41.1657247  58.1079402  13.3858754
  57.1542857  58.2769550  10.6493723  57.3898447  58.4214748   9.8220574
  57.3032421  59.0411958  11.0425237  57.2108661  58.4108604  10.5857327
  54.1965203  54.9636118   9.1686907  54.2912058  55.7025412   9.6226533
  53.5724047  54.5353594   9.6021472  54.1174233  55.0097439   9.2995055
  52.4517677  58.1422331  19.8177188  53.0256539  57.5049575  19.9725752
  52.3732481  58.1426413  18.9486846  52.5250912  58.0487442  19.7123599
  41.0514094  54.9211540  13.6559902  41.6287596  54.7847991  14.2952148
  40.3528155  54.4647324  13.9105487  41.0335115  54.8333806  13.7882192
  47.8081396  56.5745596  11.8698386  47.5500640  55.7417331  11.8429685
  47.8629879  56.8003209  11.0290886  47.7781174  56.4843367  11.7418522
  52.8882446  48.6774047  11.9702478  52.1838773  48.1883232  12.1286397
  52.9367420  48.6896521  11.0990923  52.7912497  48.6063695  11.8641818
  46.7816108  54.1283358  12.3563280  46.2065699  54.2875527  12.9927241
  46.4051784  53.4918767  11.8931731  46.6418920  54.0581171  12.3817839
  50.4489396  52.6006708  17.2155659  50.0603829  52.1760925  16.5607850
  49.7844095  52.8488857  17.7232685  50.2936324  52.5745429  17.1943527
  60.0912666  52.3581712   9.9903489  59.8349230  51.5461654   9.8001372
  60.9341980  52.3659279   9.7633676  60.1778691  52.2393710   9.9288306
  36.5272927  53.7723433  10.3707721  36.6133179  53.3955301  11.1521251
  37.1548724  53.3983879   9.8927679  36.6329478  53.6608915  10.4153198
  54.2715758  46.2981336  14.7279643  54.6526270  45.6159508  15.1147517
  53.4679042  46.0090939  14.5455307  54.2092220  46.1548385  14.7583699
  57.7737825  59.5131308  19.8262041  57.5376462  58.6819373  19.7074102
  58.4181054  59.4616916  20.4116886  57.8332496  59.3828996  19.8947935
  47.4236243  60.3026830  10.5404778  48.0610190  60.0638577  11.0856571
  47.8491315  60.5063989   9.8057938  47.5812409  60.2977840  10.5121935
  42.1148885  62.5415166  14.4239082  42.1553031  62.8130017  13.5958861
  42.6743409  63.0657074  14.8396869  42.2032231  62.6590921  14.3630970
  48.0639058  55.5229119   4.8779667  48.4484211  55.3036826   5.6296212
  47.8150678  56.3492065   5.0080744  48.0841131  55.6127266   5.0080744
  58.7974246  59.2975757  15.8890336  58.4920063  60.0303814  16.2503651
  58.0780461  58.8913687  15.6083122  58.6461588  59.3457490  15.9003473
  49.8057715  60.7799252  12.2198564  49.8796723  60.6174424  13.0740414
  50.6227221  60.9689442  11.9759046  49.9374074  60.7835995  12.3096590
  64.4976038  55.9368758  15.2158680  64.4300538  55.9564717  14.3461267
  64.4831700  56.7799085  15.4414351  64.4854794  56.0642492  15.1211157
  43.5663472  61.1257115   9.2493008  42.7401589  61.3718852   9.1227286
  43.6275463  61.0469196  10.1155066  43.4537639  61.1502064   9.3581952
  45.7839495  47.1926056  10.2088448  44.9161921  47.2648656  10.2746057
  46.0714700  47.9948135  10.3976423  45.6979243  47.3220203  10.2463214
  54.9072384  47.3403916  18.5399770  55.6525976  47.1513726  18.1263195
  54.4909689  47.8662153  17.9813626  54.9557358  47.3906061  18.3964343
  62.2834655  54.7113144  13.4905274  62.8342577  54.0781213  13.7302367
  62.2678770  55.2428537  14.1820779  62.3619851  54.6962092  13.6284133
  48.9357046  58.5451741  18.0365168  48.4368740  59.2567509  18.1150056
  49.7457270  58.8652408  17.9983330  48.9813153  58.6978590  18.0421736
  46.2868216  65.7201378  10.0172187  46.0668512  65.4298733  10.8098854
  46.0662738  65.0616333   9.4890100  46.2215810  65.5801086  10.0561096
  45.1985163  57.8074694  12.2827889  44.9098412  57.1812166  12.8173616
  46.0668512  57.7494982  12.3492569  45.2845415  57.7062239  12.3718843
  55.9863061  52.9509478  12.6009871  55.6427827  52.2299813  12.9517120
  56.0856104  52.7423329  11.7588229  55.9505104  52.8133681  12.5281551
  45.4017437  59.4469945   8.2070254  46.1563405  59.8282984   8.4205716
  44.8088049  59.8981089   8.6616950  45.4254150  59.5698773   8.3053132
  46.7215663  60.6178507  13.5810369  46.1996417  60.7578798  14.2662234
  47.1089684  59.8589171  13.7712487  46.7019364  60.5264031  13.7111446
  43.7106847  50.6684315   7.6505324  43.4231643  50.2985586   6.9137271
  44.3977316  51.1379171   7.3889029  43.7695745  50.6831285   7.5020400
  48.1481989  57.6482526   8.9791860  47.9524772  58.2557260   8.3852163
  48.3716335  56.9550470   8.4983534  48.1516630  57.6360051   8.8207941
  46.5460519  54.5337264   9.0972729  47.2683171  54.6978422   8.6376535
  46.0668512  55.2546928   8.9912068  46.5824250  54.6635493   9.0138343
  54.5054027  50.8701062  14.4769414  53.6665127  50.8962341  14.2407677
  54.5758394  51.5171798  15.0574760  54.3922420  50.9697188  14.5278530
  52.9523305  47.7686439   9.2097030  53.6549658  47.5694188   8.7316988
  52.6867494  46.9962382   9.5165873  53.0169937  47.6249405   9.1842471
  58.3811550  56.0769049  11.7630655  58.2945525  56.2324475  12.6165434
  57.9262030  56.7207125  11.3890060  58.3014807  56.1944804  11.8337762
  41.2835042  51.4465528   8.4990605  41.3851179  52.2491689   8.8271580
  42.0790929  51.2452864   8.2013686  41.4162948  51.5351427   8.5025960
  42.0998774  51.5612706  16.2411727  41.9584266  50.7096647  16.3656235
  42.3839338  51.6041367  15.4173933  42.1206620  51.4412456  16.1379351
  52.2537367  53.3979796  10.3856215  52.0072081  53.3175547  11.2193004
  52.5822490  52.6133264  10.1918742  52.2658610  53.2706062  10.4803738
  56.1485415  60.1063156  14.1742996  56.0099775  60.8044201  14.6791738
  55.3685413  59.9511812  13.8179178  56.0128642  60.1863322  14.1969270
  54.4863501  56.4059531  20.4265378  54.4811539  55.5339348  20.4307804
  55.1924494  56.6047700  19.9534833  54.5908504  56.3063405  20.3572413
  50.3854311  55.3326683  17.5804330  49.6377625  55.5257698  17.1752608
  50.5395836  54.5071903  17.3428451  50.2976739  55.2391795  17.4849735
  47.2862149  64.3239287  16.6640225  47.4351713  63.7642203  16.0113629
  48.0662151  64.4031288  17.0472744  47.4236242  64.2524852  16.6237174
  49.8115449  64.4953930  17.9424716  49.7359121  63.8262740  18.4975504
  49.7405309  65.1971718  18.4565382  49.7896056  64.4998837  18.1001564
  50.6256088  49.2277234  18.4699733  51.0828702  49.9601208  18.5972525
  50.7012417  48.8043699  19.2286989  50.7047058  49.2734472  18.6000810
  55.0983414  42.4067109  12.3393576  55.2166982  42.8643572  11.6060879
  54.9245590  41.6012370  12.0529794  55.0902585  42.3560881  12.1894510
  48.5038466  51.2179338  15.3141557  47.7134541  51.0370798  15.6358893
  48.8999089  50.4406290  15.2971852  48.4455342  51.0766799  15.3594106
  53.8882152  58.8521768  13.0401003  53.2127154  58.6207000  13.5414390
  53.8974529  58.2442951  12.4143108  53.7900657  58.7280693  13.0217155
  51.0176296  53.6939597  19.7965056  50.9535438  54.5549553  19.6685193
  51.1573484  53.3771590  18.9960608  51.0291766  53.7739764  19.6593269
  49.6995390  56.3871736  13.9381259  49.2757639  56.5876235  13.2020277
  49.5240245  55.5400584  14.0505559  49.6106271  56.2920518  13.8454949
  49.2007084  67.9022249  16.4002716  49.6903014  67.2033039  16.2178381
  48.6291316  67.6046119  16.9878774  49.1891614  67.7548473  16.4603757
  44.9877835  56.8823788   9.3709232  45.1442454  56.8170591  10.2265224
  45.3278428  57.6572340   9.1587911  45.0611070  56.9872986   9.4663826
  51.5256980  56.2581671   8.2402595  52.0672525  55.7552052   8.7041215
  51.8403539  56.2046866   7.4292080  51.6521377  56.1761092   8.1886407
  55.3974087  60.4684319  25.3529507  56.2108953  60.1969468  25.5134640
  55.2369054  60.1691859  24.5489703  55.4944036  60.3839245  25.2574913
  52.6746249  51.1517976  18.2924895  52.8888219  50.5128890  17.7388249
  52.0580148  51.5963800  17.8632757  52.6151578  51.1228120  18.1475326
  41.5612097  54.0658738   9.6869999  41.9411062  54.4843283   9.0230266
  40.9867462  54.6472194   9.9938842  41.5323422  54.2136597   9.6346740
  54.8385337  52.7607041  19.2308202  54.0262019  52.4532931  19.3121375
  55.2975272  52.2806041  19.7950915  54.7865722  52.6443533  19.3262797
  52.0660978  44.2617912  13.2812238  51.1954536  44.2356633  13.2345548
  52.3201319  44.0895104  12.4638084  51.9754538  44.2328055  13.1532375
  49.0910118  46.2724140  14.7385708  48.5748607  45.5804331  14.8637287
  48.5304047  46.9394917  14.6848307  48.9316632  46.2687398  14.7491774
  51.1602352  46.8117100  16.5678561  50.7734105  46.8366132  17.3492091
  50.6735289  46.2458779  16.1153078  51.0314861  46.7312851  16.6166465
  55.4095331  61.5290609  20.6252348  56.0475052  61.0350805  20.2914804
  54.7669423  61.4568009  20.0404574  55.4089558  61.4449618  20.4894703
  57.1352331  53.3779755  15.1918263  56.7079939  53.2906104  14.4366363
  56.4978384  53.4857530  15.7773107  56.9781939  53.3812415  15.1663705
  50.8259494  43.6984086  18.8588821  51.4552612  44.2344386  18.5809891
  50.9945356  43.6061444  19.7102387  50.9437288  43.7645448  18.9437349
  55.4649588  62.2210417  17.2657704  56.2541966  61.8699482  17.3859786
  55.6393186  63.0346806  17.0034338  55.6069870  62.2896274  17.2445572
  45.2042898  55.6319143  14.3185493  44.3630905  55.5323017  14.5264387
  45.4132906  56.4014623  14.6699814  45.1107591  55.7311186  14.4012808
  42.6818465  53.2538680  12.1470244  42.2875163  53.3281692  11.3720354
  42.1258582  53.6396626  12.6978606  42.5421278  53.3220455  12.1137904
  54.3183412  46.2319974  11.8274123  54.5233005  46.1642282  12.6731120
  53.9909836  47.0378795  11.7595300  54.2998660  46.3405914  11.9433778
  49.0159563  53.5600542  13.5683091  48.7122701  53.0056530  14.1693498
  48.3138984  53.7392752  13.0811125  48.8675773  53.5045325  13.5852796
  48.0725660  50.8701062   8.1327793  48.3485395  50.1519975   7.7205360
  48.6724330  51.4685982   7.9248899  48.2018925  50.8521433   8.0408554
  47.0777914  60.7750263  18.2755189  46.9698269  60.7852325  19.1417247
  47.2873696  61.6005043  18.0860142  47.0928025  60.8991338  18.3759280
  57.5717100  46.7851738  11.3076888  56.9591413  47.2722140  11.6930620
  57.6681275  46.1095229  11.8514539  57.4954997  46.7570047  11.4455746
  51.5736181  48.5414579   6.4074388  52.0279927  48.7125140   7.1322232
  52.0476226  47.9282690   6.0072163  51.7104501  48.4765465   6.4548149
  45.0951706  58.0262905  15.7377126  44.5039639  58.6672404  15.7080141
  45.8572730  58.4500523  15.7108426  45.1199967  58.1838744  15.7292273
  45.4912329  49.1864903  16.4045144  45.9513811  49.2603833  17.1420267
  45.5368436  49.9846157  16.0544965  45.5662884  49.3159050  16.4617900
  61.2142128  57.8568675  16.7354404  61.2725251  58.3055324  17.4814381
  60.5808595  58.2667488  16.2984484  61.1293423  57.9842410  16.7806953
  54.8541222  63.4772217  13.1709151  54.6560911  63.9663031  12.4765362
  54.2328933  63.6813458  13.7493284  54.7328787  63.5788755  13.1532374
  48.9149201  55.2457114   7.5119395  49.6591246  55.6331390   7.7502345
  49.0609897  54.4014539   7.6759883  49.0459786  55.1787587   7.5713365
  50.8328776  47.0407373  12.5451256  49.9864821  47.2130180  12.4192606
  50.8299909  46.2356716  12.8817085  50.7075926  46.9468402  12.5762383
  51.9027077  50.8182587  13.4113314  51.4287031  50.2924349  13.9218625
  52.2745212  50.2712060  12.8428176  51.8876966  50.6598584  13.4028461
  58.1663807  55.8784963  14.8220095  57.9262030  55.0391378  14.8262521
  58.6455814  55.9585129  15.5460868  58.2015991  55.7666362  14.9294897
  53.8310576  51.7119142   6.4739068  53.3033595  51.7947886   5.7844777
  54.2906284  52.4537013   6.4703713  53.8212427  51.8339804   6.3713763
  60.1668994  52.6586420  12.7749354  59.9278764  52.6182254  11.9370138
  60.3302895  53.5057572  12.9015075  60.1559298  52.7778505  12.6702836
  56.7715024  57.0436369  18.7054399  57.4949223  56.5908896  18.5265419
  56.5064987  57.3241035  17.9226727  56.8396298  57.0187338  18.5633114
  45.6401893  51.6396543  15.4407278  45.0154963  51.6514935  14.8333231
  45.3047488  52.1156718  16.0898518  45.4987385  51.7115060  15.4463847
  45.8243641  49.9821661   1.4979963  45.4756446  50.6341386   1.9611512
  45.3440087  49.9678774   0.7703834  45.7013885  50.0764715   1.4591054
  42.3527568  59.6997003  16.8811042  41.8227493  59.0089442  16.9306017
  42.6252662  59.6907188  16.0523751  42.3152291  59.5964135  16.7658458
  52.5533814  57.1420247  16.8549414  51.9390807  56.5978298  17.1498049
  53.0701099  56.6284484  16.3755230  52.5389476  56.9856657  16.8273642
  51.7930111  58.2124517  14.5893713  51.3657719  57.5874236  14.1559148
  51.7855055  57.9299439  15.4152720  51.7289252  58.0777298  14.6473540
  44.9092638  53.2489691  17.6582147  45.0686125  52.4933015  18.0633869
  44.7285532  53.7980630  18.3122884  44.9057997  53.2183504  17.8144853
  52.8512941  45.4150926  18.2132936  52.3553502  45.6114600  17.5224503
  53.6082003  45.8143594  18.0421738  52.8899766  45.5028660  18.0853073
  50.1215821  49.0893272  14.8036247  50.1458308  48.5553384  14.1149027
  50.3727294  48.5810581  15.4661837  50.1625739  48.9354176  14.8000891
  37.6323411  56.3724767  14.2379391  37.5266860  56.3271611  13.3731475
  36.8823630  56.7178548  14.5193676  37.5059013  56.4165675  14.1516720
  46.4017143  47.8164090  14.1841991  46.4415515  48.3173297  14.8976698
  45.5766808  47.9074484  13.9147914  46.2856669  47.9045907  14.2492529
  47.8231506  54.3324600  16.4815890  46.9923436  54.4998418  16.2751138
  47.7683023  53.9560551  17.2664775  47.6920921  54.3014331  16.5664418
  46.1967550  52.6080192   7.0106008  46.3370511  53.1052656   7.7134649
  46.6950083  51.9066486   7.1520221  46.2908631  52.5782170   7.1357587
  46.2267773  53.4747303   4.3398584  46.8612852  54.0707728   4.2748046
  46.3093383  53.1750760   5.1544455  46.3324323  53.5188211   4.4501671
  59.2050338  56.0062780  17.2084949  59.7968179  56.6460031  17.2403147
  59.6409333  55.3085817  17.4977015  59.3568770  55.9981130  17.2565781
  47.8046755  49.4061278   4.3144026  48.1262596  48.9264361   3.6603289
  48.0673699  50.2160924   4.1234838  47.8912781  49.4551176   4.1899519
  51.0343728  60.4280152  17.8342843  50.5268819  60.9815999  18.2783473
  50.7370374  60.4888442  17.0161617  50.9148613  60.5186464  17.7791299
  53.2005910  48.7933472  16.6767506  53.6260982  48.3405998  16.0651032
  52.5862903  48.2393543  16.9532293  53.1734556  48.6447448  16.6272531
  42.7320760  55.6715143   7.6088131  43.2412990  56.2679651   7.9899436
  43.2055033  55.4041117   6.9264550  42.8764136  55.7200959   7.5642653
  51.6400133  45.2648572  10.0858083  50.9968451  45.1146218  10.6543221
  51.2999540  45.0190917   9.3207187  51.4945211  45.2060694  10.0561098
  56.2299480  53.2207999   9.5088091  55.5590670  53.7637701   9.3801157
  56.9239230  53.6902854   9.2669786  56.2328347  53.3706270   9.4543619
  50.2786213  65.3604711  14.7399849  50.0551868  64.6023540  15.1083876
  49.7896057  65.3902732  14.0180289  50.1729662  65.2526935  14.6876590
  56.3927607  49.6763882  12.4178464  56.7455217  49.2493605  13.0924263
  55.5342409  49.5914726  12.5479541  56.3177052  49.6008623  12.5373475
  45.0911292  52.3071402  10.4761311  44.3723281  52.7235535  10.7434174
  45.4623654  52.8725641   9.9252949  45.0403224  52.4520683  10.4344118
  54.3910873  52.9399251  16.3663307  54.3708800  52.7582546  17.2198086
  54.4390074  53.8111269  16.3422890  54.3945514  53.0415789  16.4886601
  52.3357203  59.5286443  22.2911783  52.2953058  58.8836120  21.7056939
  53.1480521  59.4723060  22.6037195  52.4500356  59.4245410  22.2508732
  48.9264670  65.5805169  12.1936934  48.5125069  64.9179299  11.8040776
  49.6112045  65.7283028  11.6732628  48.9663042  65.5045827  12.0593431
  52.2929964  64.7395254  12.9460551  51.8946248  64.8497524  12.1781371
  51.6781184  64.9477320  13.5287110  52.1428854  64.7868822  12.9191850
  50.8657867  51.3469402   5.8134690  50.2722706  51.6686398   5.2619257
  50.9033144  50.5010497   5.6055797  50.7832256  51.2693730   5.7017462
  57.8251667  44.7982294  13.3462777  57.3182532  44.0911434  13.2783954
  58.6219101  44.4675483  13.4763853  57.8678906  44.6455446  13.3561772
  53.7415683  51.3048906   9.2436441  53.5129376  51.3281608   8.4014799
  54.0013759  50.4806373   9.3631451  53.7461871  51.1864986   9.1361638
  46.7960446  49.8425453  10.5390636  47.2717812  50.2042533   9.9040817
  46.2949045  50.4981920  10.8190779  46.7925805  49.9919641  10.4867377
  51.9003982  51.0807624  21.2863796  52.4575412  50.8521434  20.6542262
  51.5765047  51.8413290  21.0099009  51.9350392  51.1591461  21.1520293
  48.8387099  51.9866652   3.9064020  49.2186064  52.0046282   3.1215135
  48.0979695  52.4320641   3.7854868  48.7855937  52.0548427   3.7727588
  56.4672389  50.2948844   9.4939599  56.4666616  50.1397500  10.3523875
  56.2628569  51.1411831   9.4380985  56.4372167  50.3969464   9.6127538
  38.5289660  53.7188628  13.9098416  38.3511421  53.2665237  14.6353331
  38.2408682  54.5214790  14.0936893  38.4602613  53.7711186  14.0441918
  54.1913241  54.9746345  13.1475806  54.6866907  54.2569341  13.1079826
  53.3813017  54.6717143  13.0330293  54.1457135  54.8243992  13.1249532
  56.2565060  57.7250033  15.8352935  56.6820132  57.2024455  15.2823360
  55.8921980  58.3230870  15.3141558  56.2651663  57.7360260  15.6761944
  45.8919140  66.0214250  14.5950280  46.2065699  66.8350639  14.6028062
  46.3012553  65.6364469  15.2632439  45.9987238  66.0842953  14.6954372
  52.8443660  61.4384297  12.1654092  53.3154838  62.1524560  12.3344077
  53.1803838  60.8383047  12.7013962  52.9638775  61.4555762  12.2686468
  54.9320644  63.0485611  24.3446164  55.0417610  62.2594171  24.7002911
  55.2611541  62.9591547  23.5420502  54.9973050  62.9191464  24.2788555
  53.4817606  61.2302231  18.9281785  52.9338552  60.6060115  18.6601850
  53.9430635  61.4196503  18.2125864  53.4684815  61.1661282  18.7832216
  52.8345510  43.1342094  15.7193280  52.0291473  43.0239824  16.0361118
  52.7052245  43.2354550  14.8623146  52.6965643  43.1325764  15.6401320
  56.2911470  49.2987586  16.3132977  55.7074459  49.7996792  15.9010544
  56.6115764  48.7917142  15.6797300  56.2524646  49.2979421  16.1591484
  48.8306269  48.2128181   6.5891652  49.6521964  48.3826494   6.3473347
  48.3675920  48.3675442   5.8657949  48.8837432  48.2609914   6.4463296
  47.4201601  46.2070943  17.3690081  47.9646014  45.8662070  17.9594422
  47.4738537  47.0656404  17.5111365  47.5090721  46.2826202  17.4771954
  43.2332160  59.9687359  14.2428888  43.8377017  59.9283193  13.6142709
  43.0259473  60.8158511  14.2732944  43.2921057  60.0875361  14.1545005
  53.0475932  62.2353304  15.4591126  53.8674306  62.0916270  15.7207421
  52.7670010  62.8599503  16.0007564  53.1272676  62.3063656  15.5779065
  38.4683442  58.9521976  14.1127812  38.3707720  58.1418248  14.4217868
  39.2512312  58.9313770  13.7274080  38.5699579  58.8289067  14.1014675
  53.9039428  70.2633216  15.9767147  53.7798125  70.8495661  16.6116966
  54.5557713  69.7693411  16.2779422  53.9813077  70.2772020  16.1153076
  57.3420636  70.1812637  21.3896172  57.5141140  70.0718532  22.2381453
  57.8789994  70.8267042  21.1527364  57.4465640  70.2604639  21.4801268
  56.3980959  66.3122946  18.8716099  55.7052756  65.8419926  19.1176831
  57.0141287  66.0861251  19.4457806  56.3865489  66.2090078  18.9925252
  55.1221518  70.2788350  20.0142944  55.8461491  70.2641381  20.5007839
  55.2237655  70.9883706  19.5164913  55.2439727  70.3813054  20.0121731
  62.4966468  73.7587435  24.8791891  61.7039449  74.0730947  25.0644511
  62.6115395  73.9738903  24.0412676  62.3961878  73.8371272  24.7830226
  61.4221980  68.1192016  17.2155659  61.0336413  67.6946233  16.5607850
  60.7576678  68.3674165  17.7232685  61.2668908  68.0930737  17.1943527
  59.2040182  64.3220843  24.5942251  58.8893623  65.0920405  24.3311814
  58.8830115  63.7591099  24.0094478  59.1099101  64.3531111  24.4683601
  65.8804968  62.8589223  18.5399770  66.6258560  62.6699034  18.1263195
  65.4642272  63.3847461  17.9813626  65.9289942  62.9091369  18.3964343
  58.8356687  66.9218094  23.3327466  58.0256463  67.2275873  23.2217308
  59.3131374  67.6423676  23.4480050  58.7860166  67.0732695  23.3334537
  55.1700719  72.4580644  18.2026869  55.6821816  72.7364897  17.5535628
  54.8837062  73.1969938  18.5689682  55.2035582  72.6082998  18.1616747
  58.6884445  64.5507033  18.2627910  58.4967642  64.5662167  19.1127334
  59.5383041  64.7470707  18.2394565  58.7860167  64.5821384  18.3851205
  53.0731358  67.0798014  16.2411727  52.9316850  66.2281955  16.3656235
  53.3571921  67.1226675  15.4173933  53.0939204  66.9597764  16.1379351
  59.1866977  71.6521823  19.7979198  59.3310353  72.2323031  19.1622308
  59.5342626  72.0298120  20.5029053  59.2594439  71.7942527  19.8078193
  61.5988672  64.7462542  18.4699733  62.0561286  65.4786516  18.5972525
  61.6745001  64.3229007  19.2286989  61.6779642  64.7919780  18.6000810
  53.8421663  64.9928362  19.5589177  53.3063852  64.3808720  19.8749944
  53.9039428  65.5676498  20.2122844  53.7717296  64.9875289  19.7024604
  59.4771050  66.7364646  15.3141557  58.6867124  66.5556106  15.6358893
  59.8731673  65.9591598  15.2971852  59.4187926  66.5952107  15.3594106
  61.9908880  69.2124905  19.7965056  61.9268021  70.0734861  19.6685193
  62.1306068  68.8956898  18.9960608  62.0024350  69.2925072  19.6593269
  63.6478833  66.6703284  18.2924895  63.8620802  66.0314198  17.7388249
  63.0312732  67.1149108  17.8632757  63.5884162  66.6413428  18.1475326
  65.8117921  68.2792349  19.2308202  64.9994603  67.9718239  19.3121375
  66.2707855  67.7991349  19.7950915  65.7598306  68.1628841  19.3262797
  62.9071428  69.6852420  24.0136905  63.3771059  70.3094537  24.4004779
  62.9533309  69.0169396  24.5730119  62.9839304  69.6787101  24.1536976
  60.0642702  61.7909448  14.7385708  59.5481191  61.0989639  14.8637287
  59.5036631  62.4580225  14.6848307  59.9049215  61.7872706  14.7491774
  62.1334935  62.3302408  16.5678561  61.7466689  62.3551439  17.3492091
  61.6467873  61.7644087  16.1153078  62.0047444  62.2498159  16.6166465
  61.7992077  59.2169393  18.8588821  62.4285195  59.7529694  18.5809891
  61.9677940  59.1246752  19.7102387  61.9169872  59.2830756  18.9437349
  61.6005992  64.0040588  21.1315233  62.4279421  63.7325737  21.1873847
  61.6213838  64.8001430  21.4879051  61.7258842  64.0820342  21.1930415
  56.4644913  64.7050211  16.4045144  56.9246394  64.7789140  17.1420267
  56.5101019  65.5031465  16.0544965  56.5395468  64.8344358  16.4617900
  58.1128262  65.3716906  20.9717171  57.7213827  64.7250253  21.4072949
  58.2814125  65.9628341  21.5911426  58.0799173  65.3631174  21.1279877
  53.2532690  68.3339402  18.7796860  54.1158303  68.2335111  18.6934190
  52.9224473  67.7534111  18.2182432  53.3317887  68.2331028  18.6842266
  56.6134476  67.1581851  15.4407278  55.9887546  67.1700243  14.8333231
  56.2780071  67.6342026  16.0898518  56.4719968  67.2300368  15.4463847
  55.8825222  68.7674998  17.6582147  56.0418708  68.0118323  18.0633869
  55.7018115  69.3165938  18.3122884  55.8790581  68.7368812  17.8144853
  63.8245525  60.9336234  18.2132936  63.3286086  61.1299908  17.5224503
  64.5814587  61.3328902  18.0421738  63.8632349  61.0213968  18.0853073
  57.3749726  63.3349398  14.1841991  57.4148098  63.8358605  14.8976698
  56.5499391  63.4259792  13.9147914  57.2589252  63.4231215  14.2492529
  59.5579339  72.9010138  22.2862286  58.7074970  73.0381852  22.4219930
  59.7207467  72.1673916  22.7309987  59.4563203  72.8124239  22.3717885
  56.6047873  63.3418801  22.1172301  57.2300577  62.7980934  22.3901733
  56.1498353  62.8613719  21.5480091  56.6296134  63.1908282  22.0733894
  64.1738494  64.3118780  16.6767506  64.5993565  63.8591306  16.0651032
  63.5595487  63.7578851  16.9532293  64.1467139  64.1632756  16.6272531
  63.3089786  75.0471751  22.2911783  63.2685641  74.4021428  21.7056939
  64.1213105  74.9908368  22.6037195  63.4232940  74.9430718  22.2508732
  58.9967495  68.6768687  18.8461541  58.4846398  68.0689870  19.2046572
  58.8246991  69.3925280  19.3135517  58.8957132  68.6931987  18.9677764
  53.8433210  67.1206263  21.4963903  53.6735800  67.7807638  20.9512109
  53.3999160  67.3312824  22.2176392  53.7532543  67.2492245  21.5225532
  62.8736565  66.5992932  21.2863796  63.4307996  66.3706742  20.6542262
  62.5497630  67.3598598  21.0099009  62.9082976  66.6776769  21.1520293
  50.7435274  70.0253128  16.7552392  50.1961994  69.3553774  16.8733261
  51.5327652  69.6582976  16.8195860  50.7787458  69.8718115  16.7821093
  60.5919683  69.6860585  22.2515804  61.3431010  70.0012262  22.5655358
  60.7842259  69.4839756  21.4249725  60.7311097  69.7027967  22.1759199
  49.5022244  69.2373936  13.9098416  49.3244005  68.7850545  14.6353331
  49.2141266  70.0400097  14.0936893  49.4335197  69.2896494  14.0441918
  60.7345738  61.7297076  19.1212187  60.8673644  60.9328069  19.4493162
  61.1190891  62.2563479  19.7010462  60.8102067  61.6896992  19.2555690
  63.8078093  58.6527402  15.7193280  63.0024057  58.5425132  16.0361118
  63.6784829  58.7539858  14.8623146  63.6698226  58.6511072  15.6401320
  58.3934185  61.7256251  17.3690081  58.9378598  61.3847378  17.9594422
  58.4471121  62.5841712  17.5111365  58.4823304  61.8011510  17.4771954
  43.7768641  21.1487848   9.7187436  44.4835408  20.6539878   9.8474370
  43.9656576  21.5896929   8.9890094  43.9096546  21.1406198   9.6296481
  36.2701560  29.3460021  -0.4558160  36.9139015  29.7873185  -0.0662002
  36.5957815  28.5413448  -0.5427902  36.4133388  29.2925216  -0.4112683
  40.9160935  24.5715384   7.6101511  41.0044281  24.3841525   8.4579721
  41.3450648  23.9252814   7.2106358  40.9923038  24.4478392   7.6773262
  38.4831395  23.8546544   6.5919173  37.9202230  23.4419154   7.1158834
  39.2452418  23.7799450   7.0112316  38.5125844  23.7823945   6.7312173
  35.0906293  16.0820152   8.3236218  35.2626797  15.9726047   9.1721500
  35.6275650  16.7274558   8.0867411  35.1951297  16.1612154   8.4141315
  41.0280994  24.0024403  10.2745294  41.8121411  24.1155251  10.6401037
  40.8277589  23.1765540  10.4703980  41.1147020  23.8971123  10.3579680
  41.1851388  25.9134505   3.9211750  40.3866634  25.6734005   4.1785619
  41.6337399  25.9648898   4.6678798  41.1325999  25.8856897   4.0696674
  40.2452125  19.6594950  11.8131938  39.4525105  19.9738462  11.9984558
  40.3601052  19.8746419  10.9752723  40.1447535  19.7378787  11.7170273
  41.1735917  19.5615154   6.7517235  41.7474779  18.9242398   6.9065799
  41.0950721  19.5619236   5.8826893  41.2469152  19.4680265   6.6463646
  46.4956065  20.9324132   6.7602088  46.2594703  20.1012196   6.6414149
  47.1399294  20.8809739   7.3456932  46.5550736  20.8021820   6.8287982
  36.9525839  10.2228358  11.5282298  36.6379280  10.9927921  11.2651861
  36.6315771   9.6598614  10.9434525  36.8584758  10.2538627  11.4023648
  47.5192486  20.7168580   2.8230383  47.2138303  21.4496637   3.1843698
  46.7998702  20.3106510   2.5423169  47.3679828  20.7650313   2.8343520
  53.2194278  17.3561581   2.1498727  53.1518778  17.3757540   1.2801313
  53.2049940  18.1991908   2.3754397  53.2073034  17.4835316   2.0551204
  37.6575286  19.9644565   4.9705215  37.1586980  20.6760332   5.0490103
  38.4675510  20.2845231   4.9323377  37.7031393  20.1171413   4.9761783
  36.5842344  12.8225609  10.2667513  35.7742120  13.1283389  10.1557355
  37.0617031  13.5431191  10.3820097  36.5345823  12.9740210  10.2674584
  44.8703656  21.5255979   1.1083043  44.7318015  22.2237025   1.6131785
  44.0903654  21.3704635   0.7519225  44.7346883  21.6056146   1.1309317
  43.2081741  17.8252354   7.3605425  43.2029779  16.9532171   7.3647851
  43.9142735  18.0240523   6.8874880  43.3126745  17.7256228   7.2912460
  36.9352634  17.5529338   6.7319245  37.0796010  18.1330546   6.0962355
  37.2828283  17.9305635   7.4369099  37.0080096  17.6950042   6.7418240
  36.0080389  25.7432110   3.5980272  36.1569953  25.1835026   2.9453676
  36.7880391  25.8224112   3.9812790  36.1454483  25.6717675   3.5577221
  38.5333690  25.9146753   4.8764762  38.4577361  25.2455563   5.4315551
  38.4623549  26.6164541   5.3905429  38.5114297  25.9191660   5.0341611
  39.7394537  15.1132420   6.7305103  39.6753678  15.9742377   6.6025240
  39.8791724  14.7964414   5.9300654  39.7510007  15.1932587   6.5933316
  37.9225324  29.3215073   3.3342763  38.4121254  28.6225862   3.1518428
  37.3509556  29.0238943   3.9218821  37.9109854  29.1741296   3.3943804
  44.1192328  21.8877142  12.2869554  44.9327193  21.6162291  12.4474686
  43.9587294  21.5884682  11.4829750  44.2162276  21.8032068  12.1914960
  43.5603578  14.1799864   6.1648249  42.7480259  13.8725755   6.2461422
  44.0193512  13.6998864   6.7290961  43.5083962  14.0636357   6.2602843
  40.6557085  15.5859936  10.9476952  41.1256716  16.2102052  11.3344826
  40.7018965  14.9176911  11.5070166  40.7324961  15.5794616  11.0877023
  44.1313572  22.9483432   7.5592394  44.7693292  22.4543628   7.2254850
  43.4887663  22.8760833   6.9744621  44.1307798  22.8642441   7.4234749
  44.1867828  23.6403241   4.1997751  44.9760206  23.2892305   4.3199833
  44.3611426  24.4539629   3.9374385  44.3288110  23.7089098   4.1785619
  35.7996155  22.1943086   5.2095235  35.6916509  22.2045148   6.0757293
  36.0091936  23.0197867   5.0200189  35.8146266  22.3184161   5.3099327
  49.9360368  19.2761498   3.6694451  49.9943492  19.7248147   4.4154428
  49.3026836  19.6860311   3.2324531  49.8511663  19.4035233   3.7146999
  43.5759463  24.8965040   0.1049197  43.3779151  25.3855855  -0.5894591
  42.9547174  25.1006282   0.6833331  43.4547027  24.9981578   0.0872421
  45.4933265  18.4629192   5.6394446  46.2167464  18.0101719   5.4605466
  45.2283227  18.7433858   4.8566774  45.5614538  18.4380161   5.4973161
  41.2752054  18.5613071   3.7889461  40.6609047  18.0171121   4.0838096
  41.7919339  18.0477307   3.3095277  41.2607717  18.4049480   3.7613689
  37.3064996  18.8017654   9.2202332  36.4560627  18.9389368   9.3559977
  37.4693124  18.0681432   9.6650034  37.2048860  18.7131755   9.3057932
  47.9268579  17.4255603   4.1424995  48.5186419  18.0652854   4.1743194
  48.3627573  16.7278640   4.4317062  48.0787010  17.4173954   4.1905828
  39.7561969  21.8472976   4.7682889  39.2487060  22.4008823   5.2123520
  39.4588615  21.9081266   3.9501664  39.6366853  21.9379287   4.7131346
  39.0004454  26.7797534   1.6739896  38.7770108  26.0216363   2.0423923
  38.5114297  26.8095555   0.9520336  38.8947903  26.6719758   1.6216637
  41.0575443  20.9479266   9.2251830  41.0171298  20.3028943   8.6396986
  41.8698761  20.8915884   9.5377242  41.1718597  20.8438233   9.1848779
  41.0148205  26.1588077  -0.1199403  40.6164488  26.2690348  -0.8878582
  40.3999424  26.3670144   0.4627157  40.8647094  26.2061645  -0.1468103
  40.6222222  12.5000447   8.2203843  41.1793652  12.2714257   7.5882309
  40.2983287  13.2606113   7.9439056  40.6568632  12.5784284   8.0860340
  38.3405339  15.5868101   9.1855850  39.0916666  15.9019777   9.4995404
  38.5327916  15.3847272   8.3589772  38.4796754  15.6035482   9.1099246
  44.9783301  19.1442856   2.7692981  45.4038372  18.6217278   2.2163406
  44.6140220  19.7423694   2.2481604  44.9869903  19.1553083   2.6101991
  34.6137380  27.4407074   1.5290327  34.9283939  28.2543462   1.5368109
  35.0230794  27.0557292   2.1972486  34.7205478  27.5035776   1.6294419
  43.6538885  24.4678434  11.2786211  43.7635850  23.6786994  11.6342958
  43.9829781  24.3784370  10.4760549  43.7191290  24.3384287  11.2128602
  42.2035846  22.6495055   5.8621831  41.6556792  22.0252938   5.5941897
  42.6648875  22.8389327   5.1465911  42.1903056  22.5854105   5.7172263
  41.7694173  23.6546127   2.3931173  42.5892546  23.5109093   2.6547468
  41.4888250  24.2792326   2.9347611  41.8490916  23.7256479   2.5119112
  51.4407508  30.3986630   0.1126979  50.5845403  30.5595128   0.1636096
  51.4875162  29.5278694   0.1332041  51.3206619  30.2937432   0.1233045
  45.8248648  39.9349348  -4.1235789  45.0731547  39.5564886  -4.3519744
  46.2734659  39.9667782  -4.8716979  45.7798314  39.8834955  -4.2678287
  54.7501224  36.6673156   9.7187436  55.4567992  36.1725186   9.8474370
  54.9389160  37.1082237   8.9890094  54.8829130  36.6591506   9.6296481
  54.2859329  32.4578674   2.7558631  54.8315289  33.1363761   2.8152601
  54.2276205  32.3166135   1.8960213  54.3575243  32.5370676   2.6370692
  47.4033404  39.9467740  -1.8573016  47.5043767  39.1368094  -1.5475889
  46.8075149  39.8524686  -2.4873338  47.3305942  39.8132768  -1.9046778
  47.2434143  44.8645329  -0.4558160  47.8871599  45.3058493  -0.0662002
  47.5690399  44.0598755  -0.5427902  47.3865972  44.8110524  -0.4112683
  40.5998448  35.9688027  -2.2320683  40.3648632  35.1355679  -2.3388414
  40.7384089  36.2492692  -3.0459482  40.5854110  35.8871530  -2.3678328
  42.8988535  28.1373757   0.6663625  42.2793567  27.5466404   0.4973640
  42.7972399  28.7285192   0.0327948  42.7926211  28.1377840   0.5468614
  49.9956431  29.8773299  -5.0003912  50.6936596  30.0561427  -4.5082449
  50.3108764  29.3543638  -5.6233523  50.1451768  29.8267071  -5.0201902
  42.6257668  31.6826039   2.9107194  42.5016365  32.2688484   3.5457013
  43.2775953  31.1886235   3.2119469  42.7031318  31.6964843   3.0493123
  50.1844366  36.2643744  -5.0124121  50.6238002  35.6560845  -4.5669348
  50.0349029  35.8851117  -5.7838656  50.2265832  36.1182215  -5.0604953
  47.6516009  34.8587756   2.1894705  48.2965012  34.3660199   1.8705653
  47.8917787  35.0012543   3.0160783  47.7826595  34.8065198   2.2644238
  50.1902101  37.7042662   1.8401598  50.4725344  36.9094068   1.6188353
  50.9188261  38.1823249   1.8606659  50.3391665  37.6577259   1.8104613
  48.1683295  25.2465696  -0.9182637  47.8386625  25.6976839  -1.5878939
  47.4928296  25.1681859  -0.3709631  48.0193731  25.3016831  -0.9359414
  60.1720189  36.8102024  -1.1862572  59.3417892  37.0212668  -1.0229155
  60.1229441  35.9839079  -1.4620288  60.0426925  36.7191630  -1.2025206
  42.1615773  40.8473697  -0.9564477  41.6783351  41.5724187  -0.9804893
  42.9739091  41.1449827  -0.8454319  42.2106520  40.9976051  -0.9437197
  48.2329927  39.6405878   1.6485338  47.7156868  39.2813293   1.0446646
  48.9304318  39.1168053   1.6591404  48.2595508  39.5103566   1.5615597
  51.8893519  40.0900692   7.6101511  51.9776865  39.9026833   8.4579721
  52.3183231  39.4438122   7.2106358  51.9655621  39.9663700   7.6773262
  49.4563978  39.3731852   6.5919173  48.8934813  38.9604462   7.1158834
  50.2185002  39.2984758   7.0112316  49.4858427  39.3009253   6.7312173
  45.0159970  41.3629873  -0.8044197  45.7180549  40.8481862  -0.7471440
  44.9357453  41.6904025   0.0002678  45.1083730  41.3344100  -0.6771405
  59.6674147  29.4572425   2.6087850  58.8302569  29.5274612   2.8435444
  59.6362378  29.4596919   1.7362152  59.5392430  29.4682652   2.5147398
  46.0638877  31.6005460   8.3236218  46.2359380  31.4911355   9.1721500
  46.6008234  32.2459866   8.0867411  46.1683880  31.6797462   8.4141315
  44.3410745  37.5536225  -1.2958589  45.1799645  37.7859158  -1.2484827
  44.3722515  36.6840537  -1.3651553  44.4692463  37.4593172  -1.2993944
  44.9663448  37.9737101   3.0054717  45.5061673  37.8308232   3.6758089
  44.2833395  38.3733851   3.3738743  44.9455602  38.0116771   3.1589138
  54.3904333  33.6528101  -1.8000259  55.1461848  34.0859616  -1.7611350
  54.4966658  33.0032871  -1.2265623  54.5174504  33.6205585  -1.7102233
  57.4284504  37.4801378  -1.0497856  56.9919736  37.4838121  -0.2938884
  57.0947420  38.1606877  -1.4818278  57.3147124  37.5813834  -1.0017023
  52.0013578  39.5209711  10.2745294  52.7853995  39.6340559  10.6401037
  51.8010173  38.6950848  10.4703980  52.0879603  39.4156431  10.3579680
  40.3700593  34.1937391   3.1589138  40.1039009  33.3776508   3.3180129
  40.3839158  34.2390547   2.2884654  40.3325316  34.0794296   3.0542620
  57.3481987  24.5215206   1.1931572  57.9907896  24.5913311   1.7793487
  57.6005008  23.8544429   0.6911114  57.4804119  24.4341555   1.2058851
  45.1199200  27.7315770   5.8056146  44.4270997  27.2612749   6.0516878
  45.7359527  27.5054074   6.3797853  45.1083730  27.6282901   5.9265299
  52.1583971  41.4319813   3.9211750  51.3599217  41.1919313   4.1785619
  52.6069983  41.4834206   4.6678798  52.1058583  41.4042204   4.0696674
  60.5628851  34.1982298  -2.1578219  61.2245285  33.6372967  -2.2582310
  59.9220263  33.7034329  -1.8325527  60.5657718  34.0418707  -2.1245878
  40.7794007  34.9796171   0.4400883  40.5969580  34.9543057  -0.4126825
  41.5143676  35.4495109   0.4789791  40.8608071  35.0457533   0.3198801
  56.8493681  35.2147681  -2.4166230  57.0849270  35.3592880  -3.2439379
  56.9983245  35.9790089  -2.0234716  56.9059485  35.3486735  -2.4802626
  43.8439759  31.6981174   6.9482991  44.5679731  31.6834204   7.4347886
  43.9455895  32.4076529   6.4504959  43.9657968  31.8005877   6.9461778
  51.2184708  35.1780258  11.8131938  50.4257689  35.4923770  11.9984558
  51.3333635  35.3931727  10.9752723  51.1180119  35.2564095  11.7170273
  53.8916027  31.9014249  -3.8973046  53.9862882  32.6403543  -3.4433420
  53.2674871  31.4731725  -3.4638481  53.8125057  31.9475570  -3.7664898
  52.1468501  35.0800462   6.7517235  52.7207363  34.4427706   6.9065799
  52.0683305  35.0804544   5.8826893  52.2201736  34.9865573   6.6463646
  40.7464917  31.8589671   0.5899949  41.3238420  31.7226122   1.2292195
  40.0478979  31.4025456   0.8445534  40.7285939  31.7711938   0.7222239
  47.5032220  33.5123727  -1.1961568  47.2451464  32.6795462  -1.2230268
  47.5580702  33.7381340  -2.0369067  47.4731997  33.4221498  -1.3241431
  52.5833270  25.6152178  -1.0957475  51.8789596  25.1261363  -0.9373556
  52.6318244  25.6274652  -1.9669031  52.4863321  25.5441826  -1.2018135
  46.4766932  31.0661490  -0.7096673  45.9016523  31.2253658  -0.0732712
  46.1002608  30.4296899  -1.1728222  46.3369744  30.9959302  -0.6842114
  50.1440220  29.5384839   4.1495706  49.7554653  29.1139057   3.4947897
  49.4794919  29.7866988   4.6572732  49.9887148  29.5123560   4.1283574
  53.9666582  23.2359468   1.6619690  54.3477094  22.5537639   2.0487564
  53.1629866  22.9469070   1.4795354  53.9043044  23.0926516   1.6923746
  57.4688649  36.4509440   6.7602088  57.2327286  35.6197504   6.6414149
  58.1131878  36.3995047   7.3456932  57.5283320  36.3207128   6.8287982
  47.1187067  37.2404961  -2.5255175  47.7561014  37.0016708  -1.9803382
  47.5442139  37.4442120  -3.2602015  47.2763233  37.2355971  -2.5538018
  41.8099709  39.4793297   1.3579128  41.8503855  39.7508148   0.5298908
  42.3694233  40.0035205   1.7736916  41.8983055  39.5969052   1.2971017
  47.9258422  25.7413666  11.5282298  47.6111863  26.5113229  11.2651861
  47.6048355  25.1783922  10.9434525  47.8317341  25.7723935  11.4023648
  58.4925069  36.2353888   2.8230383  58.1870887  36.9681945   3.1843698
  57.7731285  35.8291818   2.5423169  58.3412412  36.2835621   2.8343520
  49.5008539  37.7177383  -0.8461389  49.5747547  37.5552555   0.0080461
  50.3178045  37.9067573  -1.0900907  49.6324898  37.7214126  -0.7563364
  64.1926862  32.8746889   2.1498727  64.1251362  32.8942848   1.2801313
  64.1782524  33.7177216   2.3754397  64.1805618  33.0020624   2.0551204
  43.2614296  38.0635246  -3.8166946  42.4352413  38.3096983  -3.9432667
  43.3226287  37.9847327  -2.9504888  43.1488463  38.0880195  -3.7078001
  54.6023208  24.2782047   5.4739816  55.3476800  24.0891857   5.0603242
  54.1860513  24.8040285   4.9153673  54.6508182  24.3284192   5.3304390
  61.9785479  31.6491275   0.4245321  62.5293401  31.0159344   0.6642413
  61.9629594  32.1806668   1.1160826  62.0570675  31.6340223   0.5624180
  48.6307870  35.4829872   4.9705215  48.1319563  36.1945640   5.0490103
  49.4408094  35.8030539   4.9323377  48.6763977  35.6356721   4.9761783
  45.9819040  42.6579509  -3.0487766  45.7619336  42.3676864  -2.2561099
  45.7613562  41.9994464  -3.5769854  45.9166634  42.5179217  -3.0098857
  44.8935987  34.7452825  -0.7832064  44.6049236  34.1190297  -0.2486337
  45.7619335  34.6873113  -0.7167384  44.9796239  34.6440370  -0.6941110
  55.6813885  29.8887609  -0.4650082  55.3378651  29.1677944  -0.1142833
  55.7806928  29.6801460  -1.3071724  55.6455928  29.7511812  -0.5378402
  45.0968261  36.3848077  -4.8589699  45.8514229  36.7661116  -4.6454237
  44.5038873  36.8359220  -4.4043003  45.1204974  36.5076904  -4.7606821
  47.5574928  28.3410917  10.2667513  46.7474704  28.6468697  10.1557355
  48.0349614  29.0616499  10.3820097  47.5078407  28.4925518  10.2674584
  46.4166487  37.5556638   0.5150416  45.8947241  37.6956930   1.2002281
  46.8040508  36.7967302   0.7052533  46.3970188  37.4642162   0.6451493
  47.8432813  34.5860657  -4.0868093  47.6475596  35.1935391  -4.6807790
  48.0667159  33.8928601  -4.5676419  47.8467454  34.5738182  -4.2452012
  46.2411343  31.4715395  -3.9687224  46.9633995  31.6356553  -4.4283419
  45.7619336  32.1925060  -4.0747885  46.2775074  31.6013624  -4.0521611
  54.2004851  27.8079194   1.4109460  53.3615951  27.8340473   1.1747724
  54.2709218  28.4549929   1.9914807  54.0873244  27.9075319   1.4618577
  43.8918960  33.8773467   5.1366915  44.4040057  34.1557721   4.4875675
  43.6055302  34.6162761   5.5029728  43.9253823  34.0275821   5.0956793
  58.0762374  33.0147180  -1.3029298  57.9896349  33.1702606  -0.4494519
  57.6212854  33.6585256  -1.6769893  57.9965631  33.1322935  -1.2322191
  47.4102685  25.9699856   5.1967957  47.2185882  25.9854990   6.0467380
  48.2601281  26.1663530   5.1734612  47.5078407  26.0014207   5.3191252
  41.7949598  28.4990837   3.1751773  41.6535090  27.6474778   3.2996281
  42.0790161  28.5419498   2.3513979  41.8157444  28.3790587   3.0719397
  51.9488190  30.3357927  -2.6803738  51.7022905  30.2553678  -1.8466949
  52.2773314  29.5511395  -2.8741211  51.9609434  30.2084193  -2.5856215
  55.8436239  37.0441287   1.1083043  55.7050599  37.7422333   1.6131785
  55.0636237  36.8889943   0.7519225  55.7079466  37.1241453   1.1309317
  54.1814324  33.3437662   7.3605425  54.1762363  32.4717479   7.3647851
  54.8875318  33.5425831   6.8874880  54.2859328  33.2441536   7.2912460
  47.9085218  33.0714646   6.7319245  48.0528593  33.6515854   6.0962355
  48.2560866  33.4490943   7.4369099  47.9812679  33.2135350   6.7418240
  50.0805135  32.2704814   4.5144376  49.3328449  32.4635829   4.1092654
  50.2346660  31.4450034   4.2768498  49.9927563  32.1769926   4.4189782
  46.9812973  41.2617418   3.5980272  47.1302536  40.7020334   2.9453676
  47.7612975  41.3409420   3.9812790  47.1187066  41.1902983   3.5577221
  49.5066273  41.4332061   4.8764762  49.4309944  40.7640871   5.4315551
  49.4356133  42.1349849   5.3905429  49.4846880  41.4376968   5.0341611
  50.3206912  26.1655365   5.4039780  50.7779526  26.8979340   5.5312572
  50.3963241  25.7421830   6.1627036  50.3997882  26.2112603   5.5340857
  42.5639903  26.4121185   6.4929224  42.0282093  25.8001543   6.8089991
  42.6257668  26.9869321   7.1462890  42.4935536  26.4068113   6.6364651
  48.1989290  28.1557469   2.2481604  47.4085365  27.9748929   2.5698940
  48.5949913  27.3784422   2.2311899  48.1406166  28.0144930   2.2934152
  53.5832976  35.7899899  -0.0258950  52.9077978  35.5585132   0.4754437
  53.5925352  35.1821082  -0.6516845  53.4851481  35.6658824  -0.0442798
  50.7127120  30.6317728   6.7305103  50.6486262  31.4927685   6.6025240
  50.8524308  30.3149721   5.9300654  50.7242590  30.7117895   6.5933316
  49.3946214  33.3249868   0.8721306  48.9708463  33.5254367   0.1360324
  49.2191069  32.4778716   0.9845606  49.3057095  33.2298649   0.7794996
  48.8957908  44.8400381   3.3342763  49.3853838  44.1411170   3.1518428
  48.3242140  44.5424251   3.9218821  48.8842438  44.6926604   3.3943804
  44.6828659  33.8201919  -3.6950722  44.8393278  33.7548722  -2.8394729
  45.0229252  34.5950472  -3.9072042  44.7561894  33.9251117  -3.5996127
  51.2207804  33.1959803  -4.8257358  51.7623349  32.6930184  -4.3618738
  51.5354363  33.1424997  -5.6367873  51.3472201  33.1139224  -4.8773546
  55.0924911  37.4062450  12.2869554  55.9059777  37.1347599  12.4474686
  54.9319878  37.1069990  11.4829750  55.1894860  37.3217376  12.1914960
  52.3697073  28.0896107   5.2264942  52.5839043  27.4507021   4.6728296
  51.7530972  28.5341931   4.7972804  52.3102402  28.0606251   5.0815373
  41.2562921  31.0036869  -3.3789954  41.6361886  31.4221414  -4.0429687
  40.6818285  31.5850325  -3.0721111  41.2274246  31.1514728  -3.4313213
  54.5336161  29.6985172   6.1648249  53.7212843  29.3911063   6.2461422
  54.9926096  29.2184172   6.7290961  54.4816546  29.5821665   6.2602843
  51.7611802  21.1996043   0.2152285  50.8905360  21.1734764   0.1685594
  52.0152143  21.0273235  -0.6021869  51.6705362  21.1706186   0.0872422
  51.6289669  31.1045244  10.9476952  52.0989300  31.7287360  11.3344826
  51.6751549  30.4362219  11.5070166  51.7057545  31.0979924  11.0877023
  48.7860942  23.2102271   1.6725755  48.2699431  22.5182463   1.7977334
  48.2254871  23.8773048   1.6188354  48.6267456  23.2065529   1.6831821
  50.8553176  23.7495231   3.5018608  50.4684929  23.7744263   4.2832138
  50.3686113  23.1836910   3.0493124  50.7265685  23.6690982   3.5506512
  55.1046155  38.4668740   7.5592394  55.7425876  37.9728936   7.2254850
  54.4620247  38.3946141   6.9744621  55.1040382  38.3827749   7.4234749
  56.8303155  30.3157886   2.1258310  56.4030763  30.2284235   1.3706410
  56.1929208  30.4235662   2.7113154  56.6732763  30.3190546   2.1003752
  50.5210318  20.6362217   5.7928868  51.1503435  21.1722517   5.5149938
  50.6896180  20.5439576   6.6442433  50.6388112  20.7023579   5.8777396
  50.3224232  25.4233411   8.0655279  51.1497662  25.1518560   8.1213894
  50.3432078  26.2194253   8.4219098  50.4477082  25.5013166   8.1270462
  55.1600412  39.1588548   4.1997751  55.9492790  38.8077613   4.3199833
  55.3344010  39.9724937   3.9374385  55.3020693  39.2274406   4.1785619
  44.8993722  32.5697274   1.2525540  44.0581729  32.4701148   1.4604434
  45.1083730  33.3392755   1.6039861  44.8058415  32.6689318   1.3352855
  42.3769289  30.1916811  -0.9189709  41.9825987  30.2659823  -1.6939600
  41.8209406  30.5774758  -0.3681348  42.2372102  30.2598586  -0.9522050
  54.0134236  23.1698105  -1.2385830  54.2183829  23.1020413  -0.3928833
  53.6860660  23.9756926  -1.3064653  53.9949484  23.2784046  -1.1226175
  48.7110387  30.4978673   0.5023138  48.4073525  29.9434662   1.1033545
  48.0089808  30.6770883   0.0151172  48.5626597  30.4423456   0.5192843
  46.7728738  37.7128394   5.2095235  46.6649093  37.7230456   6.0757293
  46.9824520  38.5383175   5.0200189  46.7878849  37.8369469   5.3099327
  44.7902530  34.9641037   2.6717173  44.1990463  35.6050535   2.6420188
  45.5523554  35.3878654   2.6448472  44.8150791  35.1216875   2.6632320
  45.1863153  26.1243034   3.3385191  45.6464634  26.1981964   4.0760314
  45.2319260  26.9224288   2.9885012  45.2613708  26.2537181   3.3957947
  46.8346503  26.7909729   7.9057218  46.4432068  26.1443076   8.3412995
  47.0032365  27.3821164   8.5251473  46.8017413  26.7823997   8.0619924
  60.9092952  34.7946806   3.6694451  60.9676075  35.2433455   4.4154428
  60.2759419  35.2045619   3.2324531  60.8244247  34.9220541   3.7146999
  54.5492046  40.4150348   0.1049197  54.3511735  40.9041163  -0.5894591
  53.9279757  40.6191590   0.6833331  54.4279611  40.5166886   0.0872421
  48.6100025  32.1835245  -5.5540558  49.3542070  32.5709521  -5.3157608
  48.7560721  31.3392670  -5.3900071  48.7410610  32.1165718  -5.4946589
  50.5279600  23.9785504  -0.5208697  49.6815645  24.1508312  -0.6467347
  50.5250733  23.1734848  -0.1842869  50.4026750  23.8846533  -0.4897570
  51.5977901  27.7560718   0.3453361  51.1237855  27.2302480   0.8558672
  51.9696036  27.2090191  -0.2231777  51.5827789  27.5976715   0.3368508
  41.9750931  29.7532225   5.7136907  42.8376544  29.6527934   5.6274237
  41.6442714  29.1726934   5.1522479  42.0536127  29.6523852   5.6182313
  57.8614631  32.8163094   1.7560142  57.6212854  31.9769509   1.7602568
  58.3406638  32.8963261   2.4800915  57.8966815  32.7044494   1.8634944
  59.8619818  29.5964551  -0.2910599  59.6229588  29.5560385  -1.1289815
  60.0253719  30.4435703  -0.1644878  59.8510122  29.7156636  -0.3957117
  56.4665848  33.9814500   5.6394446  57.1900047  33.5287027   5.4605466
  56.2015811  34.2619166   4.8566774  56.5347122  33.9565469   5.4973161
  45.3352717  28.5774674   2.3747325  44.7105787  28.5893066   1.7673278
  44.9998312  29.0534849   3.0238565  45.1938209  28.6493191   2.3803893
  42.0478392  36.6375134   3.8151089  41.5178317  35.9467573   3.8646064
  42.3203486  36.6285319   2.9863798  42.0103115  36.5342266   3.6998505
  52.2484638  34.0798379   3.7889461  51.6341631  33.5356429   4.0838096
  52.7651923  33.5662615   3.3095277  52.2340300  33.9234788   3.7613689
  51.4880935  35.1502649   1.5233759  51.0608543  34.5252367   1.0899195
  51.4805879  34.8677571   2.3492767  51.4240076  35.0155429   1.5813587
  44.6043462  30.1867822   4.5922193  44.7636949  29.4311146   4.9973915
  44.4236356  30.7358761   5.2462931  44.6008821  30.1561636   4.7484899
  52.5463765  22.3529057   5.1472983  52.0504326  22.5492732   4.4564550
  53.3032827  22.7521726   4.9761785  52.5850590  22.4406791   5.0193120
  49.8166645  26.0271403   1.7376293  49.8409132  25.4931516   1.0489073
  50.0678118  25.5188712   2.4001884  49.8576563  25.8732307   1.7340938
  37.3274234  33.3102898   1.1719438  37.2217684  33.2649743   0.3071522
  36.5774454  33.6556679   1.4533722  37.2009837  33.3543806   1.0856767
  46.0967967  24.7542221   1.1182038  46.1366338  25.2551428   1.8316745
  45.2717632  24.8452615   0.8487961  45.9807493  24.8424038   1.1832576
  48.2797580  34.3202961   9.2202332  47.4293210  34.4574676   9.3559977
  48.4425707  33.5866740   9.6650034  48.1781443  34.2317063   9.3057932
  47.5182330  31.2702731   3.4155937  46.6874260  31.4376549   3.2091185
  47.4633847  30.8938682   4.2004822  47.3871745  31.2392463   3.5004465
  45.3266113  24.7611624   9.0512347  45.9518817  24.2173757   9.3241780
  44.8716593  24.2806542   8.4820138  45.3514374  24.6101106   9.0073941
  58.9001162  32.9440911   4.1424995  59.4919003  33.5838162   4.1743194
  59.3360157  32.2463948   4.4317062  59.0519593  32.9359262   4.1905828
  50.7294552  37.3658284   4.7682889  50.2219643  37.9194130   5.2123520
  50.4321198  37.4266574   3.9501664  50.6099437  37.4564595   4.7131346
  52.8956734  25.7311603   3.6107552  53.3211806  25.2784130   2.9991079
  52.2813727  25.1771674   3.8872340  52.8685380  25.5825579   3.5612578
  55.9250304  30.1586130  -3.5571862  55.2541493  30.7015832  -3.6858796
  56.6190054  30.6280985  -3.7990167  55.9279171  30.3084401  -3.6116334
  49.9737037  42.2982842   1.6739896  49.7502692  41.5401671   2.0423923
  49.4846881  42.3280863   0.9520336  49.8680486  42.1905066   1.6216637
  56.0878431  26.6142013  -0.6481489  56.4406041  26.1871736   0.0264310
  55.2293233  26.5292857  -0.5180412  56.0127876  26.5386754  -0.5286478
  44.7862116  29.2449533  -2.5898642  44.0674105  29.6613666  -2.3225779
  45.1574478  29.8103772  -3.1407004  44.7354048  29.3898815  -2.6315835
  54.0861697  29.8777382   3.3003353  54.0659624  29.6960677   4.1538132
  54.1340898  30.7489401   3.2762937  54.0896338  29.9793920   3.4226648
  52.0308027  36.4664574   9.2251830  51.9903882  35.8214251   8.6396986
  52.8431345  36.4101191   9.5377242  52.1451180  36.3623541   9.1848779
  48.6215494  42.5183300  -0.8723019  48.2075893  41.8557430  -1.2619177
  49.3062869  42.6661159  -1.3927325  48.6613866  42.4423958  -1.0066522
  51.9880788  41.6773385  -0.1199403  51.5897072  41.7875656  -0.8878582
  51.3732008  41.8855452   0.4627157  51.8379678  41.7246953  -0.1468103
  53.4366507  28.2427038  -3.8223513  53.2080200  28.2659739  -4.6645154
  53.6964583  27.4184505  -3.7028502  53.4412695  28.1243118  -3.9298315
  47.7185735  30.0961511   5.7801588  47.2064639  29.4882694   6.1386619
  47.5465232  30.8118103   6.2475563  47.6175372  30.1124810   5.9017811
  42.5651450  28.5399086   8.4303949  42.3954040  29.2000461   7.8852156
  42.1217400  28.7505647   9.1516439  42.4750784  28.6685068   8.4565579
  46.4911270  26.7803584  -2.5269317  46.9668636  27.1420664  -3.1619136
  45.9899869  27.4360051  -2.2469174  46.4876629  26.9297773  -2.5792576
  51.5954806  28.0185755   8.2203843  52.1526236  27.7899565   7.5882309
  51.2715871  28.7791421   7.9439056  51.6301216  28.0969592   8.0860340
  39.4653515  31.4445951   3.6892439  38.9180234  30.7746597   3.8073308
  40.2545893  31.0775799   3.7535907  39.5005698  31.2910938   3.7161140
  49.3137923  31.1053409   9.1855850  50.0649250  31.4205085   9.4995404
  49.5060500  30.9032579   8.3589772  49.4529337  31.1220790   9.1099246
  56.1623213  27.2326975  -3.5720354  56.1617440  27.0775631  -2.7136078
  55.9579393  28.0789962  -3.6278969  56.1322991  27.3347596  -3.4532415
  38.2240484  30.6566759   0.8438462  38.0462245  30.2043368   1.5693378
  37.9359506  31.4592921   1.0276940  38.1553437  30.7089317   0.9781965
  53.8864065  31.9124477   0.0815853  54.3817731  31.1947472   0.0419873
  53.0763841  31.6095274  -0.0329660  53.8407959  31.7622123   0.0589578
  39.9612954  33.1894483  -2.0439779  39.0958474  33.1780174  -2.1557007
  40.0611770  33.0024706  -1.1968639  39.8487121  33.1600544  -1.9350834
  55.9515884  34.6628164   2.7692981  56.3770956  34.1402586   2.2163406
  55.5872804  35.2609002   2.2481604  55.9602487  34.6738391   2.6101991
  45.5869964  42.9592382   1.5290327  45.9016523  43.7728770   1.5368109
  45.9963377  42.5742600   2.1972486  45.6938062  43.0221084   1.6294419
  52.5394484  38.3762428  -0.9005861  53.0105662  39.0902691  -0.7315876
  52.8754662  37.7761179  -0.3645992  52.6589599  38.3933893  -0.7973485
  54.6271468  39.9863742  11.2786211  54.7368434  39.1972302  11.6342958
  54.9562365  39.8969678  10.4760549  54.6923874  39.8569595  11.2128602
  49.4563979  23.1489899   6.0552234  49.5891884  22.3520892   6.3833209
  49.8409131  23.6756302   6.6350509  49.5320307  23.1089816   6.1895737
  53.1768430  38.1680363   5.8621831  52.6289376  37.5438246   5.5941897
  53.6381459  38.3574635   5.1465911  53.1635639  38.1039413   5.7172263
  52.5296334  20.0720225   2.6533327  51.7242297  19.9617955   2.9701165
  52.4003069  20.1732681   1.7963193  52.3916467  20.0703895   2.5741367
  55.9862294  26.2365717   3.2473024  55.4025283  26.7374924   2.8350591
  56.3066588  25.7295273   2.6137347  55.9475470  26.2357552   3.0931531
  42.9282984  36.9065490   1.1768935  43.5327841  36.8661324   0.5482756
  42.7210297  37.7536642   1.2072991  42.9871881  37.0253493   1.0885052
  52.7426756  39.1731435   2.3931173  53.5625130  39.0294401   2.6547468
  52.4620834  39.7977634   2.9347611  52.8223500  39.2441787   2.5119112
  38.1634266  35.8900108   1.0467858  38.0658544  35.0796379   1.3557915
  38.9463136  35.8691901   0.6614127  38.2650403  35.7667198   1.0354721
  53.8721119  43.6559065   0.6663625  53.2526151  43.0651712   0.4973640
  53.7704983  44.2470500   0.0327948  53.7658795  43.6563148   0.5468614
  53.5990252  47.2011347   2.9107194  53.4748949  47.7873792   3.5457013
  54.2508537  46.7071543   3.2119469  53.6763901  47.2150151   3.0493123
  57.0371460  47.1190768   8.3236218  57.2091964  47.0096663   9.1721500
  57.5740818  47.7645174   8.0867411  57.1416464  47.1982770   8.4141315
  62.9746162  55.0395019  10.2745294  63.7586578  55.1525867  10.6401037
  62.7742756  54.2136156  10.4703980  63.0612187  54.9341739  10.3579680
  51.3433177  49.7122699   3.1589138  51.0771592  48.8961816   3.3180129
  51.3571741  49.7575855   2.2884654  51.3057899  49.5979604   3.0542620
  56.0931783  43.2501078   5.8056146  55.4003580  42.7798057   6.0516878
  56.7092111  43.0239382   6.3797853  56.0816313  43.1468209   5.9265299
  54.8172342  47.2166482   6.9482991  55.5412315  47.2019512   7.4347886
  54.9188479  47.9261837   6.4504959  54.9390551  47.3191185   6.9461778
  62.1917292  50.6965566  11.8131938  61.3990273  51.0109078  11.9984558
  62.3066219  50.9117035  10.9752723  62.0912702  50.7749403  11.7170273
  61.1172804  45.0570147   4.1495706  60.7287237  44.6324364   3.4947897
  60.4527502  45.3052296   4.6572732  60.9619732  45.0308868   4.1283574
  64.9399166  38.7544776   1.6619690  65.3209677  38.0722947   2.0487564
  64.1362450  38.4654378   1.4795354  64.8775627  38.6111824   1.6923746
  58.8991006  41.2598974  11.5282298  58.5844447  42.0298537  11.2651861
  58.5780939  40.6969230  10.9434525  58.8049925  41.2909242  11.4023648
  65.5755792  39.7967355   5.4739816  66.3209384  39.6077165   5.0603242
  65.1593096  40.3225593   4.9153673  65.6240766  39.8469500   5.3304390
  58.5307511  43.8596225  10.2667513  57.7207287  44.1654005  10.1557355
  59.0082198  44.5801807  10.3820097  58.4810990  44.0110826  10.2674584
  54.8651543  49.3958775   5.1366915  55.3772640  49.6743028   4.4875675
  54.5787886  50.1348069   5.5029728  54.8986406  49.5461129   5.0956793
  58.3835269  41.4885164   5.1967957  58.1918466  41.5040298   6.0467380
  59.2333865  41.6848838   5.1734612  58.4810991  41.5199515   5.3191252
  52.7682182  44.0176145   3.1751773  52.6267673  43.1660086   3.2996281
  53.0522745  44.0604806   2.3513979  52.7890028  43.8975895   3.0719397
  58.8817801  48.5899954   6.7319245  59.0261177  49.1701162   6.0962355
  59.2293450  48.9676251   7.4369099  58.9545263  48.7320658   6.7418240
  61.2939496  41.6840673   5.4039780  61.7512110  42.4164647   5.5312572
  61.3695824  41.2607138   6.1627036  61.3730466  41.7297911   5.5340857
  53.5372487  41.9306493   6.4929224  53.0014676  41.3186851   6.8089991
  53.5990252  42.5054629   7.1462890  53.4668120  41.9253421   6.6364651
  59.1721874  43.6742777   2.2481604  58.3817948  43.4934237   2.5698940
  59.5682496  42.8969730   2.2311899  59.1138750  43.5330238   2.2934152
  61.6859704  46.1503036   6.7305103  61.6218845  47.0112993   6.6025240
  61.8256892  45.8335029   5.9300654  61.6975174  46.2303203   6.5933316
  66.0657495  52.9247758  12.2869554  66.8792360  52.6532907  12.4474686
  65.9052461  52.6255298  11.4829750  66.1627443  52.8402684  12.1914960
  63.3429657  43.6081415   5.2264942  63.5571626  42.9692329   4.6728296
  62.7263556  44.0527239   4.7972804  63.2834986  43.5791559   5.0815373
  65.5068745  45.2170480   6.1648249  64.6945426  44.9096371   6.2461422
  65.9658679  44.7369480   6.7290961  65.4549130  45.1006973   6.2602843
  62.7344385  36.7181351   0.2152285  61.8637943  36.6920072   0.1685594
  62.9884727  36.5458543  -0.6021869  62.6437946  36.6891494   0.0872422
  62.6022252  46.6230552  10.9476952  63.0721883  47.2472668  11.3344826
  62.6484132  45.9547527  11.5070166  62.6790128  46.6165232  11.0877023
  59.7593526  38.7287579   1.6725755  59.2432014  38.0367771   1.7977334
  59.1987455  39.3958356   1.6188354  59.6000039  38.7250837   1.6831821
  61.8285759  39.2680539   3.5018608  61.4417513  39.2929571   4.2832138
  61.3418697  38.7022218   3.0493124  61.6998268  39.1876290   3.5506512
  61.4942901  36.1547525   5.7928868  62.1236019  36.6907825   5.5149938
  61.6628764  36.0624884   6.6442433  61.6120696  36.2208887   5.8777396
  61.2956816  40.9418719   8.0655279  62.1230245  40.6703868   8.1213894
  61.3164662  41.7379561   8.4219098  61.4209666  41.0198474   8.1270462
  56.1595736  41.6428342   3.3385191  56.6197218  41.7167272   4.0760314
  56.2051843  42.4409596   2.9885012  56.2346292  41.7722489   3.3957947
  57.8079086  42.3095037   7.9057218  57.4164651  41.6628384   8.3412995
  57.9764949  42.9006472   8.5251473  57.7749997  42.3009305   8.0619924
  52.9483514  45.2717533   5.7136907  53.8109127  45.1713242   5.6274237
  52.6175297  44.6912242   5.1522479  53.0268711  45.1709160   5.6182313
  56.3085300  44.0959982   2.3747325  55.6838370  44.1078374   1.7673278
  55.9730895  44.5720157   3.0238565  56.1670792  44.1678499   2.3803893
  55.5776046  45.7053130   4.5922193  55.7369532  44.9496454   4.9973915
  55.3968939  46.2544069   5.2462931  55.5741405  45.6746943   4.7484899
  63.5196349  37.8714365   5.1472983  63.0236910  38.0678039   4.4564550
  64.2765411  38.2707033   4.9761785  63.5583173  37.9592099   5.0193120
  60.7899228  41.5456711   1.7376293  60.8141715  41.0116823   1.0489073
  61.0410702  41.0374020   2.4001884  60.8309147  41.3917615   1.7340938
  48.3006818  48.8288206   1.1719438  48.1950267  48.7835050   0.3071522
  47.5507038  49.1741987   1.4533722  48.1742421  48.8729114   1.0856767
  57.0700550  40.2727529   1.1182038  57.1098922  40.7736736   1.8316745
  56.2450215  40.3637923   0.8487961  56.9540076  40.3609346   1.1832576
  59.2530163  49.8388269   9.2202332  58.4025794  49.9759984   9.3559977
  59.4158291  49.1052048   9.6650034  59.1514027  49.7502371   9.3057932
  58.4914914  46.7888039   3.4155937  57.6606843  46.9561857   3.2091185
  58.4366431  46.4123990   4.2004822  58.3604329  46.7577771   3.5004465
  56.2998697  40.2796932   9.0512347  56.9251400  39.7359065   9.3241780
  55.8449177  39.7991850   8.4820138  56.3246958  40.1286413   9.0073941
  63.8689318  41.2496911   3.6107552  64.2944389  40.7969438   2.9991079
  63.2546311  40.6956982   3.8872340  63.8417963  41.1010887   3.5612578
  63.0040610  51.9849882   9.2251830  62.9636465  51.3399559   8.6396986
  63.8163929  51.9286499   9.5377242  63.1183764  51.8808849   9.1848779
  58.6918319  45.6146819   5.7801588  58.1797222  45.0068001   6.1386619
  58.5197815  46.3303411   6.2475563  58.5907956  45.6310118   5.9017811
  53.5384034  44.0584394   8.4303949  53.3686624  44.7185769   7.8852156
  53.0949984  44.2690955   9.1516439  53.4483367  44.1870376   8.4565579
  62.5687389  43.5371063   8.2203843  63.1258820  43.3084873   7.5882309
  62.2448454  44.2976729   7.9439056  62.6033800  43.6154900   8.0860340
  50.4386098  46.9631259   3.6892439  49.8912818  46.2931905   3.8073308
  51.2278476  46.5961107   3.7535907  50.4738282  46.8096246   3.7161140
  60.2870507  46.6238716   9.1855850  61.0381834  46.9390393   9.4995404
  60.4793083  46.4217887   8.3589772  60.4261921  46.6406098   9.1099246
  49.1973068  46.1752067   0.8438462  49.0194829  45.7228676   1.5693378
  48.9092090  46.9778229   1.0276940  49.1286021  46.2274625   0.9781965
  60.4296562  38.6675207   6.0552234  60.5624468  37.8706200   6.3833209
  60.8141715  39.1941610   6.6350509  60.5052891  38.6275124   6.1895737
  63.5028917  35.5905533   2.6533327  62.6974881  35.4803263   2.9701165
  63.3735653  35.6917989   1.7963193  63.3649050  35.5889203   2.5741367
  58.0885009  38.6634382   4.3030127  58.6329422  38.3225509   4.8934469
  58.1421945  39.5219844   4.4451412  58.1774128  38.7389641   4.4112001
   1.8109846  59.1112864  36.2512193   1.4963287  59.8016343  36.6832616
   1.2936788  59.0557647  35.5497694   1.6874316  59.2047753  36.2109142
   6.1024291  67.3334070  41.5333070   5.2652712  67.4036258  41.7680664
   6.0712522  67.3358565  40.6607372   5.9742573  67.3444297  41.4392618
   3.7832131  62.3976852  40.1176792   4.4258039  62.4674957  40.7038707
   4.0355152  61.7306075  39.6156334   3.9154263  62.3103201  40.1304071
   6.2213633  67.1721489  35.8488756   5.9650198  66.3601431  35.6586638
   7.0642947  67.1799056  35.6218943   6.3079659  67.0533487  35.7873573
   1.0373352  62.1543693  44.3985036   1.7826944  61.9653503  43.9848462
   0.6210656  62.6801930  43.8398893   1.0858326  62.2045838  44.2549610
   8.4135623  69.5252921  39.3490541   8.9643544  68.8920990  39.5887633
   8.3979738  70.0568314  40.0406046   8.4920819  69.5101869  39.4869400
   2.1164029  67.7649255  38.4595138   1.7728795  67.0439590  38.8102387
   2.2157071  67.5563106  37.6173496   2.0806072  67.6273458  38.3866818
   1.2284382  57.2206886  38.1978843   1.3467950  57.6783349  37.4646146
   1.0546557  56.4152147  37.9115061   1.2203553  57.1700658  38.0479777
   3.2653299  68.1919532  41.0503530   2.8380907  68.1045881  40.2951630
   2.6279352  68.2997307  41.6358374   3.1082906  68.1952192  41.0248972
   3.7018067  61.5991515  37.1662155   3.0892381  62.0861917  37.5515887
   3.7982242  60.9235006  37.7099806   3.6255965  61.5709824  37.3041013
   6.2969962  67.4726197  38.6334621   6.0579732  67.4322031  37.7955405
   6.4603863  68.3197349  38.7600342   6.2860265  67.5918282  38.5288103
   2.5228575  64.4903659  38.2763731   2.8756185  64.0633382  38.9509530
   1.6643376  64.4054503  38.4064808   2.4478019  64.4148400  38.3958742
   3.9552635  59.6122071  39.2048044   3.4483499  58.9051211  39.1369221
   4.7520068  59.2815260  39.3349120   3.9979874  59.4595223  39.2147039
   2.5973357  65.1088621  35.3524866   2.5967583  64.9537277  36.2109142
   2.3929537  65.9551608  35.2966251   2.5673135  65.2109241  35.4712805
   2.4212438  64.1127363  42.1718244   1.8375427  64.6136569  41.7595811
   2.7416732  63.6056919  41.5382567   2.3825613  64.1119198  42.0176751
   4.3708791  46.1250756  21.2159316   4.3402795  46.9795393  21.3877585
   4.9690139  45.8246049  21.7745460   4.4545948  46.2067253  21.3234118
   0.8802192  51.4812933  35.5772702   1.5868959  50.9864963  35.7059637
   1.0690127  51.9222014  34.8475360   1.0130098  51.4731283  35.4881748
   2.1925365  48.7003058  19.4877626   2.0764891  49.4510744  19.9169764
   2.9881252  48.4427011  19.7373713   2.2929954  48.7737905  19.5881717
   1.5060670  36.0490996  23.1852240   1.1914111  36.7394474  23.6172662
   0.9887612  35.9935778  22.4837741   1.3825140  36.1425884  23.1449189
   6.3021157  51.6241801  24.6722695   5.4718860  51.8352445  24.8356112
   6.2530409  50.7978856  24.3964979   6.1727892  51.5331407  24.6560061
   5.7975115  44.2712202  28.4673117   4.9603536  44.3414389  28.7020711
   5.7663346  44.2736696  27.5947419   5.6693397  44.2822429  28.3732664
   0.5205301  48.4667878  24.0585008   1.2762816  48.8999393  24.0973917
   0.6267625  47.8172648  24.6319644   0.6475471  48.4345362  24.1483034
   3.5585472  52.2941155  24.8087411   3.1220704  52.2977898  25.5646382
   3.2248387  52.9746654  24.3766988   3.4448092  52.3953611  24.8568244
   3.4782955  39.3354983  27.0516839   4.1208863  39.4053088  27.6378754
   3.7305976  38.6684206  26.5496381   3.6105087  39.2481332  27.0644118
   6.6929818  49.0122075  23.7007048   7.3546252  48.4512744  23.6002957
   6.0521230  48.5174106  24.0259739   6.6958686  48.8558484  23.7339388
   2.9794649  50.0287458  23.4419037   3.2150238  50.1732657  22.6145888
   3.1284212  50.7929866  23.8350551   3.0360452  50.1626512  23.3782641
   4.8085106  48.8689124  21.2788641   5.1393323  49.4016764  20.6728736
   5.3818194  48.9228011  21.9350592   4.9418785  48.9558692  21.2866422
   5.9164457  44.1099620  22.7828802   5.6601022  43.2979562  22.5926685
   6.7593771  44.1177188  22.5558990   6.0030482  43.9911618  22.7213620
   3.5989616  51.2649217  32.6187355   3.3628254  50.4337281  32.4999416
   4.2432845  51.2134824  33.2042199   3.6584287  51.1346905  32.6873249
   4.6226037  51.0493665  28.6815650   4.3171854  51.7821722  29.0428965
   3.9032253  50.6431595  28.4008436   4.4713379  51.0975398  28.6928787
  10.3227829  47.6886666  28.0083994  10.2552329  47.7082625  27.1386580
  10.3083492  48.5316993  28.2339664  10.3106586  47.8160401  27.9136471
   8.1086446  46.4631052  26.2830588   8.6594368  45.8299121  26.5227680
   8.0930562  46.9946445  26.9746092   8.1871643  46.4480000  26.4209446
   1.8114853  44.7027386  25.3935184   1.4679619  43.9817721  25.7442434
   1.9107895  44.4941237  24.5513543   1.7756896  44.5651589  25.3206864
   2.2727882  51.1653090  20.9359172   2.8385914  51.8246300  20.8517715
   1.6255785  51.5102788  21.4075575   2.2606638  51.3135031  20.9931929
   4.2063342  47.8286957  24.5555969   4.1197316  47.9842383  25.4090748
   3.7513822  48.4725033  24.1815374   4.1266599  47.9462712  24.6263076
   1.9737207  51.8581064  26.9668310   1.8351566  52.5562110  27.4717052
   1.1937205  51.7029720  26.6104492   1.8380434  51.9381230  26.9894584
   3.4690580  51.2159318  17.7284809   3.0897388  50.4296456  17.7214098
   2.8056825  51.7646175  17.5856453   3.3149054  51.1804142  17.7065606
   0.9235206  34.1585017  25.1318890   1.0418774  34.6161481  24.3986193
   0.7497381  33.3530279  24.8455107   0.9154377  34.1078789  24.9819823
   1.7150678  53.4604809  18.0636495   1.7970516  54.2671795  17.7397946
   2.2000421  53.4800768  18.7877268   1.7987836  53.5825471  18.1223393
   1.2225879  52.2202227  38.1454821   2.0360744  51.9487376  38.3059953
   1.0620845  51.9209767  37.3415017   1.3195827  52.1357153  38.0500227
   1.2347123  53.2808517  33.4177661   1.8726843  52.7868713  33.0840117
   0.5921214  53.2085918  32.8329888   1.2341349  53.1967526  33.2820016
   2.9604123  45.1297663  27.9843577   2.5331731  45.0424012  27.2291676
   2.3230176  45.2375439  28.5698421   2.8033730  45.1330323  27.9589018
   1.2901379  53.9728325  30.0583018   2.0793757  53.6217390  30.1785100
   1.4644977  54.7864714  29.7959652   1.4321661  54.0414183  30.0370886
   3.3968891  38.5369646  24.1002202   2.7843205  39.0240049  24.4855934
   3.4933066  37.8613137  24.6439853   3.3206789  38.5087955  24.2381060
   7.0393919  49.6086583  29.5279718   7.0977043  50.0573232  30.2739695
   6.4060387  50.0185396  29.0909798   6.9545214  49.7360318  29.5732266
   3.9915599  47.6302871  27.6145408   3.7513822  46.7909286  27.6187835
   4.4707606  47.7103038  28.3386182   4.0267782  47.5184271  27.7220211
   5.9920786  44.4104328  25.5674667   5.7530556  44.3700162  24.7295452
   6.1554687  45.2575480  25.6940389   5.9811089  44.5296413  25.4628149
   2.5966816  48.7954277  31.4979713   3.3201015  48.3426804  31.3190733
   2.3316778  49.0758943  30.7152040   2.6648089  48.7705246  31.3558428
   5.0302130  47.7580688  30.0010262   5.6219970  48.3977939  30.0328460
   5.4661124  47.0603725  30.2902329   5.1820561  47.7499039  30.0491095
   2.0551271  44.9725907  22.3013405   1.3842461  45.5155609  22.1726470
   2.7491021  45.4420762  22.0595100   2.0580139  45.1224178  22.2468933
   2.2179399  41.4281790  25.2103778   2.5707009  41.0011513  25.8849577
   1.3594200  41.3432634  25.3404854   2.1428843  41.3526531  25.3298788
   3.6503459  36.5500202  26.1388091   3.1434323  35.8429342  26.0709268
   4.4470892  36.2193391  26.2689167   3.6930698  36.3973354  26.1487085
   5.8523599  51.0665129  19.1228955   6.2357204  51.8156485  19.3527052
   5.0567712  51.3130949  18.8640944   5.7917381  51.2134823  19.1186529
   2.2924181  42.0466752  22.2864913   2.2918407  41.8915408  23.1449189
   2.0880361  42.8929739  22.2306298   2.2623959  42.1487373  22.4052852
   2.0816852  49.4767941  28.6278248   2.5071923  48.9542363  28.0748673
   1.7173772  50.0748779  28.1066871   2.0903454  49.4878168  28.4687258
   0.7572436  54.8003519  37.1371478   0.8669401  54.0112079  37.4928225
   1.0863332  54.7109455  36.3345816   0.8224841  54.6709372  37.0713868
   2.1163262  41.0505494  29.1058291   1.5326251  41.5514701  28.6935858
   2.4367556  40.5435050  28.4722614   2.0776437  41.0497329  28.9516798
  15.3441374  61.6436064  21.2159316  15.3135378  62.4980701  21.3877585
  15.9422723  61.3431357  21.7745460  15.4278532  61.7252561  21.3234118
   8.5441059  60.7311715  25.9712246   7.6878954  60.8920213  26.0221363
   8.5908713  59.8603779  25.9917307   8.4240170  60.6262517  25.9818312
  11.8534775  66.9998241  35.5772702  12.5601543  66.5050271  35.7059637
  12.0422711  67.4407322  34.8475360  11.9862681  66.9916591  35.4881748
  11.3892880  62.7903759  28.6143898  11.9348840  63.4688846  28.6737868
  11.3309756  62.6491220  27.7545479  11.4608794  62.8695761  28.4955959
  13.1657949  64.2188366  19.4877626  13.0497475  64.9696052  19.9169764
  13.9613835  63.9612319  19.7373713  13.2662538  64.2923213  19.5881717
   7.0989982  60.2098384  20.8581355   7.7970147  60.3886511  21.3502818
   7.4142315  59.6868723  20.2351744   7.2485319  60.1592156  20.8383365
   7.2877918  66.5968829  20.8461146   7.7271553  65.9885929  21.2915919
   7.1382580  66.2176202  20.0746611   7.3299383  66.4507300  20.7980314
   4.7549561  65.1912841  28.0479972   5.3998563  64.6985284  27.7290920
   4.9951338  65.3337627  28.8746050   4.8860146  65.1390283  28.1229505
   7.2935652  68.0367747  27.6986864   7.5758895  67.2419152  27.4773620
   8.0221812  68.5148334  27.7191925   7.4425216  67.9902344  27.6689880
   5.2716846  55.5790781  24.9402629   4.9420176  56.0301924  24.2706328
   4.5961848  55.5006944  25.4875636   5.1227282  55.6341916  24.9225853
  10.8887254  64.9496010  17.7991916  10.8038549  65.8056977  17.9441484
  11.3771637  64.6740334  18.4674075  10.9476151  65.0353332  17.9193997
  12.4793254  51.5676304  23.1852240  12.1646695  52.2579782  23.6172662
  11.9620195  51.5121086  22.4837741  12.3557724  51.6611192  23.1449189
  11.8205687  61.5680804  19.2989651  11.2917159  61.7840438  19.9586957
  12.3430707  62.2616943  19.2190620  11.8194140  61.7023941  19.3845250
  17.2753740  67.1427109  24.6722695  16.4451443  67.3537753  24.8356112
  17.2262993  66.3164163  24.3964979  17.1460476  67.0516715  24.6560061
   8.9927070  70.4225777  33.4686778   9.0810416  70.2351918  34.3164988
   9.4216782  69.7763207  33.0691624   9.0689172  70.2988785  33.5358529
   8.1682510  61.7109673  16.5766039   8.4078513  61.9187657  15.7641382
   8.4898351  60.9067182  16.6854984   8.2519667  61.6223775  16.4726592
   3.4772800  53.6403069  20.4225577   4.2318768  54.0081386  20.1842627
   3.3000334  54.0142623  21.1904757   3.5627278  53.7501257  20.5010466
  16.7707699  59.7897510  28.4673117  15.9336120  59.8599697  28.7020711
  16.7395930  59.7922004  27.5947419  16.6425981  59.8007737  28.3732664
   3.1672428  61.9330545  34.1821485   3.3392931  61.8236440  35.0306767
   3.7041785  62.5784951  33.9452677   3.2717432  62.0122547  34.2726582
   1.8329864  56.0473388  17.1203690   1.6505438  56.2645269  16.2944683
   2.6955478  56.1612401  17.1762305   1.9334454  56.0963286  17.0058177
   1.4444296  67.8861310  24.5626678   2.2833196  68.1184243  24.6100440
   1.4756066  67.0165622  24.4933713   1.5726014  67.7918257  24.5591323
   7.5129584  53.0499799  20.1552714   8.2415744  52.8715754  19.7090870
   7.6024477  53.8917878  20.3659892   7.6336246  53.1483677  20.1206232
  11.4937884  63.9853186  24.0585008  12.2495399  64.4184700  24.0973917
  11.6000209  63.3357956  24.6319644  11.6208055  63.9530670  24.1483034
  14.5318055  67.8126463  24.8087411  14.0953287  67.8163206  25.5646382
  14.1980971  68.4931962  24.3766988  14.4180675  67.9138919  24.8568244
   9.1047129  69.8534796  36.1330561   9.8887546  69.9665644  36.4986303
   8.9043724  69.0275933  36.3289247   9.1913154  69.7481516  36.2164947
  14.4515538  54.8540291  27.0516839  15.0941447  54.9238396  27.6378754
  14.7038559  54.1869514  26.5496381  14.5837671  54.7666640  27.0644118
   2.2232751  58.0640855  31.6641413   1.5304548  57.5937834  31.9102144
   2.8393078  57.8379159  32.2383120   2.2117281  57.9607986  31.7850565
  17.6662402  64.5307383  23.7007048  18.3278836  63.9698052  23.6002957
  17.0253814  64.0359414  24.0259739  17.6691269  64.3743792  23.7339388
  13.9527232  65.5472766  23.4419037  14.1882822  65.6917965  22.6145888
  14.1016796  66.3115174  23.8350551  14.0093036  65.6811820  23.3782641
   0.9473310  62.0306259  32.8068258   1.6713282  62.0159289  33.2933153
   1.0489446  62.7401614  32.3090226   1.0691519  62.1330962  32.8047045
  15.7817689  64.3874432  21.2788641  16.1125906  64.9202072  20.6728736
  16.3550777  64.4413319  21.9350592  15.9151368  64.4744000  21.2866422
   8.3218259  65.5105343  37.6717205   7.5291240  65.8248855  37.8569825
   8.4367186  65.7256812  36.8337990   8.2213670  65.5889180  37.5755540
  10.9949578  62.2339334  21.9612221  11.0896433  62.9728628  22.4151846
  10.3708422  61.8056810  22.3946785  10.9158608  62.2800655  22.0920368
   9.2502052  65.4125547  32.6102502   9.8240914  64.7752791  32.7651066
   9.1716856  65.4129629  31.7412159   9.3235287  65.3190658  32.5048913
  11.2472600  64.0788074  15.1949173  11.1652762  64.1490261  16.0604160
  11.8852320  64.6417818  15.0032914  11.3292437  64.1727045  15.2939122
   4.6065771  63.8448812  24.6623699   4.3485015  63.0120547  24.6354999
   4.6614254  64.0706425  23.8216200   4.5765549  63.7546583  24.5343836
   9.6866821  55.9477263  24.7627792   8.9823148  55.4586448  24.9211711
   9.7351795  55.9599737  23.8916236   9.5896872  55.8766911  24.6567132
   3.5800483  61.3986574  25.1488594   3.0050074  61.5578743  25.7852555
   3.2036159  60.7621984  24.6857045   3.4403295  61.3284387  25.1743152
   7.2473772  59.8709924  30.0080972   6.8588204  59.4464141  29.3533164
   6.5828470  60.1192073  30.5157999   7.0920699  59.8448645  29.9868840
  16.8897041  59.6284928  22.7828802  16.6333605  58.8164870  22.5926685
  17.7326355  59.6362496  22.5558990  16.9763066  59.5096926  22.7213620
  11.0700133  53.5684553  27.5204957  11.4510645  52.8862724  27.9072831
  10.2663417  53.2794155  27.3380621  11.0076595  53.4251601  27.5509013
   8.3512710  64.1008528  18.2057779   9.1653349  64.3923421  18.0940551
   8.2871851  63.4468391  17.6316072   8.4615449  64.0473723  18.1046617
  14.5722200  66.7834524  32.6187355  14.3360837  65.9522589  32.4999416
  15.2165429  66.7320132  33.2042199  14.6316871  66.6532212  32.6873249
   4.2220618  67.5730046  23.3330091   4.8594565  67.3341793  23.8781885
   4.6475690  67.7767205  22.5983252   4.3796784  67.5681056  23.3047249
   5.0291973  56.0738751  37.3867565   4.7145415  56.8438313  37.1237128
   4.7081906  55.5109007  36.8019792   4.9350893  56.1049019  37.2608915
  15.5958621  66.5678973  28.6815650  15.2904438  67.3007030  29.0428965
  14.8764836  66.1616903  28.4008436  15.4445963  66.6160706  28.6928787
   6.6042090  68.0502468  25.0123878   6.6781098  67.8877640  25.8665728
   7.4211596  68.2392658  24.7684359   6.7358449  68.0539211  25.1021903
  21.2960413  63.2071974  28.0083994  21.2284913  63.2267933  27.1386580
  21.2816075  64.0502301  28.2339664  21.2839169  63.3345709  27.9136471
   2.5823870  54.4629272  23.0013761   1.7146296  54.5351872  23.0671371
   2.8699075  55.2651351  23.1901736   2.4963619  54.5923419  23.0388528
  11.7056759  54.6107132  31.3325083  12.4510351  54.4216942  30.9188509
  11.2894064  55.1365370  30.7738940  11.7541733  54.6609277  31.1889656
  19.0819030  61.9816360  26.2830588  19.6326952  61.3484429  26.5227680
  19.0663145  62.5131753  26.9746092  19.1604226  61.9665308  26.4209446
   5.7341421  65.8154957  30.8290482   5.2353115  66.5270725  30.9075370
   6.5441645  66.1355624  30.7908644   5.7797528  65.9681806  30.8347050
   1.9969539  65.0777910  25.0753202   1.7082787  64.4515382  25.6098930
   2.8652887  65.0198198  25.1417883   2.0829790  64.9765455  25.1644157
  12.7847436  60.2212694  25.3935184  12.4412202  59.5003029  25.7442434
  12.8840479  60.0126545  24.5513543  12.7489479  60.0836897  25.3206864
  13.2460465  66.6838398  20.9359172  13.8118498  67.3431608  20.8517715
  12.5988369  67.0288096  21.4075575  13.2339222  66.8320339  20.9931929
   4.6608479  58.6736002  36.1252780   3.8508255  58.9793781  36.0142622
   5.1383166  59.3941584  36.2405364   4.6111958  58.8250603  36.1259851
   3.5200038  67.8881723  26.3735683   2.9980792  68.0282014  27.0587548
   3.9074059  67.1292387  26.5637800   3.5003739  67.7967247  26.5036759
   9.7167043  69.6277182  20.3596252   9.4753719  68.8945043  19.9523317
   9.8968376  70.1764039  19.7062585   9.7074667  69.5999573  20.2026475
   4.9466364  64.9185742  21.7717174   4.7509147  65.5260476  21.1777477
   5.1700710  64.2253686  21.2908848   4.9501005  64.9063267  21.6133255
   3.3444894  61.8040480  21.8898042   4.0667546  61.9681638  21.4301848
   2.8652887  62.5250145  21.7837382   3.3808625  61.9338709  21.8063656
  11.3038402  58.1404279  27.2694727  10.4649502  58.1665557  27.0332991
  11.3742769  58.7875014  27.8500074  11.1906795  58.2400404  27.3203844
   0.9952511  64.2098552  30.9952182   1.5073608  64.4882805  30.3460942
   0.7088853  64.9487846  31.3614995   1.0287374  64.3600906  30.9542060
   9.7507680  55.0389656  22.0022343  10.4534033  54.8397404  21.5242301
   9.4851869  54.2665598  22.3091187   9.8154312  54.8952622  21.9767785
  15.1795926  63.3472265  24.5555969  15.0929900  63.5027691  25.4090748
  14.7246405  63.9910341  24.1815374  15.0999182  63.4648020  24.6263076
   4.5136236  56.3024941  31.0553224   4.3219433  56.3180075  31.9052647
   5.3634832  56.4988615  31.0319879   4.6111958  56.3339292  31.1776519
   9.0521742  60.6683012  23.1781529   8.8056456  60.5878763  24.0118317
   9.3806865  59.8836480  22.9844056   9.0642985  60.5409278  23.2729052
  12.9469790  67.3766372  26.9668310  12.8084150  68.0747418  27.4717052
  12.1669788  67.2215028  26.6104492  12.8113017  67.4566538  26.9894584
  11.2847876  63.6762747  33.2190691  11.2795914  62.8042564  33.2233118
  11.9908869  63.8750916  32.7460147  11.3892880  63.5766621  33.1497727
   5.0118769  63.4039731  32.5904512   5.1562145  63.9840939  31.9547622
   5.3594417  63.7816028  33.2954366   5.0846230  63.5460435  32.6003507
   7.1838686  62.6029899  30.3729643   6.4362000  62.7960914  29.9677921
   7.3380211  61.7775119  30.1353764   7.0961114  62.5095011  30.2775049
  14.4423163  66.7344626  17.7284809  14.0629972  65.9481763  17.7214098
  13.7789409  67.2831483  17.5856453  14.2881638  66.6989450  17.7065606
   7.4240463  56.4980450  31.2625047   7.8813077  57.2304424  31.3897839
   7.4996792  56.0746915  32.0212303   7.5031433  56.5437688  31.3926123
  11.8967789  49.6770325  25.1318890  12.0151357  50.1346789  24.3986193
  11.7229965  48.8715587  24.8455107  11.8886960  49.6264097  24.9819823
   5.3022841  58.4882554  28.1066871   4.5118916  58.3074014  28.4284207
   5.6983464  57.7109507  28.0897165   5.2439717  58.3470015  28.1519419
  10.6866527  66.1224984  25.8326317  10.0111529  65.8910216  26.3339704
  10.6958904  65.5146167  25.2068422  10.5885032  65.9983909  25.8142469
   7.8160671  60.9642813  32.5890370   7.7519813  61.8252770  32.4610507
   7.9557859  60.6474806  31.7885921   7.8276141  61.0442980  32.4518583
  12.6883262  68.9790117  18.0636495  12.7703099  69.7857103  17.7397946
  13.1733004  68.9986076  18.7877268  12.7720420  69.1010779  18.1223393
   6.4979765  63.6574952  26.7306573   6.0742014  63.8579452  25.9945591
   6.3224621  62.8103800  26.8430873   6.4090646  63.5623734  26.6380263
   1.7862210  64.1527004  22.1634545   1.9426829  64.0873807  23.0190537
   2.1262803  64.9275556  21.9513225   1.8595445  64.2576202  22.2589139
   8.3241355  63.5284887  21.0327908   8.8656900  63.0255269  21.4966529
   8.6387914  63.4750082  20.2217394   8.4505752  63.4464308  20.9811721
  12.1958462  67.7387535  38.1454821  13.0093328  67.4672684  38.3059953
  12.0353429  67.4395075  37.3415017  12.2928411  67.6542461  38.0500227
   9.4730624  58.4221192  31.0850209   9.6872594  57.7832106  30.5313563
   8.8564523  58.8667016  30.6558071   9.4135954  58.3931336  30.9400640
  11.6369712  60.0310257  32.0233516  10.8246394  59.7236148  32.1046689
  12.0959647  59.5509257  32.5876228  11.5850097  59.9146750  32.1188110
  11.0474967  67.9089929  22.4710460  10.6889622  68.0804572  23.2474493
  10.5613678  68.3703135  21.9138459  10.9233664  68.0028900  22.5035729
   8.8645353  51.5321128  26.0737552   7.9938911  51.5059849  26.0270861
   9.1185694  51.3598320  25.2563397   8.7738913  51.5031271  25.9457689
   8.7323220  61.4370329  36.8062218   9.2022851  62.0612445  37.1930092
   8.7785100  60.7687304  37.3655433   8.8091096  61.4305009  36.9462290
   5.8894493  53.5427356  27.5311022   5.3732982  52.8507548  27.6562601
   5.3288422  54.2098133  27.4773621   5.7301007  53.5390614  27.5417088
   7.9586727  54.0820316  29.3603875   7.5718480  54.1069348  30.1417405
   7.4719664  53.5161995  28.9078391   7.8299236  54.0016067  29.4091778
  12.2079706  68.7993825  33.4177661  12.8459427  68.3054021  33.0840117
  11.5653798  68.7271226  32.8329888  12.2073933  68.7152834  33.2820016
  13.9336706  60.6482971  27.9843577  13.5064314  60.5609320  27.2291676
  13.2962759  60.7560747  28.5698421  13.7766314  60.6515631  27.9589018
   7.6243869  50.9687302  31.6514135   8.2536987  51.5047602  31.3735205
   7.7929731  50.8764661  32.5027700   7.7421663  51.0348664  31.7362663
   7.4257783  55.7558496  33.9240546   8.2531213  55.4843645  33.9799161
   7.4465630  56.5519338  34.2804364   7.5510634  55.8338251  33.9855729
  12.2633963  69.4913633  30.0583018  13.0526341  69.1402698  30.1785100
  12.4377561  70.3050022  29.7959652  12.4054245  69.5599491  30.0370886
   2.0027273  62.9022359  27.1110807   1.1615280  62.8026233  27.3189701
   2.2117281  63.6717839  27.4625128   1.9091966  63.0014402  27.1938122
  11.1167787  53.5023190  24.6199436  11.3217380  53.4345498  25.4656434
  10.7894211  54.3082011  24.5520614  11.0983035  53.6109131  24.7359092
   5.8143938  60.8303758  26.3608404   5.5107076  60.2759747  26.9618812
   5.1123359  61.0095968  25.8736439   5.6660148  60.7748541  26.3778110
   4.8710035  58.1404278  20.9253106   5.1469770  57.4223191  20.5130674
   5.4708705  58.7389198  20.7174212   5.0003300  58.1224649  20.8333867
  14.3701475  54.0554954  24.1002202  13.7575788  54.5425357  24.4855934
  14.4665650  53.3798445  24.6439853  14.2939372  54.0273263  24.2381060
   8.3720556  55.8117796  19.1999701   8.8264302  55.9828356  19.9247546
   8.8460602  55.1985906  18.7997477   8.5088876  55.7468681  19.2473463
   1.8936081  65.2966121  28.5302440   1.3024014  65.9375620  28.5005455
   2.6557105  65.7203739  28.5033739   1.9184342  65.4541960  28.5217587
   2.2896704  56.4568119  29.1970457   2.7498186  56.5307049  29.9345581
   2.3352811  57.2549373  28.8470279   2.3647259  56.5862266  29.2543214
   3.9380054  57.1234814  33.7642484   3.5465619  56.4768161  34.1998262
   4.1065916  57.7146249  34.3836740   3.9050964  57.1149082  33.9205190
  18.0126503  65.1271891  29.5279718  18.0709626  65.5758540  30.2739695
  17.3792970  65.5370704  29.0909798  17.9277798  65.2545626  29.5732266
  11.6525597  70.7475433  25.9634464  11.4545286  71.2366248  25.2690676
  11.0313308  70.9516675  26.5418598  11.5313162  70.8491971  25.9457687
   5.7133576  62.5160330  20.3044708   6.4575621  62.9034606  20.5427658
   5.8594272  61.6717755  20.4685196   5.8444161  62.4490803  20.3638678
   7.6313151  54.3110589  25.3376570   6.7849196  54.4833397  25.2117920
   7.6284284  53.5059932  25.6742398   7.5060301  54.2171618  25.3687697
   8.7011452  58.0885803  26.2038628   8.2271406  57.5627565  26.7143939
   9.0729587  57.5415276  25.6353489   8.6861341  57.9301800  26.1953775
  14.9648182  63.1488179  27.6145408  14.7246405  62.3094594  27.6187835
  15.4440189  63.2288346  28.3386182  15.0000366  63.0369579  27.7220211
  10.6294951  58.9822358  19.2664382  10.1017970  59.0651102  18.5770090
  11.0890659  59.7240229  19.2629026  10.6196802  59.1043020  19.1639077
  16.9653369  59.9289636  25.5674667  16.7263139  59.8885470  24.7295452
  17.1287271  60.7760788  25.6940389  16.9543673  60.0481721  25.4628149
  13.5699399  64.3139585  31.4979713  14.2933598  63.8612112  31.3190733
  13.3049362  64.5944251  30.7152040  13.6380673  64.2890554  31.3558428
   2.4386268  58.9099759  28.2332592   1.8139338  58.9218151  27.6258544
   2.1031863  59.3859934  28.8823832   2.2971760  58.9818276  28.2389160
  10.1832034  67.5525921  18.3974039  10.9066233  68.0184034  18.2538612
   9.7432625  67.6199531  17.6471636  10.2247726  67.6309758  18.2658820
   9.3518189  64.4123464  29.6474728   8.7375182  63.8681514  29.9423363
   9.8685474  63.8987700  29.1680544   9.3373851  64.2559873  29.6198956
   8.5914486  65.4827734  27.3819026   8.1642094  64.8577452  26.9484462
   8.5839430  65.2002655  28.2078033   8.5273627  65.3480514  27.4398854
   1.7077013  60.5192907  30.4507460   1.8670500  59.7636231  30.8559182
   1.5269907  61.0683846  31.1048198   1.7042372  60.4886720  30.6070166
   9.6497316  52.6854142  31.0058250   9.1537877  52.8817816  30.3149816
  10.4066378  53.0846810  30.8347051   9.6884141  52.7731876  30.8778386
   6.9200196  56.3596488  27.5961560   6.9442683  55.8256600  26.9074340
   7.1711669  55.8513797  28.2587151   6.9610114  56.2057392  27.5926205
   3.2001518  55.0867306  26.9767305   3.2399890  55.5876513  27.6902012
   2.3751183  55.1777700  26.7073228   3.0841044  55.1749123  27.0417843
   5.3831131  64.6528046  35.0787599   4.5326761  64.7899761  35.2145244
   5.5459259  63.9191825  35.5235301   5.2814994  64.5642148  35.1643198
   4.6215881  61.6027816  29.2741204   3.7907811  61.7701634  29.0676452
   4.5667399  61.2263767  30.0590089   4.4905296  61.5717547  29.3589732
   2.4299665  55.0936709  34.9097614   3.0552368  54.5498842  35.1827047
   1.9750145  54.6131627  34.3405405   2.4547925  54.9426190  34.8659208
   2.9951925  59.8783408  19.8031321   3.1354886  60.3755872  20.5059963
   3.4934458  59.1769702  19.9445535   3.0893006  59.8485387  19.9282900
  16.0034713  63.2765996  30.0010262  16.5952554  63.9163247  30.0328460
  16.4393708  62.5789033  30.2902329  16.1553145  63.2684346  30.0491095
   4.6031130  56.6764494  17.1069340   4.9246971  56.1967577  16.4528602
   4.8658074  57.4864140  16.9160152   4.6897156  56.7254392  16.9824832
   7.8328103  67.6983369  30.6268156   7.3253194  68.2519215  31.0708787
   7.5354749  67.7591658  29.8086931   7.7132988  67.7889680  30.5716613
   9.9990285  56.0636688  29.4692819  10.4245357  55.6109215  28.8576346
   9.3847279  55.5096759  29.7457607   9.9718931  55.9150664  29.4197844
   8.4384508  52.5351788  22.8783396   7.7952826  52.3849434  23.4468535
   8.0983915  52.2894133  22.1132501   8.2929586  52.4763910  22.8486411
  13.0283855  60.4911215  22.3013405  12.3575045  61.0340917  22.1726470
  13.7223605  60.9606070  22.0595100  13.0312722  60.6409486  22.2468933
  13.1911982  56.9467098  25.2103778  13.5439592  56.5196821  25.8849577
  12.3326784  56.8617942  25.3404854  13.1161427  56.8711839  25.3298788
   1.8895667  59.5774618  23.2686625   1.1707656  59.9938751  23.5359488
   2.2608029  60.1428857  22.7178263   1.8387599  59.7223900  23.2269432
  11.1895248  60.2102467  29.1588620  11.1693175  60.0285762  30.0123399
  11.2374449  61.0814486  29.1348204  11.1929889  60.3119005  29.2811915
   9.1341578  66.7989659  35.0837097   9.0937433  66.1539336  34.4982253
   9.9464896  66.7426276  35.3962509   9.2484731  66.6948626  35.0434046
   7.6642242  58.6172618  18.6060004   7.0707081  58.9389614  18.0544571
   7.7017519  57.7713713  18.3981110   7.5816631  58.5396946  18.4942775
  14.6236042  52.0685510  26.1388091  14.1166907  51.3614650  26.0709268
  15.4203476  51.7378699  26.2689167  14.6663281  51.9158662  26.1487085
  10.5400058  58.5752122  22.0361754  10.3113751  58.5984824  21.1940112
  10.7998134  57.7509590  22.1556765  10.5446246  58.4568202  21.9286952
   4.8219287  60.4286596  31.6386854   4.3098190  59.8207778  31.9971886
   4.6498783  61.1443188  32.1060830   4.7208924  60.4449895  31.7603078
   3.5944821  57.1128669  23.3315950   4.0702187  57.4745749  22.6966131
   3.0933420  57.7685136  23.6116093   3.5910180  57.2622858  23.2792691
  16.8256182  66.5850437  19.1228955  17.2089788  67.3341793  19.3527052
  16.0300296  66.8316257  18.8640944  16.7649964  66.7320131  19.1186529
   8.6988357  58.3510840  34.0789110   9.2559787  58.1224650  33.4467575
   8.3749422  59.1116506  33.8024322   8.7334767  58.4294677  33.9445607
   6.4171474  61.4378493  35.0441117   7.1682801  61.7530170  35.3580671
   6.6094051  61.2357664  34.2175039   6.5562888  61.4545875  34.9684513
   5.6371474  59.2569869  16.6989334   6.0170439  59.2749498  15.9140449
   4.8964070  59.7023857  16.5780181   5.5840312  59.3251643  16.5652902
  13.2656764  57.5652060  22.2864913  13.2650991  57.4100716  23.1449189
  13.0612944  58.4115047  22.2306298  13.2356542  57.6672681  22.4052852
  10.9897616  62.2449562  25.9401119  11.4851282  61.5272557  25.9005140
  10.1797392  61.9420359  25.8255606  10.9441510  62.0947208  25.9174845
  13.0549435  64.9953249  28.6278248  13.4804507  64.4727671  28.0748673
  12.6906355  65.5934087  28.1066871  13.0636038  65.0063476  28.4687258
   9.6428035  68.7087513  24.9579406  10.1139213  69.4227776  25.1269391
   9.9788213  68.1086264  25.4939275   9.7623150  68.7258978  25.0611782
  11.7305019  70.3188827  37.1371478  11.8401985  69.5297387  37.4928225
  12.0595916  70.2294763  36.3345816  11.7957425  70.1894680  37.0713868
   6.5597530  53.4814984  31.9137500   6.6925435  52.6845977  32.2418476
   6.9442682  54.0081387  32.4935776   6.6353858  53.4414901  32.0481003
  10.2801981  68.5005448  31.7207098   9.7322927  67.8763331  31.4527164
  10.7415010  68.6899720  31.0051178  10.2669190  68.4364498  31.5757529
   9.6329885  50.4045310  28.5118594   8.8275848  50.2943040  28.8286432
   9.5036620  50.5057766  27.6548460   9.4950018  50.4028980  28.4326634
  13.0895845  56.5690802  29.1058291  12.5058834  57.0700008  28.6935858
  13.4100139  56.0620358  28.4722614  13.0509021  56.5682637  28.9516798
   5.6290644  55.4831397  19.3816965   6.4506339  55.6529710  19.1398660
   5.1660295  55.6378658  18.6583263   5.6821807  55.5313130  19.2388610
   4.2185976  53.4774159  30.1615394   4.7630389  53.1365286  30.7519736
   4.2722912  54.3359621  30.3036679   4.3075096  53.5529418  30.2697268
   9.8460307  69.5056520  28.2516440  10.6658681  69.3619486  28.5132735
   9.5654385  70.1302719  28.7932877   9.9257051  69.5766872  28.3704379
  16.2449429  71.0976089  24.9402629  15.9152759  71.5487232  24.2706328
  15.5694431  71.0192252  25.4875636  16.0959866  71.1527224  24.9225853
  23.4525837  67.0861611  23.1852240  23.1379278  67.7765090  23.6172662
  22.9352779  67.0306394  22.4837741  23.3290308  67.1796500  23.1449189
  14.4505383  69.1588377  20.4225577  15.2051351  69.5266694  20.1842627
  14.2732918  69.5327931  21.1904757  14.5359862  69.2686565  20.5010466
  27.7440282  75.3082817  28.4673117  26.9068703  75.3785005  28.7020711
  27.7128513  75.3107312  27.5947419  27.6158565  75.3193045  28.3732664
  12.8062448  71.5658696  17.1203690  12.6238021  71.7830577  16.2944683
  13.6688061  71.6797709  17.1762305  12.9067038  71.6148594  17.0058177
  18.4862167  68.5685107  20.1552714  19.2148328  68.3901062  19.7090870
  18.5757060  69.4103186  20.3659892  18.6068829  68.6668985  20.1206232
  25.4248122  70.3725599  27.0516839  26.0674030  70.4423704  27.6378754
  25.6771143  69.7054822  26.5496381  25.5570254  70.2851948  27.0644118
  20.6599404  71.4662571  24.7627792  19.9555731  70.9771756  24.9211711
  20.7084379  71.4785045  23.8916236  20.5629456  71.3952219  24.6567132
  27.8629624  75.1470236  22.7828802  27.6066189  74.3350178  22.5926685
  28.7058938  75.1547804  22.5558990  27.9495650  75.0282234  22.7213620
  22.0432717  69.0869860  27.5204957  22.4243228  68.4048032  27.9072831
  21.2396001  68.7979463  27.3380621  21.9809178  68.9436909  27.5509013
  16.0024557  71.5924059  37.3867565  15.6877998  72.3623621  37.1237128
  15.6814490  71.0294315  36.8019792  15.9083476  71.6234327  37.2608915
  13.5556454  69.9814580  23.0013761  12.6878879  70.0537180  23.0671371
  13.8431658  70.7836659  23.1901736  13.4696202  70.1108727  23.0388528
  22.6789343  70.1292440  31.3325083  23.4242935  69.9402250  30.9188509
  22.2626647  70.6550677  30.7738940  22.7274317  70.1794585  31.1889656
  23.7580020  75.7398002  25.3935184  23.4144786  75.0188337  25.7442434
  23.8573062  75.5311853  24.5513543  23.7222063  75.6022205  25.3206864
  22.2770985  73.6589586  27.2694727  21.4382086  73.6850865  27.0332991
  22.3475353  74.3060322  27.8500074  22.1639379  73.7585712  27.3203844
  20.7240264  70.5574963  22.0022343  21.4266616  70.3582712  21.5242301
  20.4584452  69.7850906  22.3091187  20.7886896  70.4137930  21.9767785
  15.4868820  71.8210249  31.0553224  15.2952017  71.8365383  31.9052647
  16.3367416  72.0173923  31.0319879  15.5844542  71.8524600  31.1776519
  18.3973047  72.0165758  31.2625047  18.8545661  72.7489732  31.3897839
  18.4729376  71.5932223  32.0212303  18.4764017  72.0622996  31.3926123
  22.8700373  65.1955633  25.1318890  22.9883941  65.6532097  24.3986193
  22.6962548  64.3900894  24.8455107  22.8619544  65.1449405  24.9819823
  20.4463208  73.9406500  31.0850209  20.6605177  73.3017414  30.5313563
  19.8297107  74.3852324  30.6558071  20.3868537  73.9116644  30.9400640
  19.8377937  67.0506436  26.0737552  18.9671494  67.0245157  26.0270861
  20.0918278  66.8783628  25.2563397  19.7471497  67.0216579  25.9457689
  16.8627077  69.0612664  27.5311022  16.3465566  68.3692855  27.6562601
  16.3021006  69.7283441  27.4773621  16.7033590  69.0575922  27.5417088
  18.9319310  69.6005624  29.3603875  18.5451064  69.6254656  30.1417405
  18.4452248  69.0347303  28.9078391  18.8031819  69.5201375  29.4091778
  18.5976452  66.4872610  31.6514135  19.2269570  67.0232910  31.3735205
  18.7662315  66.3949968  32.5027700  18.7154247  66.5533972  31.7362663
  18.3990367  71.2743804  33.9240546  19.2263796  71.0028953  33.9799161
  18.4198213  72.0704646  34.2804364  18.5243217  71.3523559  33.9855729
  22.0900371  69.0208498  24.6199436  22.2949964  68.9530806  25.4656434
  21.7626795  69.8267319  24.5520614  22.0715619  69.1294438  24.7359092
  25.3434058  69.5740262  24.1002202  24.7308372  70.0610664  24.4855934
  25.4398233  68.8983753  24.6439853  25.2671956  69.5458571  24.2381060
  19.3453139  71.3303103  19.1999701  19.7996886  71.5013664  19.9247546
  19.8193185  70.7171214  18.7997477  19.4821459  71.2653989  19.2473463
  18.6045735  69.8295897  25.3376570  17.7581780  70.0018704  25.2117920
  18.6016867  69.0245240  25.6742398  18.4792885  69.7356926  25.3687697
  19.6744035  73.6071111  26.2038628  19.2003989  73.0812873  26.7143939
  20.0462171  73.0600584  25.6353489  19.6593924  73.4487108  26.1953775
  27.9385953  75.4474944  25.5674667  27.6995723  75.4070778  24.7295452
  28.1019854  76.2946096  25.6940389  27.9276256  75.5667029  25.4628149
  20.6229900  68.2039450  31.0058250  20.1270461  68.4003124  30.3149816
  21.3798962  68.6032118  30.8347051  20.6616724  68.2917184  30.8778386
  14.1734102  70.6052614  26.9767305  14.2132473  71.1061821  27.6902012
  13.3483766  70.6963008  26.7073228  14.0573627  70.6934431  27.0417843
  13.4032248  70.6122017  34.9097614  14.0284952  70.0684150  35.1827047
  12.9482728  70.1316935  34.3405405  13.4280509  70.4611498  34.8659208
  20.9722869  71.5821996  29.4692819  21.3977941  71.1294522  28.8576346
  20.3579862  71.0282067  29.7457607  20.9451514  71.4335972  29.4197844
  19.4117092  68.0537096  22.8783396  18.7685410  67.9034742  23.4468535
  19.0716499  67.8079441  22.1132501  19.2662169  67.9949218  22.8486411
  24.1644566  72.4652406  25.2103778  24.5172176  72.0382129  25.8849577
  23.3059367  72.3803250  25.3404854  24.0894010  72.3897147  25.3298788
  25.5968626  67.5870818  26.1388091  25.0899490  66.8799958  26.0709268
  26.3936060  67.2564007  26.2689167  25.6395865  67.4343970  26.1487085
  21.5132642  74.0937430  22.0361754  21.2846335  74.1170132  21.1940112
  21.7730718  73.2694897  22.1556765  21.5178830  73.9753510  21.9286952
  24.2389348  73.0837368  22.2864913  24.2383574  72.9286024  23.1449189
  24.0345528  73.9300355  22.2306298  24.2089126  73.1857988  22.4052852
  17.5330113  69.0000292  31.9137500  17.6658019  68.2031285  32.2418476
  17.9175266  69.5266695  32.4935776  17.6086442  68.9600209  32.0481003
  20.6062468  65.9230618  28.5118594  19.8008432  65.8128348  28.8286432
  20.4769204  66.0243074  27.6548460  20.4682601  65.9214288  28.4326634
  24.0628429  72.0876110  29.1058291  23.4791418  72.5885316  28.6935858
  24.3832723  71.5805666  28.4722614  24.0241604  72.0867945  28.9516798
  16.6023228  71.0016705  19.3816965  17.4238922  71.1715018  19.1398660
  16.1392879  71.1563966  18.6583263  16.6554390  71.0498438  19.2388610
  15.1918560  68.9959467  30.1615394  15.7362973  68.6550594  30.7519736
  15.2455496  69.8544928  30.3036679  15.2807679  69.0714726  30.2697268
   0.5753016  28.4191064  22.5112749   1.2819783  27.9243095  22.6399684
   0.7640951  28.8600145  21.7815407   0.7080921  28.4109414  22.4221795
   3.2940440  28.2027348  19.5527402   3.0579078  27.3715413  19.4339462
   3.9383669  28.1512955  20.1382246   3.3535111  28.0725036  19.6213295
   4.3176861  27.9871796  15.6155696   4.0122678  28.7199853  15.9769012
   3.5983077  27.5809726  15.3348482   4.1664203  28.0353529  15.6268833
  10.0178653  24.6264797  14.9424041   9.9503153  24.6460756  14.0726627
  10.0034315  25.4695124  15.1679711  10.0057410  24.7538532  14.8476517
   0.9176703  29.1580358  25.0794868   1.7311568  28.8865507  25.2400000
   0.7571669  28.8587898  24.2755063   1.0146651  29.0735284  24.9840273
   0.9852203  30.9106457  16.9923065   1.7744581  30.5595521  17.1125146
   1.1595801  31.7242845  16.7299699   1.1272485  30.9792314  16.9710933
   6.7344743  26.5464714  16.4619765   6.7927867  26.9951363  17.2079741
   6.1011211  26.9563527  16.0249845   6.6496038  26.6738449  16.5072313
   2.2917640  25.7332409  18.4319759   3.0151839  25.2804935  18.2530779
   2.0267602  26.0137074  17.6492087   2.3598913  25.7083377  18.2898475
   4.7252954  24.6958819  16.9350309   5.3170794  25.3356070  16.9668507
   5.1611948  23.9981856  17.2242376   4.8771385  24.6877170  16.9831142
   1.7767676  26.4146072  15.5618295   2.2022747  25.8920494  15.0088720
   1.4124595  27.0126910  15.0406918   1.7854278  26.4256299  15.4027305
   0.4523260  31.7381650  24.0711525   0.5620225  30.9490211  24.4268272
   0.7814156  31.6487586  23.2685863   0.5175665  31.6087503  24.0053915
  15.0392198  38.5814195   8.1499363  15.0086202  39.4358832   8.3217632
  15.6373547  38.2809488   8.7085506  15.1229356  38.6630692   8.2574165
   8.2391883  37.6689846  12.9052293   7.3829778  37.8298344  12.9561410
   8.2859537  36.7981910  12.9257354   8.1190994  37.5640648  12.9158359
  11.5485599  43.9376372  22.5112749  12.2552367  43.4428403  22.6399684
  11.7373535  44.3785453  21.7815407  11.6813505  43.9294722  22.4221795
   7.6162274  49.5792202  10.0386183   8.0001653  50.1479101   9.4990959
   7.5521415  48.8541713   9.5591999   7.6635701  49.5567666   9.8880046
  11.0843704  39.7281890  15.5483945  11.6299664  40.4066977  15.6077914
  11.0260580  39.5869351  14.6885526  11.1559618  39.8073892  15.4296005
   4.2017779  47.2170956  10.9352297   4.3028142  46.4071310  11.2449425
   3.6059524  47.1227903  10.3051976   4.1290317  47.0835984  10.8878536
  12.8608773  41.1566497   6.4217673  12.7448298  41.9074183   6.8509811
  13.6564659  40.8990450   6.6713760  12.9613362  41.2301344   6.5221764
   4.0418518  52.1348545  12.3367153   4.6855974  52.5761709  12.7263312
   4.3674774  51.3301972  12.2497412   4.1850347  52.0813740  12.3812631
   6.7940806  37.1476515   7.7921402   7.4920971  37.3264643   8.2842865
   7.1093139  36.6246854   7.1691791   6.9436143  37.0970287   7.7723412
   6.9828742  43.5346960   7.7801193   7.4222377  42.9264061   8.2255966
   6.8333404  43.1554334   7.0086658   7.0250207  43.3885431   7.7320361
   4.4500385  42.1290972  14.9820019   5.0949387  41.6363415  14.6630967
   4.6902162  42.2715759  15.8086097   4.5810970  42.0768414  15.0569552
   6.9886476  44.9745878  14.6326911   7.2709719  44.1797284  14.4113667
   7.7172636  45.4526465  14.6531972   7.1376040  44.9280475  14.6029926
   4.9667670  32.5168912  11.8742676   4.6371000  32.9680055  11.2046375
   4.2912672  32.4385075  12.4215683   4.8178106  32.5720047  11.8565900
  10.5838078  41.8874141   4.7331962  10.4989373  42.7435108   4.8781531
  11.0722461  41.6118466   5.4014122  10.6426975  41.9731463   4.8534044
  11.5156511  38.5058936   6.2329698  10.9867983  38.7218569   6.8927004
  12.0381531  39.1995074   6.1530667  11.5144964  38.6402073   6.3185297
  16.9704564  44.0805240  11.6062742  16.1402267  44.2915884  11.7696159
  16.9213817  43.2542295  11.3305026  16.8411300  43.9894846  11.5900107
   5.0314302  46.9109094  14.4410651   4.5141243  46.5516509  13.8371960
   5.7288693  46.3871269  14.4516718   5.0579883  46.7806782  14.3540910
   8.6877894  47.3603908  20.4026825   8.7761240  47.1730049  21.2505035
   9.1167606  46.7141338  20.0031671   8.7639996  47.2366916  20.4698576
   6.2548354  46.6435068  19.3844487   5.6919188  46.2307678  19.9084148
   7.0169377  46.5687974  19.8037630   6.2842802  46.5712469  19.5237487
   1.8144345  48.6333089  11.9881117   2.5164924  48.1185079  12.0453873
   1.7341828  48.9607241  12.7927992   1.9068105  48.6047316  12.1153909
  16.4658523  36.7275641  15.4013163  15.6286944  36.7977828  15.6360758
  16.4346753  36.7300136  14.5287466  16.3376805  36.7385868  15.3072711
   2.8623252  38.8708676  21.1161532   3.0343755  38.7614571  21.9646813
   3.3992609  39.5163082  20.8792724   2.9668256  38.9500678  21.2066629
   1.1395120  44.8239441  11.4966725   1.9784020  45.0562374  11.5440486
   1.1706890  43.9543753  11.4273760   1.2676838  44.7296388  11.4931370
   1.7647823  45.2440317  15.7980030   2.3046048  45.1011448  16.4683403
   1.0817770  45.6437067  16.1664057   1.7439977  45.2819988  15.9514452
  11.1888708  40.9231317  10.9925055  11.9446223  41.3562832  11.0313964
  11.2951033  40.2736087  11.5659691  11.3158879  40.8908801  11.0823080
  14.2268879  44.7504595  11.7427458  13.7904111  44.7541337  12.4986429
  13.8931795  45.4310094  11.3107035  14.1131499  44.8517050  11.7908290
   8.7997953  46.7912927  23.0670608   9.5838370  46.9043775  23.4326350
   8.5994548  45.9654064  23.2629294   8.8863978  46.6859647  23.1504994
  14.1466362  31.7918422  13.9856886  14.7892271  31.8616527  14.5718801
  14.3989383  31.1247645  13.4836428  14.2788494  31.7044771  13.9984165
   1.9183575  35.0018986  18.5981460   1.2255372  34.5315965  18.8442191
   2.5343902  34.7757290  19.1723167   1.9068105  34.8986118  18.7190612
   8.9568346  48.7023029  16.7137064   8.1583592  48.4622529  16.9710932
   9.4054358  48.7537422  17.4604111   8.9042958  48.6745421  16.8621988
  17.3613226  41.4685514  10.6347095  18.0229660  40.9076183  10.5343003
  16.7204638  40.9737545  10.9599786  17.3642093  41.3121923  10.6679435
  13.6478056  42.4850897  10.3759084  13.8833646  42.6296096   9.5485934
  13.7967620  43.2493305  10.7690597  13.7043860  42.6189951  10.3122688
   0.6424134  38.9684390  19.7408305   1.3664106  38.9537420  20.2273200
   0.7440270  39.6779745  19.2430273   0.7642343  39.0709093  19.7387092
  15.4768513  41.3252563   8.2128688  15.8076730  41.8580203   7.6068782
  16.0501601  41.3791451   8.8690639  15.6102192  41.4122132   8.2206469
   8.0169083  42.4483474  24.6057252   7.2242064  42.7626986  24.7909872
   8.1318010  42.6634943  23.7678036   7.9164494  42.5267311  24.5095587
  10.6900402  39.1717465   8.8952268  10.7847257  39.9106760   9.3491893
  10.0659246  38.7434941   9.3286832  10.6109432  39.2178786   9.0260415
   8.9452876  42.3503678  19.5442549   9.5191738  41.7130922  19.6991113
   8.8667680  42.3507760  18.6752206   9.0186111  42.2568789  19.4388959
   4.3016595  40.7826943  11.5963746   4.0435839  39.9498678  11.5695045
   4.3565077  41.0084556  10.7556246   4.2716373  40.6924714  11.4683883
   9.3817645  32.8855394  11.6967839   8.6773972  32.3964579  11.8551758
   9.4302619  32.8977868  10.8256283   9.2847696  32.8145042  11.5907178
   3.2751307  38.3364706  12.0828641   2.7000898  38.4956874  12.7192602
   2.8986983  37.7000115  11.6197091   3.1354119  38.2662519  12.1083199
   6.9424595  36.8088055  16.9421019   6.5539028  36.3842273  16.2873210
   6.2779294  37.0570205  17.4498046   6.7871523  36.7826776  16.9208887
  16.5847865  36.5663060   9.7168849  16.3284429  35.7543001   9.5266732
  17.4277179  36.5740627   9.4899037  16.6713890  36.4475057   9.6553666
  10.7650957  30.5062684  14.4545003  11.1461469  29.8240855  14.8412878
   9.9614241  30.2172286  14.2720668  10.7027419  30.3629732  14.4849059
   8.0463534  41.0386660   5.1397826   8.8604173  41.3301552   5.0280598
   7.9822675  40.3846522   4.5656119   8.1566273  40.9851854   5.0386663
  14.2673024  43.7212656  19.5527402  14.0311661  42.8900720  19.4339462
  14.9116253  43.6698263  20.1382246  14.3267695  43.5910344  19.6213295
   3.9171442  44.5108177  10.2670138   4.5545389  44.2719925  10.8121932
   4.3426514  44.7145336   9.5323299   4.0747608  44.5059187  10.2387296
   4.7242797  33.0116882  24.3207612   4.4096238  33.7816445  24.0577175
   4.4032730  32.4487138  23.7359839   4.6301716  33.0427151  24.1948962
  15.2909445  43.5057104  15.6155696  14.9855262  44.2385161  15.9769012
  14.5715660  43.0995034  15.3348482  15.1396787  43.5538837  15.6268833
   6.2992914  44.9880600  11.9463924   6.3731922  44.8255771  12.8005774
   7.1162420  45.1770789  11.7024406   6.4309273  44.9917342  12.0361950
  20.9911237  40.1450105  14.9424041  20.9235737  40.1646064  14.0726627
  20.9766899  40.9880432  15.1679711  20.9789993  40.2723840  14.8476517
  11.4007583  31.5485263  18.2665130  12.1461175  31.3595073  17.8528555
  10.9844888  32.0743501  17.7078986  11.4492557  31.5987408  18.1229703
  18.7769854  38.9194491  13.2170635  19.3277776  38.2862560  13.4567727
  18.7613969  39.4509884  13.9086139  18.8555050  38.9043439  13.3549493
   5.4292245  42.7533089  17.7630528   4.9303938  43.4648856  17.8415417
   6.2392469  43.0733755  17.7248691   5.4748352  42.9059937  17.7687097
   1.6920362  42.0156042  12.0093249   1.4033611  41.3893513  12.5438977
   2.5603710  41.9576329  12.0757930   1.7780614  41.9143586  12.0984204
  12.4798260  37.1590825  12.3275231  12.1363026  36.4381160  12.6782481
  12.5791303  36.9504676  11.4853589  12.4440303  37.0215028  12.2546911
  12.9411289  43.6216529   7.8699219  13.5069322  44.2809739   7.7857762
  12.2939193  43.9666227   8.3415621  12.9290046  43.7698470   7.9271976
   4.3559303  35.6114133  23.0592827   3.5459079  35.9171913  22.9482669
   4.8333990  36.3319715  23.1745411   4.3062782  35.7628734  23.0599898
   3.2150862  44.8259854  13.3075730   2.6931616  44.9660146  13.9927594
   3.6024883  44.0670518  13.4977847   3.1954563  44.7345378  13.4376806
   9.4117867  46.5655313   7.2936298   9.1704543  45.8323174   6.8863363
   9.5919200  47.1142170   6.6402632   9.4025491  46.5377704   7.1366521
   4.6417188  41.8563873   8.7057221   4.4459971  42.4638608   8.1117524
   4.8651534  41.1631817   8.2248895   4.6451829  41.8441399   8.5473302
   3.0395718  38.7418611   8.8238089   3.7618370  38.9059769   8.3641895
   2.5603711  39.4628276   8.7177429   3.0759449  38.8716841   8.7403703
  10.9989226  35.0782410  14.2034774  10.1600326  35.1043689  13.9673037
  11.0693593  35.7253145  14.7840121  10.8857619  35.1778536  14.2543891
   9.4458504  31.9767787   8.9362390  10.1484857  31.7775535   8.4582348
   9.1802693  31.2043729   9.2431233   9.5105136  31.8330753   8.9107832
  14.8746749  40.2850397  11.4896016  14.7880724  40.4405823  12.3430795
  14.4197229  40.9288472  11.1155421  14.7950006  40.4026152  11.5603123
   4.2087060  33.2403072  17.9893271   4.0170257  33.2558206  18.8392694
   5.0585656  33.4366746  17.9659925   4.3062782  33.2717423  18.1116565
   8.7472566  37.6061144  10.1121575   8.5007280  37.5256895  10.9458364
   9.0757689  36.8214611   9.9184103   8.7593809  37.4787409  10.2069098
  12.6420614  44.3144503  13.9008357  12.5034974  45.0125549  14.4057099
  11.8620612  44.1593159  13.5444538  12.5063841  44.3944670  13.9234631
  10.9798699  40.6140878  20.1530738  10.9746738  39.7420695  20.1573165
  11.6859693  40.8129047  19.6800194  11.0843703  40.5144752  20.0837774
   4.7069593  40.3417862  19.5244558   4.8512969  40.9219070  18.8887668
   5.0545241  40.7194159  20.2294413   4.7797054  40.4838566  19.5343553
   6.8789510  39.5408031  17.3069690   6.1312824  39.7339045  16.9017968
   7.0331035  38.7153250  17.0693811   6.7911938  39.4473142  17.2115096
   3.7797348  48.5320634  16.3905585   3.9286912  47.9723550  15.7378990
   4.5597350  48.6112636  16.7738104   3.9171441  48.4606199  16.3502534
  14.1373987  43.6722757   4.6624856  13.7580796  42.8859895   4.6554145
  13.4740233  44.2209614   4.5196500  13.9832462  43.6367581   4.6405653
   6.3050648  48.7035277  17.6690076   6.2294320  48.0344087  18.2240864
   6.2340508  49.4053065  18.1830742   6.2831255  48.7080184  17.8266924
   7.1191287  33.4358581  18.1965094   7.5763901  34.1682556  18.3237886
   7.1947616  33.0125047  18.9552350   7.1982257  33.4815819  18.3266170
  11.5918613  26.6148456  12.0658937  11.7102181  27.0724920  11.3326239
  11.4180789  25.8093718  11.7795154  11.5837784  26.5642229  11.9159870
   6.9620895  47.2236276   8.5013682   7.7270786  46.9545919   8.1796346
   6.8598985  46.7386286   9.2183745   7.0602391  47.1125840   8.5593510
   4.9973665  35.4260685  15.0406918   4.2069740  35.2452145  15.3624254
   5.3934288  34.6487638  15.0237212   4.9390541  35.2848146  15.0859466
  10.3817351  43.0603115  12.7666364   9.7062353  42.8288348  13.2679751
  10.3909727  42.4524298  12.1408469  10.2835856  42.9362041  12.7482516
   7.5111495  37.9020944  19.5230417   7.4470637  38.7630901  19.3950553
   7.6508683  37.5852938  18.7225968   7.5226965  37.9821111  19.3858630
  12.3834086  45.9168248   4.9976542  12.4653923  46.7235234   4.6737993
  12.8683828  45.9364207   5.7217315  12.4671244  46.0388910   5.0563440
   6.1930589  40.5953084  13.6646620   5.7692838  40.7957583  12.9285638
   6.0175444  39.7481932  13.7770919   6.1041470  40.5001865  13.5720310
   5.6942283  52.1103597  16.1268077   6.1838213  51.4114386  15.9443741
   5.1226515  51.8127467  16.7144134   5.6826813  51.9629820  16.1869118
   1.4813034  41.0905135   9.0974592   1.6377653  41.0251938   9.9530584
   1.8213627  41.8653688   8.8853272   1.5546269  41.1954333   9.1929186
   8.0192179  40.4663019   7.9667955   8.5607724  39.9633400   8.4306576
   8.3338738  40.4128213   7.1557441   8.1456576  40.3842440   7.9151767
  11.8909286  44.6765666  25.0794868  12.7044152  44.4050815  25.2400000
  11.7304253  44.3773206  24.2755063  11.9879235  44.5920592  24.9840273
   9.1681448  35.3599323  18.0190256   9.3823418  34.7210237  17.4653610
   8.5515347  35.8045147  17.5898118   9.1086777  35.3309467  17.8740687
  10.5786116  48.2818072   9.4644477  10.1865908  47.9784787   8.7467343
  10.7339188  49.1187161   9.2749430  10.5439706  48.3601908   9.3300974
  11.3320536  36.9688388  18.9573563  10.5197218  36.6614279  19.0386736
  11.7910471  36.4887389  19.5216275  11.2800921  36.8524881  19.0528157
  10.7425791  44.8468060   9.4050507  10.3840446  45.0182703  10.1814540
  10.2564502  45.3081266   8.8478506  10.6184488  44.9407031   9.4375776
   8.5596177  28.4699259  13.0077599   7.6889735  28.4437980  12.9610908
   8.8136518  28.2976451  12.1903444   8.4689737  28.4409403  12.8797735
   8.4274044  38.3748460  23.7402265   8.8973675  38.9990576  24.1270139
   8.4735924  37.7065435  24.2995480   8.5041920  38.3683140  23.8802337
   5.5845317  30.4805487  14.4651069   5.0683806  29.7885679  14.5902648
   5.0239246  31.1476264  14.4113668   5.4251831  30.4768745  14.4757135
   7.6537551  31.0198447  16.2943922   7.2669304  31.0447479  17.0757451
   7.1670488  30.4540126  15.8418438   7.5250060  30.9394198  16.3431825
  11.9030530  45.7371956  20.3517708  12.5410251  45.2432152  20.0180164
  11.2604622  45.6649357  19.7669935  11.9024757  45.6530965  20.2160063
  13.6287530  37.5861102  14.9183624  13.2015138  37.4987451  14.1631723
  12.9913583  37.6938878  15.5038468  13.4717138  37.5893762  14.8929065
   7.3194693  27.9065433  18.5854181   7.9487811  28.4425733  18.3075252
   7.4880555  27.8142792  19.4367747   7.4372487  27.9726795  18.6702710
   7.1208607  32.6936628  20.8580593   7.9482037  32.4221776  20.9139207
   7.1416453  33.4897469  21.2144411   7.2461458  32.7716382  20.9195776
  11.9584787  46.4291765  16.9923065  12.7477165  46.0780829  17.1125146
  12.1328385  47.2428153  16.7299699  12.1005069  46.4977622  16.9710933
   1.6978097  39.8400490  14.0450854   0.8566104  39.7404364  14.2529748
   1.9068105  40.6095971  14.3965174   1.6042790  39.9392534  14.1278169
  10.8118611  30.4401321  11.5539483  11.0168204  30.3723629  12.3996480
  10.4845035  31.2460143  11.4860661  10.7933859  30.5487262  11.6699138
   5.5094762  37.7681890  13.2948451   5.2057900  37.2137878  13.8958859
   4.8074183  37.9474099  12.8076485   5.3610972  37.7126672  13.3118157
   3.5713113  44.9831610  18.0020549   3.4633468  44.9933672  18.8682607
   3.7808895  45.8086391  17.8125503   3.5863224  45.1072685  18.1024641
  14.0652299  30.9933086  11.0342249  13.4526612  31.4803488  11.4195981
  14.1616474  30.3176576  11.5779900  13.9890196  30.9651394  11.1721107
   1.5886905  42.2344253  15.4642487   0.9974838  42.8753751  15.4345502
   2.3507929  42.6581870  15.4373786   1.6135166  42.3920091  15.4557634
   1.9847528  33.3946250  16.1310504   2.4449009  33.4685180  16.8685628
   2.0303635  34.1927504  15.7810326   2.0598083  33.5240397  16.1883261
   3.6330878  34.0612945  20.6982531   3.2416443  33.4146292  21.1338309
   3.8016740  34.6524381  21.3176787   3.6001788  34.0527213  20.8545237
  17.7077327  42.0650022  16.4619765  17.7660450  42.5136671  17.2079741
  17.0743794  42.4748835  16.0249845  17.6228622  42.1923757  16.5072313
  11.3476421  47.6853564  12.8974511  11.1496110  48.1744379  12.2030722
  10.7264132  47.8894806  13.4758644  11.2263986  47.7870102  12.8797734
   5.4084400  39.4538461   7.2384755   6.1526445  39.8412737   7.4767705
   5.5545096  38.6095886   7.4025243   5.5394985  39.3868934   7.2978725
   7.3263975  31.2488720  12.2716617   6.4800020  31.4211528  12.1457967
   7.3235108  30.4438064  12.6082445   7.2011125  31.1549749  12.3027744
   8.3962276  35.0263934  13.1378675   7.9222230  34.5005696  13.6483986
   8.7680411  34.4793407  12.5693536   8.3812165  34.8679931  13.1293822
  14.6599006  40.0866310  14.5485455  14.4197229  39.2472725  14.5527882
  15.1391013  40.1666477  15.2726229  14.6951190  39.9747710  14.6560257
  16.6604193  36.8667767  12.5014714  16.4213963  36.8263601  11.6635499
  16.8238094  37.7138919  12.6280435  16.6494497  36.9859852  12.3968196
  13.2650223  41.2517716  18.4319759  13.9884422  40.7990243  18.2530779
  13.0000186  41.5322382  17.6492087  13.3331497  41.2268685  18.2898475
   2.1337092  35.8477890  15.1672639   1.5090162  35.8596282  14.5598591
   1.7982687  36.3238065  15.8163879   1.9922584  35.9196407  15.1729207
   9.8782858  44.4904052   5.3314085  10.6017057  44.9562165   5.1878659
   9.4383449  44.5577662   4.5811682   9.9198550  44.5687889   5.1998867
   9.0469013  41.3501595  16.5814775   8.4326006  40.8059645  16.8763410
   9.5636298  40.8365831  16.1020591   9.0324675  41.1938004  16.5539003
   8.2865310  42.4205865  14.3159073   7.8592918  41.7955583  13.8824509
   8.2790254  42.1380787  15.1418080   8.2224451  42.2858645  14.3738901
   1.4027837  37.4571038  17.3847507   1.5621324  36.7014362  17.7899229
   1.2220731  38.0061977  18.0388245   1.3993196  37.4264852  17.5410213
   9.3448140  29.6232273  17.9398297   8.8488701  29.8195948  17.2489863
  10.1017202  30.0224942  17.7687098   9.3834965  29.7110007  17.8118433
   6.6151020  33.2974619  14.5301607   6.6393507  32.7634732  13.8414387
   6.8662493  32.7891928  15.1927198   6.6560938  33.1435523  14.5266252
   2.8952342  32.0245438  13.9107351   2.9350713  32.5254644  14.6242059
   2.0702007  32.1155831  13.6413274   2.7791868  32.1127254  13.9757890
   5.0781955  41.5906178  22.0127646   4.2277585  41.7277892  22.1485291
   5.2410083  40.8569956  22.4575348   4.9765818  41.5020279  22.0983245
   4.3166705  38.5405947  16.2081250   3.4858635  38.7079765  16.0016499
   4.2618222  38.1641898  16.9930136   4.1856120  38.5095679  16.2929779
   2.1250489  32.0314840  21.8437661   2.7503192  31.4876973  22.1167093
   1.6700968  31.5509758  21.2745452   2.1498749  31.8804322  21.7999255
  15.6985537  40.2144127  16.9350309  16.2903378  40.8541378  16.9668507
  16.1344532  39.5167164  17.2242376  15.8503968  40.2062478  16.9831142
   7.5278927  44.6361500  17.5608203   7.0204018  45.1897347  18.0048834
   7.2305573  44.6969790  16.7426978   7.4083812  44.7267811  17.5056660
   9.6941109  33.0014819  16.4032866  10.1196181  32.5487346  15.7916392
   9.0798102  32.4474890  16.6797654   9.6669755  32.8528796  16.3537891
  12.7234679  37.4289346   9.2353452  12.0525869  37.9719048   9.1066517
  13.4174429  37.8984201   8.9935146  12.7263546  37.5787617   9.1808979
   6.7721412  49.5686058  14.4665210   6.5487067  48.8104887  14.8349236
   6.2831256  49.5984079  13.7445650   6.6664861  49.4608282  14.4141951
  12.8862806  33.8845230  12.1443825  13.2390416  33.4574952  12.8189624
  12.0277608  33.7996073  12.2744901  12.8112251  33.8089970  12.2638835
   1.5846491  36.5152749  10.2026671   0.8658480  36.9316882  10.4699535
   1.9558853  37.0806988   9.6518310   1.5338423  36.6602031  10.1609478
  10.8846072  37.1480598  16.0928667  10.8643999  36.9663893  16.9463446
  10.9325273  38.0192617  16.0688251  10.8880713  37.2497136  16.2151962
   8.8292402  43.7367790  22.0177144   8.7888257  43.0917467  21.4322300
   9.6415720  43.6804408  22.3302556   8.9435555  43.6326757  21.9774093
   5.4199869  49.7886516  11.9202295   5.0060268  49.1260646  11.5306136
   6.1047244  49.9364375  11.3997989   5.4598241  49.7127174  11.7858792
   8.7865163  48.9476601  12.6725911   8.3881447  49.0578872  11.9046731
   8.1716383  49.1558668  13.2552471   8.6364053  48.9950169  12.6457211
  14.3186866  29.0063641  13.0728137  13.8117731  28.2992781  13.0049315
  15.1154300  28.6756830  13.2029214  14.3614105  28.8536793  13.0827132
  10.2350882  35.5130254   8.9701801  10.0064575  35.5362955   8.1280159
  10.4948958  34.6887721   9.0896812  10.2397070  35.3946334   8.8626999
   4.5170110  37.3664727  18.5726901   4.0049014  36.7585910  18.9311933
   4.3449607  38.0821319  19.0400877   4.4159748  37.3828026  18.6943125
   3.2895645  34.0506800  10.2655997   3.7653011  34.4123880   9.6306178
   2.7884244  34.7063268  10.5456140   3.2861004  34.2000989  10.2132738
  16.5207006  43.5228568   6.0569002  16.9040612  44.2719924   6.2867099
  15.7251119  43.7694388   5.7980991  16.4600788  43.6698262   6.0526575
   8.3939181  35.2888971  21.0129157   8.9510611  35.0602781  20.3807622
   8.0700246  36.0494637  20.7364369   8.4285591  35.3672808  20.8785654
   6.1122298  38.3756625  21.9781164   6.8633625  38.6908301  22.2920718
   6.3044875  38.1735796  21.1515086   6.2513712  38.3924006  21.9024560
  12.9607588  34.5030191   9.2204959  12.9601815  34.3478848  10.0789236
  12.7563768  35.3493178   9.1646345  12.9307366  34.6050812   9.3392899
  10.6848440  39.1827693  12.8741166  11.1802106  38.4650688  12.8345187
   9.8748216  38.8798490  12.7595653  10.6392334  39.0325339  12.8514892
  12.7500259  41.9331380  15.5618295  13.1755331  41.4105802  15.0088720
  12.3857179  42.5312218  15.0406918  12.7586862  41.9441607  15.4027305
   2.3854339  50.2295598  14.3215641   2.7000898  51.0431986  14.3293422
   2.7947752  49.8445816  14.9897800   2.4922437  50.2924300  14.4219732
  11.4255843  47.2566958  24.0711525  11.5352809  46.4675518  24.4268272
  11.7546740  47.1672894  23.2685863  11.4908249  47.1272811  24.0053915
   6.2548354  30.4193115  18.8477547   6.3876259  29.6224109  19.1758523
   6.6393506  30.9459518  19.4275823   6.3304682  30.3793032  18.9821050
   9.9752805  45.4383579  18.6547145   9.4273751  44.8141462  18.3867210
  10.4365834  45.6277851  17.9391225   9.9620014  45.3742629  18.5097576
   9.3280709  27.3423441  15.4458641   8.5226672  27.2321171  15.7626479
   9.1987444  27.4435897  14.5888506   9.1900842  27.3407111  15.3666681
  12.7846669  33.5068933  16.0398337  12.2009658  34.0078140  15.6275905
  13.1050963  32.9998489  15.4062661  12.7459845  33.5060768  15.8856845
   3.9136800  30.4152290  17.0955441   4.4581213  30.0743417  17.6859783
   3.9673736  31.2737752  17.2376726   4.0025920  30.4907550  17.2037314
   9.5411131  46.4434651  15.1856486  10.3609505  46.2997617  15.4472782
   9.2605209  47.0680850  15.7272924   9.6207875  46.5145003  15.3044426
  26.0124782  54.0999503   8.1499363  25.9818786  54.9544140   8.3217632
  26.6106130  53.7994796   8.7085506  26.0961940  54.1816000   8.2574165
  19.2124466  53.1875154  12.9052293  18.3562362  53.3483652  12.9561410
  19.2592120  52.3167218  12.9257354  19.0923578  53.0825956  12.9158359
  22.5218183  59.4561680  22.5112749  23.2284950  58.9613710  22.6399684
  22.7106118  59.8970761  21.7815407  22.6546089  59.4480030  22.4221795
  18.5894857  65.0977510  10.0386183  18.9734237  65.6664409   9.4990959
  18.5253999  64.3727020   9.5591999  18.6368285  65.0752974   9.8880046
  22.0576287  55.2467198  15.5483945  22.6032248  55.9252285  15.6077914
  21.9993164  55.1054659  14.6885526  22.1292202  55.3259200  15.4296005
  15.1750362  62.7356264  10.9352297  15.2760725  61.9256618  11.2449425
  14.5792108  62.6413211  10.3051976  15.1022901  62.6021292  10.8878536
  23.8341356  56.6751805   6.4217673  23.7180882  57.4259491   6.8509811
  24.6297243  56.4175758   6.6713760  23.9345946  56.7486652   6.5221764
  15.0151102  67.6533853  12.3367153  15.6588557  68.0947017  12.7263312
  15.3407357  66.8487279  12.2497412  15.1582931  67.5999048  12.3812631
  10.6705494  50.9262281  13.4588939  10.0510526  50.3354929  13.2898953
  10.5689358  51.5173717  12.8253262  10.5643170  50.9266364  13.3393928
  17.7673390  52.6661823   7.7921402  18.4653554  52.8449951   8.2842865
  18.0825722  52.1432162   7.1691791  17.9168727  52.6155595   7.7723412
  10.3974627  54.4714563  15.7032508  10.2733324  55.0577008  16.3382326
  11.0492912  53.9774759  16.0044783  10.4748276  54.4853367  15.8418437
  17.9561325  59.0532268   7.7801193  18.3954961  58.4449369   8.2255966
  17.8065988  58.6739641   7.0086658  17.9982791  58.9070739   7.7320361
  15.4232968  57.6476280  14.9820019  16.0681971  57.1548723  14.6630967
  15.6634745  57.7901067  15.8086097  15.5543553  57.5953722  15.0569552
  17.9619059  60.4931186  14.6326911  18.2442302  59.6982592  14.4113667
  18.6905220  60.9711773  14.6531972  18.1108623  60.4465783  14.6029926
  15.9400253  48.0354220  11.8742676  15.6103583  48.4865363  11.2046375
  15.2645255  47.9570383  12.4215683  15.7910690  48.0905355  11.8565900
  21.5570662  57.4059449   4.7331962  21.4721957  58.2620416   4.8781531
  22.0455045  57.1303773   5.4014122  21.6159559  57.4916771   4.8534044
  23.1476661  44.0239743  10.1192287  22.8330102  44.7143221  10.5512709
  22.6303603  43.9684525   9.4177788  23.0241132  44.1174631  10.0789236
  22.4889095  54.0244244   6.2329698  21.9600566  54.2403877   6.8927004
  23.0114115  54.7180382   6.1530667  22.4877548  54.1587380   6.3185297
  27.9437148  59.5990548  11.6062742  27.1134851  59.8101192  11.7696159
  27.8946400  58.7727603  11.3305026  27.8143883  59.5080154  11.5900107
  16.0046885  62.4294402  14.4410651  15.4873827  62.0701817  13.8371960
  16.7021277  61.9056577  14.4516718  16.0312466  62.2992090  14.3540910
  19.6610477  62.8789216  20.4026825  19.7493823  62.6915357  21.2505035
  20.0900190  62.2326646  20.0031671  19.7372580  62.7552224  20.4698576
  17.2280937  62.1620376  19.3844487  16.6651772  61.7492986  19.9084148
  17.9901961  62.0873282  19.8037630  17.2575386  62.0897777  19.5237487
  18.8365917  54.1673112   3.5106086  19.0761921  54.3751096   2.6981429
  19.1581758  53.3630621   3.6195031  18.9203075  54.0787214   3.4066639
  14.1456207  46.0966508   7.3565624  14.9002175  46.4644825   7.1182674
  13.9683742  46.4706063   8.1244804  14.2310686  46.2064696   7.4350513
  12.7876929  64.1518397  11.9881117  13.4897508  63.6370386  12.0453873
  12.7074412  64.4792549  12.7927992  12.8800689  64.1232624  12.1153909
  27.4391106  52.2460949  15.4013163  26.6019527  52.3163136  15.6360758
  27.4079337  52.2485443  14.5287466  27.3109388  52.2571176  15.3072711
  13.8355835  54.3893984  21.1161532  14.0076339  54.2799879  21.9646813
  14.3725193  55.0348390  20.8792724  13.9400839  54.4685986  21.2066629
  12.5013272  48.5036827   4.0543737  12.3188845  48.7208708   3.2284730
  13.3638885  48.6175840   4.1102351  12.6017861  48.5526725   3.9398224
  12.1127704  60.3424749  11.4966725  12.9516603  60.5747682  11.5440486
  12.1439473  59.4729061  11.4273760  12.2409422  60.2481696  11.4931370
  12.7380407  60.7625625  15.7980030  13.2778632  60.6196756  16.4683403
  12.0550353  61.1622375  16.1664057  12.7172561  60.8005295  15.9514452
  18.1812991  45.5063238   7.0892761  18.9099152  45.3279193   6.6430917
  18.2707884  46.3481318   7.2999939  18.3019653  45.6047116   7.0546278
  22.1621292  56.4416625  10.9925055  22.9178807  56.8748140  11.0313964
  22.2683616  55.7921395  11.5659691  22.2891462  56.4094109  11.0823080
  25.2001463  60.2689902  11.7427458  24.7636695  60.2726645  12.4986429
  24.8664378  60.9495401  11.3107035  25.0864083  60.3702358  11.7908290
  19.7730537  62.3098235  23.0670608  20.5570953  62.4229083  23.4326350
  19.5727131  61.4839372  23.2629294  19.8596562  62.2044955  23.1504994
   8.1417552  56.9825915  15.9514452   7.8755967  56.1665032  16.1105442
   8.1556116  57.0279071  15.0809967   8.1042274  56.8682820  15.8467934
  25.1198946  47.3103730  13.9856886  25.7624854  47.3801835  14.5718801
  25.3721967  46.6432953  13.4836428  25.2521078  47.2230079  13.9984165
  12.8916158  50.5204294  18.5981460  12.1987955  50.0501273  18.8442191
  13.5076486  50.2942598  19.1723167  12.8800688  50.4171425  18.7190612
  19.9300930  64.2208337  16.7137064  19.1316176  63.9807837  16.9710932
  20.3786941  64.2722730  17.4604111  19.8775541  64.1930728  16.8621988
  28.3345809  56.9870822  10.6347095  28.9962243  56.4261491  10.5343003
  27.6937221  56.4922853  10.9599786  28.3374677  56.8307231  10.6679435
   8.5510966  57.7684695  13.2326196   8.3686539  57.7431581  12.3798488
   9.2860635  58.2383633  13.2715105   8.6325030  57.8346057  13.1124115
  24.6210640  58.0036205  10.3759084  24.8566229  58.1481404   9.5485934
  24.7700204  58.7678613  10.7690597  24.6776443  58.1375259  10.3122688
  11.6156717  54.4869698  19.7408305  12.3396690  54.4722728  20.2273200
  11.7172854  55.1965053  19.2430273  11.7374926  54.5894401  19.7387092
  26.4501097  56.8437871   8.2128688  26.7809314  57.3765511   7.6068782
  27.0234185  56.8976758   8.8690639  26.5834776  56.9307440   8.2206469
  18.9901667  57.9668782  24.6057252  18.1974648  58.2812294  24.7909872
  19.1050594  58.1820251  23.7678036  18.8897077  58.0452619  24.5095587
  21.6632986  54.6902773   8.8952268  21.7579840  55.4292067   9.3491893
  21.0391829  54.2620249   9.3286832  21.5842016  54.7364094   9.0260415
  19.9185460  57.8688986  19.5442549  20.4924321  57.2316230  19.6991113
  19.8400263  57.8693068  18.6752206  19.9918694  57.7754097  19.4388959
   8.5181876  54.6478195  13.3825263   9.0955379  54.5114646  14.0217508
   7.8195938  54.1913980  13.6370847   8.5002897  54.5600462  13.5147552
  21.9156007  56.5351513   2.1289220  21.8336170  56.6053700   2.9944207
  22.5535728  57.0981257   1.9372960  21.9975844  56.6290484   2.2279169
  15.2749178  56.3012251  11.5963746  15.0168423  55.4683986  11.5695045
  15.3297661  56.5269864  10.7556246  15.2448956  56.2110022  11.4683883
  20.3550228  48.4040702  11.6967839  19.6506555  47.9149887  11.8551758
  20.4035203  48.4163176  10.8256283  20.2580280  48.3330350  11.5907178
  14.2483890  53.8550014  12.0828641  13.6733482  54.0142182  12.7192602
  13.8719567  53.2185423  11.6197091  14.1086703  53.7847827  12.1083199
  17.9157179  52.3273363  16.9421019  17.5271612  51.9027581  16.2873210
  17.2511877  52.5755513  17.4498046  17.7604107  52.3012084  16.9208887
  27.5580448  52.0848368   9.7168849  27.3017013  51.2728309   9.5266732
  28.4009762  52.0925935   9.4899037  27.6446474  51.9660365   9.6553666
  21.7383541  46.0247992  14.4545003  22.1194052  45.3426163  14.8412878
  20.9346825  45.7357594  14.2720668  21.6760002  45.8815040  14.4849059
  19.0196117  56.5571967   5.1397826  19.8336756  56.8486860   5.0280598
  18.9555259  55.9031830   4.5656119  19.1298856  56.5037162   5.0386663
  25.2405607  59.2397964  19.5527402  25.0044245  58.4086028  19.4339462
  25.8848836  59.1883571  20.1382246  25.3000278  59.1095652  19.6213295
  14.8904026  60.0293485  10.2670138  15.5277972  59.7905232  10.8121932
  15.3159097  60.2330644   9.5323299  15.0480192  60.0244495  10.2387296
   9.5816668  62.2681821  14.1504442   9.6220813  62.5396672  13.3224222
  10.1411192  62.7923729  14.5662230   9.6700014  62.3857576  14.0896330
  15.6975381  48.5302190  24.3207612  15.3828822  49.3001753  24.0577175
  15.3765314  47.9672446  23.7359839  15.6034300  48.5612459  24.1948962
  26.2642028  59.0242412  15.6155696  25.9587845  59.7570469  15.9769012
  25.5448244  58.6180342  15.3348482  26.1129370  59.0724145  15.6268833
  17.2725498  60.5065908  11.9463924  17.3464506  60.3441079  12.8005774
  18.0895004  60.6956097  11.7024406  17.4041856  60.5102650  12.0361950
  31.9643820  55.6635413  14.9424041  31.8968320  55.6831372  14.0726627
  31.9499483  56.5065740  15.1679711  31.9522577  55.7909148  14.8476517
  13.2507278  46.9192711   9.9353808  12.3829703  46.9915311  10.0011417
  13.5382482  47.7214790  10.1241783  13.1647026  47.0486858   9.9728575
  22.3740167  47.0670571  18.2665130  23.1193759  46.8780381  17.8528555
  21.9577471  47.5928809  17.7078986  22.4225141  47.1172716  18.1229703
  29.7502438  54.4379799  13.2170635  30.3010359  53.8047868  13.4567727
  29.7346553  54.9695192  13.9086139  29.8287634  54.4228747  13.3549493
  16.4024828  58.2718396  17.7630528  15.9036522  58.9834164  17.8415417
  17.2125053  58.5919063  17.7248691  16.4480935  58.4245245  17.7687097
  12.6652946  57.5341349  12.0093249  12.3766195  56.9078821  12.5438977
  13.5336294  57.4761637  12.0757930  12.7513198  57.4328894  12.0984204
  23.4530844  52.6776133  12.3275231  23.1095610  51.9566468  12.6782481
  23.5523886  52.4689984  11.4853589  23.4172887  52.5400336  12.2546911
  23.9143873  59.1401837   7.8699219  24.4801906  59.7995047   7.7857762
  23.2671776  59.4851535   8.3415621  23.9022629  59.2883778   7.9271976
  15.3291886  51.1299441  23.0592827  14.5191662  51.4357221  22.9482669
  15.8066573  51.8505023  23.1745411  15.2795365  51.2814042  23.0599898
  14.1883446  60.3445162  13.3075730  13.6664200  60.4845454  13.9927594
  14.5757466  59.5855826  13.4977847  14.1687147  60.2530686  13.4376806
  11.1774630  50.3950971   7.3770684  10.8899426  50.0252241   6.6402632
  11.8645098  50.8645826   7.1154389  11.2363527  50.4097940   7.2285760
  20.3850451  62.0840621   7.2936298  20.1437127  61.3508482   6.8863363
  20.5651784  62.6327478   6.6402632  20.3758075  62.0563012   7.1366521
  15.6149772  57.3749181   8.7057221  15.4192554  57.9823915   8.1117524
  15.8384117  56.6817125   8.2248895  15.6184413  57.3626706   8.5473302
  14.0128302  54.2603919   8.8238089  14.7350954  54.4245077   8.3641895
  13.5336294  54.9813584   8.7177429  14.0492032  54.3902148   8.7403703
  21.9721809  50.5967718  14.2034774  21.1332910  50.6228997  13.9673037
  22.0426176  51.2438453  14.7840121  21.8590203  50.6963843  14.2543891
  11.6635918  56.6661991  17.9292229  12.1757015  56.9446245  17.2800989
  11.3772261  57.4051285  18.2955042  11.6970781  56.8164345  17.8882107
  20.4191087  47.4953095   8.9362390  21.1217440  47.2960843   8.4582348
  20.1535276  46.7229037   9.2431233  20.4837720  47.3516061   8.9107832
  25.8479333  55.8035704  11.4896016  25.7613308  55.9591130  12.3430795
  25.3929813  56.4473780  11.1155421  25.7682590  55.9211460  11.5603123
   8.7502825  51.1732183   8.2255965   8.8518961  51.9758345   8.5536941
   9.5458711  50.9719519   7.9279046   8.8830730  51.2618082   8.2291321
  15.1819644  48.7588380  17.9893271  14.9902841  48.7743514  18.8392694
  16.0318240  48.9552054  17.9659925  15.2795366  48.7902731  18.1116565
   9.5666557  51.2879361  15.9677087   9.4252049  50.4363302  16.0921595
   9.8507120  51.3308022  15.1439293   9.5874403  51.1679111  15.8644711
  19.7205149  53.1246452  10.1121575  19.4739863  53.0442202  10.9458364
  20.0490272  52.3399919   9.9184103  19.7326393  52.9972717  10.2069098
  23.6153198  59.8329811  13.9008357  23.4767557  60.5310857  14.4057099
  22.8353196  59.6778467  13.5444538  23.4796425  59.9129978  13.9234631
  21.9531283  56.1326186  20.1530738  21.9479322  55.2606003  20.1573165
  22.6592277  56.3314355  19.6800194  22.0576287  56.0330060  20.0837774
  15.6802176  55.8603170  19.5244558  15.8245552  56.4404378  18.8887668
  16.0277825  56.2379467  20.2294413  15.7529638  56.0023874  19.5343553
  17.8522094  55.0593338  17.3069690  17.1045408  55.2524353  16.9017968
  18.0063619  54.2338558  17.0693811  17.7644521  54.9658450  17.2115096
  14.7529931  64.0505942  16.3905585  14.9019495  63.4908858  15.7378990
  15.5329933  64.1297944  16.7738104  14.8904025  63.9791507  16.3502534
  25.1106571  59.1908065   4.6624856  24.7313379  58.4045203   4.6554145
  24.4472816  59.7394922   4.5196500  24.9565046  59.1552889   4.6405653
  17.2783232  64.2220585  17.6690076  17.2026903  63.5529395  18.2240864
  17.2073091  64.9238373  18.1830742  17.2563839  64.2265492  17.8266924
  18.0923871  48.9543889  18.1965094  18.5496485  49.6867864  18.3237886
  18.1680200  48.5310354  18.9552350  18.1714841  49.0001127  18.3266170
  10.3356862  49.2009709  19.2854537   9.7999051  48.5890067  19.6015305
  10.3974627  49.7757845  19.9388204  10.2652495  49.1956637  19.4289964
  22.5651197  42.1333764  12.0658937  22.6834765  42.5910228  11.3326239
  22.3913372  41.3279026  11.7795154  22.5570368  42.0827537  11.9159870
  17.9353479  62.7421584   8.5013682  18.7003370  62.4731227   8.1796346
  17.8331569  62.2571594   9.2183745  18.0334974  62.6311148   8.5593510
  15.9706249  50.9445993  15.0406918  15.1802323  50.7637453  15.3624254
  16.3666871  50.1672946  15.0237212  15.9123125  50.8033454  15.0859466
  21.3549935  58.5788423  12.7666364  20.6794937  58.3473656  13.2679751
  21.3642311  57.9709606  12.1408469  21.2568440  58.4547348  12.7482516
  18.4844079  53.4206252  19.5230417  18.4203220  54.2816209  19.3950553
  18.6241267  53.1038245  18.7225968  18.4959549  53.5006419  19.3858630
  23.3566670  61.4353556   4.9976542  23.4386507  62.2420542   4.6737993
  23.8416412  61.4549515   5.7217315  23.4403827  61.5574218   5.0563440
  17.1663173  56.1138392  13.6646620  16.7425422  56.3142891  12.9285638
  16.9908028  55.2667240  13.7770919  17.0774053  56.0187173  13.5720310
  16.6674866  67.6288905  16.1268077  17.1570797  66.9299694  15.9443741
  16.0959099  67.3312775  16.7144134  16.6559396  67.4815128  16.1869118
  12.4545618  56.6090443   9.0974592  12.6110237  56.5437246   9.9530584
  12.7946211  57.3838996   8.8853272  12.5278853  56.7139641   9.1929186
  18.9924762  55.9848327   7.9667955  19.5340308  55.4818708   8.4306576
  19.3071321  55.9313521   7.1557441  19.1189160  55.9027748   7.9151767
  22.8641870  60.1950974  25.0794868  23.6776735  59.9236123  25.2400000
  22.7036836  59.8958514  24.2755063  22.9611818  60.1105900  24.9840273
  20.1414032  50.8784631  18.0190256  20.3556001  50.2395545  17.4653610
  19.5247931  51.3230455  17.5898118  20.0819361  50.8494775  17.8740687
  21.5518700  63.8003379   9.4644477  21.1598491  63.4970095   8.7467343
  21.7071772  64.6372469   9.2749430  21.5172290  63.8787216   9.3300974
   9.0279879  53.7925394   9.4135359   9.4078844  54.2109938   8.7495627
   8.4535244  54.3738849   9.7204203   8.9991204  53.9403252   9.3612100
  22.3053120  52.4873696  18.9573563  21.4929802  52.1799587  19.0386736
  22.7643054  52.0072696  19.5216275  22.2533505  52.3710189  19.0528157
  21.7158374  60.3653368   9.4050507  21.3573029  60.5368011  10.1814540
  21.2297085  60.8266574   8.8478506  21.5917071  60.4592339   9.4375776
  19.5328760  43.9884567  13.0077599  18.6622318  43.9623288  12.9610908
  19.7869102  43.8161759  12.1903444  19.4422321  43.9594710  12.8797735
  19.4006627  53.8933768  23.7402265  19.8706258  54.5175884  24.1270139
  19.4468507  53.2250743  24.2995480  19.4774503  53.8868448  23.8802337
  16.5577901  45.9990795  14.4651069  16.0416390  45.3070987  14.5902648
  15.9971830  46.6661572  14.4113668  16.3984414  45.9954053  14.4757135
  18.6270134  46.5383755  16.2943922  18.2401888  46.5632787  17.0757451
  18.1403072  45.9725434  15.8418438  18.4982643  46.4579506  16.3431825
  22.8763114  61.2557264  20.3517708  23.5142834  60.7617460  20.0180164
  22.2337205  61.1834665  19.7669935  22.8757340  61.1716273  20.2160063
  24.6020114  53.1046410  14.9183624  24.1747722  53.0172759  14.1631723
  23.9646167  53.2124186  15.5038468  24.4449721  53.1079070  14.8929065
  18.2927276  43.4250741  18.5854181  18.9220394  43.9611041  18.3075252
  18.4613139  43.3328100  19.4367747  18.4105071  43.4912103  18.6702710
  18.0941191  48.2121935  20.8580593  18.9214620  47.9407084  20.9139207
  18.1149037  49.0082777  21.2144411  18.2194041  48.2901690  20.9195776
  22.9317370  61.9477073  16.9923065  23.7209749  61.5966137  17.1125146
  23.1060968  62.7613461  16.7299699  23.0737652  62.0162930  16.9710933
  12.6710681  55.3585798  14.0450854  11.8298687  55.2589672  14.2529748
  12.8800689  56.1281279  14.3965174  12.5775373  55.4577842  14.1278169
  10.1486248  52.9805335  11.8735604   9.7542946  53.0548347  11.0985714
   9.5926365  53.3663282  12.4243966  10.0089060  53.0487110  11.8403264
  21.7851195  45.9586629  11.5539483  21.9900788  45.8908937  12.3996480
  21.4577619  46.7645450  11.4860661  21.7666442  46.0672570  11.6699138
  16.4827346  53.2867197  13.2948451  16.1790483  52.7323186  13.8958859
  15.7806766  53.4659407  12.8076485  16.3343556  53.2311980  13.3118157
  15.5393443  50.5967717   7.8593153  15.8153177  49.8786630   7.4470721
  16.1392112  51.1952637   7.6514259  15.6686707  50.5788088   7.7673914
  14.5445697  60.5016918  18.0020549  14.4366052  60.5118980  18.8682607
  14.7541478  61.3271699  17.8125503  14.5595808  60.6257993  18.1024641
  25.0384882  46.5118393  11.0342249  24.4259196  46.9988796  11.4195981
  25.1349057  45.8361884  11.5779900  24.9622780  46.4836702  11.1721107
  19.0403963  48.2681235   6.1339748  19.4947710  48.4391795   6.8587593
  19.5144009  47.6549345   5.7337524  19.1772283  48.2032120   6.1813510
  12.5619489  57.7529561  15.4642487  11.9707422  58.3939059  15.4345502
  13.3240512  58.1767178  15.4373786  12.5867749  57.9105399  15.4557634
  12.9580111  48.9131558  16.1310504  13.4181593  48.9870488  16.8685628
  13.0036218  49.7112812  15.7810326  13.0330667  49.0425705  16.1883261
  14.6063461  49.5798253  20.6982531  14.2149026  48.9331600  21.1338309
  14.7749324  50.1709688  21.3176787  14.5734372  49.5712521  20.8545237
  28.6809910  57.5835330  16.4619765  28.7393034  58.0321979  17.2079741
  28.0476378  57.9934143  16.0249845  28.5961205  57.7109065  16.5072313
  22.3209005  63.2038872  12.8974511  22.1228694  63.6929687  12.2030722
  21.6996716  63.4080114  13.4758644  22.1996569  63.3055410  12.8797734
  16.3816983  54.9723769   7.2384755  17.1259028  55.3598045   7.4767705
  16.5277679  54.1281194   7.4025243  16.5127568  54.9054242   7.2978725
  18.2996559  46.7674028  12.2716617  17.4532604  46.9396836  12.1457967
  18.2967691  45.9623372  12.6082445  18.1743709  46.6735057  12.3027744
  19.3694859  50.5449242  13.1378675  18.8954813  50.0191004  13.6483986
  19.7412995  49.9978715  12.5693536  19.3544748  50.3865239  13.1293822
   9.7467889  52.5420749  18.5062220  10.6093502  52.4416458  18.4199550
   9.4159672  51.9615458  17.9447793   9.8253086  52.4412376  18.4107626
  25.6331590  55.6051618  14.5485455  25.3929813  54.7658033  14.5527882
  26.1123597  55.6851785  15.2726229  25.6683773  55.4933018  14.6560257
  21.2978359  51.4385797   6.2004428  20.7701377  51.5214541   5.5110137
  21.7574067  52.1803668   6.1969073  21.2880209  51.5606459   6.0979124
  27.6336777  52.3853075  12.5014714  27.3946547  52.3448909  11.6635499
  27.7970678  53.2324227  12.6280435  27.6227080  52.5045160  12.3968196
  24.2382807  56.7703024  18.4319759  24.9617006  56.3175551  18.2530779
  23.9732769  57.0507690  17.6492087  24.3064080  56.7453993  18.2898475
  13.1069675  51.3663198  15.1672639  12.4822745  51.3781590  14.5598591
  12.7715270  51.8423373  15.8163879  12.9655167  51.4381715  15.1729207
   9.8195351  59.4263658  16.6076403   9.2895275  58.7356097  16.6571378
  10.0920444  59.4173843  15.7789111   9.7820073  59.3230790  16.4923819
  20.8515441  60.0089360   5.3314085  21.5749640  60.4747473   5.1878659
  20.4116032  60.0762970   4.5811682  20.8931134  60.0873197   5.1998867
  20.0201596  56.8686903  16.5814775  19.4058589  56.3244953  16.8763410
  20.5368881  56.3551139  16.1020591  20.0057259  56.7123312  16.5539003
  19.2597894  57.9391173  14.3159073  18.8325502  57.3140891  13.8824509
  19.2522838  57.6566095  15.1418080  19.1957035  57.8043953  14.3738901
  12.3760421  52.9756346  17.3847507  12.5353907  52.2199670  17.7899229
  12.1953314  53.5247285  18.0388245  12.3725780  52.9450160  17.5410213
  20.3180724  45.1417581  17.9398297  19.8221285  45.3381256  17.2489863
  21.0749786  45.5410250  17.7687098  20.3567548  45.2295315  17.8118433
  17.5883603  48.8159927  14.5301607  17.6126090  48.2820040  13.8414387
  17.8395077  48.3077236  15.1927198  17.6293522  48.6620831  14.5266252
  13.8684925  47.5430745  13.9107351  13.9083297  48.0439952  14.6242059
  13.0434590  47.6341139  13.6413274  13.7524451  47.6312562  13.9757890
  16.0514538  57.1091485  22.0127646  15.2010169  57.2463200  22.1485291
  16.2142666  56.3755264  22.4575348  15.9498402  57.0205587  22.0983245
  15.2899289  54.0591255  16.2081250  14.4591219  54.2265073  16.0016499
  15.2350806  53.6827206  16.9930136  15.1588704  54.0280987  16.2929779
  13.0983072  47.5500148  21.8437661  13.7235776  47.0062281  22.1167093
  12.6433552  47.0695066  21.2745452  13.1231333  47.3989630  21.7999255
  13.6635333  52.3346847   6.7371368  13.8038294  52.8319311   7.4400010
  14.1617865  51.6333141   6.8785582  13.7576414  52.3048826   6.8622947
  26.6718121  55.7329435  16.9350309  27.2635961  56.3726686  16.9668507
  27.1077115  55.0352472  17.2242376  26.8236552  55.7247786  16.9831142
  15.2714538  49.1327933   4.0409387  15.5930379  48.6531016   3.3868649
  15.5341482  49.9427579   3.8500199  15.3580563  49.1817831   3.9164879
  18.5011511  60.1546808  17.5608203  17.9936602  60.7082654  18.0048834
  18.2038157  60.2155098  16.7426978  18.3816396  60.2453119  17.5056660
  20.6673693  48.5200127  16.4032866  21.0928764  48.0672654  15.7916392
  20.0530686  47.9660198  16.6797654  20.6402338  48.3714103  16.3537891
  19.1067916  44.9915227   9.8123443  18.4636234  44.8412873  10.3808582
  18.7667323  44.7457572   9.0472548  18.9612993  44.9327350   9.7826458
  23.6967262  52.9474654   9.2353452  23.0258452  53.4904356   9.1066517
  24.3907012  53.4169509   8.9935146  23.6996130  53.0972925   9.1808979
  17.7453996  65.0871366  14.4665210  17.5219650  64.3290195  14.8349236
  17.2563839  65.1169387  13.7445650  17.6397445  64.9793590  14.4141951
  23.8595390  49.4030537  12.1443825  24.2123000  48.9760260  12.8189624
  23.0010191  49.3181381  12.2744901  23.7844834  49.3275278  12.2638835
  12.5579075  52.0338057  10.2026671  11.8391064  52.4502190  10.4699535
  12.9291437  52.5992296   9.6518310  12.5071006  52.1787339  10.1609478
  21.8578655  52.6665906  16.0928667  21.8376583  52.4849201  16.9463446
  21.9057856  53.5377925  16.0688251  21.8613297  52.7682444  16.2151962
  19.8024985  59.2553098  22.0177144  19.7620840  58.6102775  21.4322300
  20.6148304  59.1989715  22.3302556  19.9168139  59.1512065  21.9774093
  16.3932453  65.3071824  11.9202295  15.9792852  64.6445954  11.5306136
  17.0779827  65.4549683  11.3997989  16.4330825  65.2312482  11.7858792
  19.7597747  64.4661909  12.6725911  19.3614030  64.5764180  11.9046731
  19.1448967  64.6743976  13.2552471  19.6096636  64.5135477  12.6457211
  18.3325649  51.0736057   5.5400051  17.7390488  51.3953054   4.9884618
  18.3700927  50.2277153   5.3321157  18.2500038  50.9960385   5.4282822
  25.2919450  44.5248949  13.0728137  24.7850314  43.8178089  13.0049315
  26.0886883  44.1942138  13.2029214  25.3346689  44.3722101  13.0827132
  21.2083466  51.0315562   8.9701801  20.9797159  51.0548263   8.1280159
  21.4681542  50.2073029   9.0896812  21.2129654  50.9131642   8.8626999
  15.4902694  52.8850035  18.5726901  14.9781597  52.2771218  18.9311933
  15.3182190  53.6006627  19.0400877  15.3892331  52.9013334  18.6943125
  10.3368409  51.3287610  21.2229263  10.1670999  51.9888985  20.6777470
   9.8934359  51.5394171  21.9441752  10.2467742  51.4573592  21.2490893
  14.2628228  49.5692108  10.2655997  14.7385594  49.9309188   9.6306178
  13.7616828  50.2248575  10.5456140  14.2593587  49.7186297  10.2132738
  27.4939590  59.0413876   6.0569002  27.8773195  59.7905232   6.2867099
  26.6983703  59.2879696   5.7980991  27.4333372  59.1883570   6.0526575
  19.3671764  50.8074279  21.0129157  19.9243195  50.5788089  20.3807622
  19.0432829  51.5679945  20.7364369  19.4018175  50.8858116  20.8785654
   7.2370473  54.2334476  16.4817753   6.6897193  53.5635121  16.5998621
   8.0262851  53.8664323  16.5461220   7.2722657  54.0799462  16.5086453
  17.0854882  53.8941933  21.9781164  17.8366209  54.2093609  22.2920718
  17.2777458  53.6921103  21.1515086  17.2246296  53.9109314  21.9024560
  16.3054881  51.7133308   3.6329381  16.6853846  51.7312937   2.8480495
  15.5647477  52.1587297   3.5120228  16.2523719  51.7815082   3.4992949
  23.9340172  50.0215499   9.2204959  23.9334398  49.8664155  10.0789236
  23.7296352  50.8678486   9.1646345  23.9039950  50.1236120   9.3392899
   5.9957443  53.4455283  13.6363776   5.8179204  52.9931892  14.3618692
   5.7076465  54.2481445  13.8202254   5.9270396  53.4977841  13.7707279
  21.6581024  54.7013001  12.8741166  22.1534689  53.9835996  12.8345187
  20.8480800  54.3983798  12.7595653  21.6124917  54.5510647  12.8514892
  23.7232843  57.4516688  15.5618295  24.1487914  56.9291110  15.0088720
  23.3589763  58.0497526  15.0406918  23.7319445  57.4626915  15.4027305
  13.3586923  65.7480906  14.3215641  13.6733482  66.5617294  14.3293422
  13.7680336  65.3631124  14.9897800  13.4655021  65.8109608  14.4219732
  20.3111442  61.1650952  11.8919453  20.7822620  61.8791215  12.0609438
  20.6471621  60.5649703  12.4279322  20.4306557  61.1822417  11.9951828
  22.3988427  62.7752266  24.0711525  22.5085392  61.9860826  24.4268272
  22.7279323  62.6858202  23.2685863  22.4640833  62.6458119  24.0053915
  17.2280937  45.9378423  18.8477547  17.3608843  45.1409416  19.1758523
  17.6126090  46.4644826  19.4275823  17.3037266  45.8978340  18.9821050
  20.9485389  60.9568887  18.6547145  20.4006334  60.3326770  18.3867210
  21.4098417  61.1463159  17.9391225  20.9352598  60.8927937  18.5097576
  20.3013292  42.8608749  15.4458641  19.4959256  42.7506479  15.7626479
  20.1720028  42.9621205  14.5888506  20.1633425  42.8592419  15.3666681
  23.7579253  49.0254241  16.0398337  23.1742242  49.5263448  15.6275905
  24.0783547  48.5183797  15.4062661  23.7192428  49.0246076  15.8856845
  16.2974052  47.9394836   6.3157012  17.1189746  48.1093149   6.0738707
  15.8343703  48.0942097   5.5923310  16.3505214  47.9876569   6.1728657
  14.8869384  45.9337598  17.0955441  15.4313797  45.5928725  17.6859783
  14.9406320  46.7923060  17.2376726  14.9758503  46.0092857  17.2037314
  10.6999943  59.6954014  13.9694249  11.3044800  59.6549848  13.3408070
  10.4927255  60.5425166  13.9998305  10.7588840  59.8142017  13.8810365
  20.5143715  61.9619959  15.1856486  21.3342089  61.8182925  15.4472782
  20.2337792  62.5866158  15.7272924  20.5940458  62.0330311  15.3044426
  36.9857365  69.6184811   8.1499363  36.9551370  70.4729448   8.3217632
  37.5838714  69.3180104   8.7085506  37.0694523  69.7001308   8.2574165
  30.1857050  68.7060462  12.9052293  29.3294946  68.8668960  12.9561410
  30.2324704  67.8352526  12.9257354  30.0656161  68.6011264  12.9158359
  33.4950767  74.9746988  22.5112749  34.2017534  74.4799018  22.6399684
  33.6838702  75.4156069  21.7815407  33.6278672  74.9665338  22.4221795
  33.0308871  70.7652506  15.5483945  33.5764831  71.4437593  15.6077914
  32.9725747  70.6239967  14.6885526  33.1024785  70.8444508  15.4296005
  21.6438078  66.4447589  13.4588939  21.0243109  65.8540236  13.2898953
  21.5421941  67.0359024  12.8253262  21.5375753  66.4451672  13.3393928
  28.7405973  68.1847131   7.7921402  29.4386138  68.3635259   8.2842865
  29.0558306  67.6617470   7.1691791  28.8901310  68.1340903   7.7723412
  21.3707211  69.9899871  15.7032508  21.2465908  70.5762316  16.3382326
  22.0225495  69.4960067  16.0044783  21.4480860  70.0038675  15.8418437
  26.3965552  73.1661588  14.9820019  27.0414554  72.6734031  14.6630967
  26.6367329  73.3086374  15.8086097  26.5276137  73.1139030  15.0569552
  28.9351643  76.0116494  14.6326911  29.2174886  75.2167899  14.4113667
  29.6637803  76.4897081  14.6531972  29.0841207  75.9651091  14.6029926
  26.9132837  63.5539528  11.8742676  26.5836167  64.0050671  11.2046375
  26.2377839  63.4755691  12.4215683  26.7643273  63.6090663  11.8565900
  34.1209245  59.5425051  10.1192287  33.8062686  60.2328529  10.5512709
  33.6036186  59.4869833   9.4177788  33.9973715  59.6359939  10.0789236
  25.1188791  61.6151816   7.3565624  25.8734759  61.9830133   7.1182674
  24.9416326  61.9891370   8.1244804  25.2043269  61.7250004   7.4350513
  38.4123690  67.7646257  15.4013163  37.5752111  67.8348444  15.6360758
  38.3811921  67.7670751  14.5287466  38.2841972  67.7756484  15.3072711
  24.8088419  69.9079292  21.1161532  24.9808922  69.7985187  21.9646813
  25.3457776  70.5533698  20.8792724  24.9133423  69.9871294  21.2066629
  23.4745856  64.0222135   4.0543737  23.2921429  64.2394016   3.2284730
  24.3371469  64.1361148   4.1102351  23.5750445  64.0712033   3.9398224
  29.1545575  61.0248546   7.0892761  29.8831735  60.8464501   6.6430917
  29.2440468  61.8666626   7.2999939  29.2752237  61.1232424   7.0546278
  33.1353875  71.9601933  10.9925055  33.8911390  72.3933447  11.0313964
  33.2416200  71.3106703  11.5659691  33.2624046  71.9279417  11.0823080
  36.1734047  75.7875210  11.7427458  35.7369278  75.7911953  12.4986429
  35.8396962  76.4680709  11.3107035  36.0596667  75.8887666  11.7908290
  30.7463120  77.8283543  23.0670608  31.5303537  77.9414391  23.4326350
  30.5459715  77.0024680  23.2629294  30.8329146  77.7230263  23.1504994
  19.1150136  72.5011223  15.9514452  18.8488551  71.6850340  16.1105442
  19.1288700  72.5464379  15.0809967  19.0774858  72.3868128  15.8467934
  36.0931529  62.8289038  13.9856886  36.7357438  62.8987143  14.5718801
  36.3454550  62.1618261  13.4836428  36.2253662  62.7415387  13.9984165
  23.8648742  66.0389602  18.5981460  23.1720539  65.5686581  18.8442191
  24.4809069  65.8127906  19.1723167  23.8533272  65.9356733  18.7190612
  39.3078393  72.5056130  10.6347095  39.9694827  71.9446799  10.5343003
  38.6669805  72.0108161  10.9599786  39.3107260  72.3492539  10.6679435
  19.5243549  73.2870003  13.2326196  19.3419123  73.2616889  12.3798488
  20.2593218  73.7568941  13.2715105  19.6057613  73.3531365  13.1124115
  22.5889301  70.0055006  19.7408305  23.3129273  69.9908036  20.2273200
  22.6905437  70.7150361  19.2430273  22.7107510  70.1079709  19.7387092
  29.9634250  73.4854090  24.6057252  29.1707231  73.7997602  24.7909872
  30.0783178  73.7005559  23.7678036  29.8629661  73.5637927  24.5095587
  32.6365569  70.2088081   8.8952268  32.7312424  70.9477375   9.3491893
  32.0124413  69.7805557   9.3286832  32.5574599  70.2549402   9.0260415
  30.8918043  73.3874294  19.5442549  31.4656905  72.7501538  19.6991113
  30.8132847  73.3878376  18.6752206  30.9651278  73.2939405  19.4388959
  19.4914460  70.1663503  13.3825263  20.0687962  70.0299954  14.0217508
  18.7928521  69.7099288  13.6370847  19.4735481  70.0785770  13.5147552
  26.2481762  71.8197559  11.5963746  25.9901006  70.9869294  11.5695045
  26.3030245  72.0455172  10.7556246  26.2181540  71.7295330  11.4683883
  31.3282812  63.9226010  11.6967839  30.6239139  63.4335195  11.8551758
  31.3767786  63.9348484  10.8256283  31.2312864  63.8515658  11.5907178
  25.2216474  69.3735321  12.0828641  24.6466065  69.5327490  12.7192602
  24.8452150  68.7370731  11.6197091  25.0819286  69.3033134  12.1083199
  28.8889763  67.8458671  16.9421019  28.5004195  67.4212889  16.2873210
  28.2244461  68.0940820  17.4498046  28.7336690  67.8197392  16.9208887
  38.5313032  67.6033675   9.7168849  38.2749597  66.7913617   9.5266732
  39.3742346  67.6111243   9.4899037  38.6179057  67.4845673   9.6553666
  32.7116124  61.5433300  14.4545003  33.0926636  60.8611471  14.8412878
  31.9079408  61.2542902  14.2720668  32.6492586  61.4000348  14.4849059
  36.2138191  74.7583272  19.5527402  35.9776828  73.9271336  19.4339462
  36.8581420  74.7068879  20.1382246  36.2732862  74.6280959  19.6213295
  25.8636609  75.5478793  10.2670138  26.5010556  75.3090540  10.8121932
  26.2891681  75.7515952   9.5323299  26.0212775  75.5429803  10.2387296
  26.6707965  64.0487498  24.3207612  26.3561406  64.8187061  24.0577175
  26.3497897  63.4857754  23.7359839  26.5766884  64.0797766  24.1948962
  37.2374612  74.5427720  15.6155696  36.9320429  75.2755777  15.9769012
  36.5180827  74.1365650  15.3348482  37.0861954  74.5909453  15.6268833
  28.2458081  76.0251215  11.9463924  28.3197089  75.8626387  12.8005774
  29.0627587  76.2141405  11.7024406  28.3774440  76.0287958  12.0361950
  42.9376404  71.1820721  14.9424041  42.8700904  71.2016680  14.0726627
  42.9232066  72.0251048  15.1679711  42.9255160  71.3094456  14.8476517
  24.2239862  62.4378019   9.9353808  23.3562287  62.5100619  10.0011417
  24.5115066  63.2400098  10.1241783  24.1379610  62.5672166   9.9728575
  33.3472750  62.5855879  18.2665130  34.0926342  62.3965689  17.8528555
  32.9310055  63.1114117  17.7078986  33.3957725  62.6358024  18.1229703
  40.7235021  69.9565107  13.2170635  41.2742943  69.3233176  13.4567727
  40.7079137  70.4880500  13.9086139  40.8020217  69.9414055  13.3549493
  27.3757412  73.7903704  17.7630528  26.8769106  74.5019472  17.8415417
  28.1857636  74.1104371  17.7248691  27.4213519  73.9430553  17.7687097
  23.6385530  73.0526657  12.0093249  23.3498778  72.4264129  12.5438977
  24.5068878  72.9946945  12.0757930  23.7245781  72.9514202  12.0984204
  34.4263427  68.1961441  12.3275231  34.0828193  67.4751776  12.6782481
  34.5256470  67.9875292  11.4853589  34.3905470  68.0585644  12.2546911
  26.3024470  66.6484749  23.0592827  25.4924246  66.9542529  22.9482669
  26.7799157  67.3690331  23.1745411  26.2527949  66.7999350  23.0599898
  25.1616030  75.8630470  13.3075730  24.6396783  76.0030762  13.9927594
  25.5490050  75.1041134  13.4977847  25.1419730  75.7715994  13.4376806
  22.1507214  65.9136279   7.3770684  21.8632009  65.5437549   6.6402632
  22.8377682  66.3831134   7.1154389  22.2096111  65.9283248   7.2285760
  26.5882355  72.8934489   8.7057221  26.3925138  73.5009223   8.1117524
  26.8116701  72.2002433   8.2248895  26.5916996  72.8812014   8.5473302
  24.9860885  69.7789227   8.8238089  25.7083537  69.9430385   8.3641895
  24.5068878  70.4998892   8.7177429  25.0224616  69.9087456   8.7403703
  32.9454393  66.1153026  14.2034774  32.1065493  66.1414304  13.9673037
  33.0158760  66.7623761  14.7840121  32.8322786  66.2149151  14.2543891
  22.6368502  72.1847299  17.9292229  23.1489599  72.4631552  17.2800989
  22.3504844  72.9236593  18.2955042  22.6703365  72.3349653  17.8882107
  31.3923671  63.0138403   8.9362390  32.0950024  62.8146151   8.4582348
  31.1267860  62.2414345   9.2431233  31.4570303  62.8701369   8.9107832
  36.8211917  71.3221012  11.4896016  36.7345891  71.4776438  12.3430795
  36.3662397  71.9659088  11.1155421  36.7415173  71.4396767  11.5603123
  19.7235408  66.6917491   8.2255965  19.8251545  67.4943652   8.5536941
  20.5191295  66.4904827   7.9279046  19.8563314  66.7803390   8.2291321
  26.1552227  64.2773688  17.9893271  25.9635424  64.2928822  18.8392694
  27.0050823  64.4737362  17.9659925  26.2527949  64.3088039  18.1116565
  20.5399140  66.8064669  15.9677087  20.3984632  65.9548610  16.0921595
  20.8239704  66.8493330  15.1439293  20.5606986  66.6864419  15.8644711
  30.6937733  68.6431759  10.1121575  30.4472447  68.5627510  10.9458364
  31.0222856  67.8585227   9.9184103  30.7058976  68.5158025  10.2069098
  34.5885781  75.3515119  13.9008357  34.4500141  76.0496165  14.4057099
  33.8085779  75.1963775  13.5444538  34.4529008  75.4315285  13.9234631
  32.9263867  71.6511494  20.1530738  32.9211905  70.7791311  20.1573165
  33.6324860  71.8499663  19.6800194  33.0308871  71.5515368  20.0837774
  26.6534760  71.3788478  19.5244558  26.7978136  71.9589686  18.8887668
  27.0010408  71.7564775  20.2294413  26.7262221  71.5209182  19.5343553
  28.8254677  70.5778646  17.3069690  28.0777991  70.7709661  16.9017968
  28.9796203  69.7523866  17.0693811  28.7377105  70.4843758  17.2115096
  29.0656454  64.4729197  18.1965094  29.5229068  65.2053171  18.3237886
  29.1412783  64.0495662  18.9552350  29.1447424  64.5186435  18.3266170
  21.3089446  64.7195017  19.2854537  20.7731635  64.1075375  19.6015305
  21.3707210  65.2943153  19.9388204  21.2385078  64.7141945  19.4289964
  33.5383780  57.6519072  12.0658937  33.6567348  58.1095536  11.3326239
  33.3645956  56.8464334  11.7795154  33.5302951  57.6012844  11.9159870
  26.9438832  66.4631301  15.0406918  26.1534907  66.2822761  15.3624254
  27.3399455  65.6858254  15.0237212  26.8855708  66.3218762  15.0859466
  32.3282519  74.0973731  12.7666364  31.6527520  73.8658963  13.2679751
  32.3374895  73.4894914  12.1408469  32.2301023  73.9732656  12.7482516
  29.4576663  68.9391560  19.5230417  29.3935804  69.8001517  19.3950553
  29.5973850  68.6223553  18.7225968  29.4692133  69.0191727  19.3858630
  28.1395756  71.6323700  13.6646620  27.7158006  71.8328199  12.9285638
  27.9640612  70.7852547  13.7770919  28.0506637  71.5372481  13.5720310
  23.4278201  72.1275751   9.0974592  23.5842821  72.0622554   9.9530584
  23.7678794  72.9024304   8.8853272  23.5011436  72.2324949   9.1929186
  29.9657346  71.5033635   7.9667955  30.5072891  71.0004016   8.4306576
  30.2803905  71.4498829   7.1557441  30.0921743  71.4213055   7.9151767
  33.8374453  75.7136282  25.0794868  34.6509319  75.4421431  25.2400000
  33.6769420  75.4143822  24.2755063  33.9344402  75.6291208  24.9840273
  31.1146615  66.3969939  18.0190256  31.3288585  65.7580853  17.4653610
  30.4980515  66.8415763  17.5898118  31.0551945  66.3680083  17.8740687
  20.0012463  69.3110701   9.4135359  20.3811428  69.7295246   8.7495627
  19.4267828  69.8924157   9.7204203  19.9723788  69.4588560   9.3612100
  33.2785703  68.0059004  18.9573563  32.4662385  67.6984895  19.0386736
  33.7375638  67.5258004  19.5216275  33.2266088  67.8895497  19.0528157
  30.5061344  59.5069875  13.0077599  29.6354902  59.4808596  12.9610908
  30.7601685  59.3347067  12.1903444  30.4154904  59.4780018  12.8797735
  30.3739211  69.4119076  23.7402265  30.8438842  70.0361192  24.1270139
  30.4201091  68.7436051  24.2995480  30.4507087  69.4053756  23.8802337
  27.5310485  61.5176103  14.4651069  27.0148973  60.8256295  14.5902648
  26.9704413  62.1846880  14.4113668  27.3716998  61.5139361  14.4757135
  29.6002718  62.0569063  16.2943922  29.2134471  62.0818095  17.0757451
  29.1135655  61.4910742  15.8418438  29.4715227  61.9764814  16.3431825
  33.8495697  76.7742572  20.3517708  34.4875418  76.2802768  20.0180164
  33.2069789  76.7019973  19.7669935  33.8489924  76.6901581  20.2160063
  35.5752697  68.6231718  14.9183624  35.1480306  68.5358067  14.1631723
  34.9378750  68.7309494  15.5038468  35.4182305  68.6264378  14.8929065
  29.2659860  58.9436049  18.5854181  29.8952978  59.4796349  18.3075252
  29.4345722  58.8513408  19.4367747  29.3837654  59.0097411  18.6702710
  29.0673775  63.7307243  20.8580593  29.8947204  63.4592392  20.9139207
  29.0881621  64.5268085  21.2144411  29.1926625  63.8086998  20.9195776
  33.9049954  77.4662380  16.9923065  34.6942332  77.1151445  17.1125146
  34.0793552  78.2798769  16.7299699  34.0470236  77.5348238  16.9710933
  23.6443264  70.8771106  14.0450854  22.8031271  70.7774980  14.2529748
  23.8533272  71.6466586  14.3965174  23.5507957  70.9763150  14.1278169
  21.1218831  68.4990643  11.8735604  20.7275529  68.5733655  11.0985714
  20.5658948  68.8848589  12.4243966  20.9821644  68.5672418  11.8403264
  32.7583778  61.4771937  11.5539483  32.9633372  61.4094245  12.3996480
  32.4310202  62.2830758  11.4860661  32.7399026  61.5857878  11.6699138
  27.4559929  68.8052505  13.2948451  27.1523067  68.2508494  13.8958859
  26.7539350  68.9844715  12.8076485  27.3076139  68.7497288  13.3118157
  26.5126026  66.1153025   7.8593153  26.7885761  65.3971938   7.4470721
  27.1124696  66.7137945   7.6514259  26.6419291  66.0973396   7.7673914
  36.0117466  62.0303701  11.0342249  35.3991779  62.5174104  11.4195981
  36.1081641  61.3547192  11.5779900  35.9355364  62.0022010  11.1721107
  30.0136547  63.7866543   6.1339748  30.4680293  63.9577103   6.8587593
  30.4876593  63.1734653   5.7337524  30.1504867  63.7217428   6.1813510
  23.9312695  64.4316866  16.1310504  24.3914177  64.5055796  16.8685628
  23.9768802  65.2298120  15.7810326  24.0063250  64.5611013  16.1883261
  25.5796045  65.0983561  20.6982531  25.1881610  64.4516908  21.1338309
  25.7481908  65.6894996  21.3176787  25.5466955  65.0897829  20.8545237
  39.6542494  73.1020638  16.4619765  39.7125618  73.5507287  17.2079741
  39.0208961  73.5119451  16.0249845  39.5693789  73.2294373  16.5072313
  27.3549567  70.4909077   7.2384755  28.0991612  70.8783353   7.4767705
  27.5010263  69.6466502   7.4025243  27.4860152  70.4239550   7.2978725
  29.2729142  62.2859336  12.2716617  28.4265187  62.4582144  12.1457967
  29.2700275  61.4808680  12.6082445  29.1476292  62.1920365  12.3027744
  30.3427443  66.0634550  13.1378675  29.8687397  65.5376312  13.6483986
  30.7145579  65.5164023  12.5693536  30.3277332  65.9050547  13.1293822
  20.7200473  68.0606057  18.5062220  21.5826086  67.9601766  18.4199550
  20.3892256  67.4800766  17.9447793  20.7985669  67.9597684  18.4107626
  36.6064173  71.1236926  14.5485455  36.3662396  70.2843341  14.5527882
  37.0856180  71.2037093  15.2726229  36.6416357  71.0118326  14.6560257
  32.2710942  66.9571105   6.2004428  31.7433961  67.0399849   5.5110137
  32.7306651  67.6988976   6.1969073  32.2612793  67.0791767   6.0979124
  38.6069360  67.9038383  12.5014714  38.3679130  67.8634217  11.6635499
  38.7703262  68.7509535  12.6280435  38.5959664  68.0230468  12.3968196
  35.2115390  72.2888332  18.4319759  35.9349589  71.8360859  18.2530779
  34.9465353  72.5692998  17.6492087  35.2796664  72.2639301  18.2898475
  24.0802259  66.8848506  15.1672639  23.4555329  66.8966898  14.5598591
  23.7447854  67.3608681  15.8163879  23.9387751  66.9567023  15.1729207
  30.9934180  72.3872211  16.5814775  30.3791173  71.8430261  16.8763410
  31.5101465  71.8736447  16.1020591  30.9789842  72.2308620  16.5539003
  30.2330477  73.4576481  14.3159073  29.8058085  72.8326199  13.8824509
  30.2255422  73.1751403  15.1418080  30.1689618  73.3229261  14.3738901
  23.3493004  68.4941654  17.3847507  23.5086491  67.7384978  17.7899229
  23.1685898  69.0432593  18.0388245  23.3458363  68.4635467  17.5410213
  31.2913307  60.6602889  17.9398297  30.7953868  60.8566563  17.2489863
  32.0482369  61.0595558  17.7687098  31.3300132  60.7480623  17.8118433
  28.5616187  64.3345235  14.5301607  28.5858674  63.8005347  13.8414387
  28.8127660  63.8262544  15.1927198  28.6026106  64.1806139  14.5266252
  24.8417509  63.0616053  13.9107351  24.8815881  63.5625260  14.6242059
  24.0167174  63.1526447  13.6413274  24.7257035  63.1497870  13.9757890
  27.0247122  72.6276793  22.0127646  26.1742752  72.7648508  22.1485291
  27.1875250  71.8940572  22.4575348  26.9230985  72.5390895  22.0983245
  26.2631872  69.5776563  16.2081250  25.4323802  69.7450381  16.0016499
  26.2083390  69.2012514  16.9930136  26.1321287  69.5466295  16.2929779
  24.0715656  63.0685456  21.8437661  24.6968359  62.5247589  22.1167093
  23.6166136  62.5880374  21.2745452  24.0963916  62.9174937  21.7999255
  24.6367916  67.8532155   6.7371368  24.7770877  68.3504619   7.4400010
  25.1350449  67.1518449   6.8785582  24.7308997  67.8234134   6.8622947
  37.6450704  71.2514743  16.9350309  38.2368545  71.8911994  16.9668507
  38.0809699  70.5537780  17.2242376  37.7969136  71.2433094  16.9831142
  26.2447122  64.6513241   4.0409387  26.5662963  64.1716324   3.3868649
  26.5074065  65.4612887   3.8500199  26.3313147  64.7003139   3.9164879
  29.4744094  75.6732116  17.5608203  28.9669185  76.2267962  18.0048834
  29.1770740  75.7340405  16.7426978  29.3548979  75.7638427  17.5056660
  31.6406276  64.0385435  16.4032866  32.0661348  63.5857962  15.7916392
  31.0263270  63.4845506  16.6797654  31.6134922  63.8899411  16.3537891
  30.0800499  60.5100535   9.8123443  29.4368817  60.3598181  10.3808582
  29.7399906  60.2642880   9.0472548  29.9345577  60.4512657   9.7826458
  34.6699846  68.4659962   9.2353452  33.9991036  69.0089664   9.1066517
  35.3639596  68.9354817   8.9935146  34.6728713  68.6158233   9.1808979
  34.8327973  64.9215845  12.1443825  35.1855583  64.4945568  12.8189624
  33.9742775  64.8366689  12.2744901  34.7577418  64.8460586  12.2638835
  23.5311658  67.5523365  10.2026671  22.8123647  67.9687498  10.4699535
  23.9024021  68.1177604   9.6518310  23.4803590  67.6972647  10.1609478
  32.8311239  68.1851214  16.0928667  32.8109166  68.0034509  16.9463446
  32.8790440  69.0563233  16.0688251  32.8345880  68.2867752  16.2151962
  30.7757569  74.7738406  22.0177144  30.7353424  74.1288083  21.4322300
  31.5880887  74.7175023  22.3302556  30.8900722  74.6697373  21.9774093
  29.3058233  66.5921365   5.5400051  28.7123072  66.9138362   4.9884618
  29.3433510  65.7462460   5.3321157  29.2232622  66.5145693   5.4282822
  36.2652033  60.0434257  13.0728137  35.7582898  59.3363397  13.0049315
  37.0619467  59.7127446  13.2029214  36.3079273  59.8907409  13.0827132
  32.1816049  66.5500870   8.9701801  31.9529742  66.5733571   8.1280159
  32.4414125  65.7258337   9.0896812  32.1862237  66.4316949   8.8626999
  26.4635278  68.4035343  18.5726901  25.9514181  67.7956526  18.9311933
  26.2914774  69.1191935  19.0400877  26.3624915  68.4198642  18.6943125
  21.3100992  66.8472918  21.2229263  21.1403583  67.5074293  20.6777470
  20.8666942  67.0579479  21.9441752  21.2200326  66.9758900  21.2490893
  25.2360812  65.0877416  10.2655997  25.7118178  65.4494496   9.6306178
  24.7349411  65.7433883  10.5456140  25.2326171  65.2371605  10.2132738
  30.3404348  66.3259587  21.0129157  30.8975778  66.0973397  20.3807622
  30.0165413  67.0865253  20.7364369  30.3750758  66.4043424  20.8785654
  18.2103057  69.7519783  16.4817753  17.6629776  69.0820429  16.5998621
  18.9995435  69.3849631  16.5461220  18.2455241  69.5984770  16.5086453
  28.0587465  69.4127241  21.9781164  28.8098792  69.7278917  22.2920718
  28.2510042  69.2106411  21.1515086  28.1978879  69.4294622  21.9024560
  27.2787465  67.2318616   3.6329381  27.6586430  67.2498245   2.8480495
  26.5380061  67.6772604   3.5120228  27.2256303  67.3000390   3.4992949
  34.9072755  65.5400807   9.2204959  34.9066982  65.3849463  10.0789236
  34.7028935  66.3863794   9.1646345  34.8772533  65.6421428   9.3392899
  16.9690026  68.9640591  13.6363776  16.7911787  68.5117200  14.3618692
  16.6809048  69.7666753  13.8202254  16.9002980  69.0163149  13.7707279
  32.6313607  70.2198309  12.8741166  33.1267273  69.5021304  12.8345187
  31.8213383  69.9169106  12.7595653  32.5857501  70.0695955  12.8514892
  34.6965426  72.9701996  15.5618295  35.1220498  72.4476418  15.0088720
  34.3322346  73.5682834  15.0406918  34.7052029  72.9812223  15.4027305
  31.2844026  76.6836260  11.8919453  31.7555204  77.3976523  12.0609438
  31.6204204  76.0835011  12.4279322  31.4039141  76.7007725  11.9951828
  33.3721010  78.2937574  24.0711525  33.4817976  77.5046134  24.4268272
  33.7011907  78.2043510  23.2685863  33.4373416  78.1643427  24.0053915
  28.2013521  61.4563731  18.8477547  28.3341426  60.6594724  19.1758523
  28.5858673  61.9830134  19.4275823  28.2769850  61.4163648  18.9821050
  31.9217972  76.4754195  18.6547145  31.3738918  75.8512078  18.3867210
  32.3831001  76.6648467  17.9391225  31.9085182  76.4113245  18.5097576
  31.2745876  58.3794057  15.4458641  30.4691840  58.2691787  15.7626479
  31.1452611  58.4806513  14.5888506  31.1366009  58.3777727  15.3666681
  34.7311836  64.5439549  16.0398337  34.1474825  65.0448755  15.6275905
  35.0516130  64.0369105  15.4062661  34.6925012  64.5431384  15.8856845
  27.2706636  63.4580144   6.3157012  28.0922330  63.6278457   6.0738707
  26.8076286  63.6127405   5.5923310  27.3237798  63.5061877   6.1728657
  25.8601967  61.4522906  17.0955441  26.4046380  61.1114033  17.6859783
  25.9138903  62.3108368  17.2376726  25.9491087  61.5278165  17.2037314
  31.4876298  77.4805267  15.1856486  32.3074672  77.3368233  15.4472782
  31.2070376  78.1051466  15.7272924  31.5673042  77.5515619  15.3044426
  37.6440548  79.5672806  24.3207612  37.3293989  80.3372368  24.0577175
  37.3230481  79.0043062  23.7359839  37.5499467  79.5983074  24.1948962
  44.3205334  78.1041187  18.2665130  45.0658926  77.9150997  17.8528555
  43.9042638  78.6299425  17.7078986  44.3690308  78.1543332  18.1229703
  37.1284811  79.7958996  17.9893271  36.9368008  79.8114130  18.8392694
  37.9783407  79.9922670  17.9659925  37.2260533  79.8273347  18.1116565
  40.0389038  79.9914505  18.1965094  40.4961652  80.7238479  18.3237886
  40.1145367  79.5680970  18.9552350  40.1180008  80.0371743  18.3266170
  38.5043068  77.0361411  14.4651069  37.9881557  76.3441603  14.5902648
  37.9436997  77.7032188  14.4113668  38.3449581  77.0324669  14.4757135
  40.5735302  77.5754371  16.2943922  40.1867055  77.6003403  17.0757451
  40.0868239  77.0096050  15.8418438  40.4447810  77.4950122  16.3431825
  40.2392443  74.4621357  18.5854181  40.8685561  74.9981657  18.3075252
  40.4078306  74.3698716  19.4367747  40.3570238  74.5282719  18.6702710
  40.0406358  79.2492551  20.8580593  40.8679788  78.9777700  20.9139207
  40.0614204  80.0453393  21.2144411  40.1659208  79.3272306  20.9195776
  42.2645891  76.1788197  17.9398297  41.7686452  76.3751871  17.2489863
  43.0214953  76.5780865  17.7687098  42.3032715  76.2665931  17.8118433
  35.8150093  78.5801361  13.9107351  35.8548464  79.0810568  14.6242059
  34.9899757  78.6711755  13.6413274  35.6989619  78.6683178  13.9757890
  35.0448239  78.5870764  21.8437661  35.6700943  78.0432897  22.1167093
  34.5898719  78.1065682  21.2745452  35.0696500  78.4360245  21.7999255
  42.6138860  79.5570743  16.4032866  43.0393932  79.1043270  15.7916392
  41.9995853  79.0030814  16.6797654  42.5867505  79.4084719  16.3537891
  39.1746104  76.9749039  18.8477547  39.3074010  76.1780032  19.1758523
  39.5591257  77.5015442  19.4275823  39.2502433  76.9348956  18.9821050
  42.2478459  73.8979365  15.4458641  41.4424423  73.7877095  15.7626479
  42.1185195  73.9991821  14.5888506  42.1098592  73.8963035  15.3666681
  36.8334551  76.9708214  17.0955441  37.3778964  76.6299341  17.6859783
  36.8871487  77.8293676  17.2376726  36.9223670  77.0463473  17.2037314
  22.2169007  36.3939811   9.4452796  22.9235774  35.8991842   9.5739730
  22.4056942  36.8348892   8.7155454  22.3496913  36.3858161   9.3561842
  19.3561301  39.8167347   7.3366871  19.4444647  39.6293488   8.1845082
  19.7851014  39.1704777   6.9371718  19.4323404  39.6930355   7.4038623
  16.9231761  39.0998507   6.3184534  16.3602596  38.6871117   6.8424195
  17.6852785  39.0251413   6.7377677  16.9526210  39.0275908   6.4577534
  13.5306659  31.3272115   8.0501579  13.7027163  31.2178010   8.8986860
  14.0676017  31.9726521   7.8132771  13.6351663  31.4064117   8.1406675
  19.4681361  39.2476366  10.0010655  20.2521777  39.3607214  10.3666397
  19.2677955  38.4217504  10.1969341  19.5547386  39.1423086  10.0845041
  19.6251754  41.1586468   3.6477110  18.8267000  40.9185969   3.9050979
  20.0737765  41.2100861   4.3944158  19.5726365  41.1308860   3.7962035
  18.6852491  34.9046913  11.5397299  17.8925472  35.2190425  11.7249918
  18.8001418  35.1198382  10.7018083  18.5847901  34.9830750  11.4435633
  19.6136284  34.8067117   6.4782595  20.1875145  34.1694361   6.6331159
  19.5351087  34.8071200   5.6092253  19.6869518  34.7132229   6.3729006
  24.9356431  36.1776095   6.4867449  24.6995069  35.3464160   6.3679509
  25.5799660  36.1261702   7.0722293  24.9951102  36.0473783   6.5553342
  15.3926205  25.4680321  11.2547659  15.0779646  26.2379884  10.9917221
  15.0716137  24.9050577  10.6699886  15.2985124  25.4990590  11.1289009
  25.9592852  35.9620544   2.5495743  25.6538669  36.6948600   2.9109059
  25.2399068  35.5558473   2.2688529  25.8080194  36.0102276   2.5608880
  31.6594644  32.6013544   1.8764087  31.5919144  32.6209503   1.0066674
  31.6450307  33.4443871   2.1019758  31.6473401  32.7287279   1.7816564
  16.0975652  35.2096528   4.6970575  15.5987346  35.9212295   4.7755464
  16.9075877  35.5297194   4.6588738  16.1431759  35.3623376   4.7027144
  15.0242710  28.0677572   9.9932873  14.2142486  28.3735352   9.8822716
  15.5017397  28.7883154  10.1085458  14.9746189  28.2192173   9.9939945
  21.6482107  33.0704317   7.0870785  21.6430145  32.1984134   7.0913212
  22.3543101  33.2692487   6.6140241  21.7527111  32.9708192   7.0177820
  15.3753000  32.7981301   6.4584605  15.5196376  33.3782509   5.8227715
  15.7228649  33.1757598   7.1634460  15.4480462  32.9402005   6.4683600
  14.4480755  40.9884073   3.3245632  14.5970319  40.4286989   2.6719036
  15.2280757  41.0676075   3.7078151  14.5854849  40.9169639   3.2842581
  16.9734056  41.1598716   4.6030123  16.8977727  40.4907527   5.1580911
  16.9023915  41.8616504   5.1170789  16.9514663  41.1643623   4.7606971
  16.3625690  44.5667036   3.0608124  16.8521621  43.8677825   2.8783788
  15.7909923  44.2690906   3.6484181  16.3510220  44.4193259   3.1209164
  22.5592694  37.1329105  12.0134914  23.3727559  36.8614254  12.1740047
  22.3987660  36.8336645  11.2095110  22.6562642  37.0484031  11.9180320
  22.0003944  29.4251827   5.8913610  21.1880625  29.1177718   5.9726782
  22.4593878  28.9450828   6.4556322  21.9484329  29.3088320   5.9868204
  19.0957451  30.8311899  10.6742312  19.5657082  31.4554015  11.0610186
  19.1419331  30.1628874  11.2335527  19.1725327  30.8246579  10.8142383
  22.5713938  38.1935395   7.2857755  23.2093658  37.6995591   6.9520211
  21.9288029  38.1212796   6.7009982  22.5708164  38.1094404   7.1500110
  22.6268194  38.8855204   3.9263112  23.4160573  38.5344268   4.0465193
  22.8011792  39.6991592   3.6639745  22.7688476  38.9541061   3.9050980
  14.2396521  37.4395049   4.9360596  14.1316876  37.4497111   5.8022654
  14.4492302  38.2649830   4.7465550  14.2546632  37.5636124   5.0364687
  28.3760734  34.5213461   3.3959812  28.4343858  34.9700110   4.1419788
  27.7427202  34.9312274   2.9589892  28.2912029  34.6487196   3.4412360
  22.0159829  40.1417003  -0.1685442  21.8179518  40.6307818  -0.8629231
  21.3947540  40.3458245   0.4098691  21.8947393  40.2433542  -0.1862219
  23.9333631  33.7081156   5.3659806  24.6567830  33.2553682   5.1870826
  23.6683593  33.9885821   4.5832134  24.0014904  33.6832124   5.2238522
  15.7465362  34.0469617   8.9467693  14.8960993  34.1841331   9.0825338
  15.9093490  33.3133395   9.3915395  15.6449226  33.9583718   9.0323292
  26.3668945  32.6707566   3.8690356  26.9586785  33.3104817   3.9008554
  26.8027939  31.9730603   4.1582423  26.5187376  32.6625917   3.9171189
  18.1962335  37.0924939   4.4948250  17.6887426  37.6460786   4.9388880
  17.8988981  37.1533229   3.6767024  18.0767220  37.1831250   4.4396707
  17.4404820  42.0249497   1.4005257  17.2170474  41.2668326   1.7689283
  16.9514663  42.0547518   0.6785696  17.3348269  41.9171722   1.3481998
  19.4975809  36.1931229   8.9517190  19.4571664  35.5480906   8.3662346
  20.3099128  36.1367847   9.2642603  19.6118963  36.0890196   8.9114140
  19.0622588  27.7452410   7.9469204  19.6194019  27.5166220   7.3147669
  18.7383653  28.5058076   7.6704416  19.0968999  27.8236247   7.8125701
  16.7805706  30.8320064   8.9121211  17.5317033  31.1471741   9.2260765
  16.9728282  30.6299235   8.0855133  16.9197120  30.8487446   8.8364607
  23.4183667  34.3894819   2.4958342  23.8438738  33.8669241   1.9428767
  23.0540587  34.9875657   1.9746965  23.4270269  34.4005046   2.3367352
  13.0537746  42.6859037   1.2555687  13.3684305  43.4995425   1.2633469
  13.4631160  42.3009256   1.9237847  13.1605844  42.7487739   1.3559779
  22.0939251  39.7130397  11.0051571  22.2036216  38.9238958  11.3608319
  22.4230147  39.6236333  10.2025909  22.1591657  39.5836250  10.9393962
  20.6436212  37.8947018   5.5887192  20.0957158  37.2704901   5.3207257
  21.1049241  38.0841290   4.8731271  20.6303422  37.8306068   5.4437623
  20.2094539  38.8998090   2.1196533  21.0292913  38.7561057   2.3812828
  19.9288616  39.5244289   2.6612971  20.2891282  38.9708443   2.2384473
  36.6808189  46.5562942  -4.9160591  36.6502193  47.4107579  -4.7442321
  37.2789538  46.2558235  -4.3574447  36.7645347  46.6379439  -4.8085788
  29.8807874  45.6438593  -0.1607660  29.0245769  45.8047091  -0.1098543
  29.9275528  44.7730657  -0.1402599  29.7606985  45.5389395  -0.1501594
  33.1901591  51.9125119   9.4452796  33.8968358  51.4177150   9.5739730
  33.3789526  52.3534200   8.7155454  33.3229496  51.9043469   9.3561842
  32.7259695  47.7030637   2.4823992  33.2715655  48.3815724   2.5417961
  32.6676571  47.5618098   1.6225573  32.7975609  47.7822639   2.3636052
  25.8433770  55.1919703  -2.1307656  25.9444133  54.3820057  -1.8210528
  25.2475515  55.0976650  -2.7607977  25.7706309  55.0584731  -2.1781418
  25.6834509  60.1097292  -0.7292800  26.3271965  60.5510456  -0.3396642
  26.0090765  59.3050719  -0.8162541  25.8266338  60.0562487  -0.6847323
  21.3388902  43.3825720   0.3928985  20.7193933  42.7918368   0.2239000
  21.2372765  43.9737156  -0.2406691  21.2326577  43.3829803   0.2733975
  28.4356797  45.1225262  -5.2738552  29.1336962  45.3013390  -4.7817088
  28.7509130  44.5995602  -5.8968162  28.5852134  45.0719034  -5.2936541
  21.0658035  46.9278002   2.6372554  20.9416731  47.5140448   3.2722373
  21.7176319  46.4338198   2.9384829  21.1431684  46.9416807   2.7758484
  28.6244733  51.5095707  -5.2858760  29.0638368  50.9012808  -4.8403987
  28.4749395  51.1303081  -6.0573295  28.6666198  51.3634178  -5.3339593
  26.0916376  50.1039719   1.9160065  26.7365378  49.6112162   1.5971014
  26.3318153  50.2464506   2.7426144  26.2226961  50.0517161   1.9909599
  28.6302467  52.9494625   1.5666958  28.9125710  52.1546031   1.3453714
  29.3588627  53.4275212   1.5872019  28.7792031  52.9029222   1.5369973
  26.6083661  40.4917659  -1.1917277  26.2786991  40.9428802  -1.8613578
  25.9328663  40.4133822  -0.6444270  26.4594097  40.5468794  -1.2094054
  33.8160069  36.4803182  -2.9467666  33.5013510  37.1706660  -2.5147244
  33.2987010  36.4247964  -3.6482166  33.6924539  36.5738070  -2.9870717
  38.6120555  52.0553987  -1.4597211  37.7818258  52.2664631  -1.2963795
  38.5629808  51.2291042  -1.7354928  38.4827291  51.9643593  -1.4759846
  26.6730293  54.8857841   1.3750698  26.1557235  54.5265256   0.7712006
  27.3704684  54.3620016   1.3856764  26.6995874  54.7555529   1.2880957
  30.3293885  55.3352655   7.3366871  30.4177231  55.1478796   8.1845082
  30.7583597  54.6890085   6.9371718  30.4055987  55.2115663   7.4038623
  27.8964345  54.6183815   6.3184534  27.3335179  54.2056425   6.8424195
  28.6585368  54.5436721   6.7377677  27.9258793  54.5461216   6.4577534
  23.4560336  56.6081836  -1.0778836  24.1580915  56.0933826  -1.0206080
  23.3757819  56.9355988  -0.2731961  23.5484097  56.5796063  -0.9506044
  38.1074514  44.7024388   2.3353210  37.2702935  44.7726575   2.5700805
  38.0762745  44.7048883   1.4627512  37.9792796  44.7134615   2.2412758
  24.5039243  46.8457423   8.0501579  24.6759746  46.7363318   8.8986860
  25.0408600  47.4911829   7.8132771  24.6084247  46.9249425   8.1406675
  22.7811112  52.7988188  -1.5693228  23.6200011  53.0311121  -1.5219467
  22.8122881  51.9292500  -1.6386193  22.9092829  52.7045135  -1.5728584
  23.4063815  53.2189064   2.7320077  23.9462039  53.0760195   3.4023450
  22.7233761  53.6185814   3.1004103  23.3855968  53.2568735   2.8854499
  32.8304699  48.8980064  -2.0734898  33.5862214  49.3311579  -2.0345990
  32.9367024  48.2484834  -1.5000262  32.9574870  48.8657548  -1.9836873
  35.8684871  52.7253342  -1.3232495  35.4320102  52.7290084  -0.5673524
  35.5347786  53.4058841  -1.7552918  35.7547490  52.8265797  -1.2751663
  30.4413944  54.7661674  10.0010655  31.2254361  54.8792522  10.3666397
  30.2410539  53.9402811  10.1969341  30.5279970  54.6608394  10.0845041
  18.8100960  49.4389354   2.8854499  18.5439375  48.6228471   3.0445489
  18.8239524  49.4842510   2.0150014  18.7725682  49.3246259   2.7807981
  35.7882353  39.7667169   0.9196933  36.4308262  39.8365274   1.5058848
  36.0405374  39.0996392   0.4176474  35.9204486  39.6793518   0.9324212
  23.5599566  42.9767733   5.5321506  22.8671363  42.5064712   5.7782238
  24.1759893  42.7506037   6.1063214  23.5484096  42.8734865   5.6530659
  30.5984337  56.6771776   3.6477110  29.7999583  56.4371276   3.9050979
  31.0470349  56.7286169   4.3944158  30.5458949  56.6494168   3.7962035
  39.0029217  49.4434261  -2.4312858  39.6645651  48.8824930  -2.5316950
  38.3620629  48.9486292  -2.1060167  39.0058084  49.2870670  -2.3980518
  19.2194373  50.2248134   0.1666243  19.0369946  50.1995020  -0.6861465
  19.9544042  50.6947072   0.2055152  19.3008437  50.2909496   0.0464161
  35.2894047  50.4599644  -2.6900869  35.5249637  50.6044843  -3.5174019
  35.4383611  51.2242052  -2.2969356  35.3459851  50.5938698  -2.7537266
  22.2840125  46.9433137   6.6748352  23.0080097  46.9286167   7.1613246
  22.3856261  47.6528492   6.1770320  22.4058334  47.0457840   6.6727138
  29.6585074  50.4232221  11.5397299  28.8658055  50.7375733  11.7249918
  29.7734001  50.6383690  10.7018083  29.5580485  50.5016058  11.4435633
  32.3316393  47.1466212  -4.1707685  32.4263248  47.8855507  -3.7168060
  31.7075237  46.7183688  -3.7373121  32.2525423  47.1927533  -4.0399538
  30.5868867  50.3252425   6.4782595  31.1607729  49.6879669   6.6331159
  30.5083671  50.3256508   5.6092253  30.6602102  50.2317536   6.3729006
  19.1865284  47.1041635   0.3165310  19.7638786  46.9678085   0.9557555
  18.4879345  46.6477419   0.5710894  19.1686305  47.0163901   0.4487599
  25.9432586  48.7575690  -1.4696207  25.6851830  47.9247425  -1.4964908
  25.9981069  48.9833303  -2.3103707  25.9132364  48.6673461  -1.5976070
  31.0233636  40.8604141  -1.3692115  30.3189963  40.3713326  -1.2108195
  31.0718610  40.8726615  -2.2403670  30.9263687  40.7893789  -1.4752775
  24.9167298  46.3113453  -0.9831312  24.3416889  46.4705621  -0.3467351
  24.5402974  45.6748862  -1.4462862  24.7770110  46.2411266  -0.9576754
  28.5840587  44.7836802   3.8761066  28.1955019  44.3591020   3.2213257
  27.9195285  45.0318952   4.3838093  28.4287514  44.7575523   3.8548934
  38.2263856  44.5411807  -3.3491104  37.9700421  43.7291748  -3.5393221
  39.0693170  44.5489374  -3.5760917  38.3129881  44.4223804  -3.4106287
  32.4066948  38.4811431   1.3885050  32.7877460  37.7989602   1.7752924
  31.6030232  38.1921033   1.2060715  32.3443410  38.3378479   1.4189106
  35.9089015  51.6961403   6.4867449  35.6727652  50.8649467   6.3679509
  36.5532244  51.6447010   7.0722293  35.9683686  51.5659091   6.5553342
  25.5587433  52.4856924  -2.7989815  26.1961380  52.2468672  -2.2538022
  25.9842505  52.6894083  -3.5336654  25.7163599  52.4807934  -2.8272658
  20.2500075  54.7245261   1.0844489  20.2904221  54.9960112   0.2564268
  20.8094600  55.2487169   1.5002277  20.3383421  54.8421016   1.0236377
  26.3658789  40.9865629  11.2547659  26.0512230  41.7565192  10.9917221
  26.0448721  40.4235885  10.6699886  26.2717708  41.0175898  11.1289009
  36.9325436  51.4805851   2.5495743  36.6271253  52.2133908   2.9109059
  36.2131651  51.0743781   2.2688529  36.7812778  51.5287584   2.5608880
  27.9408905  52.9629347  -1.1196029  28.0147913  52.8004518  -0.2654179
  28.7578411  53.1519536  -1.3635547  28.0725264  52.9666089  -1.0298003
  42.6327228  48.1198852   1.8764087  42.5651728  48.1394811   1.0066674
  42.6182890  48.9629179   2.1019758  42.6205984  48.2472587   1.7816564
  33.0423574  39.5234010   5.2005177  33.7877166  39.3343820   4.7868602
  32.6260879  40.0492248   4.6419033  33.0908548  39.5736155   5.0569750
  40.4185845  46.8943238   0.1510682  40.9693767  46.2611307   0.3907774
  40.4029960  47.4258631   0.8426186  40.4971041  46.8792186   0.2889540
  27.0708236  50.7281836   4.6970575  26.5719930  51.4397603   4.7755464
  27.8808460  51.0482502   4.6588738  27.1164343  50.8808684   4.7027144
  23.3336354  49.9904789  -1.0566704  23.0449602  49.3642260  -0.5220977
  24.2019702  49.9325076  -0.9902023  23.4196605  49.8892333  -0.9675749
  34.1214251  45.1339572  -0.7384722  33.7779017  44.4129907  -0.3877472
  34.2207294  44.9253423  -1.5806364  34.0856294  44.9963775  -0.8113042
  25.9975294  43.5862880   9.9932873  25.1875070  43.8920660   9.8822716
  26.4749981  44.3068462  10.1085458  25.9478773  43.7377481   9.9939945
  24.8566854  52.8008601   0.2415777  24.3347607  52.9408893   0.9267641
  25.2440874  52.0419265   0.4317894  24.8370554  52.7094125   0.3716853
  26.2833179  49.8312620  -4.3602732  26.0875962  50.4387355  -4.9542429
  26.5067525  49.1380564  -4.8411058  26.2867820  49.8190146  -4.5186652
  24.6811709  46.7167358  -4.2421864  25.4034361  46.8808516  -4.7018058
  24.2019702  47.4377023  -4.3482524  24.7175440  46.8465588  -4.3256250
  32.6405217  43.0531157   1.1374821  31.8016317  43.0792436   0.9013084
  32.7109584  43.7001892   1.7180168  32.5273610  43.1527283   1.1883938
  22.3319326  49.1225430   4.8632276  22.8440423  49.4009684   4.2141036
  22.0455668  49.8614724   5.2295089  22.3654189  49.2727784   4.8222154
  31.0874495  39.9516534  -4.1297563  31.7900848  39.7524282  -4.6077605
  30.8218684  39.1792476  -3.8228720  31.1521127  39.8079500  -4.1552122
  36.5162741  48.2599144  -1.5763937  36.4296715  48.4154570  -0.7229159
  36.0613220  48.9037219  -1.9504532  36.4365997  48.3774899  -1.5056831
  25.8503051  41.2151819   4.9233317  25.6586248  41.2306953   5.7732741
  26.7001647  41.4115493   4.8999972  25.9478773  41.2466170   5.0456612
  20.2349964  43.7442800   2.9017134  20.0935456  42.8926741   3.0261642
  20.5190528  43.7871461   2.0779340  20.2557810  43.6242550   2.7984758
  30.3888557  45.5809891  -2.9538378  30.1423271  45.5005642  -2.1201589
  30.7173680  44.7963358  -3.1475850  30.4009800  45.4536156  -2.8590855
  34.2836605  52.2893250   0.8348403  34.1450965  52.9874296   1.3397146
  33.5036603  52.1341906   0.4784585  34.1479832  52.3693417   0.8574678
  32.6214691  48.5889625   7.0870785  32.6162729  47.7169442   7.0913212
  33.3275684  48.7877794   6.6140241  32.7259695  48.4893500   7.0177820
  26.3485584  48.3166609   6.4584605  26.4928960  48.8967817   5.8227715
  26.6961232  48.6942906   7.1634460  26.4213045  48.4587313   6.4683600
  28.5205501  47.5156778   4.2409737  27.7728815  47.7087792   3.8358015
  28.6747026  46.6901997   4.0033858  28.4327929  47.4221889   4.1455143
  25.4213339  56.5069381   3.3245632  25.5702903  55.9472297   2.6719036
  26.2013341  56.5861383   3.7078151  25.5587433  56.4354947   3.2842581
  27.9466640  56.6784024   4.6030123  27.8710311  56.0092834   5.1580911
  27.8756499  57.3801812   5.1170789  27.9247246  56.6828931   4.7606971
  28.7607278  41.4107328   5.1305141  29.2179892  42.1431303   5.2577933
  28.8363607  40.9873794   5.8892396  28.8398248  41.4564566   5.2606217
  21.0040269  41.6573148   6.2194584  20.4682459  41.0453506   6.5355352
  21.0658034  42.2321284   6.8728251  20.9335902  41.6520076   6.3630011
  33.2334604  34.5897204  -1.0001017  33.3518172  35.0473667  -1.7333714
  33.0596780  33.7842465  -1.2864799  33.2253775  34.5390976  -1.1500083
  26.6389656  43.4009432   1.9746965  25.8485731  43.2200892   2.2964300
  27.0350279  42.6236385   1.9577259  26.5806532  43.2596893   2.0199513
  32.0233342  51.0351862  -0.2993590  31.3478344  50.8037095   0.2019798
  32.0325719  50.4273045  -0.9251484  31.9251847  50.9110788  -0.3177437
  29.1527486  45.8769691   6.4570463  29.0886628  46.7379648   6.3290600
  29.2924674  45.5601685   5.6566015  29.1642957  45.9569858   6.3198676
  27.8346580  48.5701831   0.5986666  27.4108829  48.7706330  -0.1374315
  27.6591436  47.7230679   0.7110966  27.7457461  48.4750612   0.5060356
  27.3358274  60.0852344   3.0608124  27.8254204  59.3863133   2.8783788
  26.7642506  59.7876214   3.6484181  27.3242804  59.9378567   3.1209164
  23.1229025  49.0653882  -3.9685361  23.2793644  49.0000685  -3.1129369
  23.4629618  49.8402435  -4.1806681  23.1962260  49.1703080  -3.8730767
  29.6608170  48.4411766  -5.0991998  30.2023715  47.9382147  -4.6353377
  29.9754729  48.3876960  -5.9102513  29.7872567  48.3591187  -5.1508186
  33.5325277  52.6514413  12.0134914  34.3460143  52.3799562  12.1740047
  33.3720244  52.3521953  11.2095110  33.6295226  52.5669339  11.9180320
  30.8097439  43.3348070   4.9530303  31.0239409  42.6958984   4.3993657
  30.1931338  43.7793894   4.5238164  30.7502769  43.3058214   4.8080734
  19.6963287  46.2488833  -3.6524594  20.0762252  46.6673378  -4.3164327
  19.1218652  46.8302288  -3.3455751  19.6674612  46.3966691  -3.7047853
  32.9736527  44.9437135   5.8913610  32.1613209  44.6363026   5.9726782
  33.4326462  44.4636136   6.4556322  32.9216912  44.8273628   5.9868204
  30.2012168  36.4448006  -0.0582355  29.3305726  36.4186727  -0.1049045
  30.4552509  36.2725198  -0.8756509  30.1105728  36.4158150  -0.1862218
  30.0690035  46.3497207  10.6742312  30.5389666  46.9739323  11.0610186
  30.1151915  45.6814182  11.2335527  30.1457911  46.3431887  10.8142383
  27.2261308  38.4554234   1.3991116  26.7099797  37.7634426   1.5242695
  26.6655237  39.1225011   1.3453715  27.0667822  38.4517492   1.4097182
  29.2953542  38.9947194   3.2283968  28.9085295  39.0196226   4.0097498
  28.8086479  38.4288873   2.7758485  29.1666051  38.9142945   3.2771872
  33.5446521  53.7120703   7.2857755  34.1826242  53.2180899   6.9520211
  32.9020613  53.6398104   6.7009982  33.5440748  53.6279712   7.1500110
  35.2703521  45.5609849   1.8523671  34.8431130  45.4736198   1.0971770
  34.6329574  45.6687625   2.4378515  35.1133129  45.5642509   1.8269112
  28.9610684  35.8814180   5.5194228  29.5903802  36.4174480   5.2415299
  29.1296546  35.7891539   6.3707794  29.0788478  35.9475542   5.6042756
  28.7624599  40.6685375   7.7920640  29.5898028  40.3970523   7.8479254
  28.7832445  41.4646216   8.1484458  28.8877449  40.7465129   7.8535823
  33.6000778  54.4040512   3.9263112  34.3893156  54.0529576   4.0465193
  33.7744376  55.2176900   3.6639745  33.7421060  54.4726369   3.9050980
  23.3394088  47.8149237   0.9790900  22.4982095  47.7153112   1.1869794
  23.5484096  48.5844718   1.3305221  23.2458781  47.9141281   1.0618215
  20.8169655  45.4368774  -1.1924349  20.4226353  45.5111786  -1.9674239
  20.2609772  45.8226721  -0.6415987  20.6772468  45.5050549  -1.2256689
  32.4534602  38.4150068  -1.5120470  32.6584195  38.3472376  -0.6663473
  32.1261026  39.2208890  -1.5799293  32.4349850  38.5236009  -1.3960815
  27.1510753  45.7430637   0.2288498  26.8473891  45.1886625   0.8298906
  26.4490174  45.9222847  -0.2583468  27.0026963  45.6875419   0.2458204
  25.2129104  52.9580357   4.9360596  25.1049459  52.9682419   5.8022654
  25.4224886  53.7835138   4.7465550  25.2279215  53.0821432   5.0364687
  35.7068290  38.9681833  -2.0317704  35.0942603  39.4552235  -1.6463973
  35.8032465  38.2925323  -1.4880053  35.6306187  38.9400141  -1.8938846
  23.2302896  50.2093000   2.3982533  22.6390829  50.8502498   2.3685548
  23.9923920  50.6330617   2.3713833  23.2551157  50.3668838   2.3897681
  23.6263519  41.3694997   3.0650551  24.0865001  41.4433927   3.8025675
  23.6719626  42.1676251   2.7150372  23.7014074  41.4989144   3.1223307
  25.2746869  42.0361692   7.6322578  24.8832434  41.3895039   8.0678356
  25.4432731  42.6273128   8.2516833  25.2417779  42.0275960   7.7885284
  39.3493318  50.0398769   3.3959812  39.4076441  50.4885418   4.1419788
  38.7159785  50.4497582   2.9589892  39.2644613  50.1672504   3.4412360
  32.9892412  55.6602311  -0.1685442  32.7912101  56.1493126  -0.8629231
  32.3680124  55.8643553   0.4098691  32.8679977  55.7618849  -0.1862219
  27.0500391  47.4287208  -5.8275198  27.7942436  47.8161484  -5.5892248
  27.1961087  46.5844633  -5.6634710  27.1810976  47.3617681  -5.7681228
  28.9679966  39.2237467  -0.7943336  28.1216011  39.3960275  -0.9201987
  28.9651099  38.4186811  -0.4577508  28.8427116  39.1298496  -0.7632210
  30.0378267  43.0012681   0.0718721  29.5638221  42.4754443   0.5824032
  30.4096402  42.4542154  -0.4966417  30.0228156  42.8428678   0.0633869
  20.4151297  44.9984188   5.4402267  21.2776910  44.8979897   5.3539597
  20.0843080  44.4178897   4.8787839  20.4936493  44.8975815   5.3447673
  36.3014997  48.0615057   1.4825502  36.0613220  47.2221472   1.4867928
  36.7807004  48.1415224   2.2066275  36.3367181  47.9496457   1.5900304
  38.3020184  44.8416514  -0.5645239  38.0629954  44.8012348  -1.4024454
  38.4654086  45.6887666  -0.4379518  38.2910488  44.9608599  -0.6691757
  34.9066214  49.2266464   5.3659806  35.6300413  48.7738990   5.1870826
  34.6416177  49.5071129   4.5832134  34.9747488  49.2017432   5.2238522
  23.7753083  43.8226637   2.1012685  23.1506153  43.8345029   1.4938638
  23.4398678  44.2986812   2.7503926  23.6338575  43.8945154   2.1069254
  20.4878758  51.8827097   3.5416450  19.9578683  51.1919536   3.5911424
  20.7603852  51.8737282   2.7129158  20.4503481  51.7794229   3.4263866
  30.6885004  49.3250342   3.5154821  30.0741997  48.7808392   3.8103457
  31.2052289  48.8114578   3.0360637  30.6740666  49.1686751   3.4879050
  29.9281301  50.3954612   1.2499120  29.5008909  49.7704330   0.8164555
  29.9206245  50.1129534   2.0758127  29.8640442  50.2607392   1.3078947
  23.0443828  45.4319785   4.3187554  23.2037315  44.6763109   4.7239276
  22.8636722  45.9810724   4.9728292  23.0409187  45.4013599   4.4750260
  30.9864131  37.5981020   4.8738343  30.4904692  37.7944695   4.1829910
  31.7433193  37.9973689   4.7027145  31.0250956  37.6858754   4.7458480
  28.2567011  41.2723366   1.4641654  28.2809498  40.7383479   0.7754434
  28.5078484  40.7640675   2.1267245  28.2976929  41.1184270   1.4606299
  24.5368333  39.9994185   0.8447398  24.5766705  40.5003391   1.5582106
  23.7117998  40.0904578   0.5753321  24.4207859  40.0876001   0.9097936
  26.7197946  49.5654925   8.9467693  25.8693576  49.7026639   9.0825338
  26.8826074  48.8318703   9.3915395  26.6181809  49.4769026   9.0323292
  25.9582696  46.5154694   3.1421297  25.1274626  46.6828512   2.9356545
  25.9034214  46.1390645   3.9270183  25.8272111  46.4844426   3.2269825
  23.7666480  40.0063587   8.7777708  24.3919183  39.4625720   9.0507140
  23.3116960  39.5258505   8.2085498  23.7914740  39.8553069   8.7339302
  37.3401528  48.1892874   3.8690356  37.9319369  48.8290125   3.9008554
  37.7760523  47.4915911   4.1582423  37.4919960  48.1811225   3.9171189
  29.1694918  52.6110247   4.4948250  28.6620009  53.1646094   4.9388880
  28.8721564  52.6718537   3.6767024  29.0499803  52.7016558   4.4396707
  31.3357100  40.9763566   3.3372913  31.7612172  40.5236093   2.7256439
  30.7214094  40.4223637   3.6137700  31.3085746  40.8277543   3.2877938
  34.3650670  45.4038093  -3.8306502  33.6941860  45.9467795  -3.9593436
  35.0590420  45.8732948  -4.0724807  34.3679537  45.5536364  -3.8850974
  28.4137403  57.5434805   1.4005257  28.1903058  56.7853634   1.7689283
  27.9247247  57.5732826   0.6785696  28.3080853  57.4357029   1.3481998
  34.5278797  41.8593977  -0.9216128  34.8806407  41.4323700  -0.2470330
  33.6693599  41.7744820  -0.7915052  34.4528242  41.7838717  -0.8021118
  23.2262482  44.4901496  -2.8633282  22.5074471  44.9065629  -2.5960418
  23.5974844  45.0555735  -3.4141644  23.1754414  44.6350778  -2.9050475
  32.5262063  45.1229345   3.0268714  32.5059990  44.9412640   3.8803493
  32.5741264  45.9941364   3.0028298  32.5296704  45.2245883   3.1492009
  30.4708393  51.7116537   8.9517190  30.4304248  51.0666214   8.3662346
  31.2831711  51.6553155   9.2642603  30.5851546  51.6075504   8.9114140
  27.0615860  57.7635263  -1.1457659  26.6476259  57.1009393  -1.5353817
  27.7463235  57.9113122  -1.6661964  27.1014232  57.6875921  -1.2801161
  30.4281155  56.9225348  -0.3934042  30.0297438  57.0327619  -1.1613222
  29.8132374  57.1307415   0.1892518  30.2780044  56.9698916  -0.4202743
  35.9602857  36.9812388   0.0068184  35.4533722  36.2741528  -0.0610638
  36.7570291  36.6505577   0.1369261  36.0030097  36.8285540   0.0167179
  31.8766873  43.4879001  -4.0958152  31.6480566  43.5111702  -4.9379794
  32.1364949  42.6636468  -3.9763142  31.8813061  43.3695081  -4.2032954
  26.1586102  45.3413474   5.5066948  25.6465005  44.7334657   5.8651979
  25.9865598  46.0570066   5.9740924  26.0575739  45.3576773   5.6283172
  21.0051816  43.7851049   8.1569310  20.8354407  44.4452424   7.6117517
  20.5617766  43.9957610   8.8781799  20.9151150  43.9137031   8.1830939
  24.9311636  42.0255547  -2.8003956  25.4069002  42.3872627  -3.4353775
  24.4300235  42.6812015  -2.5203814  24.9276995  42.1749736  -2.8527215
  30.0355172  43.2637718   7.9469204  30.5926602  43.0351528   7.3147669
  29.7116237  44.0243384   7.6704416  30.0701582  43.3421555   7.8125701
  17.9053881  46.6897915   3.4157800  17.3580600  46.0198560   3.5338668
  18.6946259  46.3227762   3.4801267  17.9406064  46.5362901   3.4426500
  27.7538289  46.3505372   8.9121211  28.5049616  46.6657049   9.2260765
  27.9460866  46.1484543   8.0855133  27.8929703  46.3672753   8.8364607
  34.6023579  42.4778938  -3.8454994  34.6017806  42.3227595  -2.9870717
  34.3979759  43.3241925  -3.9013608  34.5723357  42.5799559  -3.7267054
  16.6640850  45.9018722   0.5703823  16.4862611  45.4495331   1.2958738
  16.3759872  46.7044884   0.7542300  16.5953803  45.9541280   0.7047326
  32.3264431  47.1576440  -0.1918787  32.8218097  46.4399435  -0.2314767
  31.5164207  46.8547237  -0.3064300  32.2808325  47.0074086  -0.2145061
  34.3916250  49.9080127   2.4958342  34.8171322  49.3854549   1.9428767
  34.0273170  50.5060965   1.9746965  34.4002853  49.9190354   2.3367352
  24.0270330  58.2044345   1.2555687  24.3416889  59.0180733   1.2633469
  24.4363743  57.8194563   1.9237847  24.1338428  58.2673047   1.3559779
  30.9794850  53.6214392  -1.1740501  31.4506028  54.3354654  -1.0050515
  31.3155028  53.0213142  -0.6380631  31.0989965  53.6385856  -1.0708125
  33.0671834  55.2315705  11.0051571  33.1768800  54.4424266  11.3608319
  33.3962731  55.1421641  10.2025909  33.1324240  55.1021558  10.9393962
  27.8964345  38.3941862   5.7817594  28.0292250  37.5972856   6.1098570
  28.2809497  38.9208265   6.3615870  27.9720674  38.3541779   5.9161097
  31.6168796  53.4132326   5.5887192  31.0689742  52.7890209   5.3207257
  32.0781825  53.6026598   4.8731271  31.6036005  53.3491376   5.4437623
  30.9696700  35.3172188   2.3798687  30.1642664  35.2069918   2.6966526
  30.8403435  35.4184644   1.5228553  30.8316833  35.3155858   2.3006728
  34.4262660  41.4817680   2.9738384  33.8425649  41.9826887   2.5615952
  34.7466954  40.9747236   2.3402708  34.3875836  41.4809515   2.8196891
  25.5552791  38.3901037   4.0295488  26.0997204  38.0492164   4.6199830
  25.6089727  39.2486499   4.1716772  25.6441911  38.4656297   4.1377361
  21.3683350  52.1517453   0.9034296  21.9728208  52.1113287   0.2748117
  21.1610663  52.9988605   0.9338352  21.4272247  52.2705456   0.8150412
  31.1827122  54.4183398   2.1196533  32.0025496  54.2746364   2.3812828
  30.9021200  55.0429597   2.6612971  31.2623866  54.4893750   2.2384473
  32.0390618  62.4463310   2.6372554  31.9149315  63.0325756   3.2722373
  32.6908903  61.9523506   2.9384829  32.1164268  62.4602114   2.7758484
  35.4771826  62.3642731   8.0501579  35.6492330  62.2548626   8.8986860
  36.0141184  63.0097137   7.8132771  35.5816830  62.4434733   8.1406675
  41.4146528  70.2846982  10.0010655  42.1986944  70.3977830  10.3666397
  41.2143122  69.4588119  10.1969341  41.5012553  70.1793702  10.0845041
  34.5332150  58.4953041   5.5321506  33.8403946  58.0250020   5.7782238
  35.1492477  58.2691345   6.1063214  34.5216679  58.3920173   5.6530659
  33.2572708  62.4618445   6.6748352  33.9812681  62.4471475   7.1613246
  33.3588845  63.1713800   6.1770320  33.3790918  62.5643148   6.6727138
  40.6317658  65.9417529  11.5397299  39.8390639  66.2561041  11.7249918
  40.7466585  66.1568998  10.7018083  40.5313068  66.0201366  11.4435633
  39.5573170  60.3022110   3.8761066  39.1687603  59.8776328   3.2213257
  38.8927868  60.5504260   4.3838093  39.4020098  60.2760831   3.8548934
  43.3799532  53.9996739   1.3885050  43.7610043  53.3174910   1.7752924
  42.5762816  53.7106341   1.2060715  43.3175993  53.8563787   1.4189106
  37.3391372  56.5050937  11.2547659  37.0244813  57.2750500  10.9917221
  37.0181305  55.9421193  10.6699886  37.2450291  56.5361206  11.1289009
  44.0156158  55.0419318   5.2005177  44.7609750  54.8529128   4.7868602
  43.5993462  55.5677556   4.6419033  44.0641132  55.0921463   5.0569750
  36.9707877  59.1048188   9.9932873  36.1607653  59.4105968   9.8822716
  37.4482564  59.8253770  10.1085458  36.9211356  59.2562789   9.9939945
  33.3051909  64.6410738   4.8632276  33.8173006  64.9194992   4.2141036
  33.0188252  65.3800032   5.2295089  33.3386773  64.7913092   4.8222154
  36.8235635  56.7337127   4.9233317  36.6318832  56.7492261   5.7732741
  37.6734231  56.9300801   4.8999972  36.9211357  56.7651478   5.0456612
  31.2082548  59.2628108   2.9017134  31.0668040  58.4112049   3.0261642
  31.4923111  59.3056769   2.0779340  31.2290394  59.1427858   2.7984758
  37.3218167  63.8351917   6.4584605  37.4661543  64.4153125   5.8227715
  37.6693816  64.2128214   7.1634460  37.3945629  63.9772621   6.4683600
  39.7339862  56.9292636   5.1305141  40.1912476  57.6616611   5.2577933
  39.8096191  56.5059101   5.8892396  39.8130832  56.9749874   5.2606217
  31.9772853  57.1758456   6.2194584  31.4415043  56.5638814   6.5355352
  32.0390618  57.7506592   6.8728251  31.9068486  57.1705384   6.3630011
  37.6122240  58.9194740   1.9746965  36.8218315  58.7386200   2.2964300
  38.0082863  58.1421693   1.9577259  37.5539116  58.7782201   2.0199513
  40.1260070  61.3954999   6.4570463  40.0619211  62.2564956   6.3290600
  40.2657258  61.0786992   5.6566015  40.1375540  61.4755166   6.3198676
  44.5057861  68.1699721  12.0134914  45.3192726  67.8984870  12.1740047
  44.3452827  67.8707261  11.2095110  44.6027809  68.0854647  11.9180320
  43.9469111  60.4622443   5.8913610  43.1345793  60.1548334   5.9726782
  44.4059045  59.9821443   6.4556322  43.8949496  60.3458936   5.9868204
  41.0422618  61.8682515  10.6742312  41.5122250  62.4924631  11.0610186
  41.0884499  61.1999490  11.2335527  41.1190494  61.8617195  10.8142383
  38.1993892  53.9739542   1.3991116  37.6832381  53.2819734   1.5242695
  37.6387821  54.6410319   1.3453715  38.0400405  53.9702800   1.4097182
  40.2686126  54.5132502   3.2283968  39.8817879  54.5381534   4.0097498
  39.7819063  53.9474181   2.7758485  40.1398634  54.4328253   3.2771872
  39.9343267  51.3999488   5.5194228  40.5636385  51.9359788   5.2415299
  40.1029130  51.3076847   6.3707794  40.0521062  51.4660850   5.6042756
  39.7357182  56.1870682   7.7920640  40.5630611  55.9155831   7.8479254
  39.7565028  56.9831524   8.1484458  39.8610032  56.2650437   7.8535823
  34.5996103  56.8880305   3.0650551  35.0597584  56.9619235   3.8025675
  34.6452209  57.6861559   2.7150372  34.6746658  57.0174452   3.1223307
  36.2479452  57.5547000   7.6322578  35.8565017  56.9080347   8.0678356
  36.4165315  58.1458435   8.2516833  36.2150363  57.5461268   7.7885284
  31.3883880  60.5169496   5.4402267  32.2509493  60.4165205   5.3539597
  31.0575663  59.9364205   4.8787839  31.4669077  60.4161123   5.3447673
  34.7485666  59.3411945   2.1012685  34.1238737  59.3530337   1.4938638
  34.4131261  59.8172120   2.7503926  34.6071158  59.4130462   2.1069254
  34.0176412  60.9505093   4.3187554  34.1769898  60.1948417   4.7239276
  33.8369305  61.4996032   4.9728292  34.0141771  60.9198907   4.4750260
  41.9596715  53.1166328   4.8738343  41.4637276  53.3130003   4.1829910
  42.7165777  53.5158997   4.7027145  41.9983539  53.2044062   4.7458480
  35.5100917  55.5179493   0.8447398  35.5499288  56.0188699   1.5582106
  34.6850581  55.6089886   0.5753321  35.3940443  55.6061309   0.9097936
  37.6930529  65.0840232   8.9467693  36.8426160  65.2211947   9.0825338
  37.8558657  64.3504011   9.3915395  37.5914393  64.9954334   9.0323292
  34.7399063  55.5248895   8.7777708  35.3651767  54.9811028   9.0507140
  34.2849543  55.0443813   8.2085498  34.7647324  55.3738377   8.7339302
  42.3089684  56.4948874   3.3372913  42.7344756  56.0421401   2.7256439
  41.6946677  55.9408945   3.6137700  42.2818329  56.3462851   3.2877938
  41.4440976  67.2301845   8.9517190  41.4036831  66.5851522   8.3662346
  42.2564295  67.1738463   9.2642603  41.5584130  67.1260812   8.9114140
  37.1318685  60.8598782   5.5066948  36.6197588  60.2519965   5.8651979
  36.9598181  61.5755374   5.9740924  37.0308322  60.8762081   5.6283172
  31.9784400  59.3036357   8.1569310  31.8086990  59.9637732   7.6117517
  31.5350350  59.5142918   8.8781799  31.8883733  59.4322339   8.1830939
  41.0087756  58.7823026   7.9469204  41.5659186  58.5536836   7.3147669
  40.6848821  59.5428692   7.6704416  41.0434166  58.8606863   7.8125701
  28.8786464  62.2083223   3.4157800  28.3313184  61.5383868   3.5338668
  29.6678843  61.8413070   3.4801267  28.9138648  62.0548209   3.4426500
  38.7270873  61.8690680   8.9121211  39.4782200  62.1842356   9.2260765
  38.9193449  61.6669851   8.0855133  38.8662287  61.8858061   8.8364607
  27.6373434  61.4204030   0.5703823  27.4595195  60.9680639   1.2958738
  27.3492456  62.2230192   0.7542300  27.5686387  61.4726588   0.7047326
  38.8696928  53.9127170   5.7817594  39.0024834  53.1158163   6.1098570
  39.2542081  54.4393573   6.3615870  38.9453257  53.8727087   5.9161097
  41.9429283  50.8357496   2.3798687  41.1375247  50.7255226   2.6966526
  41.8136019  50.9369952   1.5228553  41.8049416  50.8341166   2.3006728
  36.5285375  53.9086345   4.0295488  37.0729788  53.5677472   4.6199830
  36.5822311  54.7671807   4.1716772  36.6174494  53.9841604   4.1377361
  35.1722650  39.3020863  -5.0158374  35.3443154  39.1926757  -4.1673093
  35.7092008  39.9475268  -5.2527182  35.2767654  39.3812864  -4.9253278
  41.1097352  47.2225113  -3.0649298  41.8937768  47.3355961  -2.6993556
  40.9093946  46.3966251  -2.8690612  41.1963377  47.1171833  -2.9814912
  40.3268482  42.8795660  -1.5262655  39.5341463  43.1939172  -1.3410035
  40.4417409  43.0947129  -2.3641870  40.2263892  42.9579497  -1.6224320
  37.0342196  33.4429068  -1.8112295  36.7195637  34.2128631  -2.0742732
  36.7132129  32.8799324  -2.3960068  36.9401115  33.4739337  -1.9370945
  36.6658701  36.0426319  -3.0727080  35.8558477  36.3484099  -3.1837237
  37.1433388  36.7631901  -2.9574496  36.6162180  36.1940920  -3.0720009
  37.0168991  40.7730048  -6.6075348  37.1612367  41.3531256  -7.2432238
  37.3644640  41.1506345  -5.9025493  37.0896453  40.9150752  -6.5976353
  39.8210894  38.3333130  -6.6089490  39.7570035  39.1943087  -6.7369353
  39.9608082  38.0165124  -7.4093938  39.8326364  38.4133297  -6.7461277
  44.2008685  45.1077852  -1.0525039  45.0143550  44.8363001  -0.8919906
  44.0403651  44.8085392  -1.8564843  44.2978633  45.0232778  -1.1479633
  43.6419935  37.4000575  -7.1746344  42.8296617  37.0926465  -7.0933171
  44.1009869  36.9199575  -6.6103631  43.5900320  37.2837067  -7.0791749
  40.7373442  38.8060646  -2.3917641  41.2073074  39.4302762  -2.0049767
  40.7835323  38.1377621  -1.8324427  40.8141318  38.7995326  -2.2517570
  37.3881353  42.0218364  -4.1192260  36.5376984  42.1590078  -3.9834615
  37.5509481  41.2882142  -3.6744559  37.2865217  41.9332465  -4.0336661
  41.1391800  44.1679976  -4.1142763  41.0987655  43.5229653  -4.6997607
  41.9515119  44.1116594  -3.8017351  41.2534954  44.0638943  -4.1545814
  40.7038579  35.7201157  -5.1190750  41.2610010  35.4914967  -5.7512284
  40.3799644  36.4806823  -5.3955537  40.7384990  35.7984994  -5.2534252
  38.4221697  38.8068811  -4.1538742  39.1733024  39.1220488  -3.8399188
  38.6144273  38.6047982  -4.9804821  38.5613111  38.8236193  -4.2295347
  79.2177931  79.2177931  79.2177931 109.4712190 109.4712190 109.4712190
