default_name
 43998
  38.4201781  30.1830838  23.9477883  38.9107674  30.6264812  24.7112160
  38.1369281  30.8932839  23.2878749  38.9584828  29.3881377  23.6341194
  37.1279800  29.6028472  24.4915481  36.2863074  30.0650323  23.9757270
  37.0503646  28.0871068  24.2935882  36.9654270  27.9097119  23.2214801
  37.9893995  27.6697798  24.6571150  35.8694267  27.4087612  25.0225284
  36.1355815  27.3886135  26.0793428  35.0078847  28.0605888  24.8777249
  35.4321942  25.6814382  24.4669006  34.5134033  26.0313480  22.9597767
  35.1545331  26.5654476  22.2584999  34.1834718  25.0952952  22.5091650
  33.6448636  26.6455584  23.1974438  36.9967363  29.8956586  26.0098381
  35.8930778  30.1103724  26.5148727  37.8067084  32.3679272  27.5370847
  38.5907559  31.9743204  28.0375270  37.4899056  33.7889150  27.7440571
  37.6439583  34.0599739  28.7885158  38.4203066  34.6703839  26.8585722
  38.4541975  34.2635697  25.8479027  38.0348753  35.6894665  26.8267396
  39.6902720  34.6763969  27.3938523  40.2646188  35.2193595  26.8489512
  36.0735838  34.1428452  27.3446840  35.6553180  35.3016765  27.4391654
  35.3480262  33.1620924  26.7930217  35.6853602  32.2104383  26.8187065
  34.0471003  33.4207222  26.1739884  33.8847656  34.4952189  26.0891148
  33.9899026  32.7978323  24.7563912  34.7372984  33.3381122  24.1753607
  34.3083233  31.7632983  24.8846393  32.6273069  32.8314455  24.0069188
  32.7250177  32.1998579  23.1239406  31.8788712  32.4066216  24.6758491
  32.1984223  34.2204175  23.5880217  32.9842172  35.1687627  23.7716456
  31.0672654  34.3302065  23.0756131  32.9645704  32.7499207  27.0502512
  32.8728858  31.4878132  27.1162771  32.1955680  33.5512092  27.7677510
  32.3948106  34.5381340  27.8476334  31.0254700  33.0007881  28.5198389
  31.3715615  32.2885257  29.2688397  30.2554724  34.1338072  29.2345440
  29.9554191  34.8297605  28.4511436  29.3672232  33.7108267  29.7037997
  31.0898787  34.8820838  30.2947451  31.9522200  35.3445974  29.8145893
  30.2153698  35.9888357  30.9741598  29.3530211  35.5270061  31.4549580
  30.8095974  36.5140511  31.7219185  29.8737951  36.6970614  30.2192800
  31.6233034  33.9212800  31.3485905  32.2558063  33.1726233  30.8715657
  32.2077019  34.4750676  32.0833686  30.7888163  33.4273441  31.8463432
  30.0499093  32.2378952  27.6184389  29.7596835  32.6753884  26.5019096
  29.5544448  31.1031811  28.1353604  29.9843394  30.6995608  28.9553486
  28.4171777  30.3855393  27.5130883  28.5405141  30.3562606  26.4304849
  28.2782355  28.9268528  28.0374115  27.4890955  28.4260147  27.4765912
  29.6151675  28.1441063  27.8644466  30.4047335  28.6441217  28.4254010
  29.4925759  27.1275329  28.2381429  29.8843548  28.1125632  26.8086797
  27.8993599  28.9249737  29.4192063  27.8178454  28.0194564  29.7274175
  27.1162070  31.1336809  27.7635986  27.0568934  32.0041570  28.6555112
  26.0757903  30.8608065  26.9497518  25.9993174  30.1009069  25.6816664
  25.8337958  29.0441031  25.8911146  26.9267947  30.2187966  25.1213212
  24.8076018  30.7543474  24.9807331  24.3495245  30.0680652  24.2684964
  25.1108187  31.6647671  24.4637255  23.8608892  31.0730473  26.1359991
  23.2915406  30.1999386  26.4547818  23.1744734  31.8801922  25.8801672
  24.8047521  31.5243908  27.2671583  24.9627076  32.5991535  27.1775284
  24.2834374  31.1974364  28.6852040  23.7813602  32.1092020  29.3440295
  24.4951097  29.9765628  29.1941163  24.9041910  29.2488435  28.6256303
  24.0986134  29.6451761  30.5744034  23.0568380  29.9314751  30.7187505
  24.2425761  28.1587493  30.8822912  25.2026727  27.8284022  30.4858260
  24.2378371  28.0415405  31.9659607  23.1167958  27.3100317  30.2706588
  22.1834513  27.5459484  30.7818457  23.0474959  27.6193242  29.2277614
  23.3683106  25.8044107  30.3394103  24.2104885  25.3560659  31.1521121
  22.6784298  25.0537307  29.5865325  24.9135847  30.4276969  31.6085542
  24.3826136  30.8875097  32.6342008  26.2136231  30.5596664  31.3561570
  26.6627041  30.1320813  30.5589138  27.0357608  31.3167553  32.2866552
  26.8620317  30.9590035  33.3015104  28.5291209  31.1564715  31.9581285
  28.6400918  31.3277189  30.8874002  29.0613792  31.9334222  32.5068986
  29.1123876  29.7854867  32.3191584  29.2320379  29.7229264  33.4007641
  28.4070504  29.0235224  31.9874825  30.4709904  29.5555940  31.6398595
  30.8497555  30.3313357  30.7239519  31.1736205  28.6198915  32.0154414
  26.6151119  32.7951480  32.2114049  26.5078623  33.4435649  33.2431776
  26.3523191  33.3409307  31.0181827  26.3559997  32.8042277  30.1625918
  26.0218593  34.7656591  30.9426440  26.8398016  35.3180038  31.4052290
  25.8061767  35.3085550  29.5127083  25.0060316  34.7205747  29.0631017
  25.4847689  36.3457312  29.6079057  27.0029741  35.2425236  28.6580171
  27.7898859  35.8589007  29.0927008  27.3441237  34.2091462  28.5959689
  26.6686050  35.7581145  27.2456870  25.7791513  35.2706949  26.8464463
  26.5226285  36.8382910  27.2427007  27.8048870  35.4368287  26.3847435
  27.7826047  34.5486748  25.9043422  28.8553950  36.2344039  26.1978645
  28.9200240  37.4569872  26.7939955  28.1632624  37.7670689  27.3866685
  29.7244302  38.0482254  26.6408040  29.8472384  35.8021684  25.4071610
  29.7827049  34.8926772  24.9726943  30.6547926  36.3878572  25.2492888
  24.7442279  35.0554295  31.6651205  24.6284997  36.0935284  32.3096852
  23.7707564  34.1412992  31.5630370  23.8694348  33.3392146  30.9572135
  22.5058063  34.3290327  32.2592707  22.0952353  35.3113766  32.0257518
  21.4988989  33.2620737  31.8238055  21.2656614  33.3751670  30.7650754
  21.9057231  32.2665515  32.0013712  20.3204282  33.4322596  32.5865403
  19.6739528  32.7711664  32.3284216  22.6604844  34.3278489  33.7812258
  22.1003317  35.1826489  34.4824675  23.3978742  33.3517140  34.2737307
  23.7145527  32.6273940  33.6451015  23.7328339  33.2396207  35.6649087
  22.8269419  33.1775362  36.2679050  24.5407835  31.9992105  35.8863898
  23.8887170  31.1545326  35.6640663  25.3599317  32.0241947  35.1677299
  25.0955021  31.8508330  37.2706761  25.9579220  31.1872624  37.2073771
  25.4220840  32.8409026  37.5888042  24.1068290  31.2985768  38.2760122
  22.9319143  30.9801769  37.9125249  24.5404737  31.1838692  39.4473278
  24.5068273  34.4481965  36.2146620  24.3096099  34.7732586  37.3798495
  25.3825320  35.0530885  35.3994590  25.4963199  34.6918893  34.4631435
  26.2577574  36.1516519  35.8339070  26.3245315  36.1526809  36.9218589
  27.6880659  35.9984736  35.2491342  27.4679412  35.9331379  34.1835942
  28.3374118  36.8542781  35.4336567  28.4000921  34.7015427  35.7095675
  27.6926667  33.8754539  35.6372664  29.6262981  34.3984243  34.8494093
  30.3344336  35.2239154  34.9215716  30.1001520  33.4820925  35.2014027
  29.3201648  34.2727539  33.8108576  28.7021524  34.7010141  37.2110266
  27.7703145  34.7887815  37.7696629  29.2010308  33.7703805  37.4814757
  29.3503938  35.5435040  37.4520513  25.7628017  37.5702005  35.5360422
  26.4371735  38.5385468  35.9364560  24.5954444  37.6867819  34.8974219
  24.0506849  36.8569521  34.7110921  24.0566768  38.9788479  34.4755345
  24.6484782  39.3999200  33.6627808  22.6254591  38.7631797  33.9776228
  22.5794773  37.7866915  33.4954862  21.9622947  38.7723060  34.8426255
  22.1934664  39.8216194  33.0053174  22.0226408  40.7679538  33.5185139
  22.9461093  39.9604731  32.2292050  20.8922142  39.3460341  32.3711484
  21.0989857  38.9827004  31.3645039  20.4791384  38.5355823  32.9716779
  19.8801181  40.4975868  32.3011716  18.9821305  40.1311272  31.8037519
  19.6341487  40.7963323  33.3201659  20.4180858  41.6740193  31.5537940
  20.6456668  41.3975110  30.6094160  19.7223177  42.4058179  31.5319393
  21.2499440  42.0140066  32.0147926  24.0169444  39.9632301  35.6460651
  24.4919160  41.0990772  35.5521753  23.4559125  39.4901324  36.7783300
  22.9491149  38.6165400  36.7879197  23.3590839  40.3644560  37.9549563
  23.0603046  41.3593739  37.6248525  22.3324458  39.8602445  38.9973784
  22.5593507  38.8263829  39.2576545  22.4126981  40.4844256  39.8873545
  20.9034697  39.9292911  38.4827785  20.5976994  40.6575099  37.5344542
  19.9966141  39.1428018  39.1099893  19.0326555  39.1495537  38.8085958
  20.2883970  38.5530899  39.8762813  24.6849442  40.7392642  38.5700356
  24.8568215  41.8972077  38.9562297  25.6213120  39.7896432  38.6734008
  25.3968622  38.8267562  38.4670751  26.9617607  40.0990358  39.1504149
  26.8967709  40.5729615  40.1298382  27.8165250  38.8307872  39.2751159
  27.9327246  38.3659606  38.2960688  28.7982050  39.0848475  39.6749378
  27.1674441  37.9245461  40.1550057  27.6952338  37.1271113  40.2394783
  27.6930044  41.1029103  38.2766881  28.4502783  41.9110312  38.7611321
  27.4747219  41.0198742  36.9669039  26.9174044  40.2724339  36.5785359
  28.1267752  41.9395748  36.0515880  29.1867130  42.0497024  36.2807234
  27.9631658  41.4330898  34.5960373  26.9468484  41.0594041  34.4713043
  28.2325990  42.5922332  33.5466244  29.2489489  42.9661346  33.6704442
  28.1096082  42.2036407  32.5356992  27.5246001  43.4043666  33.7117789
  28.9249512  40.2456047  34.3705201  29.9372108  40.6497834  34.3620990
  28.8097108  39.5734926  35.2208639  28.6720840  39.4701912  33.0666946
  28.7876086  40.1415848  32.2158218  29.3890581  38.6533353  32.9842697
  27.6601071  39.0652958  33.0745858  27.5884472  43.3718810  36.2532215
  28.3726835  44.3455421  36.2907131  26.2757523  43.4773580  36.4436674
  25.6879368  42.6625627  36.3403196  25.6290914  44.7783044  36.7003152
  25.9506252  45.4957293  35.9453207  24.0833202  44.6224989  36.6118544
  23.7451840  43.9139260  37.3679551  23.6097976  45.5892351  36.7830199
  23.8106877  44.2550442  35.6225376  26.0983984  45.3373922  38.0473493
  26.3785311  46.5424233  38.1926066  26.2753745  44.4485724  39.0292800
  26.2060297  43.4537033  38.8695110  26.5613882  44.9102588  40.3725085
  25.9148864  45.7483248  40.6328545  26.3025044  43.7534024  41.3758293
  25.2544851  43.4673964  41.2866369  26.9337303  42.9145809  41.0825166
  26.6070119  44.1388731  42.8369695  27.6509003  44.4471690  42.8948606
  25.9647679  44.9846507  43.0824936  26.3529598  42.9918736  43.8395854
  26.1800376  41.8087500  43.4118958  26.3416649  43.2835277  45.0672125
  28.0292193  45.3771776  40.4922396  28.2847992  46.4376610  41.0767351
  28.9755396  44.5510077  39.9910828  28.6880538  43.7629365  39.4285927
  30.4247924  44.7255194  40.2711508  30.5725452  45.4927063  41.0312116
  31.0084635  43.4116790  40.7843101  30.6785867  42.5708892  40.1741028
  32.0972397  43.4622906  40.7740708  30.6091423  43.1033405  42.1866381
  31.1038876  43.8743208  43.2534715  31.7879860  44.6980575  43.0495912
  30.7257388  43.5916493  44.5625743  31.1113152  44.1985125  45.3818109
  29.8600185  42.5401571  44.8260540  29.5684201  42.3225851  45.8535426
  29.3631830  41.7626219  43.7809155  28.6934065  40.9263101  43.9811210
  29.7344734  42.0663880  42.4559073  29.3313920  41.4813934  41.6292232
  31.2526322  45.1810601  39.0949850  32.3398512  45.7389151  39.2734189
  30.7304414  44.9963941  37.8985285  29.7780966  44.6813666  37.7806450
  31.5769066  45.1560585  36.6834364  32.5460928  45.5836572  36.9402175
  31.8021029  43.7649665  36.0594286  30.8722803  43.3020139  35.7289681
  32.4774309  43.8690203  35.2101907  32.4534098  42.7930340  37.0123486
  33.7672361  42.9120117  37.4006417  34.0664684  41.9334683  38.2581373
  35.0465083  41.8979390  38.7339089  33.0163549  41.1303574  38.3674650
  32.9681577  40.2742311  38.9011546  31.9776188  41.6604051  37.6209412
  31.0070583  41.1644648  37.6084242  31.0196352  46.1180025  35.6750226
  31.4519663  46.1048176  34.4788014  30.1550746  47.0212693  36.1293132
  29.8521811  47.0172666  37.0928166  29.6033438  48.0800455  35.2120411
  30.0631803  47.9320373  34.2349315  28.0607852  47.9329631  35.0632845
  27.5952879  48.1643964  36.0213300  27.4992271  48.9044664  33.9591197
  27.9639514  48.6733192  33.0006303  26.4195316  48.7784703  33.8786106
  27.7248349  49.9352187  34.2325268  27.7941118  46.6030468  34.6258157
  26.8469596  46.4831771  34.5251465  29.9371637  49.4156450  35.8260773
  29.9197150  49.5412677  37.0291744  30.2001468  50.4304497  35.0024049
  29.9966370  50.3755650  34.0146444  30.7816139  51.6748178  35.5260327
  30.7074014  51.6942251  36.6133298  32.2719822  51.7659164  35.1313853
  32.4234584  51.7548410  34.0520190  32.6022837  52.7233387  35.5343038
  33.0720481  50.6510394  35.7633044  33.5291625  50.7741834  37.0649802
  33.3341053  51.7065421  37.5948476  34.2167851  49.7528294  37.6934427
  34.6101247  49.8760054  38.7025083  34.4514156  48.5566644  36.9870853
  35.1201002  47.5487470  37.6395854  35.3625496  47.7804538  38.5391019
  33.9809427  48.3865657  35.7061654  34.1505814  47.4526218  35.1703744
  33.2737311  49.4344459  35.0873795  32.8793477  49.3051523  34.0794882
  30.1007876  52.8893593  34.9728657  29.7529880  52.9205370  33.7837071
  29.9498882  53.8839618  35.8363940  30.0392043  53.7407776  36.8321953
  29.6510680  55.2329982  35.3533377  28.9631991  55.1787131  34.5095435
  29.0074930  56.0621329  36.4517897  28.1889488  55.4727830  36.8650104
  29.7629621  56.2231136  37.2208486  28.4720833  57.4123051  35.9731097
  28.0695441  57.3165230  34.9647007  27.6778743  57.7205932  36.6530308
  29.5426730  58.4783130  35.9663435  30.3801827  58.5463219  36.8770813
  29.5423449  59.3075549  34.9251679  30.2350372  60.0402729  34.8668304
  28.8494068  59.2002589  34.1982389  30.9906708  55.8037576  34.9551869
  31.9281002  55.8467324  35.7864934  31.1165686  56.1909364  33.6891264
  30.3524829  56.0882863  33.0366424  32.3904979  56.7176999  33.1902763
  33.1289284  56.6802681  33.9911623  32.9174506  55.9123975  32.0016398
  32.1140953  56.0278423  31.2740464  33.8191248  56.3964245  31.6264045
  33.1948503  54.4146526  32.2260381  32.3509219  53.9862347  32.7667265
  33.3811432  53.6797466  30.9209875  34.2252432  54.1073290  30.3799077
  33.5748130  52.6259515  31.1212588  32.4781042  53.7744597  30.3179532
  34.3960355  54.2134491  33.1389643  34.2018686  54.6811966  34.1041643
  34.5703710  53.1469179  33.2811599  35.2772827  54.6679426  32.6862636
  32.2541879  58.1785592  32.8000372  31.3658636  58.5681593  32.0483400
  33.1589434  58.9638459  33.3490394  33.6060147  58.6772119  34.2081480
  33.4357312  60.2774014  32.8438359  32.5157178  60.7768133  32.5400890
  34.0958210  61.1010695  33.9620619  34.9989719  60.5829926  34.2845740
  34.3636952  62.0720360  33.5454474  33.1585823  61.3015126  35.1714258
  31.9095424  61.2765065  35.0020507  33.6702114  61.4778922  36.3058680
  34.2603183  60.2719012  31.5255690  34.8951070  59.2513715  31.1507030
  34.2239884  61.4117117  30.7813530  33.2859031  62.5473536  30.9465660
  33.6047821  63.1551907  31.7932953  32.2843858  62.1603784  31.1344816
  33.3795306  63.2811150  29.6440614  33.2268207  64.3481755  29.8058037
  32.6254984  62.9076063  28.9512208  34.7744361  62.9938696  29.1308824
  35.5402207  63.6243243  29.5827672  34.8211178  63.0875482  28.0459193
  34.9953623  61.5264624  29.5414000  34.5305992  60.8455254  28.8283654
  36.4998739  61.2030970  29.6546991  37.0861288  60.7569237  28.6951030
  37.1510629  61.4035380  30.7841362  36.7645334  61.7759685  31.6397002
  38.5857060  61.0370409  30.7630365  38.9508894  61.3249310  29.7772071
  39.0616652  61.6581153  31.5218703  38.9502129  59.5600392  31.0219608
  40.1227278  59.2540045  31.1959050  37.9749823  58.6542127  31.0438127
  37.0074807  58.9023948  30.8939937  38.2833150  57.2858429  31.5075627
  39.3329624  57.0642013  31.3146522  38.0217482  57.1409209  33.0012074
  38.2386104  56.1155850  33.3008008  38.6763893  57.8234320  33.5431701
  36.6849901  57.4414263  33.2982267  36.5374868  57.3453102  34.2419450
  37.6374564  56.1839192  30.6802273  36.8369093  56.4440007  29.7830340
  38.0450000  54.9342354  30.9343113  38.6841229  54.7380468  31.6913657
  37.5885126  53.8272215  30.1152012  36.5767388  54.0361038  29.7676653
  38.4969887  53.6021259  28.8846012  38.0913340  52.7953756  28.2741117
  38.5435376  54.5165046  28.2931244  40.2417946  53.1396892  29.2478978
  40.6294900  53.0518504  27.9786954  37.5900065  52.5737022  31.0025315
  38.2159499  52.5742837  32.0709947  36.8756750  51.5587573  30.5561635
  36.3474649  51.6419778  29.6993276  36.7539431  50.3088421  31.3358676
  37.6625495  50.1605762  31.9194349  35.5486260  50.3526915  32.3014974
  35.5643459  49.4487761  32.9104219  35.6568125  51.2256775  32.9451520
  34.3002867  50.4314868  31.5937387  33.5763378  50.4568486  32.2237026
  36.6630742  49.1135850  30.4241439  36.3173388  49.2311882  29.2149262
  36.9623316  47.9394695  30.9884867  37.2283699  47.9001664  31.9620257
  36.8195358  46.6639483  30.2469579  36.0716933  46.7793689  29.4624141
  38.1480640  46.2537496  29.6009047  38.9319403  46.4703767  30.3266525
  38.0976494  45.1781763  29.4314926  38.4434212  46.9170490  28.3681298
  39.2868197  46.6058038  28.0313727  36.4947901  45.5981068  31.2771021
  36.8893503  45.7357394  32.4462221  35.7936773  44.5661387  30.8123907
  35.4409555  44.6264693  29.8679084  35.4715925  43.3927557  31.5897392
  35.8992069  43.4755329  32.5889354  33.9380929  43.2547093  31.7188445
  33.7402700  44.0027559  32.4865629  33.4559940  43.5537531  30.7881170
  33.3810458  41.9007779  32.1700057  33.7298095  41.1233730  31.4902217
  33.8734610  41.5785224  33.6338516  33.5246672  42.3553013  34.3143340
  33.4736676  40.6144605  33.9482567  34.9627305  41.5428512  33.6517376
  31.8441071  41.8174793  32.0210573  31.5714930  41.9621282  30.9756590
  31.4988063  40.8386841  32.3539664  31.3771390  42.5928280  32.6284075
  36.0863522  42.1421983  30.9195647  35.9401543  41.9588442  29.6955658
  36.7369567  41.2851961  31.7199084  36.9049833  41.5145149  32.6890726
  37.2558563  39.9958510  31.2022770  36.9329848  39.8494624  30.1715376
  38.7900679  39.9955558  31.2403396  39.0804789  40.2086994  32.2690915
  39.2612066  39.0680064  30.9151005  39.3685027  41.0881770  30.3970501
  39.4213745  40.9960571  29.0270766  39.8780788  42.1410028  28.5350944
  39.9675009  42.2850147  27.4583571  40.1569250  42.9470393  29.5429059
  40.5471121  43.8760940  29.4742671  39.8280281  42.3143068  30.7192738
  39.9646518  42.8278050  31.6709853  36.7473968  38.7909568  31.9936796
  36.5780497  38.9123872  33.1808296  36.4601484  37.6787652  31.2833415
  36.5559684  37.6879294  30.2779392  36.0148600  36.4322542  31.9314492
  35.8364637  36.5606559  32.9990572  34.7233652  35.9265215  31.2759747
  34.8888463  35.7843975  30.2080249  34.4334600  34.9777992  31.7276176
  33.9288411  36.6575191  31.4258850  37.0919952  35.4033192  31.7643040
  37.8316152  35.3793372  30.7571833  37.1777566  34.4947416  32.7313851
  36.6370981  34.5385022  33.5833668  38.0958413  33.4081740  32.5648756
  38.2635449  33.2078326  31.5066516  39.4592562  33.7898351  33.2225188
  39.8916610  34.5956534  32.6294065  39.2446130  34.1537955  34.2272879
  40.4805554  32.5923565  33.3049500  41.2724944  32.8640520  34.0028863
  39.9584838  31.7096865  33.6743239  41.1016161  32.2624880  31.9801107
  41.6287232  33.1512548  31.2668282  41.0545267  30.9652017  31.6016349
  41.4571360  30.6849760  30.7187529  40.6169593  30.2822972  32.2035298
  37.5100186  32.1620046  33.2234238  37.2936519  32.1661837  34.4262991
  37.3166249  31.0908841  32.4354812  37.4990065  31.1729407  31.4454797
  36.8287900  29.7894148  32.9554858  36.0728796  29.9551394  33.7231015
  36.1951301  28.9563313  31.8058941  35.5750411  29.6262190  31.2102102
  37.0053316  28.5674662  31.1890817  35.3084649  27.7478640  32.3396813
  35.9781443  26.9982897  32.7613075  34.6529730  28.1300074  33.1222405
  34.4566104  27.1065614  31.2229106  35.1117392  26.7038698  30.4504181
  33.8523726  26.3019060  31.6418685  33.5684336  28.0900879  30.6159215
  32.7067398  28.2935027  31.1019313  33.7953264  28.6871582  29.4503874
  34.8965673  28.3942503  28.7517763  35.5548044  27.7183933  29.1123886
  35.0654273  28.8501174  27.8664679  32.9479692  29.6083519  29.0290065
  32.1442619  29.8464178  29.5924595  33.1075691  30.0705162  28.1452471
  38.0165705  29.0541498  33.5563228  39.1288531  29.0500706  32.9759110
  37.8058797  28.4455197  34.7308494  36.8984397  28.5044529  35.1703706
  38.8516079  27.6971294  35.4072831  39.6690887  27.5075394  34.7116682
  39.3958536  28.4703662  36.6520507  38.5887757  28.5958175  37.3738454
  40.5415892  27.6956437  37.2996031  41.3492928  27.5701906  36.5785087
  40.9100659  28.2466142  38.1649107  40.1843330  26.7163873  37.6182315
  39.8778600  29.8702112  36.1739298  40.5636735  29.7299210  35.3384184
  39.0087240  30.4362404  35.8387982  40.6132278  30.6674607  37.3337402
  41.4827989  30.1022309  37.6690926  40.9345285  31.6396331  36.9599140
  39.9278494  30.8085482  38.1694738  38.2555510  26.3660626  35.8540349
  37.2020387  26.3241324  36.5159524  38.9562781  25.2838285  35.4938893
  39.8045362  25.3993845  34.9579748  38.4728639  23.9116388  35.7532177
  37.3881808  23.9119796  35.8607428  38.8516666  22.9864780  34.5770124
  39.9082910  23.1990380  34.4143400  38.7112297  21.9116338  34.6914129
  38.1343491  23.3821835  33.3165506  36.7827051  23.1890586  33.1686344
  36.3762456  23.7187631  32.0227658  35.3332380  23.6570812  31.7122349
  37.4246062  24.2670463  31.4348895  37.4244249  24.7407761  30.5428805
  38.5298752  24.0911680  32.2345870  39.4928632  24.5020901  31.9314396
  39.0347605  23.4849426  37.1067437  39.9077564  22.6339542  37.1945322
  38.5405473  24.1559466  38.1384820  37.8621224  24.8787513  37.9451111
  38.9611959  23.9513855  39.5276312  39.0922171  22.8884767  39.7305044
  40.2634538  24.6636286  39.8206756  40.1453890  25.7304702  39.6309129
  40.5359376  24.5087865  40.8646472  41.0485719  24.2654909  39.1778885
  37.8426741  24.4397198  40.4345351  36.9860188  25.2006537  39.9910330
  37.8081063  23.9641591  41.7106700  38.7624315  23.0226524  42.3485739
  39.5954402  23.5686834  42.7913457  39.1432673  22.3129256  41.6141687
  37.8908813  22.3675562  43.3783259  38.4877483  21.9394167  44.1836491
  37.2726741  21.5889275  42.9314942  37.0132627  23.5511119  43.8875128
  37.6427810  24.1166418  44.5745219  36.0707079  23.3062337  44.3771298
  36.7463385  24.3800558  42.6206992  35.7778400  24.2225907  42.1460271
  36.9131083  25.8584390  42.9556260  38.0595775  26.3255232  43.0780949
  35.7868462  26.5625608  43.1440302  34.3915777  26.1602649  42.8662088
  34.1972754  25.1885184  43.3201424  34.2411421  26.0939614  41.7886783
  33.5984572  27.2389487  43.4783322  33.4145742  27.0156632  44.5292507
  32.6465729  27.3426845  42.9575093  34.4489736  28.4977790  43.3159503
  34.2505909  29.1622545  44.1569114  34.2606814  29.0279426  42.3823699
  35.9009060  28.0212478  43.3614507  36.4897832  28.4450700  42.5480033
  36.5715836  28.3429705  44.6960852  37.2281660  29.3802988  44.8042165
  36.4445262  27.4544616  45.7050993  35.7993366  26.6779126  45.6767902
  37.1521978  27.7183745  46.9488082  36.9494606  28.7407473  47.2677920
  36.7023736  26.7410732  48.0859337  37.2660458  26.9959957  48.9833676
  35.6402483  26.9083134  48.2648767  36.9392445  25.2435013  47.7327021
  37.8360062  25.2178954  47.1136194  37.1283119  24.7152641  48.6672170
  35.7717312  24.5573528  46.9788879  34.9658374  25.2385385  46.2987098
  35.6595040  23.2964131  47.0921010  38.6555899  27.7227159  46.7184185
  39.3846810  28.5226052  47.3414733  39.1576291  26.8438554  45.8540882
  38.5920442  26.1161581  45.4409662  40.5863841  26.8708418  45.5450822
  41.1658943  26.9070364  46.4675555  40.9820284  25.6144680  44.7684719
  40.6976239  24.8112875  45.4482619  40.3200184  25.6083763  43.9025588
  42.4124522  25.4067922  44.3119334  42.5760833  26.0342408  43.4357862
  43.4482044  25.7625205  45.3998248  43.2854888  25.1351166  46.2761734
  44.4535899  25.5934515  45.0141871  43.3379415  26.8105392  45.6783916
  42.5608284  23.9397866  43.9185721  41.8663693  23.7075453  43.1111750
  43.5814497  23.7542596  43.5838886  42.3407951  23.3082432  44.7792912
  41.0068274  28.1407343  44.7599525  42.0188504  28.7947854  45.0800969
  40.2461247  28.4807191  43.7295493  39.4882898  27.8983180  43.4030613
  40.5429656  29.7342217  42.9859144  41.5350223  29.7127900  42.5348453
  39.4984728  29.9767015  41.8714225  38.4991561  29.9034405  42.3004891
  39.6886707  31.3774176  41.2452842  40.6876671  31.4512807  40.8155733
  38.9450602  31.5303602  40.4631382  39.5675720  32.1395642  42.0150695
  39.5824104  28.8798319  40.7715563  39.3941317  27.9029089  41.2168369
  38.8359092  29.0779379  40.0024077  40.5760918  28.8889796  40.3236562
  40.5774343  30.9301064  43.9553584  41.5042531  31.7718102  43.9122801
  39.5589579  31.0169653  44.8027776  38.7735262  30.3926486  44.6869111
  39.4464808  32.1127148  45.7991630  39.5105174  33.0743560  45.2900022
  38.0899210  32.0428550  46.5625111  37.2320237  32.1623903  45.9008294
  38.0239173  31.0815726  47.0720989  37.9654571  33.1052170  47.6269818
  37.9061515  32.9033500  48.9772505  37.9188855  31.8642600  49.3062332
  37.8411435  34.0953783  49.6492410  37.8007455  34.2072046  50.6522178
  37.8467313  35.1192204  48.7311336  37.7897430  36.4906250  48.9460357
  37.7336586  36.8551760  49.9717334  37.8083392  37.3231433  47.8179283
  37.7694819  38.4051307  47.9439973  37.8778032  36.7797076  46.4927749
  37.8841235  37.4243612  45.6138657  37.9403618  35.3825793  46.2911491
  37.9682169  34.9999805  45.2708830  37.9317640  34.5376896  47.4353804
  40.6781979  32.2014621  46.7525784  41.1999798  33.2725501  47.0472308
  41.1216860  31.0357920  47.2503993  40.6171244  30.1829640  47.0549481
  42.3021948  30.9624280  48.1210461  42.1259806  31.4944152  49.0559458
  42.5851635  29.4771865  48.4435599  43.1002591  29.4078330  49.4016653
  41.6418257  28.9338807  48.4986283  43.4062676  28.9052674  47.4176171
  43.5788747  27.9834412  47.6226615  43.5386749  31.6142103  47.4850760
  44.4155840  32.1057724  48.1833984  43.6157644  31.6501470  46.1466774
  42.8958851  31.2238461  45.5808676  44.7333882  32.2795604  45.4755815
  45.6509603  32.2623309  46.0636833  44.9933006  31.6094270  44.0827887
  44.0646497  31.6240563  43.5122681  46.0931425  32.3566069  43.2952030
  47.0222849  32.3419979  43.8649237  46.2490992  31.8665601  42.3341451
  45.7848948  33.3890176  43.1302468  45.3138065  30.1170213  44.2800882
  46.3701372  30.0542162  44.5414725  44.7109511  29.7745258  45.1211362
  45.0323005  29.2193730  43.0412048  45.6351879  29.5609938  42.1998239
  45.2881786  28.1859449  43.2749821  43.9760015  29.2813054  42.7794861
  44.4835471  33.7808151  45.2550830  45.3552881  34.6347168  45.5484370
  43.3226670  34.0718878  44.6693005  42.7160328  33.3119283  44.3962515
  42.8933093  35.4711534  44.3542293  43.5751089  36.0167146  43.7018403
  41.5056026  35.4512168  43.7052649  40.9322573  34.6538735  44.1781476
  40.7334422  36.8089888  43.8537382  41.3059915  37.6067874  43.3806572
  39.7586549  36.7276794  43.3728234  40.5984965  37.0370900  44.9110277
  41.6632469  35.0337531  42.2577338  42.1111775  34.0410935  42.2120485
  40.6854689  35.0130827  41.7764620  42.3066989  35.7462524  41.7415796
  42.8715109  36.3569431  45.6195856  43.1487123  37.5681447  45.5515348
  42.5471080  35.7691915  46.7662799  42.2740712  34.7970429  46.7881271
  42.4078461  36.5695472  48.0136815  41.9635879  37.5381642  47.7845199
  41.5049698  35.8413147  49.0175345  41.1864627  36.5450952  49.7865243
  40.6301205  35.4544633  48.4949595  42.2704068  34.6715276  49.6756208
  42.5572288  33.9560706  48.9049359  43.1656136  35.0606206  50.1607121
  41.3750248  33.9640510  50.7316851  40.4699802  33.5831952  50.2584599
  41.9198053  33.1385712  51.1898300  40.9930548  34.9124951  51.7790578
  40.1094578  35.3843926  51.6499513  41.7105290  35.1966208  52.8576112
  42.8935387  34.5956819  53.0569015  43.2362306  33.9260530  52.3829138
  43.4359500  34.8156986  53.8799946  41.2395971  36.0738829  53.7369009
  40.3446660  36.5138808  53.5769002  41.7786258  36.2968692  54.5614152
  43.7185361  37.0231599  48.6663203  43.7199734  37.9081798  49.5325268
  44.8207309  36.3958256  48.2616906  44.7202218  35.6589761  47.5782800
  46.1461377  36.6521723  48.8117108  46.0923054  36.7733424  49.8936161
  47.0585943  35.4672316  48.4978580  47.0165608  35.2772410  47.4253674
  48.0769859  35.7352256  48.7792077  46.6398309  34.2206642  49.2475600
  45.5743946  34.0437714  49.1004032  47.2040902  33.3636434  48.8798254
  46.9201480  34.4136225  50.7236598  46.4637087  35.3381623  51.0771966
  46.5273276  33.5731465  51.2958413  48.3666836  34.4923855  50.9385832
  48.9598816  34.2665353  50.1529578  48.9387744  34.8433286  52.0840700
  48.1783517  35.1677670  53.1295857  47.1721778  35.1448876  53.0447884
  48.6118018  35.4350037  54.0018271  50.2688728  34.8634353  52.1858395
  50.8370597  34.6112005  51.3898236  50.7015355  35.1307976  53.0584329
  46.7217960  37.9845066  48.2825740  47.6169426  38.0154906  47.4318669
  46.2302898  39.0667178  48.8635625  45.4835996  38.9702890  49.5368044
  46.6664752  40.4189174  48.4974922  46.5099074  40.5959687  47.4334252
  45.8476115  41.4371896  49.2871790  44.7861841  41.3293213  49.0639406
  46.0112980  41.2848809  50.3540008  46.2058566  42.8726462  48.9964185
  45.7415890  43.4871148  47.8281386  45.1215927  42.9252427  47.1295656
  46.0754478  44.8360587  47.5521720  45.7076341  45.3050941  46.6395825
  46.8665657  45.5609987  48.4361814  47.1298994  46.5958789  48.2175993
  47.3230132  44.9584802  49.6058896  47.9388433  45.5158883  50.3116867
  46.9789221  43.6021131  49.8767377  47.3274312  43.1237821  50.7920741
  48.1751778  40.6242154  48.7033515  48.8142690  41.3184314  47.9282021
  48.7686963  39.9491106  49.6982577  48.2176521  39.4060536  50.3475178
  50.2100700  40.0468636  49.9248745  50.5340786  41.0764097  49.7727150
  50.5756799  39.6210223  51.3692674  51.6647373  39.6253891  51.4143701
  50.1798372  40.3366234  52.0899086  50.0626254  38.2352300  51.7005431
  48.9247096  37.8572013  51.2774782  50.7729634  37.5309921  52.4361801
  51.0884646  39.2667616  48.9681249  52.3040676  39.4629231  48.9864047
  50.5090121  38.3960305  48.1488667  49.5034123  38.3019438  48.1448410
  51.2875042  37.5688884  47.2242376  52.3112094  37.9365640  47.1539412
  51.3195526  36.1241906  47.7443703  50.2875730  35.8047816  47.8896122
  51.7849697  35.5085771  46.9746255  52.0770856  35.9714540  49.0335341
  51.9406107  36.8611359  49.6483036  51.7122034  35.0977906  49.5736038
  53.5683587  35.7916400  48.7183571  53.8573479  36.5023986  47.9441437
  54.1490133  35.9822762  49.6209076  53.8425828  34.3495193  48.2233196
  54.1390003  33.7636777  49.0933926  52.9030500  33.9628500  47.8285233
  54.9101097  34.2512133  47.1647204  55.7808897  34.6090620  47.5304883
  55.0296009  33.2850280  46.8958194  54.6354404  34.7936524  46.3582369
  50.7122192  37.5151869  45.8140656  50.4394112  36.4380662  45.3129511
  50.5075585  38.6803979  45.1749284  51.0095309  40.0019099  45.5826535
  52.0253254  39.9054529  45.9660043  50.3660503  40.4141904  46.3598642
  50.9464072  40.7996738  44.2978904  51.9313651  40.7881744  43.8311734
  50.6704689  41.8265631  44.5375937  49.9517882  40.1827885  43.4477113
  50.2237770  40.3203368  42.4011925  48.9512275  40.5803367  43.6178094
  49.9903621  38.6783052  43.8078404  49.0048864  38.2133404  43.8351121
  50.8813926  37.9285376  42.8086036  50.3795697  37.3967717  41.8265014
  52.1772108  37.8647094  43.0650722  52.5598499  38.3733592  43.8492674
  53.1080970  37.2376519  42.1227454  52.9056183  37.5929845  41.1123789
  54.5716461  37.5917391  42.4881320  55.2009621  37.2875449  41.6517551
  54.6266639  38.6736330  42.6088736  55.0610118  36.9099269  43.7691591
  54.5377814  35.9573507  43.8524023  56.1319008  36.7288102  43.6769882
  54.8115147  37.7132774  45.0348704  53.7930773  38.3892533  45.1956585
  55.7706669  37.6478150  45.9471921  55.6739909  38.1562628  46.8145075
  56.5938469  37.0897817  45.7709115  52.8403919  35.7184992  41.9459574
  53.3079208  35.1052311  40.9697936  52.0304484  35.1195972  42.8218529
  51.6404786  35.5980808  43.6212754  51.6905080  33.6941643  42.6234626
  52.6131983  33.1142386  42.6027739  50.7800150  33.1118152  43.6701058
  50.5216289  32.0944639  43.3762808  51.4398480  33.0908322  45.0254339
  51.6981228  34.1079512  45.3201588  50.7541315  32.6640484  45.7573817
  52.3450450  32.4853053  44.9800878  49.5790071  33.8995780  43.7170489
  48.9864113  33.5402599  44.3813689  50.9882767  33.5082873  41.2754378
  51.0858941  32.4311315  40.6883584  50.3302365  34.5476242  40.7579099
  50.0854217  35.3441962  41.3285570  49.7912226  34.4788127  39.3793937
  50.3293195  33.7182239  38.8136590  48.3156378  34.1203709  39.3927288
  48.0388178  33.7439371  38.4079610  48.2259638  33.3188168  40.1259202
  47.4081260  35.2410973  39.7689199  46.7610836  35.9746722  38.7878140
  46.9456026  35.7358312  37.7404328  45.9059814  36.9804193  39.1156004
  45.3813974  37.5351502  38.3376627  45.6921119  37.2943082  40.4672359
  44.8636722  38.3303079  40.7922120  44.4884884  38.7659395  40.0234066
  46.3115100  36.5837734  41.4703861  46.1476929  36.8295866  42.5195955
  47.1453451  35.5528369  41.1311885  47.6195194  34.9563844  41.9106134
  50.0108544  35.6789846  38.4190734  49.7760685  35.5802169  37.1918613
  50.4511835  36.7957959  38.9466138  50.5225804  36.9263585  39.9455909
  50.7781112  37.9103000  38.0841841  50.2608877  37.8230075  37.1286952
  50.3283700  39.2095434  38.7688339  51.0117211  39.3848428  39.5997375
  50.4354569  40.0093540  38.0360751  48.8950489  39.1841208  39.2869086
  48.1956252  39.0233160  38.4665129  48.7714930  38.3952794  40.0289094
  48.6148266  40.5510805  39.9396700  49.1335654  40.5460462  40.8983064
  49.0638684  41.3006826  39.2880891  47.1870723  40.8755332  40.1535255
  46.6000373  40.5681794  39.2880637  46.8167922  40.3654249  41.0427844
  47.0566904  42.4347736  40.3497982  47.3993486  42.9076279  39.5257267
  46.0869868  42.6755771  40.4974080  47.6002341  42.7197203  41.1519607
  52.2677829  37.9373568  37.7482494  53.1286101  38.3841623  38.5971613
  52.5845697  37.6182139  36.4866663  51.8722514  37.5452673  35.7743597
  53.9857128  37.2893378  36.1179066  54.4879568  36.8425488  36.9759449
  54.0442245  36.2870394  34.9305431  53.2310110  36.3886749  34.2118962
  54.9915731  36.5120696  34.4406530  54.0953556  34.8360023  35.3197381
  54.8981667  34.3535423  36.3346586  54.7716892  33.0395421  36.4140117
  55.3117703  32.4740846  37.1733991  53.9379081  32.6438036  35.4672546
  53.6430012  31.6938825  35.2918129  53.5274499  33.7457510  34.7459399
  52.8644408  33.6206928  33.8898555  54.8771536  38.5020057  35.7550596
  56.1058141  38.3148526  35.4609015  54.2678054  39.6989400  35.7790806
  53.2732354  39.7420503  35.9495840  54.9941436  40.9528507  35.5975790
  55.8109470  40.8176039  34.8886082  54.0428518  42.0189385  35.0499710
  53.1076333  42.1176111  35.6010875  54.5831602  42.9651273  35.0798663
  53.6664989  41.7771130  33.5913388  54.6745233  41.8036033  32.5931989
  55.7038527  42.0216256  32.8778866  54.3549988  41.5512995  31.2442286
  55.1214218  41.6123158  30.4715880  53.0497084  41.2224105  30.9029929
  52.8088278  41.0141473  29.8605425  52.0300928  41.1554777  31.8973843
  51.0071659  40.8956307  31.6249874  52.3533972  41.4283457  33.2406249
  51.5831088  41.3687565  34.0095234  55.5358325  41.4505677  36.9358096
  56.1289838  42.5020782  36.9819622  55.2532871  40.7330737  38.0291291
  54.6671254  39.9119162  37.9820746  55.7401977  41.1701933  39.3517937
  56.0633813  42.2111079  39.3639758  54.6492465  40.9547577  40.4349382
  54.3004802  39.9238677  40.3738778  55.2199519  41.2404970  41.9104440
  55.5685061  42.2714042  41.9724190  54.4295459  41.0800445  42.6436658
  56.0493033  40.5640556  42.1170898  53.4405844  41.8224422  40.0786457
  53.7789550  42.8583037  40.1030809  53.1531175  41.5585769  39.0608847
  52.2227616  41.6559431  41.0175896  52.5093531  41.9200919  42.0355241
  51.4159902  42.3098716  40.6865357  51.8835169  40.6203639  40.9933295
  57.0201322  40.4516325  39.7510206  57.0666462  39.2019596  39.8472546
  58.0408980  41.2290719  40.0675728  57.9688126  42.2320560  39.9730952
  59.2905688  40.6733987  40.5268809  59.4927371  39.7250707  40.0289841
  60.4119156  41.6402844  40.2011609  60.3761702  41.8552392  39.1331647
  60.2422267  42.5593311  40.7621056  61.8117073  41.0591581  40.5674482
  61.8590365  41.0201139  41.6557204  61.8444537  40.0461905  40.1662920
  63.0064105  41.8597570  40.0322467  63.9066743  41.3365091  40.3544821
  62.9415718  41.8341065  38.9444795  63.0640250  43.2870651  40.4965160
  62.2609332  43.8287488  39.9967933  62.8895146  43.2908524  41.5724486
  64.3901502  43.9602754  40.1973004  64.5518441  43.9572548  39.2003322
  64.3670631  44.9130115  40.5317565  65.1343997  43.4587432  40.6606117
  59.2478261  40.4059166  42.0435267  59.6646040  39.3425649  42.5108268
  58.7459072  41.3659671  42.7998331  58.4806707  42.2544637  42.3994298
  58.6077203  41.1856123  44.2691689  58.3692953  40.1473077  44.4997685
  59.9418129  41.5555323  44.9702211  59.8932436  41.2503182  46.0154888
  60.7617285  41.0330552  44.4774168  60.1636670  42.9717350  44.8954439
  60.9906473  43.1895405  45.3316367  57.4597742  42.0428405  44.7801971
  56.9855567  42.9781148  44.1142972  56.9739637  41.7260773  45.9769001
  57.3399006  40.9631306  46.5283545  55.8830200  42.5025932  46.5203363
  55.8927732  43.5112763  46.1073443  54.5539033  41.8364871  46.1535086
  54.3937878  41.8515813  45.0754389  54.5210217  40.8072379  46.5108109
  53.1217006  42.6680638  46.8854986  52.2079860  41.8498382  46.3711729
  56.0629891  42.5336096  48.0317787  56.3607542  41.5011103  48.6297313
  55.9717911  43.6964480  48.6253599  55.9671623  44.5843619  48.1440213
  56.0527265  43.6997834  50.0838202  55.9292470  42.6864942  50.4660466
  57.3979361  44.2227576  50.5285663  57.5827759  43.9153803  51.5578634
  58.1756310  43.8148520  49.8828854  57.4118924  45.6236826  50.4494251
  58.2684321  45.9516713  50.7329087  54.8794593  44.4237696  50.7357434
  54.2960612  45.3779029  50.1810414  54.5233624  43.9290788  51.9223900
  54.9975803  43.1061675  52.2659502  53.4878785  44.5098745  52.7364898
  53.1458888  45.4416641  52.2860342  52.2984088  43.5407154  52.8230611
  52.6461346  42.5644136  53.1607308  51.3289592  44.0578096  53.7622352
  50.9804027  45.0339571  53.4249736  50.4834154  43.3729536  53.8264878
  51.7909572  44.1570162  54.7444865  51.6085734  43.3884899  51.4545932
  52.3226962  43.0003566  50.7283127  50.7705288  42.6973278  51.5444581
  51.2435579  44.3598936  51.1210675  54.0726039  44.7706795  54.1410046
  55.1621858  44.3185845  54.4590963  53.3249199  45.4783823  54.9656782
  52.5501292  45.9930757  54.5721184  53.6061340  45.6289832  56.4174048
  54.4954043  46.2365425  56.5852414  52.4078101  46.3320467  57.0518807
  51.5050691  45.8587284  56.6657102  52.4664894  46.1767220  58.1291602
  52.3635236  47.8351833  56.7543579  53.0038973  48.0545384  55.9000127
  51.3317142  48.0859789  56.5082481  52.8124175  48.6571422  57.9459824
  52.1141346  49.6515086  58.2915230  53.8551126  48.2836888  58.5487267
  53.9289890  44.3330126  57.1915940  53.2292005  43.3180932  57.0339845
  50.7740279  42.2176030  59.8646980  51.0714700  41.4529490  60.4537071
  49.3499395  42.5774707  59.8569247  48.9559808  42.4850844  60.8690317
  49.1157935  44.0252933  59.3656502  49.5922818  44.1512865  58.3934445
  48.0489180  44.2298614  59.2760480  49.6897116  45.0999647  60.2735578
  49.9560574  44.8443679  61.6292408  49.7470063  43.8565740  62.0399239
  50.4918699  45.8579812  62.4605922  50.7018859  45.6453438  63.5088189
  50.7538379  47.1407034  61.9347809  51.1656096  47.9204980  62.5754558
  50.4833780  47.4119800  60.5843148  50.6821529  48.3980292  60.1644389
  49.9462812  46.3877600  59.7646616  49.7230261  46.5890308  58.7169274
  48.5575314  41.6103084  58.9774587  49.0677917  41.1522413  57.9463341
  47.3216357  41.2962051  59.3825746  47.0077615  41.5280809  60.3141410
  46.4155391  40.5390729  58.5115483  46.9614936  39.7497384  57.9948434
  45.2623177  39.8998462  59.3078940  45.6686074  39.2009857  60.0390725
  44.7006864  40.6787663  59.8236011  44.3458704  39.1616288  58.3617124
  43.9388043  39.8599716  57.6304701  44.9067238  38.3821900  57.8459432
  43.2026470  38.5279469  59.1511521  42.1619416  39.2195156  59.3132214
  43.3809640  37.3583617  59.5845961  45.9066050  41.5060194  57.4234759
  45.6259940  42.6761231  57.6984430  45.8098959  41.0359047  56.1860526
  46.1222900  40.1095597  55.9322925  45.4367613  41.9552675  55.1194108
  45.9184043  42.9183020  55.2887738  45.8720576  41.4213351  53.7321656
  45.5319983  40.3876949  53.6685514  45.3532854  42.0206508  52.9839703
  47.4427935  41.4811206  53.4647249  47.8913422  40.8632894  54.2426641
  47.5883255  41.0055744  52.4947876  48.2576659  43.1314311  53.4577994
  49.0873582  43.2444469  55.0820106  49.8117314  42.4355951  55.1776208
  49.6007100  44.2026212  55.1624622  48.3452388  43.1626328  55.8761557
  43.9490276  42.3275988  55.2540066  43.0631551  41.4590283  55.3098747
  43.7024413  43.6300577  55.3899399  44.4812919  44.2708821  55.3366936
  42.3688146  44.1791977  55.6059403  41.5683584  43.4567179  55.4465919
  42.2679409  44.7153940  57.0444340  42.3778017  43.8907270  57.7486742
  43.0575506  45.4468883  57.2162850  40.9091814  45.3778300  57.2458673
  40.7987716  46.2029451  56.5422369  40.1190220  44.6467845  57.0746290
  40.8091920  45.9093274  58.6717487  40.9190545  45.0846616  59.3759897
  41.5988008  46.6408226  58.8435978  39.5006949  46.5605247  58.9045114
  38.8357101  46.5911297  58.1449339  39.1604851  47.1072626  60.0682277
  39.9818638  47.1063548  61.1142854  40.8944401  46.6807919  61.0355404
  39.6892664  47.5312306  61.9825981  37.9578808  47.6665360  60.1675094
  37.3365527  47.6655160  59.3712366  37.6714794  48.0896988  61.0387190
  42.1663651  45.3290282  54.5880862  43.1419673  45.9003343  54.1128560
  40.9150151  45.6517739  54.2620671  40.1680639  44.9963173  54.4424548
  40.6083829  46.8638110  53.4751899  41.0058162  46.7920766  52.4627669
  39.0639179  47.1513348  53.3898032  38.6662007  47.1383933  54.4045706
  38.7454945  48.4970659  52.7346487  39.1425240  48.5105890  51.7196188
  37.6653700  48.6401480  52.7036786  39.2014528  49.3004044  53.3133118
  38.3499839  46.0289487  52.6367983  38.5052547  45.0846174  53.1585564
  37.2827699  46.2451651  52.5877644  38.7521037  45.9555556  51.6263459
  41.4204878  48.0595303  53.9631029  41.4482609  48.3930966  55.1848938
  42.1008327  48.6929321  53.0047575  42.0936280  48.2886597  52.0792245
  42.8515640  49.9305381  53.2150596  42.7228777  50.5899607  52.3567468
  42.4924099  50.4311180  54.1142411  44.3289231  49.6169021  53.3804459
  45.1397570  50.5354451  53.3231821  44.7123747  48.3467234  53.5998812
  44.0439546  47.5998062  53.7240932  46.1581338  48.0071300  53.6126875
  46.6595582  48.6225987  54.3595951  46.3997535  46.5564093  53.9429846
  45.7721437  45.9063698  53.3333504  47.4467727  46.2908361  53.7969646
  46.0099386  46.1482111  55.6895562  46.3289538  44.8597621  55.6057310
  46.7472540  48.2342097  52.2189820  46.0182774  48.1615514  51.2111413
  48.0480915  48.4685911  52.1685208  48.6006964  48.5724599  53.0075312
  48.7064407  48.7029297  50.8585808  48.0256108  48.4914847  50.0340440
  49.2271466  50.1762166  50.7137324  49.7889225  50.2494587  49.7825270
  48.0606207  51.2073990  50.6982023  47.4986302  51.1350661  51.6293490
  48.4661523  52.2140212  50.5964427  47.3992921  50.9960121  49.8579281
  50.1355212  50.4564643  51.7896394  50.4592859  51.3566000  51.7088157
  49.8385926  47.6989257  50.5943347  50.4206409  47.0913395  51.5482449
  50.1731503  47.4866126  49.3112902  49.6409617  47.8877173  48.5523504
  51.3224882  46.6355761  48.9815262  51.8576051  46.3699025  49.8932096
  50.8619659  45.3539137  48.2958013  51.7496777  44.7364912  48.1584829
  50.1786067  44.8585179  48.9855137  50.1660539  45.5559681  46.9439989
  49.3432935  46.2612233  47.0613932  50.8819179  45.9504027  46.2228455
  49.6092067  44.1857925  46.4301342  50.4330799  43.5323838  46.1430992
  49.0206836  43.7055606  47.2118742  48.7495712  44.4010915  45.2592329
  48.8513492  45.2760958  44.7651599  47.8363995  43.5246090  44.8243423
  47.6591012  42.3541571  45.4590224  48.2186305  42.1333158  46.2703522
  46.9670645  41.7002250  45.1220392  47.0945615  43.8088714  43.7200125
  47.2356944  44.6815345  43.2315039  46.4059962  43.1459784  43.3935935
  52.2748434  47.3947333  48.0640590  51.8030530  48.2563135  47.2893782
  53.5777167  47.1359736  48.1753314  53.9324996  46.5468680  48.9150497
  54.5283461  47.7593861  47.2786344  54.0135131  48.5220057  46.6942908
  55.6952225  48.4207183  48.0300519  56.1174793  47.6145497  48.6299607
  56.4465232  48.7823686  47.3280145  55.2633720  49.5623921  48.9449661
  54.3726309  50.3698647  48.6207004  55.9041796  49.6922309  50.0033500
  55.0440322  46.7435285  46.2916723  55.8014363  45.8617252  46.6345176
  54.6870636  46.9354697  45.0221082  54.1711153  47.7618760  44.7557451
  55.0470401  45.9695475  43.9725444  55.3317811  44.9875153  44.3502142
  53.8443564  45.7978336  42.9942774  53.4653732  46.7900065  42.7491977
  54.2422592  45.0616625  41.6919923  54.6209314  44.0691668  41.9362477
  53.3695104  44.9680923  41.0457302  55.0169193  45.6286184  41.1756937
  52.6344175  45.0726013  43.6731618  52.2952046  45.6550075  44.5298062
  51.8198026  44.9745456  42.9556054  52.9446132  44.0825795  44.0074317
  56.2483971  46.5418028  43.2222290  56.2943745  47.7773144  42.9618310
  57.2171544  45.6852544  42.9111531  57.2042695  44.7554565  43.3053727
  58.3237973  46.0480303  42.0268392  58.2421779  47.0857476  41.7034506
  59.7174670  45.8117900  42.6526764  59.7622579  44.7952639  43.0435329
  60.8492797  46.0098747  41.5743566  60.8054153  47.0263829  41.1833482
  61.8230773  45.8394458  42.0334568  60.7033705  45.3010132  40.7592953
  59.9344218  46.7226722  43.8880947  60.0971187  47.7313649  43.5083982
  59.0085845  46.6962592  44.4627486  61.1345487  46.3119164  44.8114474
  62.0608616  46.3385467  44.2375702  61.2054092  47.0079891  45.6472469
  60.9723283  45.3034394  45.1919190  58.1447006  45.1753514  40.7679842
  57.9742731  43.9678040  40.8628674  58.1175066  45.8022802  39.5948744
  58.1513234  46.8048038  39.4769662  57.8478320  44.9727871  38.4169492
  57.3841541  44.0291046  38.7042910  56.9570338  45.6580948  37.3599326
  56.8502433  45.0126985  36.4880619  55.5346737  45.9221999  37.9969171
  55.6406078  46.5679470  38.8686335  54.8913766  46.4067906  37.2624505
  55.0898256  44.9742380  38.2995390  57.5901006  46.9017633  36.8682609
  58.5535707  46.6656154  36.4165290  56.9450947  47.3687032  36.1239262
  57.7386737  47.5884659  37.7016074  59.1328940  44.4214756  37.7865760
  60.2292650  44.8849632  38.0814231  58.9624206  43.4533885  36.9083020
  58.0407399  43.0797828  36.7321690  60.0836511  42.8872875  36.1837878
  60.9105070  42.6661775  36.8587092  59.6915352  41.5873041  35.3929634
  60.5599636  41.2175767  34.8477716  59.2061104  40.5016222  36.3891875
  58.3373590  40.8704715  36.9344598  58.9341250  39.5998836  35.8405599
  60.0053027  40.2706299  37.0934839  58.6183474  41.8648509  34.3068599
  57.7231310  42.2485234  34.7962307  59.0077536  42.6173411  33.6211335
  58.2445360  40.5093806  33.4727787  57.8546009  39.7565378  34.1578175
  57.4901994  40.7412315  32.7209006  59.1392247  40.1253542  32.9827219
  60.6257505  43.8982920  35.1942914  59.9322189  44.8741167  34.8619001
  61.8372418  43.6547333  34.7214446  62.3750463  42.8630414  35.0440738
  62.4526234  44.5631296  33.7272276  62.4344067  45.5882943  34.0970988
  63.9081997  44.1591988  33.4765053  64.3485841  44.8659873  32.7732195
  64.4487737  44.2036316  34.4219711  63.9948638  42.8384607  32.9406573
  64.9162808  42.6125137  32.7938973  61.7343672  44.5927797  32.3848842
  61.0328393  43.6358819  32.0137531  61.9651855  45.6740314  31.6315199
  62.4543364  46.4793581  31.9952225  61.5058320  45.7104294  30.2443903
  62.2613836  46.2385270  29.6627084  61.4341220  44.6801772  29.8957681
  60.1689652  46.3907493  30.0480386  59.7179778  46.5658297  28.8941689
  59.5246457  46.7874756  31.1524397  59.9405194  46.6557216  32.0633674
  58.1991788  47.4014967  31.0775108  57.7250211  47.1700039  30.1237368
  57.3153638  46.8410045  32.2182793  57.8992650  46.9584193  33.1311716
  56.4649698  47.5224717  32.2413533  56.8102486  45.3974944  32.1174362
  57.6430354  44.7306678  31.8940326  56.1673547  44.9882099  33.4802255
  55.3341416  45.6543447  33.7040985  55.8049215  43.9621170  33.4179653
  56.9135692  45.0620474  34.2713086  55.7752386  45.2577741  31.0816981
  56.1869484  45.5464697  30.1146152  55.4409497  44.2211845  31.0388698
  54.9297356  45.9019819  31.3229862  58.2879815  48.9287257  31.2006920
  59.3197319  49.4461140  31.6772528  57.2091847  49.6433347  30.8239820
  56.0487790  49.1485758  30.0571871  55.5649566  48.3396074  30.6045319
  56.3800741  48.7819400  29.0856313  55.1339764  50.4324754  29.9370081
  54.4268924  50.4792993  30.7652223  54.5879751  50.4277867  28.9936301
  56.1126851  51.5736262  29.9852093  55.5732868  52.4443633  30.3579898
  56.5974291  51.8237491  29.0415137  57.1534414  51.1360250  31.0027286
  58.1396122  51.5587726  30.8107654  56.7211966  51.4761543  32.4402635
  55.8462276  52.3308889  32.6751064  57.4106725  50.8320622  33.3902210
  58.1658845  50.2143300  33.1291443  57.0780944  50.9604242  34.8109873
  57.0134006  52.0093096  35.1003891  55.7605109  50.2919840  35.1219623
  55.8127689  49.2387792  34.8460481  55.5517504  50.3777519  36.1883409
  54.9644413  50.7761582  34.5563232  58.1951109  50.3456645  35.6131622
  58.9113055  49.4726223  35.1277588  58.3470903  50.8404535  36.8424389
  57.8667428  51.6915545  37.0973756  59.2590393  50.2476083  37.8080643
  59.7235704  49.3662990  37.3657931  60.3820880  51.2424074  38.2334235
  59.8794130  52.1098519  38.6611583  61.0253045  50.7877343  38.9868457
  61.2542449  51.7097355  37.0619544  61.6776996  50.8941733  36.2277539
  61.5598773  52.9773753  37.0232364  62.1322607  53.3329472  36.2708763
  61.2226877  53.5972977  37.7458014  58.5585523  49.7152042  39.0419560
  58.9383408  48.6711357  39.5409727  57.5728545  50.4559351  39.5382570
  57.1988245  51.2267260  39.0033905  56.9593326  50.1478992  40.8441693
  57.1471434  49.1027220  41.0899963  57.5399497  51.0312993  41.9691907
  57.0182388  50.7881048  42.8948117  59.0531408  50.8107501  42.1596551
  59.5756049  51.0542020  41.2345269  59.4164444  51.4535642  42.9614653
  59.2392292  49.7682584  42.4178851  57.3252673  52.4127712  41.6411239
  57.6847000  52.9667230  42.3379351  55.4869031  50.4551000  40.7687179
  55.0456587  51.2787095  39.9405659  54.7206301  49.8863535  41.6804257
  55.1013420  49.1628256  42.2734393  53.3361330  50.2339997  41.8341491
  53.1835988  51.2665205  41.5199306  52.4292044  49.3145799  40.9735163
  52.6697319  49.4663716  39.9212782  52.6215325  48.2762130  41.2435240
  51.0201521  49.6229354  41.1997054  50.4755423  49.0453128  40.6599349
  52.9457003  50.1294623  43.3156420  53.3701229  49.1866534  44.0001884
  52.1780601  51.1080747  43.8039249  51.9094674  51.8876121  43.2205907
  51.6402149  51.0436054  45.1771675  52.1265552  50.2263402  45.7097555
  51.8855837  52.3608519  45.9596691  51.3155097  53.1667702  45.4974878
  51.4304668  52.1866176  47.4460916  52.0004670  51.3811245  47.9091037
  51.6048744  53.1143051  47.9911394  50.3684771  51.9428401  47.4752599
  53.2815702  52.6531100  45.9109248  53.4551439  53.4664629  46.3904345
  50.1680942  50.8835587  45.0646520  49.5013280  51.6837277  44.3901764
  49.6403805  49.8586759  45.7288217  50.2122731  49.3334594  46.3747210
  48.2612420  49.4532375  45.5460053  47.7122632  50.2014862  44.9743014
  48.2371531  48.1383257  44.7764934  48.7584358  47.3640335  45.3393745
  47.2081331  47.8264076  44.5978178  48.9567412  48.3615212  43.4112847
  48.3386724  49.0748230  42.8660394  49.9159469  48.8208326  43.6501501
  49.1873363  47.1197970  42.5452085  48.9544084  45.9545943  42.9826126
  49.6222443  47.3761759  41.3922853  47.5361589  49.2682418  46.8884855
  48.1239778  48.7649062  47.8629265  46.2865143  49.6883705  46.9017593
  45.9068523  50.0761776  46.0499601  45.4111638  49.6368243  48.1057117
  46.0018861  49.4183057  48.9953161  44.7261983  50.9956876  48.2939827
  45.5216810  51.7033248  48.5275550  44.2883583  51.2478188  47.3281534
  43.6324155  51.0670438  49.3915990  42.9286153  50.2515300  49.2251559
  44.1135236  50.9388698  50.3612425  42.8649842  52.4315908  49.3664500
  43.5727502  53.2596258  49.3274061  42.2064739  52.4759543  48.4989850
  42.0454999  52.5657656  50.5910591  42.4784869  53.0745344  51.3485392
  40.8103493  52.0969421  50.7642481  40.1845667  51.4057154  49.8151797
  40.6488040  51.2258689  48.9364085  39.2481504  51.0640047  49.9778389
  40.1801200  52.3116539  51.9395587  40.6480904  52.8233585  52.6739034
  39.2437746  51.9595185  52.0786871  44.3513591  48.5461539  47.9535867
  43.6513173  48.4548849  46.9434176  44.2558825  47.6753633  48.9501622
  44.9573942  47.6454244  49.6761680  43.1813206  46.6944914  48.9881227
  43.0772442  46.1886778  48.0282165  43.5404813  45.6365622  50.0712895
  44.4622622  45.1538819  49.7465758  43.7189589  46.1677766  51.0061997
  42.4522718  44.5705092  50.2872244  41.5316160  45.0768075  50.5773206
  42.2030531  43.7438855  49.0257569  43.1232056  43.2368873  48.7352900
  41.4276903  43.0036373  49.2231044  41.8803043  44.4008654  48.2180992
  42.9715917  43.6610897  51.4465483  43.1185755  44.2630885  52.3432605
  42.2405990  42.8787097  51.6505888  43.9184412  43.2060750  51.1557965
  41.8003662  47.3473174  49.2642171  41.6374386  47.9833720  50.2990133
  40.8620414  47.2844409  48.3158632  41.0372657  46.6983623  47.5121794
  39.5767673  48.0114996  48.3862204  39.6955243  48.9011468  49.0047055
  39.1061610  48.4463976  46.9815103  39.2002512  47.5511097  46.3669326
  38.0653192  48.7697835  46.9945455  39.9731107  49.5527362  46.4010001
  40.5429108  50.3618886  47.1995245  40.0405894  49.6864577  45.1412322
  38.4645264  47.1504548  48.9733764  37.5649220  47.6406818  49.6977930
  38.5347766  45.8591315  48.6980747  39.2496930  45.4878180  48.0888784
  37.4962137  44.9053580  49.2511290  37.2364924  45.1502997  50.2810065
  36.1955032  44.8925254  48.3728195  35.7205584  45.8699256  48.4577701
  36.4884036  44.5991105  46.9171217  36.9629690  43.6216003  46.8313192
  35.5569686  44.6011766  46.3509721  37.1565050  45.3629512  46.5192686
  35.1683104  43.9046593  48.9015958  35.5886263  42.9085194  48.7632468
  35.0562062  44.1064054  49.9668801  33.8648634  43.9756361  48.2543847
  33.9761046  43.7735273  47.1890785  33.1982989  43.2351426  48.6964937
  33.4436853  44.9714147  48.3927101  38.0920951  43.5340556  49.3338107
  38.8576271  43.1677371  48.4314241  37.7911079  42.7838391  50.4333050
  37.2888707  43.1858513  51.2119213  38.2243805  41.4003580  50.5334238
  38.3893406  41.0064267  49.5305751  39.5470518  41.2578305  51.3489321
  40.2245741  41.9975373  50.9224386  39.3074486  41.5346193  52.3756153
  40.2211683  39.8791257  51.3351851  39.5015226  39.1440497  51.6955657
  40.7000108  39.4800288  49.9117029  41.4200805  40.2144390  49.5508150
  41.1710215  38.4977319  49.9483405  39.8452783  39.4475827  49.2360699
  41.4463087  39.8719328  52.2865437  41.1201627  40.0990168  53.3015122
  41.9157553  38.8883830  52.2678103  42.1651373  40.6233374  51.9597785
  37.0766621  40.6333023  51.1915615  37.0677898  40.4227201  52.4350897
  36.0873678  40.2633322  50.3889801  36.1848261  40.3683248  49.3891913
  34.8468094  39.7136771  50.9057007  34.7130763  40.0311355  51.9398355
  33.6445797  40.1909722  50.0883532  33.7540076  41.2747094  50.0478746
  33.6874720  39.7839960  49.0780905  32.2981682  39.8380992  50.7231497
  32.1865972  38.7358531  51.3150756  31.3204228  40.6391667  50.5684251
  34.9631711  38.2005638  50.8313491  34.6697464  37.6107459  49.7991453
  35.3481409  37.5783324  51.9433655  35.6893505  38.0896870  52.7447341
  35.4454010  36.1127028  51.9594651  35.9710703  35.7789374  51.0648301
  36.2141659  35.6013907  53.2058104  35.8133882  36.1279855  54.0719365
  36.0297121  34.5325437  53.3137123  37.6942894  35.8470907  53.1110954
  38.2923011  35.6251326  52.0335576  38.2980933  36.2549772  54.1225199
  34.1238327  35.3638926  51.7973251  34.1332060  34.1515490  51.4359872
  32.9911440  36.0210581  52.0213496  32.9725587  36.9911136  52.3019672
  31.7335492  35.3172286  51.9038542  31.8730870  34.2747619  52.1900212
  30.6684115  35.9335838  52.8090867  31.0418982  35.8381147  53.8286418
  30.6127134  36.9884759  52.5403855  29.2758182  35.3103931  52.7165472
  28.6124827  35.8538492  53.3894085  28.9448957  35.4525304  51.6877681
  29.2417082  33.7977032  53.0666411  30.1402201  33.3030069  53.8173428
  28.3008179  33.1497045  52.5994270  31.2422100  35.3225692  50.4817194
  30.7792908  34.2904777  49.9583325  31.3619823  36.4550723  49.8271735
  31.7400151  37.2799935  50.2706773  30.8640855  36.5709582  48.4475329
  30.1001188  35.8178278  48.2545338  30.2553787  37.9354941  48.2518215
  31.0537418  38.6695611  48.3607311  29.8610541  37.9762647  47.2364664
  29.1148467  38.2547268  49.2649055  28.4564798  37.3883566  49.3285959
  29.5620752  38.4430866  50.2409225  28.3152599  39.4646757  48.8350708
  27.6896887  39.7810589  49.6697331  29.0090411  40.2650563  48.5778591
  27.4503840  39.1971070  47.6714022  27.0009570  38.2941355  47.6188923
  27.2186939  40.0839287  46.6950740  27.8263062  41.2625140  46.7233967
  28.4585318  41.4832557  47.4794812  27.6539882  41.9338578  45.9887515
  26.3921160  39.8070063  45.6702282  25.9295281  38.9102256  45.6266748
  26.2379638  40.4971631  44.9491044  31.9623700  36.2976738  47.3788081
  31.6290616  36.1280264  46.2002928  33.2129327  36.2123363  47.8216078
  33.3543869  36.3899331  48.8057569  34.3990819  35.9395512  46.9805374
  35.2862746  35.9340907  47.6137503  34.3036980  34.5791187  46.2519386
  33.3669552  34.5530862  45.6952209  35.1405581  34.5023474  45.5577690
  34.3457052  33.4191060  47.2221736  35.2952706  33.4307044  47.7572361
  33.5265189  33.5151521  47.9347822  34.2079935  32.1165772  46.4697940
  33.2615341  32.1091434  45.9291846  35.0309838  32.0187345  45.7618299
  34.2358867  30.9706204  47.3837775  34.9105555  30.9720525  48.1353887
  33.4405452  29.9098367  47.2449582  32.5132517  29.8650258  46.2772666
  32.4124464  30.6438989  45.6422115  31.9198785  29.0526084  46.1879032
  33.5415527  28.9066401  48.0999687  34.2178439  28.9514856  48.8487806
  32.9419664  28.0999880  48.0004334  34.5317830  37.0781565  46.0019520
  34.4735817  36.8851436  44.7594514  34.6969881  38.2663755  46.5842071
  34.7351979  38.3267139  47.5916785  34.8935831  39.5070417  45.7981811
  35.0500793  39.3269112  44.7346205  33.7179169  40.4700545  45.9626964
  33.5956456  40.7139223  47.0180056  33.9904752  41.7803719  45.1533620
  34.1124049  41.5373459  44.0978183  33.1498805  42.4637823  45.2735756
  34.8993622  42.2544613  45.5238554  32.3991947  39.7971977  45.5741343
  32.2316938  38.9293988  46.2120768  31.5790656  40.5039931  45.7003414
  32.4463775  39.4783491  44.5328802  36.1263466  40.1858978  46.3723479
  36.2644069  40.3708232  47.6093588  37.0533594  40.5829149  45.4803823
  37.0302707  40.2382289  44.5312996  38.1816304  41.3728323  45.8911731
  37.8974038  41.9122086  46.7947149  39.4914868  40.5353246  46.1926744
  39.2250898  39.6904688  46.8277740  40.1380763  40.0150999  44.8877291
  40.4051854  40.8594630  44.2522738  41.0348693  39.4442196  45.1284718
  39.4305548  39.3744279  44.3613705  40.4590272  41.3374731  46.8687464
  41.2442713  40.8132312  47.0424196  38.4244061  42.4956458  44.8674413
  37.7654908  42.5501482  43.8311126  39.2929857  43.4259736  45.2076892
  39.8308552  43.3745757  46.0610086  39.4980512  44.5950556  44.3157154
  39.8212541  44.2684404  43.3273017  38.5772135  45.1710873  44.2243659
  40.5646741  45.4692677  44.9152466  40.7994208  45.4423410  46.1450864
  41.2721534  46.2173366  44.0737652  41.1151372  46.1461925  43.0785849
  42.3030501  47.1260750  44.5451848  42.0619149  47.4607703  45.5541110
  43.6934892  46.4232504  44.5727155  44.4299552  47.0294681  45.1001784
  43.5871108  45.4622534  45.0759732  44.2700496  46.1342734  43.2068076
  45.2058123  47.0132521  42.6410712  45.4991775  47.8981378  43.2058845
  45.7656891  46.7708594  41.3667742  46.4950491  47.4512144  40.9271701
  45.3591135  45.6125241  40.6573178  45.7620138  45.4200378  39.6629736
  44.4284398  44.7018798  41.2378998  44.1208775  43.8001549  40.7083738
  43.9028796  44.9827263  42.5204838  43.1993174  44.2914996  42.9844943
  42.3844048  48.3524389  43.6658363  41.8548260  48.3578824  42.5235724
  43.0533797  49.3737224  44.2134150  43.4327414  49.2982245  45.1464124
  43.2706901  50.6165021  43.4755181  42.8443716  50.5521246  42.4744151
  42.5757977  51.7593679  44.2326999  42.7590417  51.6354974  45.3000222
  42.9972130  52.7079257  43.8999127  41.1678337  51.7517420  43.9873505
  40.7551761  52.4723255  44.4690900  44.7624962  50.8784345  43.4069762
  45.4748713  50.7054431  44.4055105  45.2431756  51.3815473  42.2585691
  44.6542751  51.4992022  41.4465021  46.6237442  51.7311744  42.1502171
  47.1529891  51.0525805  42.8191786  47.1224262  51.5122576  40.6854128
  46.5082459  52.1012212  40.0042338  48.5542177  51.9408653  40.5642821
  49.1691271  51.3519847  41.2448751  48.8951854  51.7854828  39.5407108
  48.6406274  52.9971364  40.8190834  47.0975756  50.0036158  40.3794924
  47.8095891  49.5012628  41.0343047  46.0948748  49.6228952  40.5737663
  47.5019841  49.7131332  38.7970494  48.5048122  50.0931882  38.6021292
  47.4771358  48.6402584  38.6062051  46.7900987  50.2148229  38.1415905
  46.7412182  53.1838547  42.5766167  46.1699932  54.0704332  41.8941252
  47.3995663  53.4202026  43.6982791  47.8357789  52.6621152  44.2033746
  47.4199946  54.7746473  44.3060234  46.6741898  55.4088182  43.8267516
  47.1439788  54.7111546  45.8136142  47.1059614  55.7191231  46.2267180
  45.7725676  54.0049358  46.0402309  45.8099679  52.9966795  45.6277736
  45.5625118  53.9523651  47.1085069  44.9850905  54.5713339  45.5430667
  48.2287171  53.9737685  46.5793627  48.1995174  52.9263557  46.2790718
  49.1900126  54.4047445  46.2995947  48.0353366  54.0809678  48.1901846
  47.0743949  53.6497423  48.4707829  48.8369009  53.5369986  48.6898760
  48.0648878  55.1281320  48.4913055  48.6941931  55.5630006  44.0508836
  48.7618662  56.7398231  44.3982182  49.7120991  54.8853764  43.5242977
  49.6215802  53.8908416  43.3732806  50.9474119  55.5199185  43.1585099
  50.7298887  56.3207222  42.4517593  51.3999039  55.9412435  44.0561933
  51.9258326  54.5503483  42.5205980  51.5728781  53.4203763  42.1369794
  53.1516363  55.0282905  42.3739700  53.3584121  55.9777009  42.6495835
  54.2409795  54.2109158  41.8142549  55.0421177  54.1335130  42.5492962
  53.8591387  53.2154669  41.5875869  54.7928413  54.8265230  40.5477628
  54.2278970  55.7897680  40.0185644  55.8882406  54.2436943  40.0521218
  56.3214979  53.4701744  40.5359134  56.5262873  54.7432869  38.8194938
  56.3053930  55.8027000  38.6893068  58.0324385  54.5681208  38.9011657
  58.2348277  53.5099979  39.0670383  58.4542119  54.8723717  37.9432311
  58.6788284  55.4028703  40.0393042  58.5441519  56.4579009  39.8008230
  58.1141458  55.1593785  40.9392735  60.1627142  55.1196988  40.2767968
  60.8633745  54.5356763  39.4236105  60.6538735  55.5251025  41.3538722
  55.9597123  54.0115283  37.6172346  56.4489861  52.9521730  37.2724845
  54.9040658  54.5677665  37.0245876  54.5680562  55.4467106  37.3915402
  54.2191511  53.9922192  35.8677125  54.9611246  53.7472267  35.1077433
  53.4317632  52.7103690  36.2203728  52.8950254  52.2774809  35.3762048
  54.1539566  51.9877080  36.6002386  52.4355182  52.9174532  37.2940454
  51.1871682  53.4721208  37.0709305  50.5561681  53.5763462  38.2380440
  49.5355308  53.9564057  38.2822387  51.3697481  53.1595519  39.1952060
  51.1735785  53.1671526  40.1859429  52.5336698  52.7105681  38.6277301
  53.3170008  52.2849406  39.2548944  53.2368447  55.0511103  35.3757399
  53.0564846  56.1045617  36.0203758  52.5702899  54.7793267  34.2626773
  52.7476919  53.9273131  33.7501339  51.7041833  55.7898683  33.6513190
  51.9397385  56.7748014  34.0544563  51.9197675  55.8193861  32.0985096
  51.5354236  54.8892183  31.6799800  51.3596455  56.6601364  31.6892392
  53.3483179  55.9630077  31.7493143  53.7640886  56.8107195  32.2939429
  53.8773490  55.0537131  32.0346414  53.5105739  56.1983036  30.2258384
  54.5755238  56.3149552  30.0249080  53.1406276  55.3083927  29.7166254
  52.8034964  57.3671419  29.7005838  53.0169118  58.2476148  30.1470374
  51.9186562  57.3564743  28.7139725  51.5390053  56.2189188  28.1335092
  51.9291225  55.3413170  28.4461172  50.8628296  56.2393919  27.3835313
  51.3924183  58.5202319  28.2733775  51.6758125  59.3918044  28.6978172
  50.7180105  58.5133713  27.5215625  50.2052379  55.7789277  33.9759726
  49.4574864  56.6658287  33.5152000  49.7322365  54.8183019  34.7759606
  50.3733954  54.1442881  35.1693051  48.3009421  54.6546436  35.0446263
  47.7433740  54.9813779  34.1668669  47.9122469  53.1986794  35.3605509
  48.4684649  53.0210600  36.2809705  46.8436760  53.1239135  35.5622098
  48.3126241  52.1413492  34.3041779  49.3730838  52.2512022  34.0773336
  48.0412026  50.6950076  34.8435287  46.9807962  50.5842394  35.0701727
  48.3287730  49.9647096  34.0871764  48.6250079  50.5287742  35.7488675
  47.6374071  52.3938589  32.9656037  47.9265660  53.3760673  32.5917677
  47.9455837  51.6291365  32.2526324  46.5552922  52.3576657  33.0913677
  47.8011124  55.5332258  36.1628327  48.3732970  55.5711631  37.2447322
  46.7202424  56.2299455  35.9076450  46.3326428  56.2907665  34.9769642
  46.1306536  57.0505354  36.9558927  46.6380943  56.8163412  37.8917112
  46.2537918  58.6420040  36.6847791  45.8052041  59.1701216  37.5261834
  47.6978268  59.0724133  36.5308940  48.1469819  58.5450243  35.6893358
  47.7400750  60.1465095  36.3502522  48.2470843  58.8358831  37.4421954
  45.5662480  58.9500920  35.5012440  45.6318189  59.8922515  35.3290918
  44.6963739  56.6424010  37.2015692  43.9155829  56.3519285  36.2656332
  44.3573099  56.5871339  38.4813700  45.0756475  56.7269885  39.1774527
  43.0253154  56.1809789  38.9309553  43.0302051  55.9880907  40.0037412
  42.0085189  57.3224530  38.6353077  42.0790624  57.5399569  37.5695615
  40.9832692  57.0468147  38.8822620  42.3754254  58.5781811  39.4133281
  42.7745326  59.6257582  38.8262254  42.3222050  58.4798868  40.7243074
  42.5541691  59.2785659  41.2973730  42.0496330  57.6062104  41.1515015
  42.5601582  54.8412606  38.3961312  41.3565344  54.6353803  38.1452766
  43.5190512  53.9212152  38.2857560  44.4868059  54.1716424  38.4301043
  43.1996381  52.5171053  37.9800440  42.5254863  52.4570905  37.1256338
  44.5085762  51.7610722  37.6326407  45.0167149  52.3085502  36.8388133
  45.1372505  51.7461463  38.5229474  44.2453141  50.3420968  37.1776267
  44.1292762  50.0295809  35.8026423  44.2439813  50.8261160  35.0674730
  43.8659097  48.6938145  35.3727129  43.7985657  48.4543986  34.3114652
  43.7433193  47.6769493  36.3297781  43.4798727  46.3502993  35.9260572
  43.4033253  46.2562028  34.9737515  43.8329296  47.9803270  37.7079366
  43.6856513  47.1906292  38.4446774  44.1097609  49.2895758  38.1288927
  44.2228760  49.5082130  39.1907320  42.5585108  51.8229978  39.2010351
  43.0769430  51.8878549  40.3193077  41.4371541  51.1489581  38.9571051
  41.0260234  51.1641039  38.0346944  40.7536428  50.3814599  40.0146630
  41.4671613  50.1046124  40.7907725  39.6248949  51.2329128  40.6588231
  40.0844163  52.1539493  41.0174748  38.9110365  51.4672033  39.8691306
  38.9109046  50.5546874  41.7939786  38.5488889  49.5897159  41.4391893
  39.6269791  50.3991820  42.6009219  37.6996256  51.4055470  42.3251906
  38.0178630  52.4397886  42.4562183  36.8872481  51.3650689  41.5995848
  37.1961982  50.8267141  43.7158269  38.0953075  50.6703896  44.3118685
  36.5968325  51.6190315  44.1642610  36.3844246  49.5379570  43.6741883
  36.9397825  48.8035406  43.2590860  36.1243926  49.2733830  44.6135944
  35.5510308  49.6827195  43.1222845  40.1890000  49.1431292  39.3744056
  39.5456232  49.2341284  38.3236361  40.3933369  47.9765558  39.9993639
  41.0020133  47.8942425  40.8011350  39.8145166  46.7557409  39.4401941
  39.0765170  47.0367703  38.6888764  40.8743102  45.8215598  38.7738907
  40.3604094  44.9924266  38.2875334  41.4304652  46.3907434  38.0290271
  41.7666490  45.3177777  39.7425495  42.4107023  44.7464137  39.3178868
  39.0129477  46.0019678  40.4975773  39.2526302  46.1578357  41.7226469
  38.0854096  45.1778251  40.0194070  37.8906871  45.1354601  39.0292617
  37.3208401  44.3191985  40.9097012  37.7621766  44.2469889  41.9037369
  35.8747104  44.8675744  41.0475192  35.5255983  45.1124575  40.0443980
  34.8798528  43.8689651  41.7144006  35.2280780  43.6239532  42.7177996
  33.8918139  44.3253158  41.7745967  34.8232803  42.9586100  41.1176135
  35.8891398  46.1582143  41.8355937  36.5053293  46.8935692  41.3182296
  34.8720081  46.5386797  41.9293423  36.3005007  45.9739616  42.8280321
  37.3309615  42.9222250  40.2656386  37.1115857  42.7794629  39.0722056
  37.5563907  41.9019776  41.0980766  37.6190052  42.0887908  42.0886721
  37.6440518  40.5252293  40.6512335  37.4857096  40.4505864  39.5753825
  39.0304524  39.9733596  40.9801747  39.2197723  40.1005858  42.0460414
  39.1164883  38.4203429  40.6052468  38.9277231  38.2923627  39.5393724
  40.1102440  38.0425127  40.8456487  38.3701929  37.8666212  41.1749274
  39.9834804  40.7175301  40.2393936  40.8648642  40.3882260  40.4299764
  36.5953317  39.6908903  41.4698650  36.5983834  39.7379142  42.7244786
  35.7331674  38.9629582  40.7834093  35.7440668  39.0158379  39.7748537
  34.6985142  38.1623626  41.4212411  34.8678369  38.1720421  42.4979655
  33.2967396  38.6831354  41.1450789  32.5776178  38.0375654  41.6492649
  33.1357368  40.1204274  41.6521005  33.8542657  40.7667176  41.1479926
  32.1245442  40.4691237  41.4423397  33.3137315  40.1491245  42.7270865
  33.0198344  38.6783579  39.7319265  32.1320287  39.0099045  39.5787003
  34.8248021  36.7164839  41.0144350  35.1478782  36.4295034  39.8612633
  34.5889585  35.8074298  41.9721904  34.3437095  36.1009839  42.9069515
  34.7605589  34.3428796  41.7099497  35.0948726  34.1577816  40.6891303
  35.8011996  33.7488541  42.6857271  35.4469345  33.9151451  43.7030484
  36.0119746  32.2640003  42.4605824  36.3667083  32.0969488  41.4435481
  36.7513547  31.8899597  43.1687569  35.0695662  31.7363493  42.6073902
  37.1397330  34.4829079  42.5251048  37.0026249  35.5417801  42.7444062
  37.8709754  34.0612779  43.2147513  37.4974237  34.3676511  41.5019362
  33.4087978  33.6238088  41.8149164  32.6804841  33.8168239  42.8174563
  33.0486322  32.8489789  40.7939030  33.7029276  32.6983359  40.0393809
  31.7289625  32.2349363  40.6978319  31.1463102  32.4241753  41.5993884
  30.9929656  32.8543443  39.4980435  31.5580866  32.5853206  38.6056514
  29.9561601  32.5395640  39.3795200  30.9817708  34.3421085  39.5628377
  30.0172308  35.0343572  40.2809626  30.2877158  36.3332706  40.2173323
  29.6434547  37.0557630  40.7183626  31.3900910  36.5029231  39.4887783
  31.8216497  37.3885237  39.2661380  31.8547532  35.2758219  39.0824931
  32.7667676  35.2074488  38.4894870  31.7626308  30.7368232  40.5402108
  32.5051800  30.2002548  39.6985760  30.9486788  30.0533577  41.3623294
  30.4766526  30.5605117  42.0972345  30.7084452  28.5812989  41.2492946
  31.6352416  28.0595024  41.0108076  30.1822694  28.0572547  42.5918819
  30.8744720  28.3891973  43.3656835  29.2057448  28.5115860  42.7594613
  30.0538328  26.5622637  42.6436032  29.2827005  26.2308559  41.9481719
  31.0040600  26.0979071  42.3798925  29.6723494  26.1630079  44.0417059
  30.3405148  26.6493515  44.7524265  28.6457689  26.4715761  44.2392347
  29.7690595  24.7207471  44.2219475  30.6372201  24.3651907  44.5960815
  28.8038465  23.8593645  43.9365952  27.6464799  24.2824795  43.4338217
  27.5016643  25.2681960  43.2680162  26.9183044  23.6159155  43.2203917
  29.0030148  22.5612907  44.1512818  29.8847217  22.2443981  44.5284716
  28.2715638  21.8989055  43.9360520  29.7005896  28.1882783  40.1829688
  28.6185447  28.8218124  40.0278221  30.0589343  27.1511319  39.4144271
  31.0119580  26.8184955  39.4490411  29.1320046  26.5030646  38.4886117
  28.1204213  26.8627619  38.6768042  29.4957036  26.8079451  37.0405990
  30.5622226  26.7014859  36.8423497  28.9374794  26.1272125  36.3978791
  29.1173424  28.2022188  36.6222251  27.8874219  28.4399522  36.0458949
  27.2063781  27.6057594  35.8773674  27.5105504  29.7351951  35.6786844
  26.5495443  29.9281229  35.2018753  28.3996221  30.8042232  35.9354558
  28.0987017  31.8225805  35.6894983  29.6511374  30.5644515  36.4979475
  30.3616460  31.3775487  36.6467781  29.9869094  29.2784206  36.8683145
  30.9399656  29.0842202  37.3603207  29.1392182  24.9904998  38.7250468
  30.1747652  24.4248929  39.0332746  27.9774863  24.3718027  38.5909759
  27.1406419  24.9028360  38.3965679  27.8600083  22.9160705  38.7348040
  28.8086597  22.4503646  38.4678251  27.5072970  22.5194754  40.1715601
  28.3427800  22.8368113  40.7955516  26.6169114  23.0875224  40.4410712
  27.2377170  20.9820986  40.3967403  26.2732891  20.7339313  39.9535784
  28.0257515  20.4324680  39.8819520  27.2320784  20.5942912  41.8910229
  27.0170672  21.4896723  42.7491866  27.4328429  19.3868590  42.2123470
  26.7866834  22.4400928  37.7975592  25.7139218  23.0538728  37.7163895
  27.0854969  21.3658613  37.0812643  27.9883872  20.9348776  37.2196166
  26.1866572  20.7884629  36.0792527  25.1607075  20.7969491  36.4472939
  26.2502792  21.6124598  34.7816694  26.0200642  22.6375060  35.0721527
  27.2857748  21.5542507  34.4463179  25.3272788  21.1870617  33.6512789
  25.5769895  20.1730720  33.3389166  24.2931426  21.2166761  33.9944805
  25.4990151  22.1410991  32.4688554  25.1661183  23.1289896  32.7872125
  26.5601123  22.1778265  32.2222318  24.7085615  21.7108530  31.2428781
  25.1251508  20.7814203  30.8546659  23.6674454  21.5522779  31.5240015
  24.7844675  22.7709498  30.1873009  25.7490714  22.9177376  29.9263556
  24.2574043  22.4777020  29.3771712  24.3981053  23.6321519  30.5466813
  26.6763159  19.3533298  35.8889465  27.8359990  19.1362484  35.5291345
  25.7923598  18.3802362  36.1632941  24.8241553  18.6540981  36.2509241
  26.1371783  16.9546698  36.3496665  25.2140190  16.3760123  36.3175481
  27.0988866  16.4038015  35.2866119  28.0061070  17.0050144  35.3465581
  27.3245893  15.3768077  35.5737388  26.5671688  16.4266571  33.8553234
  25.5483777  16.0394730  33.8712592  26.5566475  17.4616737  33.5136669
  27.4218939  15.5800010  32.8980332  28.6798214  15.5358270  33.0745580
  26.8239705  14.9648004  31.9688116  26.7864085  16.8280964  37.7021233
  26.3493375  17.4470778  38.6761258  27.8354588  16.0265260  37.7767706
  28.0661119  15.3609540  37.0529527  28.6338639  16.0340127  38.9790781
  28.0893242  16.5542573  39.7670637  28.9344840  14.5983429  39.4532794
  27.9979971  14.0772782  39.6522346  29.4875050  14.0675052  38.6783735
  29.7673931  14.6051758  40.7271326  30.1110114  15.6668917  41.2420375
  30.0919621  13.4141945  41.2355049  30.6436967  13.3623436  42.0798983
  29.7842945  12.5704547  40.7733961  29.9167585  16.8432713  38.7254690
  30.9362865  16.6197498  39.3962185  29.8578186  17.8006763  37.7851739
  29.0597951  17.8634015  37.1692815  31.0660922  18.5817985  37.4480241
  31.8908439  18.2526781  38.0801345  31.4728965  18.4038564  35.9789122
  32.5567283  18.5196299  35.9768656  31.2179980  17.3701270  35.7453945
  30.8629327  19.3248330  34.9330392  29.8750450  18.9651298  34.6453026
  30.7797603  20.3379254  35.3265214  31.7993746  19.3273087  33.6843774
  31.8478508  18.3336390  33.2389903  31.4455942  20.0413704  32.9407009
  33.1521988  19.7201140  34.1088733  33.6306672  19.0869024  34.7335415
  33.7775048  20.8407438  33.7345695  33.1793611  21.6664965  32.8695935
  32.2644772  21.4377634  32.5079740  33.6451608  22.5152010  32.5817899
  35.0001520  21.1252779  34.2240675  35.4411945  20.4897929  34.8734830
  35.4700628  21.9727598  33.9393629  31.0245018  20.0486209  37.9480005
  30.0688557  20.7626647  37.7279959  32.0602744  20.4427110  38.6758289
  32.8598810  19.8347026  38.7809688  32.0945029  21.7512287  39.3261087
  31.1627211  22.3104303  39.2414006  32.4489171  21.5707445  40.8064955
  33.3494060  20.9612642  40.8823493  32.6938546  22.9277515  41.4724127
  31.7935899  23.5376628  41.3973625  32.9439918  22.7777992  42.5226728
  33.5185776  23.4350986  40.9718829  31.3428065  20.7402215  41.5149191
  30.4548293  21.3679268  41.5896401  31.1246941  19.8764022  40.8869520
  31.7637973  20.2496683  42.9574947  31.9816325  21.1130083  43.5862170
  30.9489611  19.6757806  43.3988495  32.6514994  19.6214851  42.8835289
  33.1768428  22.5825922  38.6282326  34.2845816  22.1096912  38.4818617
  32.8713812  23.8025404  38.1813583  31.9265891  24.1536711  38.1167481
  33.9688905  24.6412905  37.6524684  34.9194691  24.2916104  38.0552380
  34.0306773  24.5728146  36.1166772  34.9466023  25.0270870  35.7387655
  34.0128281  23.5161632  35.8497142  32.8846463  25.2265576  35.3741887
  32.8834337  26.4831019  34.7921578  33.7885540  27.0768371  34.9199676
  31.6863018  26.7198497  34.1501470  31.4381921  27.5669544  33.6592756
  30.8811780  25.6286387  34.3047668  29.5718077  25.4090742  33.8498670
  29.0780976  26.1939016  33.2768095  28.9876203  24.1971218  34.1624665
  27.9722096  23.9860129  33.8270949  29.6758070  23.2231966  34.9075959
  29.1995045  22.2732652  35.1502186  30.9799409  23.4364995  35.3582094
  31.4768057  22.6324985  35.9011722  31.5990999  24.6635800  35.0741079
  33.7913720  26.0752054  38.1792341  32.8311548  26.3744341  38.9284650
  34.7442537  26.9310187  37.8254346  35.4879790  26.6257636  37.2140498
  34.7389431  28.3198730  38.2669067  33.8522895  28.5279885  38.8657661
  35.9863817  28.5921040  39.1246112  36.8685564  28.3613445  38.5274361
  36.0507678  30.0066135  39.5769080  35.1690899  30.2379955  40.1745752
  36.9468172  30.1555284  40.1794186  36.0836749  30.6650343  38.7088644
  35.9918900  27.7479526  40.3020912  36.7764061  27.9318043  40.8239469
  34.7864991  29.2635124  37.0369737  35.4274957  28.9615448  36.0233402
  34.1055467  30.4024288  37.1704696  33.4084657  30.4887757  37.8962255
  34.3039312  31.5390064  36.2534194  35.0733378  31.2755084  35.5276912
  33.0209184  31.9146020  35.4945893  32.2164637  32.0597275  36.2156237
  33.2261032  33.2369699  34.6643360  34.0301481  33.0924567  33.9427207
  32.3044552  33.4818309  34.1364075  33.4859271  34.0531898  35.3384118
  32.6380755  30.7685580  34.5209763  32.4692072  29.8520470  35.0863021
  31.7282674  31.0362772  33.9836912  33.4474495  30.6111791  33.8080622
  34.8003798  32.6868410  37.1157241  34.2374718  33.0012796  38.1935186
  35.9041077  33.2760554  36.6838769  36.4372641  32.8967678  35.9144717
  36.3630300  34.4928272  37.2967414  35.8801796  34.6395626  38.2628798
  37.8745521  34.4561372  37.5073804  38.3535740  34.2349586  36.5535894
  38.4098036  35.8397073  38.0576898  37.9315441  36.0613594  39.0117544
  39.4892785  35.7825654  38.1975798  38.1778356  36.6296706  37.3433716
  38.2487922  33.3336770  38.5107828  37.9200586  32.3710600  38.1191136
  39.3294190  33.3177966  38.6525336  37.7602105  33.5224111  39.4666950
  36.0169837  35.6677453  36.3476738  36.2447394  35.5671365  35.1100768
  35.5149988  36.7577057  36.9254769  35.3011909  36.7488014  37.9125464
  35.2967523  38.0213654  36.1668145  35.5151306  37.8525488  35.1123426
  33.8646651  38.5005242  36.2941066  33.7525101  38.6375749  37.3696240
  33.7531469  39.4616962  35.7922976  32.7969553  37.5392160  35.7914107
  32.9404110  36.5696066  36.2682534  31.3757552  38.0773072  36.1279716
  31.2313793  39.0467456  35.6510611  30.6252787  37.3771113  35.7610774
  31.2739274  38.1854263  37.2078058  32.9886223  37.2853370  34.2670127
  33.9734663  36.8525779  34.0912254  32.2213158  36.5965599  33.9135609
  32.9054351  38.2289156  33.7277185  36.1959511  39.0675511  36.7779765
  36.2462781  39.1819864  37.9983739  36.9238158  39.8211289  35.9362055
  36.9530148  39.6052993  34.9499680  37.7344190  40.9271484  36.4249432
  37.4182260  41.1789836  37.4372179  39.2389277  40.5772115  36.4503789
  39.3868934  39.7377240  37.1296919  39.5433754  40.2880063  35.4445102
  40.0711018  41.7481878  36.9100253  40.0994534  42.5012005  36.1224538
  39.5724003  42.1596223  37.7875888  41.5013775  41.3419533  37.2794059
  41.6543436  40.2835893  37.8694677  42.4592264  42.0525617  36.9578530
  37.4599325  42.1181414  35.5357487  37.5050172  41.9913705  34.3017335
  37.1018555  43.2560513  36.1404287  36.8723835  43.3007590  37.1229984
  36.9691121  44.4843803  35.3347562  37.3178298  44.3082629  34.3171719
  35.4917322  44.9070976  35.2816074  35.4043616  45.7782375  34.6323147
  34.9112724  44.0841211  34.8646230  35.0005681  45.2257988  36.5632245
  34.0786084  45.4850899  36.4972077  37.8492723  45.5845262  35.9188108
  38.2520404  45.5056065  37.0753325  38.1286912  46.6259197  35.1384040
  37.8372185  46.6446155  34.1715568  38.8424237  47.7813893  35.6674124
  38.7333669  47.7847988  36.7519373  40.3715871  47.7830063  35.3173631
  40.7804475  48.7005877  35.7404198  40.8481201  46.9228573  35.7876396
  40.6392524  47.7530630  33.8064575  40.6552017  48.9438130  33.0462088
  40.5109963  49.8953764  33.5579035  40.8473001  48.9175766  31.6905640
  40.8176415  49.8467757  31.1215199  41.0308491  47.7218238  31.0427430
  41.2442036  47.7471268  29.6810258  41.2412927  48.6355641  29.3173360
  41.0477743  46.5204728  31.7538197  41.2230851  45.5724261  31.2453178
  40.8376286  46.5437391  33.1258191  40.8250250  45.6118756  33.6911258
  38.2420763  49.0423479  35.0566036  37.5526599  48.9728397  34.0135625
  38.5472073  50.1563682  35.7207261  38.8703627  50.0861453  36.6750524
  38.3659491  51.4911944  35.1453700  38.1983472  51.4488150  34.0691671
  37.1667238  52.2525294  35.8096724  36.2466734  51.6960998  35.6308075
  37.3985549  52.3871429  37.3278198  38.3182505  52.9439014  37.5074885
  36.5595461  52.9173646  37.7784079  37.4820175  51.3954734  37.7724851
  36.9672995  53.6561170  35.1392591  36.7586183  53.5257979  34.0773876
  36.1309176  54.1700768  35.6129788  37.8735563  54.2494424  35.2607677
  39.6784230  52.2108391  35.3210992  40.3986302  51.9839329  36.3046053
  40.0461966  53.0659190  34.3568426  39.4751184  53.2283454  33.5397829
  41.3163554  53.7901465  34.4725849  41.5282395  54.1783948  35.4688115
  42.5179973  52.8721515  34.0232263  42.5490843  51.9975558  34.6730072
  42.3571897  52.4166112  32.5530542  42.3264863  53.2907055  31.9025794
  43.2008108  51.7856259  32.2733018  41.4308418  51.8521821  32.4462792
  43.8513718  53.5255164  34.2609164  43.9676689  53.7390579  35.3234497
  44.6477397  52.8558784  33.9361353  43.9065829  54.4558843  33.6957013
  41.2225186  55.0236586  33.5691146  40.4546051  55.0218286  32.6180564
  41.9922724  56.0457441  33.8951149  42.5277483  56.0174859  34.7510159
  42.1321504  57.2144999  33.0284287  41.1494267  57.5829279  32.7341259
  42.8680048  58.3275932  33.7733627  43.8599283  57.9478073  34.0182089
  42.9613168  59.1736207  33.0924587  42.1682499  58.7775973  35.0484664
  40.9517150  58.5415047  35.1960469  42.8887307  59.3854273  35.8975236
  42.9694170  56.9018190  31.7731709  43.8931589  56.0881816  31.7961927
  42.7027228  57.5794817  30.6524223  41.9040078  58.1916437  30.5663324
  43.6053759  57.4551017  29.5120746  43.9137625  56.4151950  29.4044138
  42.9101117  57.9075107  28.1926945  42.4235165  58.8595014  28.4049160
  43.7005520  58.0599459  27.4578016  41.8775375  56.9187664  27.6351282
  41.8048861  57.1371805  26.5697091  42.3119153  55.9287119  27.7737280
  40.2202073  56.9487678  28.3631650  39.5626968  58.4970807  27.6235739
  39.5644781  58.4106332  26.5370093  38.5435071  58.6628481  27.9726788
  40.1895293  59.3374995  27.9216989  44.7833099  58.3677693  29.8006894
  44.5547440  59.5732765  30.0791065  46.0314529  57.8395869  29.7429619
  46.4607519  56.4340575  29.5997125  46.0281155  56.0114086  28.6929083
  46.1246907  55.8604539  30.4635069  47.9642125  56.5404042  29.5293506
  48.2596896  56.4016144  28.4893844  48.3842257  55.7381348  30.1360252
  48.3838444  57.8574287  30.0362922  49.1550339  58.2240058  29.3588064
  48.7737528  57.8392130  31.0540050  47.1576407  58.7626959  29.9647537
  46.9668861  59.3324689  30.8741874  47.3267934  59.7306865  28.7795674
  46.7692587  59.4978233  27.7039323  48.1000707  60.7823097  29.0107515
  48.5899769  60.8315117  29.8926077  48.2621902  61.9094660  28.0481811
  47.2963318  62.3585004  27.8166970  49.1642846  62.9836061  28.6870589
  48.7330533  63.1901971  29.6665787  50.1409911  62.5161072  28.8119157
  49.3255502  64.3264786  27.8935706  49.2258915  64.1245593  26.8270822
  48.5216435  64.9891490  28.2140409  50.6913961  65.0037675  28.1648948
  51.0852195  65.1824591  29.3484236  51.3873067  65.3403877  27.1836486
  48.8668907  61.3629801  26.7826142  49.8385627  60.6146213  26.8425606
  48.2738669  61.6907538  25.6242278  47.4551254  62.2817998  25.6035795
  48.7999823  61.1991490  24.3632927  48.5877502  61.9542143  23.6063692
  49.8787608  61.0954527  24.4798410  48.2241916  59.8753584  23.9128281
  48.4934917  59.4445000  22.8050359  47.4141801  59.2224150  24.7504021
  47.2012119  59.6002122  25.6625497  46.8674852  57.9210014  24.3980482
  47.2122097  57.6258193  23.4070225  47.3301017  56.8707360  25.4094223
  47.1147283  57.2567307  26.4057765  46.7965065  55.9319582  25.2608541
  48.7786399  56.6108554  25.3075153  49.5273096  57.0253325  26.1754948
  49.2109552  55.9478488  24.2144281  50.1950591  55.7489170  24.1045849
  48.5484342  55.6535929  23.5111641  45.3541419  57.9100350  24.3129144
  44.6457933  58.5692648  25.1024866  44.8578046  57.1285267  23.3688598
  45.4925729  56.6371031  22.7559394  43.4511851  56.9668087  23.1598674
  42.9284326  57.9111868  23.3114554  43.2203579  56.5081829  21.7298166
  42.1479552  56.4854408  21.5360780  43.6966144  57.2163148  21.0517098
  43.7737949  55.1957396  21.5189304  43.6178040  54.9247516  20.6112784
  42.8198787  55.9519173  24.1219410  43.5610080  55.2144095  24.8417345
  41.4786841  55.9017898  24.1286778  40.9277823  56.6197204  23.6801444
  40.7663863  54.7962690  24.8202562  41.0248836  54.8487324  25.8778600
  39.2430299  54.8300018  24.6871878  38.9913563  54.8763042  23.6276522
  38.8399979  53.9125476  25.1160736  38.6514239  56.0136582  25.3934476
  39.0272005  56.0019708  26.4165586  39.0299733  56.8963083  24.8779593
  37.1359028  56.0510772  25.4124681  36.4820109  54.9686094  25.4292855
  36.6101329  57.1987501  25.4240800  41.2265566  53.4548303  24.2880950
  41.5133456  52.5497548  25.0732953  41.3144988  53.3289973  22.9637230
  40.9992952  54.0544387  22.3356460  41.7850312  52.0711144  22.3885265
  41.1556996  51.2471636  22.7248984  41.7235617  52.1415743  20.8484064
  42.0969892  53.1285376  20.5753595  42.3758272  51.3772309  20.4259980
  40.2812851  51.9596204  20.2893225  39.3600103  51.4361152  20.9953396
  40.0810019  52.3219140  19.0838811  43.1929943  51.6809283  22.8634420
  43.4434789  50.4798110  23.2067212  44.1125285  52.6465665  22.8833810
  43.8695728  53.6044611  22.6747907  45.4942658  52.3530848  23.3206869
  45.9432168  51.6408132  22.6284359  46.3512602  53.5965775  23.3571083
  45.7584470  54.3440128  23.8843770  47.2574825  53.3856887  23.9248998
  46.7336647  54.1355301  21.9567756  46.6402163  53.3927049  20.9373874
  47.1683421  55.3217622  21.9635571  45.4508606  51.8661563  24.7702740
  46.1732419  50.9066881  25.1517790  44.6192148  52.5472444  25.5665562
  44.0140071  53.2621131  25.1886863  44.6125552  52.3205695  27.0499638
  45.6461873  52.3386660  27.3954727  43.8439189  53.4680544  27.7351073
  42.7932685  53.4276149  27.4477074  43.9649653  53.3164037  29.2760261
  45.0153749  53.3572144  29.5642511  43.4228581  54.1258050  29.7649930
  43.5417387  52.3596057  29.5818323  44.4941629  54.7152070  27.3517444
  44.0384494  55.4532723  27.7630656  44.0179330  50.9897731  27.3783819
  44.6288721  50.1874783  28.1710599  42.8628757  50.7144810  26.7706460
  42.3048484  51.4275790  26.3232134  42.2961140  49.3678415  26.9010621
  42.2416785  49.1095959  27.9586278  40.8878920  49.2648438  26.2977153
  40.9386210  49.6067124  25.2639592  40.5882066  48.2170685  26.3190583
  39.8482857  50.1153261  27.0725957  39.7682399  49.6941673  28.0747528
  40.2425727  51.1295534  27.1357045  38.4516166  50.1464156  26.4146308
  37.8365888  50.9070224  26.8955852  38.5510107  50.3774846  25.3540520
  37.7937766  48.8640691  26.5502586  38.2273671  48.1956619  27.1710085
  36.6766954  48.5129627  25.9200944  36.0845125  49.3515609  25.0698989
  36.4866230  50.2626323  24.9015061  35.2364097  49.0720656  24.5979840
  36.1468846  47.3155199  26.1443669  36.5949002  46.6814073  26.7903416
  35.2985109  47.0447652  25.6678664  43.2215652  48.2771127  26.3693096
  43.3152277  47.2076356  26.9691988  43.9149164  48.5027904  25.2590666
  43.8372774  49.3576595  24.7268351  44.8079649  47.4520157  24.7603251
  44.2343277  46.5366603  24.6148465  45.4644060  47.8409815  23.4190676
  45.8373620  48.8603297  23.5187287  46.3016146  47.1628747  23.2536803
  44.5066343  47.7639642  22.2346971  43.9282799  46.8401755  22.2495785
  43.8279313  48.6166566  22.2152060  45.5448111  47.7938200  20.7468589
  47.2135781  48.1023682  21.4182371  47.4848793  47.2984061  22.1024443
  47.9332825  48.1412495  20.6005486  47.2206617  49.0519944  21.9532710
  45.9205623  47.1159595  25.7395759  46.2737552  45.9489488  25.9089535
  46.5398119  48.1596180  26.2960845  46.2893167  49.0903715  25.9943405
  47.6013420  48.0153439  27.3046219  48.4307223  47.4459816  26.8850338
  48.1339959  49.4169045  27.7552990  48.5686872  49.8952100  26.8775937
  47.3600990  50.0606316  28.1733889  49.2379776  49.3323250  28.7957805
  50.5558939  49.1962805  28.4051737  50.7856833  49.1906041  27.3396858
  51.5990391  49.0658065  29.3558186  52.6334570  48.9705106  29.0256687
  51.3024343  49.0596983  30.6990435  52.1044354  48.9806129  31.4329643
  49.9682583  49.1552017  31.1248787  49.7329434  49.1099399  32.1882123
  48.9336479  49.3093987  30.1800112  47.9010905  49.4108237  30.5141342
  47.0645191  47.2308041  28.5363639  47.5934539  46.1546558  28.8685415
  46.0036535  47.7386115  29.1829362  45.5890433  48.6156101  28.9017402
  45.4761386  47.0683078  30.3976353  46.3117708  46.9489190  31.0872470
  44.3807506  47.9415730  31.0874608  43.5334161  48.0624654  30.4125466
  44.0484372  47.4521560  32.0029601  44.7946851  48.9205392  31.3290859
  44.9401228  45.6527458  30.0828061  45.1693989  44.6874304  30.8911882
  44.2577313  45.5010253  28.9441105  44.0581804  46.2945821  28.3520409
  43.7340881  44.1606585  28.5341782  43.0680601  43.7765931  29.3068358
  42.9455436  44.2579347  27.2045738  43.5632540  44.8017619  26.4898815
  42.7988251  43.2364025  26.8537951  41.5921166  44.9494157  27.3359753
  41.1241231  45.3132926  28.4490982  41.0054338  45.1312565  26.2374503
  44.8432202  43.1123988  28.3629402  44.7053862  41.9301598  28.8096133
  45.9800262  43.5179956  27.7749059  46.0702666  44.4513112  27.3995685
  47.0980616  42.6045017  27.6240866  46.8130682  41.7475227  27.0137876
  48.2824565  43.3259811  26.9403628  48.5323773  44.2085801  27.5291403
  49.5219345  42.4136056  26.8303903  49.2728998  41.5309549  26.2413155
  50.3320450  42.9573875  26.3444670  49.8376941  42.1070362  27.8275922
  47.8392771  43.7138076  25.6385703  48.5506017  44.1672359  25.1802905
  47.5207512  42.0594215  28.9811641  47.7182033  40.8173723  29.1531974
  47.6424283  42.9581860  29.9643299  47.5060870  43.9453587  29.8000118
  48.0826489  42.5218331  31.3191641  48.9418643  41.8568877  31.2314392
  48.4795633  43.7393484  32.2395339  47.6573896  44.4549801  32.2404536
  48.7720224  43.2727091  33.7185746  49.5944448  42.5573615  33.7185138
  49.0425309  44.1364934  34.3258656  47.8813621  42.8015305  34.1342867
  49.7112098  44.4125031  31.6664355  49.4955100  44.7691813  30.6592830
  49.9919334  45.2556797  32.2975829  50.5329444  43.6973022  31.6298197
  47.0056340  41.6628841  31.9983405  47.3108277  40.5601920  32.5367130
  45.7761880  42.1810468  32.0455310  45.5803509  43.0883365  31.6473193
  44.6897794  41.4848803  32.7774104  45.0393693  41.2943840  33.7921011
  43.3764207  42.3418561  32.8518649  43.0686864  42.6192792  31.8436807
  42.2494330  41.5177154  33.5277092  42.5562708  41.2403014  34.5361699
  41.3401378  42.1167581  33.5770104  42.0588257  40.6161330  32.9455410
  43.6194788  43.6076230  33.7044628  44.4117222  44.2042837  33.2523030
  42.7033827  44.1964402  33.7509597  43.9150160  43.3162025  34.7123480
  44.4139904  40.1120810  32.1601223  44.2622772  39.0963282  32.8735082
  44.4237540  40.0289169  30.8369619  44.5785570  40.8135533  30.2201305
  44.1035436  38.7275393  30.2400619  43.2015449  38.3324095  30.7073626
  43.8619608  38.8377545  28.7079221  44.7132870  39.3750672  28.2900249
  43.8461523  37.8211721  28.3149712  42.5587384  39.5587393  28.3177395
  41.7332017  38.9906602  28.7465473  42.5895429  40.5505714  28.7687630
  42.3477631  39.6968805  26.7503390  42.0526718  38.7228141  26.3601920
  41.5461389  40.4149524  26.5775069  43.6058901  40.1642706  26.0435031
  43.7257201  41.2300509  26.2380633  44.4513409  39.6210792  26.4657058
  43.5498454  39.9275087  24.5487182  42.7667531  40.4311034  24.1572357
  44.4061683  40.2535888  24.1238854  43.4392396  38.9399450  24.3682093
  45.1887223  37.6785445  30.5200430  44.8667236  36.5045754  30.7293451
  46.4639606  38.0847287  30.4820106  46.7106330  39.0327549  30.2360464
  47.5257330  37.1592729  30.7841565  47.4544933  36.2773232  30.1476120
  48.8787756  37.8411862  30.5286983  48.7658926  38.2261220  29.5151988
  49.0276799  38.6723326  31.2179901  50.1048298  36.8953524  30.5880578
  50.1370155  36.4384945  31.5771714  50.0309910  35.8017391  29.5247705
  49.9992396  36.2578466  28.5352977  50.9091744  35.1605457  29.6007036
  49.1317787  35.2051227  29.6782845  51.3967688  37.7078476  30.4871173
  51.4481883  38.4139941  31.3158589  52.2536704  37.0355275  30.5296211
  51.4104444  38.2538619  29.5438356  47.4164773  36.7284922  32.2610959
  47.6397202  35.5441803  32.6086720  47.1248952  37.6841894  33.1342549
  46.9538264  38.6372498  32.8470082  47.0573447  37.3592196  34.5976771
  48.0021084  36.9268025  34.9271256  46.7936150  38.6236569  35.4038600
  45.9938282  39.1662603  34.8998541  46.4753368  38.3633555  36.4133362
  48.0386441  39.5492400  35.4987832  49.1286119  39.1479820  35.2053020
  47.8277418  40.7764495  35.9520889  48.6010585  41.4208635  36.0346212
  46.8946512  41.0617319  36.2129657  45.9294734  36.3461548  34.8287508
  46.0941147  35.4020696  35.6314203  44.7757815  36.5605150  34.1771085
  44.5967698  37.3953286  33.6375342  43.6655376  35.5906017  34.3635031
  43.5513815  35.4167894  35.4334830  42.3108030  36.0532266  33.7923933
  42.5026499  36.2838398  32.7444851  41.5808986  35.2464077  33.8585963
  41.7550326  37.3113163  34.5040831  42.5105286  38.0959540  34.5449527
  40.5636793  37.7962199  33.6889299  39.8075113  37.0122344  33.6479986
  40.1400517  38.6848174  34.1569416  40.8895087  38.0391880  32.6775437
  41.3775601  36.9950047  35.9702238  42.2613854  36.6508443  36.5073514
  40.9898498  37.8945696  36.4483085  40.6150429  36.2163614  35.9897467
  44.0432778  34.2207219  33.8035143  43.6754426  33.1557533  34.3929846
  44.7752240  34.2071703  32.6825107  45.0014968  35.0576743  32.1869877
  45.2140162  32.9186724  32.1014594  44.3517714  32.2610727  31.9910258
  45.8595572  33.1137172  30.7273872  46.4087642  34.0552235  30.7334487
  46.5521054  32.2908370  30.5503416  44.8335912  33.1430304  29.6417705
  44.6599261  32.0995371  29.3789724  43.8971313  33.5958235  29.9675365
  45.3298121  33.8862647  28.3953884  46.5298038  34.2074680  28.2775989
  44.3971633  34.2364859  27.5141318  44.6612762  34.7286096  26.6726093
  43.4291232  34.0086942  27.6905142  46.1760378  32.2279827  33.0592627
  46.0898433  30.9873949  33.2581561  47.0605836  32.9980665  33.6955257
  47.1655333  33.9780632  33.4748648  48.0116206  32.3875355  34.6590664
  48.3947579  31.4580697  34.2378795  49.2108241  33.3223536  34.9705277
  49.7814702  33.4733043  34.0541892  48.8241114  34.2800052  35.3190340
  50.1368991  32.7073565  36.0637100  49.4964347  32.3994258  36.8901994
  50.6108611  31.8291424  35.6253013  51.2275759  33.6745154  36.5885934
  51.9254836  33.8504072  35.7700057  50.7323616  34.6095628  36.8504111
  52.0133556  33.1286387  37.8399167  51.3077732  33.0721022  38.6688061
  52.3640804  32.1265760  37.5930124  53.2150877  34.0084592  38.2465981
  52.8902612  34.9369179  38.4758402  53.6718920  33.6033667  39.0511662
  53.8692218  34.0606279  37.4788182  47.2821816  31.9429771  35.9369457
  47.5698815  30.8687081  36.4889964  46.2843037  32.6982199  36.3767662
  46.0977689  33.6101578  35.9847544  45.4415529  32.2317974  37.5014223
  46.0579914  32.1119937  38.3923486  44.3258454  33.2362397  37.8093306
  44.8814350  34.1174862  38.1299925  43.7615727  33.4715865  36.9069404
  43.3523769  32.8075274  38.9270711  42.8299530  31.9054610  38.6085581
  44.1257557  32.5198336  40.2734141  44.6480870  33.4216357  40.5928227
  43.4156213  32.2196996  41.0439525  44.8481608  31.7192963  40.1141309
  42.2529971  33.8514905  39.1022372  41.6988827  33.9563815  38.1694701
  41.5739061  33.5353982  39.8940846  42.6998992  34.8093600  39.3684393
  44.8399275  30.8548709  37.1636437  44.8299397  29.9556258  38.0219912
  44.2984624  30.7158267  35.9651479  44.2314257  31.4866777  35.3159991
  43.6984120  29.4341782  35.5858768  42.9125195  29.2169161  36.3092504
  43.0765915  29.5123387  34.2025348  43.8526825  29.7203573  33.4659813
  42.5963461  28.5630257  33.9653229  42.3338150  30.3098109  34.1820267
  44.7234036  28.2740767  35.6516553  44.4098023  27.1838715  36.1947059
  45.9261048  28.5180257  35.1147460  46.0829908  29.3923585  34.6340920
  47.0100250  27.5019647  35.1003824  46.6731636  26.5878225  34.6115394
  48.2289485  28.0627312  34.3183272  48.4839724  29.0339535  34.7423439
  49.4764409  27.1144382  34.3966170  49.2223063  26.1431003  33.9723318
  50.3015201  27.5514093  33.8341229  49.7733971  26.9890595  35.4378651
  47.8121912  28.2040482  32.9496242  48.5398367  28.5500181  32.4276690
  47.3716071  27.0567363  36.5070935  47.4049225  25.8364845  36.8037102
  47.6046867  28.0417422  37.3800554  47.5404138  29.0002105  37.0681149
  48.0170463  27.7912879  38.7388218  48.8581369  27.1062903  38.8457990
  48.3594274  29.1158646  39.4730545  47.5632470  29.8313347  39.2673884
  48.4986210  28.9196624  41.0260915  49.2949783  28.2046228  41.2325723
  48.7384003  29.8747443  41.4934511  47.5591622  28.5433424  41.4309396
  49.5847887  29.7663942  38.8454989  49.3845144  29.9830339  37.7961851
  49.8132248  30.6940248  39.3703017  50.4350482  29.0884640  38.9201335
  46.9321949  27.0191023  39.4809322  47.2369836  25.9609717  40.1133479
  45.6783325  27.4886365  39.4085188  45.4842582  28.3564164  38.9295693
  44.5770032  26.8247729  40.1224010  44.9100540  26.7390887  41.1567291
  43.2899890  27.6564976  40.0895739  42.9391255  27.7434985  39.0612618
  42.5255040  27.1678852  40.6936607  43.4887736  28.6504324  40.4904198
  44.3172044  25.3848534  39.6025306  44.0732072  24.4547365  40.3971085
  44.3890448  25.2173806  38.2863357  44.5023107  26.0213238  37.6855484
  44.1689990  23.9013479  37.6589350  43.2552155  23.4579775  38.0545633
  44.0319268  24.0308325  36.1394134  44.8042654  24.7002690  35.7606692
  44.1451946  23.0491604  35.6794241  42.6502733  24.5992359  35.7961507
  41.9093469  23.8343590  36.0287283  42.5134645  25.4512743  36.4620433
  42.4834643  25.0340015  34.4063800  43.4543486  24.8791892  33.6330846
  41.3798473  25.5109093  34.0453891  45.2812544  22.9106608  38.0915237
  45.0036703  21.7562188  38.4527437  46.5175627  23.3715594  38.1219075
  46.7541696  24.2775521  37.7433659  47.5956118  22.5289523  38.6216620
  47.5568469  21.5851829  38.0776989  48.9227196  23.1728021  38.3683376
  48.9801833  24.1147499  38.9138028  49.7192352  22.5093179  38.7051639
  49.0366453  23.3639209  37.3012885  47.4116267  22.1959295  40.1163751
  47.6181074  21.0431865  40.5337325  47.0393621  23.1878763  40.9306248
  47.0206786  24.1440925  40.6059699  46.7409147  22.9278260  42.3377172
  47.5981015  22.4340956  42.7954947  46.4463132  24.2050394  43.1095241
  45.7255606  24.7904644  42.5386542  46.0110519  23.9306707  44.0704453
  47.6797928  25.0174285  43.3356257  48.3593950  24.4588841  43.9792637
  48.1613902  25.2057140  42.3760869  47.2821920  26.5921299  44.1182975
  46.8058430  26.1208883  45.7946170  47.6396935  25.6148495  46.2811527
  46.5418538  27.0131728  46.3622778  45.9479576  25.4497073  45.7539970
  45.5963456  21.9470289  42.5182539  45.6623332  21.1093389  43.4245983
  44.5886040  22.0231605  41.6448068  44.5920918  22.7699376  40.9647986
  43.4289177  21.1369604  41.6939515  43.0369882  21.2071193  42.7086279
  42.3391684  21.5873066  40.7160334  42.7136380  21.5139786  39.6950067
  41.4631953  20.9483698  40.8279760  42.0641704  22.6204660  40.9282999
  43.8043982  19.6575654  41.4469600  43.2251435  18.7684405  42.0772575
  44.7415306  19.4100223  40.5358720  45.0957256  20.1710634  39.9742122
  45.2426019  18.0309034  40.2565593  44.3757817  17.3753308  40.1732139
  46.0088530  18.0031621  38.9253990  45.3603420  18.3589158  38.1247916
  46.8848312  18.6479369  38.9963043  46.4520168  16.5755142  38.6236513
  47.1009790  16.2192128  39.4236501  45.5764909  15.9301912  38.5521347
  47.2126852  16.5479745  37.3021937  46.5641758  16.9037298  36.5015859
  48.0886639  17.1927481  37.3731007  47.6594635  15.1752682  36.9758998
  47.4335676  14.4294250  37.6183858  48.3448388  14.8789700  35.8752779
  48.6795043  15.8061480  34.9823947  48.4110396  16.7680975  35.1329937
  49.2005735  15.5440355  34.1578442  48.6963059  13.6110550  35.6809499
  48.4405762  12.9094216  36.3609594  49.2173253  13.3556618  34.8542627
  46.1347363  17.4822181  41.3960533  46.2267050  16.2592979  41.6062486
  46.7957943  18.3898789  42.1220927  46.6573779  19.3626080  41.8881303
  47.8301493  18.0505679  43.1153619  48.3573587  17.1440860  42.8179733
  48.8537428  19.2096691  43.2115229  49.7489702  18.9280562  42.6571211
  48.4066175  20.0924240  42.7544423  49.2576997  19.5547481  44.6547371
  49.6750172  18.6877530  45.4215197  49.1354865  20.8437377  45.0193271
  49.3866525  21.1264584  45.9558550  48.7931117  21.5230128  44.3548984
  47.2855744  17.6177764  44.4843008  46.1879669  18.0194716  44.8975295
  47.8945923  16.7969067  45.1667301  49.9455355  46.4061656  35.3093316
  48.7717348  46.7375939  34.6162202  48.6760774  47.2276173  33.3434325
  47.3607982  47.4083994  33.0682009  46.5897261  47.0436004  34.1446402
  47.4904286  46.6081240  35.1540100  47.3424101  46.1186176  36.4661654
  48.4880155  45.7757975  37.1954327  48.3846527  45.2656937  38.5554486
  49.4922080  44.9479847  39.2317572  50.8389373  45.0917974  38.6549147
  51.8318149  44.7918001  39.3063974  50.9104063  45.5762439  37.3587462
  49.7507764  45.9232048  36.6153663  51.2534591  46.4971738  34.8673031
  51.7434972  47.8045422  34.5697605  51.1542876  49.3593075  37.2490067
  52.4912591  48.8369230  36.8001566  53.6202494  49.1252761  37.7552165
  52.7191335  48.1636452  35.6545392  47.1394236  47.7951300  32.0826322
  45.5114475  47.0858043  34.1973672  46.3499695  46.0123801  36.8956828
  47.4052724  45.1492096  39.0049769  49.4541098  44.5654773  40.2442149
  50.9435431  48.5464027  34.4709715  52.2640257  47.7628101  33.6072920
  50.3541533  49.1677995  36.5301856  50.8662428  48.8899152  38.1961060
  51.2044792  50.4420753  37.4011770  53.4162515  48.6687242  38.7301950
  54.5785344  48.7331099  37.3984188  53.7334553  50.2055530  37.8930690
  53.7288403  47.8049000  35.4578972  38.9489464  61.7097611  35.3161529
  44.1890963  15.3998501  46.2499248  32.5340076  58.7417959  26.7969304
  53.2976305  48.8859547  52.3993811  27.5793340  28.8667169  55.1448074
  74.2331655  35.9051785  18.5645307  54.1082656  31.7531408  26.4856171
  61.5974444  64.7448314  18.4685506  29.4796856  57.3947880  23.3766548
  15.7451135  34.0455389   8.9453465   6.9123646  26.1892279  54.2100121
  18.4013494  30.1991314  32.8610782  70.4734607  39.9990923   7.7839807
  54.5894277  55.5186315  15.8204357  58.9572637  13.1078559  22.4117884
  73.5344816  35.0936447  27.1175840  62.6368702  50.3793656  64.6226802
  71.8371620  50.1138520  15.0120261  34.9184017  72.8108927  41.9658613
  59.9675506  27.4642560  71.1194672  19.8549512  46.6290883  79.5314720
   2.4220403  66.5580092  47.4035886   6.7707185  49.5671830  14.4650982
  56.7145640  42.2792031  14.8360328  71.6994473  46.0875149  58.6072127
  51.9477442  13.2449636  22.5632195  49.2184149  78.3064755  20.5765120
  72.4944586  43.7641739  61.1365336  77.6643447  53.3629966  44.3357104
  68.5433162  39.8807445  27.5971890  12.7231863  48.3443758  30.4584055
  46.5419377  24.4370311  53.9276902  30.4474433  -1.0184599  50.1291126
  59.4239921  21.2215154   4.1784432  43.1704210   1.9556927  62.8208620
   9.7058147  44.0955390  26.8853950  49.1941322  24.6755560  72.7381109
  54.5302327  63.7564814  62.5473980   7.4298999  29.8284861  33.4933079
  76.5105071  35.3077189  67.5598917   5.9160874  51.9510528  42.5308395
  46.6898153  14.4913456  18.5475600  74.6980092  50.9497772  29.0573645
  40.6893515  14.7208253  26.5167298  69.5408107  17.0562218  18.4894672
  34.5871554  75.3500891  13.8994129   8.3227127  63.5270660  21.0313681
  13.1629880  43.4623460  34.2739538  14.5707972  66.7820297  32.6173127
  45.3926762  41.4285614   6.6938084  24.0050976  42.6595822  58.3416371
  60.9987742   6.7812322  28.5176555  41.8836179  64.6842581  29.9195140
  59.6472740  21.0636312  30.5838978  44.3852765  67.2717358  35.8493114
  16.6620509   4.5357581  53.8562723  78.0694920  52.2632836  63.5590815
  29.5635201   0.0242062  43.5275637  20.6421985  37.8932790   5.5872964
  22.6164169   6.3572540  25.1081729  12.5063739   8.9170150  40.7225811
  44.7172958  38.3041529  85.7213747  44.1884429  38.5201162  86.3811053
  45.2397978  38.9977667  85.6414716  44.7161411  38.4384666  85.8069346
  36.6072565  42.2004745  84.5221215  36.0229781  42.7054777  84.9287079
  36.2042661  41.9747132  83.7817807  36.4611869  42.2412994  84.4726240
  41.0649780  38.4470398  82.9990136  41.3045783  38.6548381  82.1865479
  41.3865621  37.6427906  83.1079080  41.1486938  38.3584499  82.8950689
  34.2759162  36.0608285  82.0550260  33.5617339  35.7746464  82.4672692
  34.7603130  36.4004911  82.6956647  34.2418525  36.0689935  82.2105895
  41.4506480  44.5638239  82.4312068  41.8657628  44.2323263  81.7396564
  40.6198409  44.3307141  82.3032205  41.3894488  44.4809495  82.3102915
  44.1439870  40.8148798  81.6173269  44.0620032  40.8850985  82.4828256
  44.7819590  41.3778542  81.4257010  44.2259707  40.9087769  81.7163219
  41.2479980  40.8369253  84.6281876  42.0620619  41.1284145  84.5164647
  41.1839121  40.1829115  84.0540169  41.3582719  40.7834447  84.5270713
  37.7590703  39.5293060  84.0929077  38.1435856  39.3100767  84.8445622
  37.5102324  40.3556005  84.2230154  37.7792776  39.6191206  84.2230154
  42.6856002  44.0531053  79.9697681  43.4528987  44.1131178  79.5603533
  42.2387311  43.4811494  79.4853999  42.7329429  43.9767628  79.8375391
  38.7330603  40.3249819  81.4334791  39.0223127  41.1014701  81.7078365
  38.8202401  39.8138550  82.1349291  38.7884859  40.3641737  81.5777289
  43.5262222  35.7183082  85.6888478  42.9985240  35.8011826  84.9994187
  43.9857930  36.4600953  85.6853123  43.5164072  35.8403744  85.5863173
  35.5195287  33.9885602  80.7129373  35.1708091  34.6405327  81.1760923
  35.0391732  33.9742715  79.9853244  35.3965531  34.0828655  80.6740464
  35.9219418  37.4811243  83.5547995  36.5564497  38.0771668  83.4897456
  36.0045029  37.1814701  84.3693865  36.0275969  37.5252151  83.6651081
  40.5609512  35.3533342  85.0284100  39.9674351  35.6750339  84.4768667
  40.5984789  34.5074438  84.8205207  40.4783901  35.2757670  84.9166872
  38.5338744  35.9930593  83.1213430  38.9137709  36.0110222  82.3364545
  37.7931340  36.4384582  83.0004278  38.4807582  36.0612367  82.9876999
  39.3323498  42.8308099  84.5122220  38.5234821  42.5074773  84.4655530
  39.8398407  42.1241321  84.4450469  39.2873165  42.6789415  84.4952515
  47.9359468  15.3174919  74.5723459  47.9053473  16.1719556  74.7441729
  48.5340817  15.0170212  75.1309603  48.0196626  15.3991416  74.6798261
  35.5200293  23.9413288  75.0913621  34.7683192  23.5628827  74.8629666
  35.9686304  23.9731722  74.3432431  35.4749960  23.8898895  74.9471123
  40.9725253  24.3638658  70.5199168  40.6376621  25.0415579  70.0843390
  41.4852123  23.9743969  69.9316040  40.9990834  24.4063236  70.3685960
  40.5129544  26.3152926  76.4610280  40.8968923  26.8839825  75.9215055
  40.4488685  25.5902437  75.9816096  40.5602971  26.2928390  76.3104142
  45.7576043  17.8927221  72.8441769  45.6415569  18.6434908  73.2733907
  46.5531929  17.6351175  73.0937856  45.8580632  17.9662068  72.9445861
  36.9385789  28.8709270  78.7591250  37.5823244  29.3122434  79.1487408
  37.2642044  28.0662696  78.6721508  37.0817617  28.8174464  78.8036727
  37.6406368  21.8821244  74.1311111  37.9622209  22.4226452  73.5272419
  38.2878465  21.3118016  74.2633401  37.7832423  21.8780420  74.0618147
  39.8796012  20.2707684  74.2025290  40.3189647  19.6624785  74.6480062
  39.7300675  19.8915058  73.4310755  39.9217477  20.1246156  74.1544457
  43.4805348  18.6234866  71.1556059  43.3956643  19.4795832  71.3005628
  43.9689732  18.3479190  71.8238218  43.5394246  18.7092187  71.2758140
  44.4123781  15.2419660  72.6553794  43.8835253  15.4579293  73.3151100
  44.9348801  15.9355798  72.5754763  44.4112234  15.3762797  72.7409393
  49.8671834  20.8165964  78.0286838  49.0369538  21.0276608  78.1920255
  49.8181087  19.9903019  77.7529122  49.7378570  20.7255571  78.0124204
  36.3023389  19.1382877  71.4561262  35.7180605  19.6432908  71.8627126
  35.8993484  18.9125264  70.7157854  36.1562693  19.1791125  71.4066287
  40.7600604  15.3848529  69.9330182  40.9996607  15.5926512  69.1205526
  41.0816445  14.5806037  70.0419127  40.8437762  15.2962630  69.8290736
  47.1236150  21.4865319  78.1651554  46.6871382  21.4902061  78.9210526
  46.7899065  22.1670818  77.7331132  47.0098770  21.5877775  78.2132387
  50.2580496  18.2046239  77.0571191  50.9196930  17.6436907  76.9567100
  49.6171908  17.7098269  77.3823883  50.2609363  18.0482648  77.0903532
  41.1457304  21.5016370  69.3652115  41.5608452  21.1701394  68.6736610
  40.3149233  21.2685272  69.2372251  41.0845312  21.4187626  69.2442962
  46.5445327  19.2211621  76.7983180  46.7800916  19.3656820  75.9710031
  46.6934890  19.9854029  77.1914694  46.6011130  19.3550675  76.7346784
  48.3735783  18.0613287  74.6352784  48.7044000  18.5940927  74.0292879
  48.9468871  18.1152175  75.2914735  48.5069462  18.1482856  74.6430566
  43.8390694  17.7526930  68.5513316  43.7570856  17.8229117  69.4168303
  44.4770414  18.3156673  68.3597057  43.9210531  17.8465901  68.6503266
  40.9430804  17.7747384  71.5621923  41.7571443  18.0662277  71.4504694
  40.8789945  17.1207246  70.9880216  41.0533543  17.7212579  71.4610760
  37.4541527  16.4671191  71.0269124  37.8386680  16.2478898  71.7785669
  37.2053148  17.2934136  71.1570200  37.4743600  16.5569337  71.1570200
  37.7364770  24.6876067  73.1001494  38.0263068  24.2965048  72.3760721
  38.4668251  24.8692772  73.5406770  37.8871654  24.6569881  73.0584301
  35.6770685  26.6643449  76.1661644  35.4570981  26.3740804  76.9588311
  35.4565207  26.0058404  75.6379556  35.6118280  26.5243158  76.2050553
  37.8438641  28.0372839  74.9492336  38.4962699  27.5049282  75.1783362
  37.1464250  27.6841492  75.3360210  37.8369359  27.9062362  75.0404504
  45.8378559  20.3577253  74.2923316  46.4036592  21.0170463  74.2081859
  45.1906463  20.7026951  74.7639718  45.8257316  20.5059195  74.3496072
  42.3085138  23.3016037  73.7160395  42.0671814  22.5683898  73.3087460
  42.4886470  23.8502894  73.0626728  42.2992762  23.2738429  73.5590618
  47.0341257  20.4083481  71.0848952  46.6548066  19.6220619  71.0778242
  46.3707503  20.9570338  70.9420596  46.8799732  20.3728305  71.0629749
  39.8588166  23.9597000  74.9237778  40.6238057  23.6906644  74.6020443
  39.7566256  23.4747010  75.6407841  39.9569661  23.8486565  74.9817606
  42.3806826  20.9909184  66.9037728  43.1479811  21.0509309  66.4943580
  41.9338135  20.4189625  66.4194046  42.4280253  20.9145759  66.7715438
  45.2801356  22.6528972  71.4200638  45.3621194  23.4595958  71.0962089
  45.7651098  22.6724931  72.1441412  45.3638514  22.7749634  71.4787537
  40.9159449  17.2023743  74.3892052  41.4574995  16.6994124  74.8530672
  41.2306008  17.1488938  73.5781537  41.0423846  17.1203164  74.3375864
  39.0845899  22.5941094  71.6732080  39.1538719  21.7355633  71.8125080
  39.8634354  22.8112975  71.3451104  39.2098749  22.4993958  71.6449237
  43.4753386  25.0178796  75.8868573  43.0833178  24.7145511  75.1691439
  43.6306459  25.8547886  75.6973527  43.4406976  25.0962632  75.7525070
  43.6393061  21.5828785  75.8274604  43.2807716  21.7543427  76.6038636
  43.1531772  22.0441990  75.2702602  43.5151758  21.6767756  75.8599873
  38.4281427  17.2627950  68.3674838  38.7173951  18.0392833  68.6418412
  38.5153225  16.7516681  69.0689337  38.4835683  17.3019868  68.5117336
  44.2443692  24.4214288  79.3198607  44.0463380  24.9105103  78.6254819
  43.6231403  24.6255530  79.8982741  44.1231256  24.5230827  79.3021831
  43.2213045  12.6561213  72.6228525  42.6936064  12.7389957  71.9334234
  43.6808754  13.3979085  72.6193170  43.2114896  12.7781876  72.5203220
  35.2146111  10.9263733  67.6469420  34.8658915  11.5783458  68.1100969
  34.7342556  10.9120846  66.9193291  35.0916355  11.0206786  67.6080511
  42.7750128  21.2264777  71.7538182  43.4984327  21.6922890  71.6102755
  42.3350719  21.2938386  71.0035779  42.8165820  21.3048613  71.6222963
  43.0353978  25.2885482  71.9136243  42.3183287  25.1146344  71.4483480
  43.6860715  25.0538054  71.3811729  43.0255828  25.2281274  71.7665461
  38.3167140  26.5247240  78.3426391  37.9027538  25.8621371  77.9530233
  39.0014514  26.6725099  77.8222085  38.3565511  26.4487899  78.2082888
  41.6832434  25.6837326  79.0950008  41.2848717  25.7939596  78.3270828
  41.0683653  25.8919392  79.6776567  41.5331323  25.7310894  79.0681307
  49.4174276  20.2589292  72.4793098  49.8007882  21.0080648  72.7091195
  48.6218390  20.5055112  72.2205087  49.3568059  20.4058986  72.4750672
  38.2289568  12.9308724  70.0553477  38.6088533  12.9488353  69.2704592
  37.4882164  13.3762713  69.9344324  38.1758406  12.9990499  69.9217045
  39.0274322  19.7686230  71.4462267  38.2185645  19.4452904  71.3995577
  39.5349231  19.0619452  71.3790516  38.9823989  19.6167547  71.4292562
  58.9092052  30.8360227  74.5723459  58.8786056  31.6904864  74.7441729
  59.5073401  30.5355520  75.1309603  58.9929210  30.9176724  74.6798261
  52.1091737  29.9235878  79.3276390  51.2529632  30.0844377  79.3785506
  52.1559390  29.0527942  79.3481451  51.9890848  29.8186680  79.3382456
  46.4932876  39.4598596  75.0913621  45.7415776  39.0814135  74.8629666
  46.9418888  39.4917030  74.3432431  46.4482543  39.4084203  74.9471123
  51.9457836  39.8823966  70.5199168  51.6109205  40.5600887  70.0843390
  52.4584707  39.4929277  69.9316040  51.9723417  39.9248544  70.3685960
  51.4862128  41.8338234  76.4610280  51.8701507  42.4025133  75.9215055
  51.4221269  41.1087745  75.9816096  51.5335555  41.8113698  76.3104142
  54.9543558  31.9827922  81.9708041  55.4999518  32.6613009  82.0302011
  54.8960434  31.8415383  81.1109623  55.0259472  32.0619924  81.8520102
  48.0717633  39.4716988  77.3576394  48.1727995  38.6617342  77.6673521
  47.4759378  39.3773935  76.7276072  47.9990171  39.3382016  77.3102632
  56.7308626  33.4112529  72.8441769  56.6148152  34.1620215  73.2733907
  57.5264513  33.1536483  73.0937856  56.8313216  33.4847376  72.9445861
  47.9118372  44.3894578  78.7591250  48.5555828  44.8307742  79.1487408
  48.2374628  43.5848004  78.6721508  48.0550201  44.3359772  78.8036727
  41.2682677  35.4937275  76.9828727  41.0332861  34.6604927  76.8760996
  41.4068318  35.7741941  76.1689928  41.2538339  35.4120778  76.8471082
  43.5672764  27.6623006  79.8813035  42.9477796  27.0715653  79.7123050
  43.4656628  28.2534441  79.2477358  43.4610440  27.6627088  79.7618025
  48.6138952  37.4006552  74.1311111  48.9354793  37.9411760  73.5272419
  49.2611048  36.8303324  74.2633401  48.7565007  37.3965728  74.0618147
  50.6640660  29.4022547  74.2145498  51.3620825  29.5810675  74.7066961
  50.9792992  28.8792887  73.5915887  50.8135997  29.3516319  74.1947508
  43.2941897  31.2075287  82.1256604  43.1700594  31.7937733  82.7606423
  43.9460182  30.7135483  82.4268879  43.3715547  31.2214092  82.2642533
  50.8528595  35.7892992  74.2025290  51.2922231  35.1810093  74.6480062
  50.7033258  35.4100366  73.4310755  50.8950061  35.6431463  74.1544457
  48.3200238  34.3837004  81.4044115  48.9649241  33.8909447  81.0855064
  48.5602015  34.5261791  82.2310193  48.4510823  34.3314446  81.4793648
  50.8586330  37.2291910  81.0551008  51.1409573  36.4343316  80.8337763
  51.5872490  37.7072498  81.0756069  51.0075893  37.1826507  81.0254023
  48.8367524  24.7714944  78.2966773  48.5070854  25.2226088  77.6270471
  48.1612525  24.6931107  78.8439779  48.6877960  24.8266079  78.2789996
  54.4537932  34.1420174  71.1556059  54.3689227  34.9981140  71.3005628
  54.9422315  33.8664498  71.8238218  54.5126829  34.2277495  71.2758140
  56.0443931  20.7600467  76.5416383  55.7297372  21.4503945  76.9736806
  55.5270873  20.7045249  75.8401884  55.9208402  20.8535355  76.5013332
  55.3856365  30.7604968  72.6553794  54.8567837  30.9764601  73.3151100
  55.9081385  31.4541106  72.5754763  55.3844818  30.8948105  72.7409393
  60.8404418  36.3351272  78.0286838  60.0102121  36.5461916  78.1920255
  60.7913670  35.5088327  77.7529122  60.7111153  36.2440879  78.0124204
  47.2755973  34.6568185  71.4561262  46.6913188  35.1618216  71.8627126
  46.8726068  34.4310572  70.7157854  47.1295277  34.6976433  71.4066287
  42.8300002  40.3722946  78.2584933  42.3467580  41.0973435  78.2344517
  43.6423320  40.6699076  78.3695091  42.8790749  40.5225299  78.2712213
  48.9014156  39.1655126  80.8634748  48.3841097  38.8062541  80.2596056
  49.5988547  38.6417301  80.8740814  48.9279737  39.0352814  80.7765007
  51.7333187  30.9033837  69.9330182  51.9729191  31.1111820  69.1205526
  52.0549028  30.0991345  70.0419127  51.8170345  30.8147938  69.8290736
  47.0423478  22.8327232  73.7789720  47.7969446  23.2005549  73.5406771
  46.8651012  23.2066787  74.5468900  47.1277956  22.9425420  73.8574609
  45.6844199  40.8879122  78.4105213  46.3864778  40.3731111  78.4677970
  45.6041682  41.2153273  79.2152088  45.7767959  40.8593348  78.5378005
  45.3980542  25.2397551  70.4767833  45.2156115  25.4569432  69.6508826
  46.2606155  25.3536564  70.5326448  45.4985132  25.2887449  70.3622320
  45.0094974  37.0785474  77.9190821  45.8483874  37.3108406  77.9664583
  45.0406743  36.2089785  77.8497857  45.1376692  36.9842420  77.9155466
  45.6347677  37.4986349  82.2204127  46.1745902  37.3557480  82.8907499
  44.9517623  37.8983100  82.5888153  45.6139831  37.5366020  82.3738549
  51.0780261  22.2423962  73.5116857  51.8066422  22.0639917  73.0655013
  51.1675154  23.0842042  73.7224035  51.1986923  22.3407840  73.4770375
  55.0588562  33.1777349  77.4149151  55.8146077  33.6108864  77.4538060
  55.1650887  32.5282119  77.9883787  55.1858733  33.1454833  77.5047177
  58.0968733  37.0050627  78.1651554  57.6603965  37.0087369  78.9210526
  57.7631649  37.6856126  77.7331132  57.9831353  37.1063082  78.2132387
  41.0384822  33.7186640  82.3738548  40.7723238  32.9025756  82.5329539
  41.0523386  33.7639795  81.5034064  41.0009545  33.6043544  82.2692030
  44.9442569  28.5171724  68.9890306  44.2300746  28.2309904  69.4012739
  45.4286538  28.8568350  69.6296694  44.9101933  28.5253374  69.1445941
  61.2313079  33.7231547  77.0571191  61.8929514  33.1622215  76.9567100
  60.5904491  33.2283577  77.3823883  61.2341947  33.5667956  77.0903532
  52.1189887  37.0201678  69.3652115  52.5341036  36.6886702  68.6736610
  51.2881817  36.7870580  69.2372251  52.0577896  36.9372934  69.2442962
  41.4478236  34.5045419  79.6550293  41.2653809  34.4792305  78.8022585
  42.1827905  34.9744357  79.6939201  41.5292300  34.5706781  79.5348211
  57.5177910  34.7396929  76.7983180  57.7533499  34.8842128  75.9710031
  57.6667474  35.5039337  77.1914694  57.5743713  34.8735983  76.7346784
  59.3468367  33.5798595  74.6352784  59.6776584  34.1126235  74.0292879
  59.9201455  33.6337483  75.2914735  59.4802046  33.6668164  74.6430566
  54.5600256  31.4263498  75.3176364  54.6547110  32.1652792  75.7715990
  53.9359100  30.9980973  75.7510929  54.4809286  31.4724818  75.4484512
  41.4149146  31.3838920  79.8049359  41.9922649  31.2475370  80.4441605
  40.7163208  30.9274704  80.0594944  41.3970168  31.2961186  79.9371649
  54.8123277  33.2712237  68.5513316  54.7303440  33.3414425  69.4168303
  55.4502998  33.8341981  68.3597057  54.8943115  33.3651209  68.6503266
  48.1716448  33.0372975  78.0187842  47.9135693  32.2044710  77.9919142
  48.2264931  33.2630588  77.1780343  48.1416226  32.9470747  77.8907979
  53.2517499  25.1401426  78.1191935  52.5473825  24.6510612  78.2775854
  53.3002473  25.1523900  77.2480380  53.1547550  25.0691074  78.0131275
  47.1451161  30.5910738  78.5052737  46.5700752  30.7502906  79.1416698
  46.7686837  29.9546147  78.0421188  47.0053973  30.5208551  78.5307296
  50.8124449  29.0634087  83.3645116  50.4238882  28.6388305  82.7097307
  50.1479148  29.3116237  83.8722142  50.6571377  29.0372808  83.3432984
  60.4547718  28.8209092  76.1392946  60.1984283  28.0089033  75.9490828
  61.2977032  28.8286659  75.9123133  60.5413744  28.7021089  76.0777763
  36.8907979  30.2350813  76.5197178  36.9768231  29.8582681  77.3010708
  37.5183777  29.8611258  76.0417136  36.9964530  30.1236295  76.5642655
  51.9163388  33.2932692  71.5621923  52.7304026  33.5847584  71.4504694
  51.8522529  32.6392554  70.9880216  52.0266127  33.2397886  71.4610760
  47.7871296  36.7654209  76.6894235  48.4245243  36.5265957  77.2346028
  48.2126367  36.9691368  75.9547395  47.9447462  36.7605219  76.6611392
  42.4783938  39.0042546  80.5728538  42.5188083  39.2757397  79.7448318
  43.0378462  39.5284454  80.9886326  42.5667284  39.1218301  80.5120427
  48.4274111  31.9856499  71.0269124  48.8119264  31.7664206  71.7785669
  48.1785731  32.8119444  71.1570200  48.4476183  32.0754645  71.1570200
  50.1692768  37.2426632  78.3688021  50.2431776  37.0801804  79.2229871
  50.9862274  37.4316821  78.1248503  50.3009126  37.2463374  78.4586047
  43.9298524  37.5884495  75.3982464  43.1036642  37.8346232  75.2716743
  43.9910516  37.5096575  76.2644523  43.8172691  37.6129444  75.5071409
  46.1474548  23.6553436  76.3577905  45.2796974  23.7276035  76.4235514
  46.4349752  24.4575515  76.5465880  46.0614296  23.7847583  76.3952671
  48.7097353  40.2061375  73.1001494  48.9995652  39.8150356  72.3760721
  49.4400834  40.3878080  73.5406770  48.8604238  40.1755189  73.0584301
  49.2992099  35.0079121  84.1854625  48.8003792  35.7194888  84.2639513
  50.1092323  35.3279787  84.1472787  49.3448205  35.1605969  84.1911193
  46.6503269  42.1828757  76.1661644  46.4303564  41.8926112  76.9588311
  46.4297791  41.5243712  75.6379556  46.5850863  42.0428466  76.2050553
  45.5620216  34.2702074  78.4317346  45.2733465  33.6439545  78.9663073
  46.4303564  34.2122361  78.4982026  45.6480468  34.1689618  78.5208300
  56.3498114  29.4136857  78.7499328  56.0062880  28.6927192  79.1006577
  56.4491157  29.2050708  77.9077686  56.3140157  29.2761060  78.6771008
  48.8171225  43.5558147  74.9492336  49.4695283  43.0234589  75.1783362
  48.1196833  43.2026800  75.3360210  48.8101943  43.4247670  75.0404504
  45.7652490  35.9097325  74.3559711  46.5198458  36.2910364  74.5695173
  45.1723102  36.3608468  74.8106407  45.7889203  36.0326152  74.4542589
  56.8111143  35.8762561  74.2923316  57.3769176  36.5355771  74.2081859
  56.1639047  36.2212259  74.7639718  56.7989900  36.0244503  74.3496072
  47.0850716  37.0805886  79.7299826  46.5631470  37.2206178  80.4151691
  47.4724736  36.3216550  79.9201944  47.0654417  36.9891410  79.8600903
  44.0741900  27.1311695  73.7994781  43.7866696  26.7612965  73.0626728
  44.7612368  27.6006550  73.5378486  44.1330798  27.1458664  73.6509857
  53.2817721  38.8201345  73.7160395  53.0404397  38.0869206  73.3087460
  53.4619054  39.3688202  73.0626728  53.2725345  38.7923737  73.5590618
  48.5117042  34.1109905  75.1281317  48.3159824  34.7184640  74.5341620
  48.7351387  33.4177849  74.6472991  48.5151683  34.0987431  74.9697398
  46.9095572  30.9964643  75.2462186  47.6318224  31.1605801  74.7865992
  46.4303565  31.7174308  75.1401525  46.9459302  31.1262873  75.1627800
  54.8689079  27.3328442  80.6258870  54.0300180  27.3589721  80.3897134
  54.9393447  27.9799177  81.2064217  54.7557473  27.4324568  80.6767987
  44.5603188  33.4022716  84.3516325  45.0724285  33.6806969  83.7025085
  44.2739531  34.1412010  84.7179138  44.5938052  33.5525069  84.3106203
  53.3158358  24.2313819  75.3586486  54.0184710  24.0321567  74.8806445
  53.0502546  23.4589761  75.6655330  53.3804990  24.0876785  75.3331928
  58.7446603  32.5396429  77.9120112  58.6580578  32.6951855  78.7654891
  58.2897083  33.1834504  77.5379517  58.6649860  32.6572184  77.9827219
  41.6470095  27.9092907  74.6480062  41.7486231  28.7119069  74.9761037
  42.4425982  27.7080243  74.3503142  41.7798000  27.9978806  74.6515417
  52.6172419  29.8607176  76.5345672  52.3707134  29.7802927  77.3682461
  52.9457542  29.0760644  76.3408199  52.6293663  29.7333441  76.6293195
  56.5120468  36.5690535  80.3232453  56.3734827  37.2671581  80.8281195
  55.7320466  36.4139192  79.9668635  56.3763695  36.6490702  80.3458727
  48.5769447  32.5963894  85.9468655  48.7212822  33.1765103  85.3111765
  48.9245095  32.9740191  86.6518509  48.6496908  32.7384598  85.9567650
  50.7489364  31.7954063  83.7293786  50.0012678  31.9885077  83.3242064
  50.9030889  30.9699282  83.4917908  50.6611792  31.7019174  83.6339192
  47.6497202  40.7866666  82.8129682  47.7986765  40.2269582  82.1603086
  48.4297204  40.8658668  83.1962200  47.7871295  40.7152232  82.7726631
  58.0073841  35.9268789  71.0848952  57.6280650  35.1405927  71.0778242
  57.3440086  36.4755646  70.9420596  57.8532316  35.8913613  71.0629749
  50.8320749  39.4782308  74.9237778  51.5970640  39.2091952  74.6020443
  50.7298839  38.9932318  75.6407841  50.9302245  39.3671873  74.9817606
  48.8673519  27.6806717  81.4631014  48.0769594  27.4998177  81.7848350
  49.2634142  26.9033670  81.4461309  48.8090395  27.5394178  81.5083563
  53.3539410  36.5094492  66.9037728  54.1212395  36.5694617  66.4943580
  52.9070719  35.9374933  66.4194046  53.4012837  36.4331067  66.7715438
  54.2517205  35.3149148  79.1890460  53.5762207  35.0834380  79.6903847
  54.2609581  34.7070330  78.5632565  54.1535710  35.1908073  79.1706612
  51.3811349  30.1566977  85.9454513  51.3170490  31.0176933  85.8174650
  51.5208537  29.8398970  85.1450064  51.3926819  30.2367143  85.8082726
  56.2533940  38.1714280  71.4200638  56.3353777  38.9781266  71.0962089
  56.7383682  38.1910239  72.1441412  56.3371098  38.2934942  71.4787537
  50.0630443  32.8499116  80.0870716  49.6392692  33.0503615  79.3509734
  49.8875298  32.0027964  80.1995016  49.9741324  32.7547897  79.9944406
  45.3512888  33.3451167  75.5198689  45.5077507  33.2797970  76.3754681
  45.6913481  34.1199720  75.3077368  45.4246123  33.4500365  75.6153283
  51.8892033  32.7209051  74.3892052  52.4307578  32.2179432  74.8530672
  52.2038592  32.6674246  73.5781537  52.0156430  32.6388472  74.3375864
  50.0578482  38.1126402  71.6732080  50.1271303  37.2540941  71.8125080
  50.8366937  38.3298283  71.3451104  50.1831332  38.0179266  71.6449237
  53.0381302  27.6145355  84.4414352  53.2523272  26.9756270  83.8877706
  52.4215201  28.0591179  84.0122214  52.9786631  27.5855499  84.2964783
  54.4485970  40.5364104  75.8868573  54.0565762  40.2330819  75.1691439
  54.6039042  41.3733194  75.6973527  54.4139560  40.6147940  75.7525070
  41.9247150  30.5286118  75.8359456  42.3046114  30.9470663  75.1719723
  41.3502514  31.1099573  76.1428299  41.8958474  30.6763977  75.7836197
  54.6125645  37.1014093  75.8274604  54.2540299  37.2728735  76.6038636
  54.1264355  37.5627298  75.2702602  54.4884342  37.1953064  75.8599873
  52.4296031  20.7245291  79.4301695  51.5589589  20.6984012  79.3835004
  52.6836372  20.5522483  78.6127541  52.3389591  20.6955435  79.3021832
  49.4014010  32.7813258  68.3674838  49.6906535  33.5578140  68.6418412
  49.4885809  32.2701989  69.0689337  49.4568266  32.8205176  68.5117336
  49.4545171  22.7351519  80.8875165  48.9383660  22.0431711  81.0126744
  48.8939100  23.4022297  80.8337764  49.2951684  22.7314777  80.8981231
  57.4987384  29.8407134  81.3407720  57.0714992  29.7533483  80.5855820
  56.8613437  29.9484910  81.9262564  57.3416991  29.8439794  81.3153162
  45.5677951  32.0946522  80.4674950  44.7265958  31.9950397  80.6753844
  45.7767959  32.8642003  80.8189271  45.4742644  32.1938566  80.5502265
  43.0453518  29.7166059  78.2959701  42.6510216  29.7909071  77.5209810
  42.4893635  30.1024006  78.8468063  42.9056330  29.7847834  78.2627361
  54.6818465  22.6947353  77.9763580  54.8868058  22.6269661  78.8220577
  54.3544889  23.5006175  77.9084757  54.6633713  22.8033294  78.0923235
  49.3794616  30.0227922  79.7172548  49.0757753  29.4683910  80.3182955
  48.6774037  30.2020132  79.2300582  49.2310826  29.9672704  79.7342253
  48.4360713  27.3328441  74.2817249  48.7120447  26.6147354  73.8694817
  49.0359382  27.9313361  74.0738356  48.5653978  27.3148812  74.1898011
  47.4412967  37.2377642  84.4244645  47.3333322  37.2479705  85.2906703
  47.6508748  38.0632423  84.2349599  47.4563078  37.3618717  84.5248737
  57.9352153  23.2479118  77.4566345  57.3226466  23.7349520  77.8420077
  58.0316327  22.5722609  78.0003996  57.8590050  23.2197426  77.5945203
  51.9371234  25.0041959  72.5563844  52.3914980  25.1752519  73.2811689
  52.4111279  24.3910070  72.1561620  52.0739554  24.9392844  72.6037606
  45.4586759  34.4890285  81.8866583  44.8674692  35.1299783  81.8569598
  46.2207782  34.9127902  81.8597882  45.4835020  34.6466123  81.8781730
  55.2176275  39.9399596  79.3198607  55.0195964  40.4290411  78.6254819
  54.5963986  40.1440838  79.8982741  55.0963840  40.0416135  79.3021831
  49.2784254  31.7084493  73.6608852  50.0226298  32.0958770  73.8991802
  49.4244950  30.8641919  73.8249340  49.4094839  31.6414966  73.7202821
  51.1963829  23.5034752  78.6940713  50.3499874  23.6757560  78.5682063
  51.1934961  22.6984096  79.0306541  51.0710979  23.4095781  78.7251840
  52.2662129  27.2809967  79.5602771  51.7922084  26.7551729  80.0708082
  52.6380265  26.7339439  78.9917633  52.2512018  27.1225963  79.5517918
  58.5298860  32.3412342  80.9709552  58.2897083  31.5018757  80.9751978
  59.0090867  32.4212509  81.6950325  58.5651044  32.2293742  81.0784354
  54.1945629  28.1746521  72.6228525  53.6668648  28.2575265  71.9334234
  54.6541337  28.9164393  72.6193170  54.1847479  28.2967184  72.5203220
  60.5304047  29.1213799  78.9238811  60.2913817  29.0809634  78.0859595
  60.6937948  29.9684951  79.0504532  60.5194350  29.2405884  78.8192293
  46.0036945  28.1023922  81.5896735  45.3790016  28.1142314  80.9822688
  45.6682540  28.5784097  82.2387975  45.8622437  28.1742439  81.5953304
  46.1878694  26.4449041  67.6469420  45.8391498  27.0968766  68.1100969
  45.7075140  26.4306154  66.9193291  46.0648938  26.5392094  67.6080511
  42.7162621  36.1624382  83.0300499  42.1862546  35.4716821  83.0795474
  42.9887714  36.1534568  82.2013208  42.6787343  36.0591514  82.9147915
  53.7482712  36.7450085  71.7538182  54.4716910  37.2108198  71.6102755
  53.3083303  36.8123694  71.0035779  53.7898404  36.8233921  71.6222963
  52.9168867  33.6047627  83.0038871  52.3025860  33.0605677  83.2987506
  53.4336152  33.0911863  82.5244687  52.9024529  33.4484036  82.9763099
  52.1565164  34.6751897  80.7383170  51.7292772  34.0501616  80.3048605
  52.1490108  34.3926819  81.5642177  52.0924305  34.5404678  80.7962997
  50.4850873  25.5520651  80.9525704  50.5093361  25.0180764  80.2638484
  50.7362347  25.0437960  81.6151294  50.5260792  25.3981555  80.9490348
  37.9958463  32.8352146  80.3868848  37.8901912  32.7898991  79.5220932
  37.2458683  33.1805927  80.6683132  37.8694066  32.8793055  80.3006177
  46.7652196  24.2791470  80.3331448  46.8050567  24.7800676  81.0466155
  45.9401860  24.3701863  80.0637371  46.6491722  24.3673286  80.3981986
  48.1866559  30.7951980  82.6305347  47.3558489  30.9625798  82.4240595
  48.1318076  30.4187930  83.4154232  48.0555974  30.7641711  82.7153875
  46.5602603  29.0707571  73.1595465  46.7005564  29.5680035  73.8624106
  47.0585136  28.3693866  73.3009678  46.6543684  29.0409550  73.2847044
  46.5902825  29.9374682  70.4888041  47.2247905  30.5335107  70.4237503
  46.6728436  29.6378140  71.3033912  46.6959376  29.9815590  70.5991128
  48.1681808  25.8688658  70.4633483  48.4897649  25.3891740  69.8092746
  48.4308752  26.6788304  70.2724295  48.2547834  25.9178555  70.3388975
  53.5640963  25.2560852  82.8256962  53.9896035  24.8033378  82.2140489
  52.9497956  24.7020922  83.1021750  53.5369608  25.1074828  82.7761988
  43.0955813  32.1342523  73.7577587  43.6048043  32.7307030  74.1388893
  43.5690085  31.8668497  73.0754007  43.2399189  32.1828338  73.7132110
  54.0086561  40.8070790  71.9136243  53.2915871  40.6331652  71.4483480
  54.6593299  40.5723362  71.3811729  53.9988412  40.7466582  71.7665461
  52.0035186  21.7275951  76.2347539  51.3603504  21.5773598  76.8032678
  51.6634593  21.4818297  75.4696644  51.8580263  21.6688074  76.2050555
  56.5934532  29.6835378  75.6577548  55.9225722  30.2265080  75.5290614
  57.2874283  30.1530233  75.4159243  56.5963400  29.8333649  75.6033076
  50.6421266  41.8232090  80.8889306  50.4186921  41.0650919  81.2573333
  50.1531109  41.8530111  80.1669746  50.5364715  41.7154315  80.8366047
  56.7562660  26.1391262  78.5667921  57.1090270  25.7120985  79.2413720
  55.8977461  26.0542105  78.6968998  56.6812105  26.0636002  78.6862932
  45.4546345  28.7698781  76.6250768  44.7358334  29.1862914  76.8923631
  45.8258707  29.3353020  76.0742406  45.4038277  28.9148063  76.5833575
  54.7545926  29.4026630  82.5152764  54.7343853  29.2209926  83.3687542
  54.8025126  30.2738649  82.4912347  54.7580567  29.5043169  82.6376058
  49.2899723  42.0432548  78.3426391  48.8760122  41.3806678  77.9530233
  49.9747097  42.1910407  77.8222085  49.3298095  41.9673206  78.2082888
  52.6565017  41.2022634  79.0950008  52.2581300  41.3124904  78.3270828
  52.0416237  41.4104700  79.6776567  52.5063907  41.2496202  79.0681307
  51.2292919  27.8096781  71.9624147  50.6357759  28.1313778  71.4108714
  51.2668197  26.9637877  71.7545253  51.1467308  27.7321110  71.8506919
  54.1050736  27.7676286  75.3925898  53.8764429  27.7908987  74.5504256
  54.3648812  26.9433753  75.5120908  54.1096924  27.6492366  75.2851095
  47.1595498  26.3052832  76.6880093  47.6352865  26.6669912  76.0530274
  46.6584098  26.9609300  76.9680236  47.1560857  26.4547021  76.6356834
  60.3906860  35.7774600  72.4793098  60.7740466  36.5265956  72.7091195
  59.5950973  36.0240420  72.2205087  60.3300642  35.9244294  72.4750672
  49.2022151  28.4494032  70.0553477  49.5821116  28.4673661  69.2704592
  48.4614748  28.8948021  69.9344324  49.1490989  28.5175807  69.9217045
  56.8307442  26.7576223  75.6429056  56.8301668  26.6024880  76.5013332
  56.6263622  27.6039210  75.5870441  56.8007220  26.8596844  75.7616995
  38.8924713  30.1816008  80.0587872  38.7146474  29.7292617  80.7842788
  38.6043735  30.9842169  80.2426350  38.8237666  30.2338565  80.1931375
  54.5548294  31.4373725  79.2965263  55.0501959  30.7196720  79.2569283
  53.7448070  31.1344523  79.1819750  54.5092187  31.2871371  79.2738989
  50.0006906  35.2871538  71.4462267  49.1918228  34.9638212  71.3995577
  50.5081814  34.5804760  71.3790516  49.9556572  35.1352855  71.4292562
  40.6297183  32.7143731  77.1709631  39.7642702  32.7029422  77.0592403
  40.7295999  32.5273954  78.0180771  40.5171350  32.6849793  77.2798576
  56.6200113  34.1877412  81.9842391  57.0455184  33.6651834  81.4312816
  56.2557033  34.7858250  81.4631014  56.6286716  34.1987639  81.8251401
  46.2554193  42.4841630  80.7439737  46.5700752  43.2978018  80.7517519
  46.6647606  42.0991849  81.4121896  46.3622291  42.5470332  80.8443829
  53.2078712  37.9011677  78.3143549  53.6789891  38.6151939  78.4833534
  53.5438891  37.3010427  78.8503418  53.3273827  37.9183141  78.4175925
  43.5967213  36.4314738  80.3918345  44.2012070  36.3910573  79.7632166
  43.3894525  37.2785890  80.4222401  43.6556110  36.5502741  80.3034462
  53.4110985  38.6980684  81.6080583  54.2309359  38.5543650  81.8696878
  53.1305063  39.3226882  82.1497021  53.4907728  38.7691036  81.7268522
  38.8318495  35.4149356  80.2617268  38.7342773  34.6045627  80.5707325
  39.6147365  35.3941149  79.8763537  38.9334632  35.2916446  80.2504131
  61.6373243  44.9207855  74.2145498  62.3353408  45.0995983  74.7066961
  61.9525576  44.3978195  73.5915887  61.7868581  44.8701627  74.1947508
  59.8100107  40.2900252  78.2966773  59.4803437  40.7411396  77.6270471
  59.1345109  40.2116415  78.8439779  59.6610543  40.3451387  78.2789996
  67.0176515  36.2785775  76.5416383  66.7029956  36.9689253  76.9736806
  66.5003457  36.2230557  75.8401884  66.8940985  36.3720663  76.5013332
  58.2488556  50.1753493  71.4561262  57.6645772  50.6803524  71.8627126
  57.8458652  49.9495879  70.7157854  58.1027860  50.2161741  71.4066287
  62.7065771  46.4219145  69.9330182  62.9461775  46.6297128  69.1205526
  63.0281612  45.6176653  70.0419127  62.7902929  46.3333246  69.8290736
  58.0156061  38.3512540  73.7789720  58.7702029  38.7190857  73.5406771
  57.8383596  38.7252095  74.5468900  58.1010540  38.4610728  73.8574609
  56.3713126  40.7582859  70.4767833  56.1888699  40.9754740  69.6508826
  57.2338739  40.8721872  70.5326448  56.4717715  40.8072757  70.3622320
  62.0512845  37.7609270  73.5116857  62.7799005  37.5825225  73.0655013
  62.1407738  38.6027350  73.7224035  62.1719507  37.8593148  73.4770375
  55.9175153  44.0357032  68.9890306  55.2033330  43.7495211  69.4012739
  56.4019122  44.3753658  69.6296694  55.8834516  44.0438682  69.1445941
  63.0922471  52.5386986  69.3652115  63.5073619  52.2072010  68.6736610
  62.2614400  52.3055888  69.2372251  63.0310479  52.4558242  69.2442962
  65.7855861  48.7897545  68.5513316  65.7036023  48.8599732  69.4168303
  66.4235581  49.3527289  68.3597057  65.8675698  48.8836516  68.6503266
  47.8640563  45.7536121  76.5197178  47.9500815  45.3767989  77.3010708
  48.4916361  45.3796566  76.0417136  47.9697114  45.6421603  76.5642655
  62.8895971  48.8118000  71.5621923  63.7036610  49.1032892  71.4504694
  62.8255112  48.1577862  70.9880216  62.9998710  48.7583194  71.4610760
  59.4006694  47.5041807  71.0269124  59.7851847  47.2849514  71.7785669
  59.1518315  48.3304752  71.1570200  59.4208767  47.5939953  71.1570200
  57.1207132  39.1738744  76.3577905  56.2529557  39.2461343  76.4235514
  57.4082336  39.9760822  76.5465880  57.0346880  39.3032891  76.3952671
  55.0474484  42.6497003  73.7994781  54.7599280  42.2798273  73.0626728
  55.7344952  43.1191858  73.5378486  55.1063381  42.6643972  73.6509857
  57.8828155  46.5149951  75.2462186  58.6050807  46.6791109  74.7865992
  57.4036148  47.2359616  75.1401525  57.9191886  46.6448181  75.1627800
  64.2890941  39.7499127  75.3586486  64.9917294  39.5506875  74.8806445
  64.0235130  38.9775069  75.6655330  64.3537574  39.6062093  75.3331928
  52.6202678  43.4278215  74.6480062  52.7218815  44.2304377  74.9761037
  53.4158565  43.2265551  74.3503142  52.7530584  43.5164114  74.6515417
  64.3271993  52.0279800  66.9037728  65.0944978  52.0879925  66.4943580
  63.8803302  51.4560241  66.4194046  64.3745420  51.9516375  66.7715438
  52.8979733  46.0471426  75.8359456  53.2778698  46.4655971  75.1719723
  52.3235098  46.6284881  76.1428299  52.8691058  46.1949284  75.7836197
  63.4028614  36.2430599  79.4301695  62.5322172  36.2169320  79.3835004
  63.6568955  36.0707791  78.6127541  63.3122174  36.2140743  79.3021832
  60.3746594  48.2998566  68.3674838  60.6639118  49.0763448  68.6418412
  60.4618392  47.7887297  69.0689337  60.4300850  48.3390484  68.5117336
  59.4093297  42.8513749  74.2817249  59.6853031  42.1332662  73.8694817
  60.0091966  43.4498669  74.0738356  59.5386561  42.8334120  74.1898011
  62.9103817  40.5227267  72.5563844  63.3647564  40.6937827  73.2811689
  63.3843863  39.9095377  72.1561620  63.0472137  40.4578152  72.6037606
  60.2516837  47.2269801  73.6608852  60.9958882  47.6144077  73.8991802
  60.3977533  46.3827227  73.8249340  60.3827422  47.1600274  73.7202821
  62.1696413  39.0220060  78.6940713  61.3232458  39.1942868  78.5682063
  62.1667545  38.2169404  79.0306541  62.0443562  38.9281089  78.7251840
  65.1678213  43.6931829  72.6228525  64.6401231  43.7760573  71.9334234
  65.6273921  44.4349700  72.6193170  65.1580063  43.8152491  72.5203220
  57.1611278  41.9634349  67.6469420  56.8124082  42.6154074  68.1100969
  56.6807724  41.9491462  66.9193291  57.0381522  42.0577402  67.6080511
  57.5335186  44.5892879  73.1595465  57.6738148  45.0865343  73.8624106
  58.0317719  43.8879173  73.3009678  57.6276267  44.5594858  73.2847044
  57.5635409  45.4559990  70.4888041  58.1980488  46.0520415  70.4237503
  57.6461020  45.1563448  71.3033912  57.6691960  45.5000898  70.5991128
  59.1414392  41.3873965  70.4633483  59.4630233  40.9077048  69.8092746
  59.4041335  42.1973612  70.2724295  59.2280417  41.4363863  70.3388975
  54.0688397  47.6527831  73.7577587  54.5780626  48.2492338  74.1388893
  54.5422669  47.3853804  73.0754007  54.2131772  47.7013646  73.7132110
  62.9767770  37.2461259  76.2347539  62.3336087  37.0958906  76.8032678
  62.6367177  37.0003605  75.4696644  62.8312847  37.1873382  76.2050555
  56.4278928  44.2884089  76.6250768  55.7090918  44.7048222  76.8923631
  56.7991291  44.8538328  76.0742406  56.3770860  44.4333371  76.5833575
  62.2025503  43.3282089  71.9624147  61.6090342  43.6499086  71.4108714
  62.2400781  42.4823185  71.7545253  62.1199892  43.2506418  71.8506919
  58.1328082  41.8238140  76.6880093  58.6085448  42.1855220  76.0530274
  57.6316682  42.4794608  76.9680236  58.1293441  41.9732329  76.6356834
  60.1754735  43.9679340  70.0553477  60.5553700  43.9858969  69.2704592
  59.4347331  44.4133329  69.9344324  60.1223573  44.0361115  69.9217045
  60.9739489  50.8056846  71.4462267  60.1650812  50.4823520  71.3995577
  61.4814398  50.0990068  71.3790516  60.9289156  50.6538162  71.4292562
  60.1673906  40.1940868  72.7381109  60.9889600  40.3639181  72.4962804
  59.7043557  40.3488129  72.0147406  60.2205068  40.2422601  72.5952753
  35.2151117   0.8791419  62.0253668  34.4634016   0.5006958  61.7969713
  35.6637128   0.9109853  61.2772478  35.1700784   0.8277027  61.8811170
  40.6676077   1.3016789  57.4539215  40.3327445   1.9793711  57.0183437
  41.1802947   0.9122100  56.8656087  40.6941658   1.3441367  57.3026006
  40.2080368   3.2531058  63.3950327  40.5919747   3.8217956  62.8555102
  40.1439509   2.5280568  62.9156143  40.2553795   3.2306521  63.2444189
  36.6336613   5.8087401  65.6931296  37.2774068   6.2500565  66.0827455
  36.9592868   5.0040827  65.6061555  36.7768441   5.7552596  65.7376774
  37.3357192  -1.1800624  61.0651158  37.6573033  -0.6395417  60.4612466
  37.9829289  -1.7503853  61.1973448  37.4783247  -1.1841449  60.9958194
  37.4315594   1.6254198  60.0341541  37.7213892   1.2343179  59.3100768
  38.1619075   1.8070903  60.4746816  37.5822478   1.5948012  59.9924348
  35.3721509   3.6021581  63.1001691  35.1521805   3.3118935  63.8928358
  35.1516031   2.9436536  62.5719603  35.3069104   3.4621289  63.1390600
  37.5389465   4.9750970  61.8832383  38.1913523   4.4427413  62.1123409
  36.8415074   4.6219623  62.2700257  37.5320183   4.8440493  61.9744551
  42.0035962   0.2394169  60.6500442  41.7622637  -0.4937971  60.2427507
  42.1837294   0.7881026  59.9966775  41.9943586   0.2116560  60.4930665
  39.5538989   0.8975131  61.8577825  40.3188881   0.6284775  61.5360489
  39.4517079   0.4125142  62.5747888  39.6520485   0.7864696  61.9157653
  38.7796723  -0.4680774  58.6072127  38.8489543  -1.3266236  58.7465127
  39.5585178  -0.2508893  58.2791151  38.9049573  -0.5627910  58.5789284
  43.9394516   1.3592420  66.2538654  43.7414204   1.8483234  65.5594866
  43.3182227   1.5633661  66.8322788  43.8182080   1.4608958  66.2361878
  42.7304802   2.2263613  58.8476290  42.0134111   2.0524475  58.3823527
  43.3811539   1.9916185  58.3151776  42.7206652   2.1659405  58.7005508
  38.0117963   3.4625372  65.2766438  37.5978362   2.7999502  64.8870279
  38.6965338   3.6103230  64.7562132  38.0516335   3.3866030  65.1422935
  41.3783258   2.6215457  66.0290054  40.9799541   2.7317727  65.2610875
  40.7634477   2.8297523  66.6116614  41.2282147   2.6689025  66.0021354
  58.6042876   7.7738358  61.5063506  58.5736880   8.6282995  61.6781775
  59.2024224   7.4733651  62.0649650  58.6880034   7.8554855  61.6138308
  51.8042561   6.8614010  66.2616436  50.9480456   7.0222508  66.3125553
  51.8510214   5.9906073  66.2821497  51.6841672   6.7564811  66.2722502
  46.1883700  16.3976727  62.0253668  45.4366600  16.0192266  61.7969713
  46.6369712  16.4295161  61.2772478  46.1433367  16.3462335  61.8811170
  51.6408660  16.8202097  57.4539215  51.3060029  17.4979018  57.0183437
  52.1535531  16.4307408  56.8656087  51.6674241  16.8626675  57.3026006
  51.1812951  18.7716366  63.3950327  51.5652331  19.3403264  62.8555102
  51.1172093  18.0465876  62.9156143  51.2286379  18.7491829  63.2444189
  54.6494382   8.9206053  68.9048088  55.1950342   9.5991140  68.9642058
  54.5911258   8.7793514  68.0449670  54.7210296   8.9998055  68.7860149
  47.7668456  16.4095120  64.2916440  47.8678819  15.5995473  64.6013568
  47.1710202  16.3152066  63.6616119  47.6940995  16.2760148  64.2442679
  56.4259450  10.3490661  59.7781816  56.3098976  11.0998347  60.2073954
  57.2215337  10.0914614  60.0277903  56.5264040  10.4225507  59.8785907
  47.6069196  21.3272709  65.6931296  48.2506652  21.7685873  66.0827455
  47.9325452  20.5226135  65.6061555  47.7501025  21.2737903  65.7376774
  40.9633501  12.4315406  63.9168774  40.7283685  11.5983058  63.8101043
  41.1019142  12.7120072  63.1029975  40.9489163  12.3498910  63.7811129
  43.2623588   4.6001137  66.8153082  42.6428620   4.0093784  66.6463097
  43.1607452   5.1912572  66.1817405  43.1561264   4.6005219  66.6958071
  48.3089776  14.3384684  61.0651158  48.6305617  14.8789891  60.4612466
  48.9561872  13.7681455  61.1973448  48.4515831  14.3343859  60.9958194
  50.3591484   6.3400678  61.1485545  51.0571649   6.5188806  61.6407008
  50.6743816   5.8171018  60.5255934  50.5086821   6.2894451  61.1287555
  42.9892721   8.1453418  69.0596651  42.8651418   8.7315864  69.6946470
  43.6411006   7.6513614  69.3608926  43.0666371   8.1592223  69.1982580
  50.5479419  12.7271124  61.1365336  50.9873055  12.1188224  61.5820109
  50.3984082  12.3478497  60.3650801  50.5900885  12.5809595  61.0884504
  48.0151062  11.3215135  68.3384162  48.6600065  10.8287578  68.0195110
  48.2552839  11.4639922  69.1650240  48.1461647  11.2692578  68.4133695
  50.5537154  14.1670041  67.9891054  50.8360396  13.3721447  67.7677810
  51.2823314  14.6450629  68.0096115  50.7026717  14.1204638  67.9594070
  48.5318347   1.7093075  65.2306820  48.2021677   2.1604219  64.5610518
  47.8563349   1.6309239  65.7779826  48.3828784   1.7644210  65.2130043
  54.1488756  11.0798305  58.0896106  54.0640051  11.9359271  58.2345674
  54.6373139  10.8042629  58.7578265  54.2077653  11.1655626  58.2098187
  55.0807189   7.6983099  59.5893841  54.5518660   7.9142733  60.2491147
  55.6032209   8.3919237  59.5094810  55.0795642   7.8326236  59.6749440
  60.5355242  13.2729403  64.9626885  59.7052945  13.4840047  65.1260302
  60.4864494  12.4466458  64.6869169  60.4061977  13.1819010  64.9464251
  46.9706797  11.5946316  58.3901309  46.3864012  12.0996347  58.7967173
  46.5676892  11.3688703  57.6497901  46.8246101  11.6354564  58.3406334
  42.5250825  17.3101077  65.1924980  42.0418404  18.0351567  65.1684564
  43.3374144  17.6077207  65.3035138  42.5741573  17.4603431  65.2052259
  48.5964980  16.1033258  67.7974795  48.0791921  15.7440673  67.1936103
  49.2939371  15.5795432  67.8080861  48.6230561  15.9730946  67.7105053
  52.2528571  16.5528072  73.7590968  52.3411917  16.3654212  74.6069178
  52.6818284  15.9065501  73.3595815  52.3290674  16.4291079  73.8262719
  49.8199031  15.8359232  72.7408630  49.2569866  15.4231841  73.2648291
  50.5820055  15.7612137  73.1601773  49.8493480  15.7636632  72.8801630
  51.4284011   7.8411968  56.8670229  51.6680015   8.0489952  56.0545572
  51.7499852   7.0369477  56.9759174  51.5121169   7.7526069  56.7630782
  45.3795023  17.8257253  65.3445260  46.0815602  17.3109242  65.4018017
  45.2992506  18.1531404  66.1492135  45.4718783  17.7971479  65.4718052
  45.0931366   2.1775683  57.4107880  44.9106939   2.3947563  56.5848873
  45.9556979   2.2914695  57.4666495  45.1935956   2.2265580  57.2962367
  44.7045798  14.0163605  64.8530868  45.5434698  14.2486538  64.9004630
  44.7357567  13.1467916  64.7837904  44.8327516  13.9220551  64.8495513
  45.3298501  14.4364480  69.1544174  45.8696726  14.2935611  69.8247546
  44.6468447  14.8361231  69.5228200  45.3090655  14.4744151  69.3078595
  54.7539386  10.1155481  64.3489198  55.5096901  10.5486995  64.3878107
  54.8601710   9.4660250  64.9223834  54.8809557  10.0832964  64.4387224
  57.7919557  13.9428758  65.0991601  57.3554789  13.9465500  65.8550572
  57.4582473  14.6234257  64.6671178  57.6782177  14.0441214  65.1472434
  52.3648631  15.9837091  76.4234751  53.1489047  16.0967938  76.7890493
  52.1645225  15.1578228  76.6193437  52.4514656  15.8783810  76.5069137
  40.7335646  10.6564771  69.3078595  40.4674061   9.8403887  69.4669585
  40.7474210  10.7017926  68.4374111  40.6960369  10.5421676  69.2032077
  44.6393393   5.4549855  55.9230353  43.9251570   5.1688035  56.3352786
  45.1237362   5.7946481  56.5636741  44.6052757   5.4631505  56.0785988
  52.5219024  17.8947193  70.0701207  51.7234270  17.6546693  70.3275076
  52.9705036  17.9461586  70.8168255  52.4693635  17.8669584  70.2186131
  60.9263903  10.6609678  63.9911238  61.5880337  10.1000346  63.8907147
  60.2855315  10.1661708  64.3163929  60.9292771  10.5046087  64.0243578
  51.8140711  13.9579809  56.2992161  52.2291860  13.6264833  55.6076657
  50.9832641  13.7248711  56.1712298  51.7528720  13.8751065  56.1783009
  41.1429060  11.4423550  66.5890339  40.9604633  11.4170436  65.7362632
  41.8778729  11.9122488  66.6279248  41.2243124  11.5084912  66.4688258
  57.2128734  11.6775060  63.7323227  57.4484323  11.8220259  62.9050078
  57.3618298  12.4417468  64.1254741  57.2694537  11.8114115  63.6686831
  59.0419191  10.5176726  61.5692831  59.3727408  11.0504366  60.9632926
  59.6152279  10.5715614  62.2254782  59.1752870  10.6046295  61.5770613
  54.2551080   8.3641629  62.2516411  54.3497934   9.1030923  62.7056036
  53.6309923   7.9359104  62.6850975  54.1760110   8.4102949  62.3824558
  52.5103554  11.5427841  72.9006692  53.0842415  10.9055086  73.0555256
  52.4318357  11.5431924  72.0316349  52.5836789  11.4492953  72.7953103
  41.1099970   8.3217051  66.7389406  41.6873473   8.1853502  67.3781651
  40.4114032   7.8652835  66.9934990  41.0920992   8.2339317  66.8711696
  54.5074101  10.2090369  55.4853363  54.4254264  10.2792556  56.3508350
  55.1453822  10.7720113  55.2937104  54.5893939  10.3029340  55.5843312
  47.8667272   9.9751107  64.9527889  47.6086517   9.1422841  64.9259189
  47.9215755  10.2008720  64.1120390  47.8367050   9.8848878  64.8248026
  46.8401985   7.5288869  65.4392784  46.2651576   7.6881037  66.0756745
  46.4637661   6.8924278  64.9761235  46.7004797   7.4586682  65.4647342
  50.5075273   6.0012218  70.2985162  50.1189706   5.5766436  69.6437354
  49.8429972   6.2494368  70.8062189  50.3522201   5.9750939  70.2773030
  36.5858803   7.1728944  63.4537225  36.6719055   6.7960812  64.2350755
  37.2134601   6.7989389  62.9757183  36.6915354   7.0614426  63.4982702
  51.6114211  10.2310823  58.4961969  52.4254850  10.5225716  58.3844741
  51.5473353   9.5770685  57.9220262  51.7216950  10.1776018  58.3950807
  47.4822120  13.7032340  63.6234281  48.1196067  13.4644088  64.1686075
  47.9077191  13.9069499  62.8887442  47.6398286  13.6983351  63.5951439
  42.1734762  15.9420677  67.5068585  42.2138907  16.2135528  66.6788365
  42.7329286  16.4662585  67.9226373  42.2618108  16.0596432  67.4460473
  48.1224935   8.9234630  57.9609171  48.5070087   8.7042337  58.7125716
  47.8736555   9.7497576  58.0910247  48.1427007   9.0132776  58.0910247
  58.8560122  12.6981268  68.9719840  58.5505939  13.4309325  69.3333155
  58.1366338  12.2919197  68.6912626  58.7047465  12.7463001  68.9832977
  49.8643592  14.1804763  65.3028068  49.9382600  14.0179935  66.1569918
  50.6813098  14.3694953  65.0588549  49.9959950  14.1841505  65.3926093
  43.6249348  14.5262626  62.3322511  42.7987466  14.7724363  62.2056790
  43.6861340  14.4474707  63.1984569  43.5123515  14.5507575  62.4411456
  45.8425372   0.5931567  63.2917951  44.9747798   0.6654166  63.3575561
  46.1300576   1.3953646  63.4805926  45.7565120   0.7225714  63.3292718
  48.4048177  17.1439506  60.0341541  48.6946476  16.7528487  59.3100768
  49.1351658  17.3256211  60.4746816  48.5555062  17.1133320  59.9924348
  48.9942923  11.9457252  71.1194672  48.4954616  12.6573020  71.1979560
  49.8043147  12.2657919  71.0812834  49.0399029  12.0984101  71.1251240
  46.3454093  19.1206888  63.1001691  46.1254388  18.8304243  63.8928358
  46.1248615  18.4621843  62.5719603  46.2801687  18.9806597  63.1390600
  45.2571040  11.2080205  65.3657393  44.9684289  10.5817676  65.9003120
  46.1254388  11.1500492  65.4322073  45.3431292  11.1067749  65.4548347
  56.0448938   6.3514988  65.6839374  55.7013704   5.6305324  66.0346624
  56.1441980   6.1428840  64.8417733  56.0090981   6.2139192  65.6111054
  48.5122049  20.4936278  61.8832383  49.1646107  19.9612721  62.1123409
  47.8147657  20.1404931  62.2700257  48.5052767  20.3625801  61.9744551
  45.4603313  12.8475456  61.2899758  46.2149281  13.2288495  61.5035220
  44.8673926  13.2986600  61.7446454  45.4840027  12.9704283  61.3882636
  56.5061967  12.8140692  61.2263363  57.0720000  13.4733902  61.1421905
  55.8589870  13.1590390  61.6979765  56.4940723  12.9622634  61.2836119
  46.7801540  14.0184017  66.6639873  46.2582294  14.1584309  67.3491738
  47.1675560  13.2594682  66.8541990  46.7605241  13.9269541  66.7940949
  43.7692724   4.0689826  60.7334828  43.4817520   3.6991097  59.9966775
  44.4563192   4.5384681  60.4718533  43.8281621   4.0836795  60.5849903
  52.9768545  15.7579477  60.6500442  52.7355221  15.0247337  60.2427507
  53.1569878  16.3066334  59.9966775  52.9676169  15.7301868  60.4930665
  48.2067866  11.0488036  62.0621364  48.0110648  11.6562771  61.4681667
  48.4302211  10.3555980  61.5813038  48.2102507  11.0365562  61.9037445
  46.6046396   7.9342774  62.1802232  47.3269048   8.0983932  61.7206038
  46.1254389   8.6552439  62.0741572  46.6410126   8.0641004  62.0967846
  54.5639903   4.2706573  67.5598917  53.7251004   4.2967852  67.3237181
  54.6344271   4.9177309  68.1404264  54.4508297   4.3702699  67.6108034
  44.2554012  10.3400847  71.2856372  44.7675109  10.6185100  70.6365132
  43.9690355  11.0790141  71.6519185  44.2888876  10.4903200  71.2446250
  58.4397427   9.4774560  64.8460159  58.3531402   9.6329986  65.6994938
  57.9847907  10.1212635  64.4719564  58.3600684   9.5950315  64.9167266
  41.3420919   4.8471039  61.5820109  41.4437055   5.6497200  61.9101084
  42.1376806   4.6458374  61.2843189  41.4748824   4.9356937  61.5855464
  52.3123243   6.7985307  63.4685719  52.0657958   6.7181058  64.3022507
  52.6408366   6.0138775  63.2748246  52.3244487   6.6711572  63.5633242
  56.2071292  13.5068666  67.2572500  56.0685651  14.2049712  67.7621242
  55.4271290  13.3517323  66.9008682  56.0714519  13.5868833  67.2798774
  48.2720271   9.5342026  72.8808702  48.4163646  10.1143234  72.2451812
  48.6195919   9.9118322  73.5858556  48.3447732   9.6762730  72.8907697
  50.4440188   8.7332194  70.6633833  49.6963502   8.9263208  70.2582111
  50.5981713   7.9077413  70.4257955  50.3562615   8.6397305  70.5679239
  47.3448025  17.7244797  69.7469728  47.4937589  17.1647713  69.0943133
  48.1248028  17.8036799  70.1302247  47.4822119  17.6530363  69.7066678
  57.7024665  12.8646920  58.0188999  57.3231474  12.0784058  58.0118288
  57.0390910  13.4133777  57.8760643  57.5483140  12.8291744  57.9969796
  49.8701326  17.8959440  71.0254219  49.7944997  17.2268251  71.5805008
  49.7991185  18.5977228  71.5394886  49.8481933  17.9004348  71.1831067
  50.5271573  16.4160439  61.8577825  51.2921464  16.1470083  61.5360489
  50.4249663  15.9310449  62.5747888  50.6253069  16.3050004  61.9157653
  48.5624343   4.6184849  68.3971061  47.7720418   4.4376309  68.7188397
  48.9584966   3.8411801  68.3801355  48.5041219   4.4772309  68.4423609
  53.0490234  13.4472623  53.8377775  53.8163219  13.5072748  53.4283626
  52.6021543  12.8753064  53.3534093  53.0963661  13.3709199  53.7055485
  53.9468029  12.2527279  66.1230507  53.2713031  12.0212511  66.6243894
  53.9560405  11.6448462  65.4972612  53.8486534  12.1286204  66.1046659
  51.0762173   7.0945108  72.8794560  51.0121314   7.9555064  72.7514697
  51.2159361   6.7777101  72.0790111  51.0877643   7.1745274  72.7422773
  55.9484764  15.1092411  58.3540685  56.0304601  15.9159397  58.0302136
  56.4334506  15.1288370  59.0781458  56.0321922  15.2313073  58.4127583
  49.7581267   9.7877247  67.0210763  49.3343516   9.9881746  66.2849781
  49.5826122   8.9406095  67.1335063  49.6692148   9.6926028  66.9284453
  49.2592960  21.3027760  69.4832220  49.7488891  20.6038549  69.3007885
  48.6877193  21.0051630  70.0708277  49.2477490  21.1553984  69.5433261
  45.0463712  10.2829298  62.4538735  45.2028331  10.2176101  63.3094727
  45.3864305  11.0577851  62.2417415  45.1196947  10.3878497  62.5493329
  51.5842857   9.6587182  61.3232099  52.1258402   9.1557563  61.7870719
  51.8989416   9.6052377  60.5121584  51.7107254   9.5766603  61.2715911
  49.7529306  15.0504534  58.6072127  49.8222127  14.1919072  58.7465127
  50.5317761  15.2676414  58.2791151  49.8782156  14.9557398  58.5789284
  52.7332126   4.5523487  71.3754399  52.9474096   3.9134401  70.8217753
  52.1166025   4.9969310  70.9462261  52.6737455   4.5233630  71.2304830
  54.1436794  17.4742235  62.8208620  53.7516586  17.1708950  62.1031486
  54.2989866  18.3111325  62.6313574  54.1090384  17.5526072  62.6865117
  41.6197973   7.4664249  62.7699502  41.9996938   7.8848794  62.1059770
  41.0453338   8.0477705  63.0768346  41.5909298   7.6142108  62.7176243
  54.3076469  14.0392224  62.7614650  53.9491123  14.2106867  63.5378683
  53.8215179  14.5005429  62.2042649  54.1835166  14.1331195  62.7939920
  49.0964834   9.7191389  55.3014885  49.3857359  10.4956272  55.5758459
  49.1836633   9.2080121  56.0029384  49.1519090   9.7583307  55.4457383
  55.4681208  14.9296120  73.7081851  56.1060928  14.4356315  73.3744307
  54.8255300  14.8573520  73.1234078  55.4675434  14.8455128  73.5724206
  57.1938208   6.7785266  68.2747767  56.7665816   6.6911614  67.5195866
  56.5564261   6.8863041  68.8602611  57.0367815   6.7817925  68.2493208
  55.5235465  15.6215928  70.3487208  56.3127843  15.2704993  70.4689290
  55.6979062  16.4352316  70.0863842  55.6655746  15.6901785  70.3275076
  45.2628775   9.0324654  67.4014997  44.4216782   8.9328528  67.6093891
  45.4718783   9.8020134  67.7529318  45.1693468   9.1316697  67.4842312
  42.7404342   6.6544191  65.2299748  42.3461040   6.7287202  64.4549857
  42.1844459   7.0402137  65.7808109  42.6007154   6.7225965  65.1967407
  49.0745440   6.9606053  66.6512594  48.7708577   6.4062041  67.2523002
  48.3724861   7.1398263  66.1640629  48.9261650   6.9050835  66.6682300
  48.1311537   4.2706573  61.2157296  48.4071271   3.5525485  60.8034864
  48.7310206   4.8691493  61.0078402  48.2604802   4.2526943  61.1238057
  47.1363791  14.1755774  71.3584692  47.0284146  14.1857836  72.2246750
  47.3459572  15.0010554  71.1689646  47.1513902  14.2996848  71.4588784
  45.1537583  11.4268416  68.8206630  44.5625516  12.0677914  68.7909645
  45.9158606  11.8506033  68.7937929  45.1785843  11.5844254  68.8121777
  54.9127099  16.8777728  66.2538654  54.7146788  17.3668542  65.5594866
  54.2914810  17.0818969  66.8322788  54.7914664  16.9794266  66.2361878
  48.9735077   8.6462624  60.5948899  49.7177122   9.0336901  60.8331848
  49.1195774   7.8020050  60.7589386  49.1045663   8.5793097  60.6542868
  51.9612953   4.2188098  66.4942818  51.4872908   3.6929860  67.0048129
  52.3331089   3.6717571  65.9257679  51.9462842   4.0604094  66.4857965
  58.2249684   9.2790473  67.9049598  57.9847907   8.4396889  67.9092025
  58.7041691   9.3590640  68.6290372  58.2601868   9.1671873  68.0124401
  53.8896453   5.1124652  59.5568572  53.3619472   5.1953396  58.8674281
  54.3492161   5.8542524  59.5533216  53.8798303   5.2345315  59.4543267
  60.2254871   6.0591931  65.8578857  59.9864641   6.0187765  65.0199642
  60.3888772   6.9063083  65.9844579  60.2145174   6.1784016  65.7532339
  56.8300901  10.4441880  71.7883903  57.5535100   9.9914406  71.6094923
  56.5650863  10.7246546  71.0056230  56.8982174  10.4192848  71.6462618
  45.6987769   5.0402053  68.5236782  45.0740840   5.0520445  67.9162735
  45.3633364   5.5162229  69.1728022  45.5573261   5.1120570  68.5293350
  45.8829518   3.3827172  54.5809467  45.5342322   4.0346897  55.0441016
  45.4025964   3.3684285  53.8533338  45.7599762   3.4770225  54.5420558
  42.4113445  13.1002514  69.9640546  41.8813369  12.4094952  70.0135521
  42.6838538  13.0912699  69.1353255  42.3738167  12.9969645  69.8487962
  53.4433535  13.6828216  58.6878229  54.1667734  14.1486329  58.5442802
  53.0034126  13.7501825  57.9375826  53.4849228  13.7612053  58.5563010
  52.6119691  10.5425758  69.9378918  51.9976684   9.9983808  70.2327553
  53.1286975  10.0289995  69.4584734  52.5975353  10.3862167  69.9103146
  51.8515988  11.6130028  67.6723216  51.4243596  10.9879747  67.2388652
  51.8440932  11.3304950  68.4982224  51.7875129  11.4782809  67.7303044
  37.6909287   9.7730278  67.3208894  37.5852736   9.7277122  66.4560978
  36.9409507  10.1184058  67.6023179  37.5644890   9.8171186  67.2346224
  46.4603020   1.2169601  67.2671495  46.5001391   1.7178808  67.9806202
  45.6352684   1.3079995  66.9977418  46.3442546   1.3051417  67.3322033
  47.8817383   7.7330111  69.5645394  47.0509313   7.9003929  69.3580642
  47.8268900   7.3566062  70.3494279  47.7506798   7.7019842  69.6493922
  46.2553427   6.0085702  60.0935511  46.3956388   6.5058167  60.7964153
  46.7535960   5.3071997  60.2349725  46.3494508   5.9787681  60.2187090
  46.2853649   6.8752813  57.4228088  46.9198729   7.4713238  57.3577550
  46.3679260   6.5756271  58.2373958  46.3910200   6.9193721  57.5331175
  47.8632632   2.8066789  57.3973530  48.1848473   2.3269871  56.7432793
  48.1259576   3.6166435  57.2064342  47.9498657   2.8556687  57.2729022
  51.0929605  13.8285663  70.9172346  50.5854696  14.3821510  71.3612977
  50.7956251  13.8893953  70.0991121  50.9734490  13.9191974  70.8620803
  42.7906637   9.0720654  60.6917634  43.2998866   9.6685162  61.0728940
  43.2640909   8.8046628  60.0094054  42.9350013   9.1206470  60.6472157
  53.7037385  17.7448921  58.8476290  52.9866695  17.5709783  58.3823527
  54.3544123  17.5101493  58.3151776  53.6939236  17.6844713  58.7005508
  56.2885356   6.6213509  62.5917595  55.6176546   7.1643212  62.4630660
  56.9825107   7.0908365  62.3499290  56.2914224   6.7711781  62.5373123
  50.3372090  18.7610221  67.8229353  50.1137745  18.0029051  68.1913380
  49.8481933  18.7908243  67.1009793  50.2315539  18.6532446  67.7706094
  45.1497169   5.7076913  63.5590815  44.4309158   6.1241045  63.8263678
  45.5209531   6.2731151  63.0082453  45.0989101   5.8526194  63.5173622
  54.4496750   6.3404762  69.4492810  54.4294677   6.1588057  70.3027589
  54.4975950   7.2116780  69.4252394  54.4531391   6.4421300  69.5716105
  52.3943079  12.9291954  75.3741287  52.3538934  12.2841631  74.7886443
  53.2066398  12.8728571  75.6866699  52.5086233  12.8250920  75.3338236
  48.9850547  18.9810679  65.2766438  48.5710946  18.3184810  64.8870279
  49.6697921  19.1288538  64.7562132  49.0248919  18.9051338  65.1422935
  52.3515841  18.1400765  66.0290054  51.9532124  18.2503035  65.2610875
  51.7367061  18.3482831  66.6116614  52.2014730  18.1874333  66.0021354
  50.9243743   4.7474913  58.8964194  50.3308582   5.0691909  58.3448761
  50.9619021   3.9016008  58.6885300  50.8418132   4.6699241  58.7846965
  53.8001560   4.7054417  62.3265944  53.5715253   4.7287118  61.4844303
  54.0599636   3.8811884  62.4460955  53.8047748   4.5870497  62.2191142
  46.8546322   3.2430963  63.6220140  47.3303689   3.6048043  62.9870321
  46.3534922   3.8987431  63.9020283  46.8511681   3.3925152  63.5696881
  60.0857684  12.7152731  59.4133145  60.4691290  13.4644088  59.6431242
  59.2901797  12.9618551  59.1545134  60.0251466  12.8622425  59.4090719
  48.8972975   5.3872163  56.9893524  49.2771940   5.4051792  56.2044639
  48.1565571   5.8326152  56.8684371  48.8441813   5.4553938  56.8557092
  38.5875537   7.1194139  66.9927919  38.4097298   6.6670748  67.7182835
  38.2994559   7.9220300  67.1766397  38.5188490   7.1716697  67.1271422
  54.2499118   8.3751856  66.2305310  54.7452783   7.6574851  66.1909330
  53.4398894   8.0722654  66.1159796  54.2043011   8.2249502  66.2079035
  49.6957730  12.2249669  58.3802314  48.8869052  11.9016343  58.3335623
  50.2032638  11.5182891  58.3130563  49.6507396  12.0730986  58.3632608
  40.3248007   9.6521863  64.1049678  39.4593526   9.6407553  63.9932449
  40.4246823   9.4652085  64.9520818  40.2122174   9.6227924  64.2138623
  56.3150937  11.1255544  68.9182438  56.7406008  10.6029965  68.3652863
  55.9507857  11.7236381  68.3971061  56.3237539  11.1365771  68.7591448
  45.9505017  19.4219761  67.6779784  46.2651576  20.2356150  67.6857566
  46.3598430  19.0369980  68.3461943  46.0573115  19.4848464  67.7783875
  52.9029536  14.8389808  65.2483596  53.3740715  15.5530070  65.4173581
  53.2389715  14.2388558  65.7843465  53.0224651  14.8561272  65.3515972
  53.5403483  14.6307742  72.0111288  52.9924429  14.0065626  71.7431354
  54.0016511  14.8202014  71.2955368  53.5270692  14.5666792  71.8661719
  43.2918037  13.3692870  67.3258392  43.8962894  13.3288704  66.6972213
  43.0845349  14.2164022  67.3562448  43.3506934  13.4880872  67.2374509
  53.1061809  15.6358815  68.5420630  53.9260183  15.4921781  68.8036925
  52.8255887  16.2605014  69.0837067  53.1858552  15.7069167  68.6608569
  38.5269319  12.3527487  67.1957315  38.4293597  11.5423759  67.5047372
  39.3098189  12.3319280  66.8103583  38.6285456  12.2294577  67.1844178
  69.5775459  23.2923666  61.5063506  69.5469464  24.1468303  61.6781775
  70.1756808  22.9918959  62.0649650  69.6612617  23.3740163  61.6138308
  62.7775144  22.3799317  66.2616436  61.9213040  22.5407816  66.3125553
  62.8242798  21.5091381  66.2821497  62.6574256  22.2750119  66.2722502
  57.1616284  31.9162035  62.0253668  56.4099183  31.5377574  61.7969713
  57.6102296  31.9480469  61.2772478  57.1165951  31.8647642  61.8811170
  62.6141244  32.3387405  57.4539215  62.2792612  33.0164326  57.0183437
  63.1268114  31.9492716  56.8656087  62.6406825  32.3811983  57.3026006
  62.1545535  34.2901674  63.3950327  62.5384914  34.8588572  62.8555102
  62.0904676  33.5651184  62.9156143  62.2018962  34.2677137  63.2444189
  65.6226965  24.4391361  68.9048088  66.1682925  25.1176448  68.9642058
  65.5643842  24.2978822  68.0449670  65.6942880  24.5183363  68.7860149
  58.7401040  31.9280427  64.2916440  58.8411403  31.1180781  64.6013568
  58.1442785  31.8337374  63.6616119  58.6673579  31.7945456  64.2442679
  67.3992034  25.8675968  59.7781816  67.2831560  26.6183655  60.2073954
  68.1947921  25.6099922  60.0277903  67.4996623  25.9410815  59.8785907
  58.5801780  36.8458017  65.6931296  59.2239235  37.2871181  66.0827455
  58.9058035  36.0411443  65.6061555  58.7233608  36.7923211  65.7376774
  51.9366084  27.9500714  63.9168774  51.7016269  27.1168366  63.8101043
  52.0751725  28.2305380  63.1029975  51.9221747  27.8684217  63.7811129
  54.2356172  20.1186445  66.8153082  53.6161203  19.5279092  66.6463097
  54.1340035  20.7097880  66.1817405  54.1293847  20.1190527  66.6958071
  59.2822359  29.8569991  61.0651158  59.6038200  30.3975199  60.4612466
  59.9294456  29.2866763  61.1973448  59.4248415  29.8529167  60.9958194
  61.3324067  21.8585986  61.1485545  62.0304232  22.0374114  61.6407008
  61.6476400  21.3356326  60.5255934  61.4819405  21.8079759  61.1287555
  53.9625305  23.6638726  69.0596651  53.8384002  24.2501172  69.6946470
  54.6143589  23.1698922  69.3608926  54.0398954  23.6777531  69.1982580
  61.5212003  28.2456431  61.1365336  61.9605638  27.6373532  61.5820109
  61.3716666  27.8663805  60.3650801  61.5633469  28.0994903  61.0884504
  58.9883646  26.8400443  68.3384162  59.6332648  26.3472886  68.0195110
  59.2285423  26.9825230  69.1650240  59.1194231  26.7877886  68.4133695
  61.5269737  29.6855349  67.9891054  61.8092980  28.8906755  67.7677810
  62.2555898  30.1635937  68.0096115  61.6759301  29.6389946  67.9594070
  59.5050931  17.2278383  65.2306820  59.1754261  17.6789527  64.5610518
  58.8295933  17.1494546  65.7779826  59.3561367  17.2829518  65.2130043
  65.1221339  26.5983613  58.0896106  65.0372634  27.4544579  58.2345674
  65.6105723  26.3227937  58.7578265  65.1810237  26.6840934  58.2098187
  66.7127339  13.2163906  63.4756430  66.3980780  13.9067385  63.9076853
  66.1954280  13.1608688  62.7741931  66.5891809  13.3098795  63.4353379
  66.0539773  23.2168407  59.5893841  65.5251244  23.4328040  60.2491147
  66.5764793  23.9104545  59.5094810  66.0528226  23.3511544  59.6749440
  71.5087826  28.7914711  64.9626885  70.6785529  29.0025355  65.1260302
  71.4597078  27.9651766  64.6869169  71.3794561  28.7004318  64.9464251
  57.9439380  27.1131624  58.3901309  57.3596596  27.6181655  58.7967173
  57.5409476  26.8874011  57.6497901  57.7978684  27.1539872  58.3406334
  53.4983409  32.8286385  65.1924980  53.0150987  33.5536874  65.1684564
  54.3106727  33.1262515  65.3035138  53.5474157  32.9788739  65.2052259
  59.5697563  31.6218566  67.7974795  59.0524505  31.2625981  67.1936103
  60.2671954  31.0980740  67.8080861  59.5963144  31.4916253  67.7105053
  63.2261155  32.0713380  73.7590968  63.3144501  31.8839520  74.6069178
  63.6550868  31.4250809  73.3595815  63.3023257  31.9476387  73.8262719
  60.7931615  31.3544540  72.7408630  60.2302450  30.9417149  73.2648291
  61.5552638  31.2797445  73.1601773  60.8226063  31.2821940  72.8801630
  62.4016595  23.3597276  56.8670229  62.6412599  23.5675260  56.0545572
  62.7232436  22.5554784  56.9759174  62.4853753  23.2711377  56.7630782
  57.7106885  15.2890671  60.7129767  58.4652853  15.6568989  60.4746817
  57.5334420  15.6630226  61.4808947  57.7961363  15.3988859  60.7914656
  56.3527606  33.3442561  65.3445260  57.0548186  32.8294550  65.4018017
  56.2725089  33.6716712  66.1492135  56.4451367  33.3156787  65.4718052
  57.4006513  23.5818148  74.4725675  57.5727017  23.4724042  75.3210957
  57.9375870  24.2272553  74.2356867  57.5051517  23.6610149  74.5630772
  56.0663950  17.6960990  57.4107880  55.8839523  17.9132871  56.5848873
  56.9289563  17.8100003  57.4666495  56.1668539  17.7450888  57.2962367
  55.6778382  29.5348913  64.8530868  56.5167281  29.7671846  64.9004630
  55.7090151  28.6653224  64.7837904  55.8060099  29.4405859  64.8495513
  56.3031085  29.9549788  69.1544174  56.8429310  29.8120919  69.8247546
  55.6201031  30.3546539  69.5228200  56.2823239  29.9929459  69.3078595
  61.7463669  14.6987401  60.4456904  62.4749829  14.5203356  59.9995060
  61.8358562  15.5405481  60.6564082  61.8670331  14.7971280  60.4110422
  65.7271970  25.6340789  64.3489198  66.4829485  26.0672303  64.3878107
  65.8334294  24.9845558  64.9223834  65.8542140  25.6018272  64.4387224
  68.7652141  29.4614066  65.0991601  68.3287373  29.4650808  65.8550572
  68.4315056  30.1419565  64.6671178  68.6514761  29.5626522  65.1472434
  63.3381214  31.5022399  76.4234751  64.1221631  31.6153246  76.7890493
  63.1377809  30.6763536  76.6193437  63.4247240  31.3969118  76.5069137
  51.7068230  26.1750079  69.3078595  51.4406645  25.3589195  69.4669585
  51.7206794  26.2203234  68.4374111  51.6692952  26.0606984  69.2032077
  55.6125977  20.9735163  55.9230353  54.8984154  20.6873343  56.3352786
  56.0969945  21.3131789  56.5636741  55.5785340  20.9816813  56.0785988
  56.4566836  19.7128457  71.9545603  55.7638633  19.2425437  72.2006334
  57.0727163  19.4866762  72.5287310  56.4451366  19.6095589  72.0754755
  63.4951608  33.4132501  70.0701207  62.6966853  33.1732001  70.3275076
  63.9437619  33.4646894  70.8168255  63.4426219  33.3854892  70.2186131
  71.8996487  26.1794986  63.9911238  72.5612921  25.6185654  63.8907147
  71.2587899  25.6847016  64.3163929  71.9025354  26.0231395  64.0243578
  62.7873295  29.4765117  56.2992161  63.2024443  29.1450141  55.6076657
  61.9565224  29.2434019  56.1712298  62.7261303  29.3936373  56.1783009
  52.1161643  26.9608858  66.5890339  51.9337217  26.9355744  65.7362632
  52.8511312  27.4307796  66.6279248  52.1975707  27.0270220  66.4688258
  68.1861318  27.1960368  63.7323227  68.4216907  27.3405567  62.9050078
  68.3350881  27.9602776  64.1254741  68.2427121  27.3299422  63.6686831
  55.1807395  23.6793861  73.0972448  55.9047367  23.6646892  73.5837343
  55.2823532  24.3889216  72.5994416  55.3025604  23.7818564  73.0951235
  70.0151774  26.0362034  61.5692831  70.3459991  26.5689674  60.9632926
  70.5884862  26.0900922  62.2254782  70.1485453  26.1231603  61.5770613
  65.2283663  23.8826937  62.2516411  65.3230518  24.6216231  62.7056036
  64.6042507  23.4544412  62.6850975  65.1492694  23.9288257  62.3824558
  63.4836137  27.0613149  72.9006692  64.0574999  26.4240394  73.0555256
  63.4050941  27.0617232  72.0316349  63.5569372  26.9678261  72.7953103
  52.0832554  23.8402359  66.7389406  52.6606056  23.7038810  67.3781651
  51.3846615  23.3838143  66.9934990  52.0653575  23.7524625  66.8711696
  65.4806685  25.7275677  55.4853363  65.3986847  25.7977864  56.3508350
  66.1186405  26.2905420  55.2937104  65.5626522  25.8214648  55.5843312
  58.8399856  25.4936414  64.9527889  58.5819100  24.6608149  64.9259189
  58.8948339  25.7194027  64.1120390  58.8099634  25.4034186  64.8248026
  63.9200906  17.5964865  65.0531982  63.2157233  17.1074051  65.2115901
  63.9685880  17.6087340  64.1820426  63.8230958  17.5254513  64.9471322
  57.8134568  23.0474177  65.4392784  57.2384159  23.2066345  66.0756745
  57.4370244  22.4109586  64.9761235  57.6737380  22.9771990  65.4647342
  61.4807857  21.5197526  70.2985162  61.0922290  21.0951744  69.6437354
  60.8162555  21.7679676  70.8062189  61.3254785  21.4936247  70.2773030
  71.1231126  21.2772531  63.0732992  70.8667691  20.4652472  62.8830875
  71.9660440  21.2850098  62.8463180  71.2097151  21.1584528  63.0117810
  47.5591387  22.6914252  63.4537225  47.6451639  22.3146120  64.2350755
  48.1867184  22.3174697  62.9757183  47.6647938  22.5799734  63.4982702
  62.5846795  25.7496131  58.4961969  63.3987434  26.0411024  58.3844741
  62.5205936  25.0955993  57.9220262  62.6949534  25.6961326  58.3950807
  58.4554703  29.2217648  63.6234281  59.0928650  28.9829396  64.1686075
  58.8809775  29.4254807  62.8887442  58.6130870  29.2168658  63.5951439
  53.1467346  31.4605985  67.5068585  53.1871491  31.7320836  66.6788365
  53.7061870  31.9847893  67.9226373  53.2350692  31.5781740  67.4460473
  59.0957518  24.4419938  57.9609171  59.4802671  24.2227645  58.7125716
  58.8469139  25.2682883  58.0910247  59.1159591  24.5318084  58.0910247
  69.8292706  28.2166576  68.9719840  69.5238523  28.9494633  69.3333155
  69.1098921  27.8104505  68.6912626  69.6780048  28.2648309  68.9832977
  60.8376175  29.6990071  65.3028068  60.9115183  29.5365243  66.1569918
  61.6545682  29.8880260  65.0588549  60.9692534  29.7026813  65.3926093
  54.5981932  30.0447934  62.3322511  53.7720050  30.2909671  62.2056790
  54.6593923  29.9660015  63.1984569  54.4856099  30.0692883  62.4411456
  56.8157956  16.1116875  63.2917951  55.9480381  16.1839474  63.3575561
  57.1033160  16.9138954  63.4805926  56.7297704  16.2411022  63.3292718
  59.3780761  32.6624814  60.0341541  59.6679059  32.2713795  59.3100768
  60.1084242  32.8441519  60.4746816  59.5287645  32.6318628  59.9924348
  57.3186677  34.6392196  63.1001691  57.0986972  34.3489551  63.8928358
  57.0981199  33.9807151  62.5719603  57.2534271  34.4991905  63.1390600
  56.2303624  26.7265513  65.3657393  55.9416872  26.1002984  65.9003120
  57.0986972  26.6685800  65.4322073  56.3163876  26.6253057  65.4548347
  67.0181522  21.8700296  65.6839374  66.6746287  21.1490631  66.0346624
  67.1174564  21.6614147  64.8417733  66.9823564  21.7324500  65.6111054
  59.4854632  36.0121586  61.8832383  60.1378690  35.4798029  62.1123409
  58.7880241  35.6590239  62.2700257  59.4785350  35.8811109  61.9744551
  56.4335897  28.3660764  61.2899758  57.1881865  28.7473803  61.5035220
  55.8406510  28.8171908  61.7446454  56.4572611  28.4889591  61.3882636
  67.4794551  28.3326000  61.2263363  68.0452583  28.9919210  61.1421905
  66.8322454  28.6775698  61.6979765  67.4673307  28.4807942  61.2836119
  58.8942564  20.3223604  76.4156970  58.0842340  20.6281384  76.3046812
  59.3717251  21.0429187  76.5309554  58.8446043  20.4738205  76.4164041
  57.7534124  29.5369325  66.6639873  57.2314877  29.6769617  67.3491738
  58.1408144  28.7779990  66.8541990  57.7337825  29.4454849  66.7940949
  54.7425308  19.5875134  60.7334828  54.4550103  19.2176404  59.9966775
  55.4295776  20.0569989  60.4718533  54.8014205  19.6022103  60.5849903
  63.9501129  31.2764785  60.6500442  63.7087805  30.5432645  60.2427507
  64.1302462  31.8251641  59.9966775  63.9408753  31.2487176  60.4930665
  59.1800449  26.5673344  62.0621364  58.9843232  27.1748079  61.4681667
  59.4034795  25.8741288  61.5813038  59.1835090  26.5550870  61.9037445
  57.5778979  23.4528082  62.1802232  58.3001631  23.6169240  61.7206038
  57.0986972  24.1737747  62.0741572  57.6142710  23.5826312  62.0967846
  65.5372487  19.7891881  67.5598917  64.6983588  19.8153160  67.3237181
  65.6076854  20.4362616  68.1404264  65.4240880  19.8888007  67.6108034
  55.2286596  25.8586155  71.2856372  55.7407693  26.1370408  70.6365132
  54.9422939  26.5975449  71.6519185  55.2621459  26.0088508  71.2446250
  63.9841765  16.6877258  62.2926533  64.6868118  16.4885006  61.8146491
  63.7185954  15.9153200  62.5995377  64.0488397  16.5440224  62.2671975
  69.4130011  24.9959868  64.8460159  69.3263985  25.1515294  65.6994938
  68.9580491  25.6397943  64.4719564  69.3333267  25.1135623  64.9167266
  52.3153502  20.3656346  61.5820109  52.4169639  21.1682508  61.9101084
  53.1109389  20.1643682  61.2843189  52.4481408  20.4542245  61.5855464
  58.7470321  17.9512543  71.3457414  58.5553518  17.9667678  72.1956837
  59.5968917  18.1476218  71.3224069  58.8446043  17.9826894  71.4680709
  53.1317234  20.4803525  69.3241230  52.9902726  19.6287465  69.4485738
  53.4157798  20.5232185  68.5003436  53.1525081  20.3603275  69.2208854
  63.2855827  22.3170615  63.4685719  63.0390541  22.2366366  64.3022507
  63.6140950  21.5324083  63.2748246  63.2977070  22.1896880  63.5633242
  67.1803876  29.0253974  67.2572500  67.0418235  29.7235020  67.7621242
  66.4003874  28.8702631  66.9008682  67.0447102  29.1054141  67.2798774
  59.2452854  25.0527333  72.8808702  59.3896230  25.6328542  72.2451812
  59.5928503  25.4303630  73.5858556  59.3180315  25.1948038  72.8907697
  61.4172771  24.2517502  70.6633833  60.6696085  24.4448516  70.2582111
  61.5714297  23.4262721  70.4257955  61.3295199  24.1582613  70.5679239
  58.3180609  33.2430105  69.7469728  58.4670173  32.6833021  69.0943133
  59.0980611  33.3222107  70.1302247  58.4554703  33.1715671  69.7066678
  68.6757248  28.3832228  58.0188999  68.2964057  27.5969366  58.0118288
  68.0123494  28.9319085  57.8760643  68.5215723  28.3477052  57.9969796
  60.8433910  33.4144748  71.0254219  60.7677581  32.7453559  71.5805008
  60.7723769  34.1162536  71.5394886  60.8214517  33.4189656  71.1831067
  61.6574548  18.1468053  71.5529237  62.1147163  18.8792027  71.6802029
  61.7330877  17.7234518  72.3116493  61.7365518  18.1925291  71.6830313
  53.9007540  18.3933872  72.6418681  53.3649729  17.7814230  72.9579448
  53.9625304  18.9682008  73.2952347  53.8303172  18.3880800  72.7854107
  61.5004157  31.9345747  61.8577825  62.2654048  31.6655391  61.5360489
  61.3982247  31.4495757  62.5747888  61.5985652  31.8235312  61.9157653
  59.5356926  20.1370157  68.3971061  58.7453001  19.9561617  68.7188397
  59.9317549  19.3597109  68.3801355  59.4773803  19.9957617  68.4423609
  64.0222817  28.9657931  53.8377775  64.7895802  29.0258056  53.4283626
  63.5754126  28.3938372  53.3534093  64.0696244  28.8894507  53.7055485
  64.9200613  27.7712587  66.1230507  64.2445614  27.5397819  66.6243894
  64.9292989  27.1633770  65.4972612  64.8219117  27.6471512  66.1046659
  62.0494757  22.6130416  72.8794560  61.9853898  23.4740372  72.7514697
  62.1891944  22.2962409  72.0790111  62.0610227  22.6930582  72.7422773
  66.9217347  30.6277719  58.3540685  67.0037185  31.4344705  58.0302136
  67.4067089  30.6473678  59.0781458  67.0054505  30.7498381  58.4127583
  60.7313851  25.3062555  67.0210763  60.3076100  25.5067054  66.2849781
  60.5558706  24.4591403  67.1335063  60.6424731  25.2111336  66.9284453
  60.2325544  36.8213068  69.4832220  60.7221474  36.1223857  69.3007885
  59.6609776  36.5236938  70.0708277  60.2210074  36.6739292  69.5433261
  56.0196296  25.8014606  62.4538735  56.1760915  25.7361409  63.3094727
  56.3596889  26.5763159  62.2417415  56.0929530  25.9063805  62.5493329
  62.5575440  25.1772490  61.3232099  63.0990986  24.6742871  61.7870719
  62.8721999  25.1237685  60.5121584  62.6839837  25.0951911  61.2715911
  60.7261890  30.5689842  58.6072127  60.7954710  29.7104380  58.7465127
  61.5050345  30.7861722  58.2791151  60.8514740  30.4742705  58.5789284
  63.7064710  20.0708794  71.3754399  63.9206679  19.4319709  70.8217753
  63.0898609  20.5154618  70.9462261  63.6470039  20.0418938  71.2304830
  65.1169377  32.9927543  62.8208620  64.7249169  32.6894258  62.1031486
  65.2722450  33.8296633  62.6313574  65.0822967  33.0711380  62.6865117
  52.5930557  22.9849557  62.7699502  52.9729522  23.4034102  62.1059770
  52.0185922  23.5663013  63.0768346  52.5641882  23.1327416  62.7176243
  65.2809052  29.5577532  62.7614650  64.9223707  29.7292175  63.5378683
  64.7947763  30.0190737  62.2042649  65.1567749  29.6516503  62.7939920
  63.0979438  13.1808730  66.3641742  62.2272996  13.1547451  66.3175051
  63.3519779  13.0085922  65.5467587  63.0072998  13.1518874  66.2361879
  60.0697418  25.2376697  55.3014885  60.3589942  26.0141580  55.5758459
  60.1569216  24.7265428  56.0029384  60.1251674  25.2768615  55.4457383
  60.1228579  15.1914959  67.8215212  59.6067067  14.4995150  67.9466791
  59.5622508  15.8585736  67.7677811  59.9635092  15.1878216  67.8321278
  62.1920812  15.7307919  69.6508065  61.8052565  15.7556950  70.4321595
  61.7053749  15.1649597  69.1982581  62.0633321  15.6503669  69.6995968
  66.4413792  30.4481428  73.7081851  67.0793512  29.9541623  73.3744307
  65.7987883  30.3758828  73.1234078  66.4408018  30.3640436  73.5724206
  68.1670792  22.2970574  68.2747767  67.7398400  22.2096922  67.5195866
  67.5296845  22.4048349  68.8602611  68.0100399  22.3003233  68.2493208
  66.4968048  31.1401236  70.3487208  67.2860426  30.7890301  70.4689290
  66.6711646  31.9537624  70.0863842  66.6388330  31.2087093  70.3275076
  56.2361359  24.5509962  67.4014997  55.3949365  24.4513836  67.6093891
  56.4451367  25.3205442  67.7529318  56.1426051  24.6502005  67.4842312
  53.7136926  22.1729499  65.2299748  53.3193623  22.2472510  64.4549857
  53.1577042  22.5587445  65.7808109  53.5739738  22.2411273  65.1967407
  65.3501872  15.1510793  64.9103626  65.5551466  15.0833100  65.7560624
  65.0228296  15.9569614  64.8424804  65.3317120  15.2596733  65.0263282
  60.0478023  22.4791361  66.6512594  59.7441161  21.9247349  67.2523002
  59.3457444  22.6583571  66.1640629  59.8994233  22.4236143  66.6682300
  59.1044121  19.7891881  61.2157296  59.3803855  19.0710793  60.8034864
  59.7042790  20.3876801  61.0078402  59.2337385  19.7712251  61.1238057
  58.1096374  29.6941081  71.3584692  58.0016729  29.7043144  72.2246750
  58.3192156  30.5195862  71.1689646  58.1246485  29.8182156  71.4588784
  68.6035560  15.7042557  64.3906392  67.9909874  16.1912959  64.7760124
  68.6999735  15.0286048  64.9344043  68.5273458  15.6760866  64.5285250
  62.6054641  17.4605398  59.4903891  63.0598388  17.6315958  60.2151736
  63.0794687  16.8473509  59.0901667  62.7422961  17.3956283  59.5377653
  56.1270166  26.9453724  68.8206630  55.5358100  27.5863222  68.7909645
  56.8891190  27.3691341  68.7937929  56.1518427  27.1029562  68.8121777
  56.5230789  18.1055722  69.4874647  56.9832271  18.1794651  70.2249771
  56.5686896  18.9036976  69.1374469  56.5981345  18.2349869  69.5447404
  58.1714139  18.7722417  74.0546675  57.7799704  18.1255764  74.4902452
  58.3400002  19.3633852  74.6740930  58.1385049  18.7636684  74.2109380
  65.8859683  32.3963036  66.2538654  65.6879371  32.8853850  65.5594866
  65.2647394  32.6004277  66.8322788  65.7647247  32.4979574  66.2361878
  59.9467661  24.1647932  60.5948899  60.6909706  24.5522209  60.8331848
  60.0928357  23.3205358  60.7589386  60.0778246  24.0978405  60.6542868
  61.8647236  15.9598191  65.6280760  61.0183282  16.1320999  65.5022110
  61.8618369  15.1547535  65.9646588  61.7394386  15.8659220  65.6591887
  62.9345537  19.7373406  66.4942818  62.4605491  19.2115168  67.0048129
  63.3063673  19.1902878  65.9257679  62.9195426  19.5789402  66.4857965
  53.3118567  21.7344912  71.8626364  54.1744180  21.6340622  71.7763693
  52.9810350  21.1539622  71.3011936  53.3903763  21.6336539  71.7671769
  69.1982267  24.7975781  67.9049598  68.9580490  23.9582196  67.9092025
  69.6774275  24.8775948  68.6290372  69.2334451  24.6857181  68.0124401
  64.8629037  20.6309960  59.5568572  64.3352055  20.7138704  58.8674281
  65.3224745  21.3727832  59.5533216  64.8530887  20.7530623  59.4543267
  71.1987454  21.5777239  65.8578857  70.9597224  21.5373073  65.0199642
  71.3621356  22.4248391  65.9844579  71.1877758  21.6969324  65.7532339
  67.8033485  25.9627188  71.7883903  68.5267683  25.5099714  71.6094923
  67.5383447  26.2431853  71.0056230  67.8714758  25.9378156  71.6462618
  56.6720353  20.5587361  68.5236782  56.0473423  20.5705753  67.9162735
  56.3365948  21.0347536  69.1728022  56.5305845  20.6305878  68.5293350
  56.8562102  18.9012480  54.5809467  56.5074906  19.5532205  55.0441016
  56.3758548  18.8869593  53.8533338  56.7332346  18.9955533  54.5420558
  53.3846029  28.6187821  69.9640546  52.8545953  27.9280260  70.0135521
  53.6571122  28.6098007  69.1353255  53.3470751  28.5154953  69.8487962
  64.4166119  29.2013524  58.6878229  65.1400318  29.6671637  58.5442802
  63.9766710  29.2687133  57.9375826  64.4581811  29.2797360  58.5563010
  63.5852274  26.0611066  69.9378918  62.9709267  25.5169116  70.2327553
  64.1019559  25.5475303  69.4584734  63.5707937  25.9047475  69.9103146
  62.8248571  27.1315336  67.6723216  62.3976179  26.5065055  67.2388652
  62.8173516  26.8490258  68.4982224  62.7607712  26.9968117  67.7303044
  55.9411098  22.1680509  70.7411650  56.1004585  21.4123833  71.1463372
  55.7603992  22.7171449  71.3952388  55.9376457  22.1374323  70.8974356
  61.1534281  18.0084091  67.8865750  61.1776768  17.4744203  67.1978530
  61.4045755  17.5001399  68.5491341  61.1944200  17.8544995  67.8830395
  48.6641871  25.2915586  67.3208894  48.5585320  25.2462430  66.4560978
  47.9142091  25.6369366  67.6023179  48.5377474  25.3356494  67.2346224
  57.4335603  16.7354909  67.2671495  57.4733975  17.2364115  67.9806202
  56.6085268  16.8265303  66.9977418  57.3175129  16.8236725  67.3322033
  59.6165216  26.3015649  75.3691789  58.7660847  26.4387363  75.5049434
  59.7793344  25.5679427  75.8139491  59.5149080  26.2129750  75.4547388
  58.8549967  23.2515419  69.5645394  58.0241896  23.4189237  69.3580642
  58.8001484  22.8751369  70.3494279  58.7239381  23.2205150  69.6493922
  57.2286010  21.5271010  60.0935511  57.3688971  22.0243474  60.7964153
  57.7268543  20.8257305  60.2349725  57.3227091  21.4972989  60.2187090
  57.2586233  22.3938121  57.4228088  57.8931312  22.9898546  57.3577550
  57.3411844  22.0941579  58.2373958  57.3642784  22.4379029  57.5331175
  58.8365216  18.3252097  57.3973530  59.1581057  17.8455179  56.7432793
  59.0992159  19.1351743  57.2064342  58.9231241  18.3741995  57.2729022
  62.0662188  29.3470971  70.9172346  61.5587280  29.9006818  71.3612977
  61.7688835  29.4079261  70.0991121  61.9467073  29.4377282  70.8620803
  64.2324371  17.7124291  69.7597009  64.6579442  17.2596817  69.1480536
  63.6181364  17.1584361  70.0361797  64.2053016  17.5638267  69.7102035
  53.7639221  24.5905962  60.6917634  54.2731450  25.1870470  61.0728940
  54.2373493  24.3231936  60.0094054  53.9082596  24.6391777  60.6472157
  64.6769969  33.2634229  58.8476290  63.9599278  33.0895091  58.3823527
  65.3276706  33.0286801  58.3151776  64.6671819  33.2030021  58.7005508
  62.6718593  14.1839390  63.1687586  62.0286911  14.0337037  63.7372725
  62.3318000  13.9381736  62.4036691  62.5263671  14.1251513  63.1390601
  67.2617940  22.1398817  62.5917595  66.5909130  22.6828519  62.4630660
  67.9557690  22.6093673  62.3499290  67.2646807  22.2897088  62.5373123
  61.3104674  34.2795529  67.8229353  61.0870328  33.5214359  68.1913380
  60.8214517  34.3093550  67.1009793  61.2048123  34.1717754  67.7706094
  67.4246067  18.5954701  65.5007968  67.7773678  18.1684424  66.1753767
  66.5660869  18.5105544  65.6309044  67.3495512  18.5199442  65.6202979
  56.1229752  21.2262221  63.5590815  55.4041742  21.6426353  63.8263678
  56.4942115  21.7916459  63.0082453  56.0721684  21.3711502  63.5173622
  65.4229333  21.8590069  69.4492810  65.4027261  21.6773365  70.3027589
  65.4708534  22.7302088  69.4252394  65.4263974  21.9606608  69.5716105
  63.3675663  28.4477261  75.3741287  63.3271518  27.8026938  74.7886443
  64.1798981  28.3913879  75.6866699  63.4818817  28.3436228  75.3338236
  59.9583131  34.4995987  65.2766438  59.5443529  33.8370118  64.8870279
  60.6430505  34.6473846  64.7562132  59.9981502  34.4236646  65.1422935
  63.3248425  33.6586073  66.0290054  62.9264708  33.7688343  65.2610875
  62.7099644  33.8668139  66.6116614  63.1747314  33.7059641  66.0021354
  61.8976327  20.2660220  58.8964194  61.3041166  20.5877217  58.3448761
  61.9351604  19.4201316  58.6885300  61.8150716  20.1884549  58.7846965
  64.7734143  20.2239725  62.3265944  64.5447836  20.2472426  61.4844303
  65.0332220  19.3997192  62.4460955  64.7780331  20.1055805  62.2191142
  59.0553372  22.0774198  71.9291045  58.5432275  21.4695381  72.2876076
  58.8832868  22.7930791  72.3965020  58.9543009  22.0937497  72.0507268
  53.9019087  20.5211773  74.5793406  53.7321677  21.1813148  74.0341613
  53.4585036  20.7318335  75.3005895  53.8118420  20.6497755  74.6055036
  57.8278906  18.7616271  63.6220140  58.3036272  19.1233351  62.9870321
  57.3267505  19.4172739  63.9020283  57.8244265  18.9110460  63.5696881
  71.0590267  28.2338039  59.4133145  71.4423873  28.9829395  59.6431242
  70.2634381  28.4803859  59.1545134  70.9984050  28.3807733  59.4090719
  50.8021151  23.4258639  69.8381896  50.2547870  22.7559284  69.9562764
  51.5913529  23.0588487  69.9025363  50.8373335  23.2723625  69.8650597
  60.6505559  23.0866096  75.3345307  61.4016886  23.4017773  75.6484861
  60.8428136  22.8845267  74.5079229  60.7896974  23.1033478  75.2588703
  59.8705559  20.9057471  56.9893524  60.2504524  20.9237100  56.2044639
  59.1298155  21.3511460  56.8684371  59.8174397  20.9739246  56.8557092
  67.4990850  19.2139662  62.5769103  67.4985076  19.0588319  63.4353379
  67.2947030  20.0602649  62.5210488  67.4690627  19.3160283  62.6957042
  49.5608120  22.6379447  66.9927919  49.3829882  22.1856056  67.7182835
  49.2727143  23.4405608  67.1766397  49.4921074  22.6902005  67.1271422
  65.2231702  23.8937164  66.2305310  65.7185367  23.1760159  66.1909330
  64.4131477  23.5907962  66.1159796  65.1775595  23.7434810  66.2079035
  60.6690313  27.7434977  58.3802314  59.8601636  27.4201651  58.3335623
  61.1765222  27.0368199  58.3130563  60.6239980  27.5916294  58.3632608
  51.2980590  25.1707170  64.1049678  50.4326110  25.1592861  63.9932449
  51.3979406  24.9837393  64.9520818  51.1854757  25.1413232  64.2138623
  67.2883520  26.6440852  68.9182438  67.7138592  26.1215273  68.3652863
  66.9240440  27.2421689  68.3971061  67.2970123  26.6551079  68.7591448
  56.9237600  34.9405069  67.6779784  57.2384159  35.7541457  67.6857566
  57.3331014  34.5555288  68.3461943  57.0305698  35.0033771  67.7783875
  63.8762120  30.3575116  65.2483596  64.3473298  31.0715378  65.4173581
  64.2122298  29.7573866  65.7843465  63.9957235  30.3746580  65.3515972
  64.5136066  30.1493050  72.0111288  63.9657012  29.5250934  71.7431354
  64.9749095  30.3387322  71.2955368  64.5003276  30.0852100  71.8661719
  59.8624730  17.1318999  59.6721155  60.6840424  17.3017312  59.4302850
  59.3994381  17.2866260  58.9487453  59.9155892  17.1800732  59.5292800
  58.4520062  15.1261761  70.4519584  58.9964475  14.7852888  71.0423926
  58.5056997  15.9847223  70.5940869  58.5409181  15.2017021  70.5601458
  54.2650620  28.8878177  67.3258392  54.8695478  28.8474012  66.6972213
  54.0577933  29.7349330  67.3562448  54.3239518  29.0066180  67.2374509
  64.0794393  31.1544123  68.5420630  64.8992766  31.0107089  68.8036925
  63.7988470  31.7790322  69.0837067  64.1591136  31.2254475  68.6608569
  49.5001903  27.8712795  67.1957315  49.4026181  27.0609067  67.5047372
  50.2830772  27.8504588  66.8103583  49.6018039  27.7479885  67.1844178
  73.7507728  37.8984625  66.2616436  72.8945623  38.0593124  66.3125553
  73.7975381  37.0276689  66.2821497  73.6306839  37.7935427  66.2722502
  68.1348867  47.4347343  62.0253668  67.3831767  47.0562882  61.7969713
  68.5834879  47.4665777  61.2772478  68.0898534  47.3832950  61.8811170
  73.5873827  47.8572713  57.4539215  73.2525196  48.5349634  57.0183437
  74.1000698  47.4678024  56.8656087  73.6139408  47.8997291  57.3026006
  73.1278119  49.8086981  63.3950327  73.5117498  50.3773880  62.8555102
  73.0637260  49.0836492  62.9156143  73.1751546  49.7862445  63.2444189
  76.5959549  39.9576669  68.9048088  77.1415509  40.6361756  68.9642058
  76.5376425  39.8164130  68.0449670  76.6675463  40.0368671  68.7860149
  69.7133624  47.4465735  64.2916440  69.8143987  46.6366089  64.6013568
  69.1175369  47.3522682  63.6616119  69.6406162  47.3130763  64.2442679
  69.5534363  52.3643325  65.6931296  70.1971819  52.8056489  66.0827455
  69.8790619  51.5596751  65.6061555  69.6966192  52.3108519  65.7376774
  62.9098668  43.4686022  63.9168774  62.6748852  42.6353674  63.8101043
  63.0484309  43.7490688  63.1029975  62.8954330  43.3869525  63.7811129
  65.2088755  35.6371753  66.8153082  64.5893787  35.0464400  66.6463097
  65.1072619  36.2283188  66.1817405  65.1026431  35.6375835  66.6958071
  70.2554943  45.3755299  61.0651158  70.5770784  45.9160507  60.4612466
  70.9027039  44.8052071  61.1973448  70.3980998  45.3714475  60.9958194
  72.3056651  37.3771294  61.1485545  73.0036816  37.5559422  61.6407008
  72.6208984  36.8541634  60.5255934  72.4551988  37.3265066  61.1287555
  64.9357888  39.1824034  69.0596651  64.8116585  39.7686480  69.6946470
  65.5876173  38.6884230  69.3608926  65.0131538  39.1962839  69.1982580
  69.9616229  42.3585751  68.3384162  70.6065232  41.8658194  68.0195110
  70.2018006  42.5010538  69.1650240  70.0926815  42.3063193  68.4133695
  72.5002321  45.2040657  67.9891054  72.7825564  44.4092063  67.7677810
  73.2288481  45.6821245  68.0096115  72.6491884  45.1575254  67.9594070
  70.4783515  32.7463691  65.2306820  70.1486845  33.1974835  64.5610518
  69.8028516  32.6679854  65.7779826  70.3293951  32.8014826  65.2130043
  76.0953923  42.1168921  58.0896106  76.0105218  42.9729887  58.2345674
  76.5838306  41.8413245  58.7578265  76.1542820  42.2026242  58.2098187
  77.6859922  28.7349214  63.4756430  77.3713363  29.4252693  63.9076853
  77.1686864  28.6793996  62.7741931  77.5624393  28.8284102  63.4353379
  77.0272356  38.7353715  59.5893841  76.4983828  38.9513348  60.2491147
  77.5497376  39.4289853  59.5094810  77.0260809  38.8696852  59.6749440
  68.9171964  42.6316932  58.3901309  68.3329179  43.1366963  58.7967173
  68.5142059  42.4059319  57.6497901  68.7711268  42.6725180  58.3406334
  64.4715993  48.3471693  65.1924980  63.9883571  49.0722182  65.1684564
  65.2839311  48.6447823  65.3035138  64.5206740  48.4974046  65.2052259
  70.5430147  47.1403873  67.7974795  70.0257088  46.7811288  67.1936103
  71.2404538  46.6166048  67.8080861  70.5695728  47.0101561  67.7105053
  73.3749178  38.8782584  56.8670229  73.6145182  39.0860567  56.0545572
  73.6965019  38.0740092  56.9759174  73.4586336  38.7896685  56.7630782
  68.6839469  30.8075979  60.7129767  69.4385437  31.1754297  60.4746817
  68.5067003  31.1815534  61.4808947  68.7693947  30.9174167  60.7914656
  67.3260190  48.8627869  65.3445260  68.0280769  48.3479858  65.4018017
  67.2457673  49.1902020  66.1492135  67.4183950  48.8342095  65.4718052
  68.3739096  39.1003456  74.4725675  68.5459600  38.9909350  75.3210957
  68.9108454  39.7457861  74.2356867  68.4784100  39.1795457  74.5630772
  67.0396533  33.2146298  57.4107880  66.8572107  33.4318179  56.5848873
  67.9022146  33.3285311  57.4666495  67.1401123  33.2636196  57.2962367
  66.6510965  45.0534221  64.8530868  67.4899865  45.2857153  64.9004630
  66.6822734  44.1838532  64.7837904  66.7792683  44.9591167  64.8495513
  67.2763668  45.4735096  69.1544174  67.8161893  45.3306227  69.8247546
  66.5933615  45.8731847  69.5228200  67.2555822  45.5114767  69.3078595
  72.7196253  30.2172709  60.4456904  73.4482413  30.0388664  59.9995060
  72.8091145  31.0590789  60.6564082  72.8402915  30.3156588  60.4110422
  76.7004553  41.1526096  64.3489198  77.4562068  41.5857611  64.3878107
  76.8066878  40.5030866  64.9223834  76.8274724  41.1203580  64.4387224
  62.6800813  41.6935387  69.3078595  62.4139229  40.8774503  69.4669585
  62.6939378  41.7388542  68.4374111  62.6425536  41.5792291  69.2032077
  66.5858560  36.4920471  55.9230353  65.8716737  36.2058651  56.3352786
  67.0702529  36.8317097  56.5636741  66.5517924  36.5002121  56.0785988
  67.4299420  35.2313765  71.9545603  66.7371216  34.7610745  72.2006334
  68.0459747  35.0052069  72.5287310  67.4183950  35.1280897  72.0754755
  73.7605878  44.9950425  56.2992161  74.1757027  44.6635449  55.6076657
  72.9297808  44.7619327  56.1712298  73.6993887  44.9121681  56.1783009
  63.0894227  42.4794166  66.5890339  62.9069800  42.4541052  65.7362632
  63.8243896  42.9493104  66.6279248  63.1708291  42.5455528  66.4688258
  66.1539979  39.1979169  73.0972448  66.8779951  39.1832200  73.5837343
  66.2556115  39.9074524  72.5994416  66.2758188  39.3003872  73.0951235
  76.2016247  39.4012245  62.2516411  76.2963101  40.1401539  62.7056036
  75.5775091  38.9729720  62.6850975  76.1225277  39.4473565  62.3824558
  63.0565137  39.3587667  66.7389406  63.6338640  39.2224118  67.3781651
  62.3579199  38.9023451  66.9934990  63.0386159  39.2709933  66.8711696
  76.4539268  41.2460984  55.4853363  76.3719431  41.3163172  56.3508350
  77.0918989  41.8090728  55.2937104  76.5359106  41.3399956  55.5843312
  69.8132440  41.0121722  64.9527889  69.5551684  40.1793457  64.9259189
  69.8680922  41.2379335  64.1120390  69.7832217  40.9219494  64.8248026
  74.8933490  33.1150173  65.0531982  74.1889816  32.6259359  65.2115901
  74.9418464  33.1272648  64.1820426  74.7963541  33.0439821  64.9471322
  68.7867152  38.5659485  65.4392784  68.2116743  38.7251653  66.0756745
  68.4102828  37.9294894  64.9761235  68.6469964  38.4957298  65.4647342
  72.4540440  37.0382834  70.2985162  72.0654873  36.6137052  69.6437354
  71.7895139  37.2864984  70.8062189  72.2987368  37.0121555  70.2773030
  58.5323971  38.2099560  63.4537225  58.6184222  37.8331428  64.2350755
  59.1599768  37.8360005  62.9757183  58.6380522  38.0985042  63.4982702
  73.5579379  41.2681439  58.4961969  74.3720017  41.5596332  58.3844741
  73.4938520  40.6141301  57.9220262  73.6682118  41.2146633  58.3950807
  69.4287287  44.7402956  63.6234281  70.0661234  44.5014704  64.1686075
  69.8542358  44.9440115  62.8887442  69.5863453  44.7353966  63.5951439
  64.1199929  46.9791293  67.5068585  64.1604075  47.2506144  66.6788365
  64.6794453  47.5033201  67.9226373  64.2083275  47.0967048  67.4460473
  70.0690102  39.9605246  57.9609171  70.4535255  39.7412953  58.7125716
  69.8201722  40.7868191  58.0910247  70.0892174  40.0503392  58.0910247
  71.8108759  45.2175379  65.3028068  71.8847767  45.0550551  66.1569918
  72.6278265  45.4065568  65.0588549  71.9425117  45.2212121  65.3926093
  65.5714515  45.5633242  62.3322511  64.7452633  45.8094979  62.2056790
  65.6326507  45.4845322  63.1984569  65.4588682  45.5878191  62.4411456
  67.7890539  31.6302183  63.2917951  66.9212965  31.7024782  63.3575561
  68.0765744  32.4324262  63.4805926  67.7030287  31.7596330  63.3292718
  70.3513345  48.1810122  60.0341541  70.6411643  47.7899103  59.3100768
  71.0816825  48.3626827  60.4746816  70.5020229  48.1503936  59.9924348
  70.9408090  42.9827868  71.1194672  70.4419783  43.6943635  71.1979560
  71.7508314  43.3028534  71.0812834  70.9864196  43.1354716  71.1251240
  68.2919260  50.1577504  63.1001691  68.0719556  49.8674859  63.8928358
  68.0713782  49.4992459  62.5719603  68.2266854  50.0177213  63.1390600
  67.2036207  42.2450821  65.3657393  66.9149456  41.6188292  65.9003120
  68.0719555  42.1871108  65.4322073  67.2896459  42.1438365  65.4548347
  77.9914105  37.3885604  65.6839374  77.6478871  36.6675939  66.0346624
  78.0907148  37.1799455  64.8417733  77.9556148  37.2509807  65.6111054
  70.4587216  51.5306894  61.8832383  71.1111274  50.9983337  62.1123409
  69.7612825  51.1775547  62.2700257  70.4517934  51.3996417  61.9744551
  67.4068481  43.8846072  61.2899758  68.1614449  44.2659111  61.5035220
  66.8139093  44.3357216  61.7446454  67.4305194  44.0074899  61.3882636
  69.8675148  35.8408912  76.4156970  69.0574923  36.1466692  76.3046812
  70.3449834  36.5614495  76.5309554  69.8178626  35.9923513  76.4164041
  68.7266707  45.0554633  66.6639873  68.2047461  45.1954925  67.3491738
  69.1140728  44.2965297  66.8541990  68.7070408  44.9640157  66.7940949
  65.7157891  35.1060442  60.7334828  65.4282687  34.7361712  59.9966775
  66.4028360  35.5755297  60.4718533  65.7746789  35.1207411  60.5849903
  74.9233712  46.7950092  60.6500442  74.6820388  46.0617953  60.2427507
  75.1035045  47.3436949  59.9966775  74.9141336  46.7672484  60.4930665
  70.1533033  42.0858652  62.0621364  69.9575816  42.6933387  61.4681667
  70.3767378  41.3926596  61.5813038  70.1567674  42.0736178  61.9037445
  68.5511563  38.9713390  62.1802232  69.2734215  39.1354548  61.7206038
  68.0719556  39.6923055  62.0741572  68.5875294  39.1011620  62.0967846
  66.2019180  41.3771463  71.2856372  66.7140277  41.6555716  70.6365132
  65.9155522  42.1160757  71.6519185  66.2354043  41.5273816  71.2446250
  74.9574349  32.2062566  62.2926533  75.6600702  32.0070314  61.8146491
  74.6918537  31.4338508  62.5995377  75.0220981  32.0625532  62.2671975
  63.2886086  35.8841654  61.5820109  63.3902222  36.6867816  61.9101084
  64.0841973  35.6828990  61.2843189  63.4213992  35.9727553  61.5855464
  69.7202905  33.4697851  71.3457414  69.5286102  33.4852986  72.1956837
  70.5701501  33.6661525  71.3224069  69.8178627  33.5012202  71.4680709
  64.1049818  35.9988833  69.3241230  63.9635310  35.1472773  69.4485738
  64.3890381  36.0417493  68.5003436  64.1257664  35.8788583  69.2208854
  74.2588410  37.8355923  63.4685719  74.0123125  37.7551674  64.3022507
  74.5873533  37.0509391  63.2748246  74.2709654  37.7082188  63.5633242
  78.1536459  44.5439282  67.2572500  78.0150819  45.2420328  67.7621242
  77.3736457  44.3887939  66.9008682  78.0179686  44.6239449  67.2798774
  70.2185438  40.5712641  72.8808702  70.3628813  41.1513850  72.2451812
  70.5661086  40.9488938  73.5858556  70.2912899  40.7133345  72.8907697
  72.3905355  39.7702810  70.6633833  71.6428669  39.9633824  70.2582111
  72.5446880  38.9448029  70.4257955  72.3027783  39.6767921  70.5679239
  72.6307132  33.6653360  71.5529237  73.0879746  34.3977335  71.6802029
  72.7063461  33.2419826  72.3116493  72.7098102  33.7110599  71.6830313
  64.8740123  33.9119180  72.6418681  64.3382313  33.2999538  72.9579448
  64.9357888  34.4867316  73.2952347  64.8035756  33.9066108  72.7854107
  72.4736740  47.4531055  61.8577825  73.2386631  47.1840699  61.5360489
  72.3714830  46.9681065  62.5747888  72.5718236  47.3420620  61.9157653
  70.5089510  35.6555464  68.3971061  69.7185585  35.4746925  68.7188397
  70.9050133  34.8782417  68.3801355  70.4506386  35.5142925  68.4423609
  74.9955401  44.4843239  53.8377775  75.7628386  44.5443364  53.4283626
  74.5486710  43.9123680  53.3534093  75.0428828  44.4079814  53.7055485
  75.8933196  43.2897895  66.1230507  75.2178198  43.0583127  66.6243894
  75.9025572  42.6819078  65.4972612  75.7951701  43.1656820  66.1046659
  73.0227340  38.1315724  72.8794560  72.9586481  38.9925680  72.7514697
  73.1624528  37.8147717  72.0790111  73.0342810  38.2115890  72.7422773
  77.8949931  46.1463027  58.3540685  77.9769768  46.9530013  58.0302136
  78.3799673  46.1658986  59.0781458  77.9787089  46.2683689  58.4127583
  71.7046434  40.8247863  67.0210763  71.2808683  41.0252362  66.2849781
  71.5291289  39.9776711  67.1335063  71.6157315  40.7296644  66.9284453
  66.9928879  41.3199914  62.4538735  67.1493498  41.2546717  63.3094727
  67.3329472  42.0948467  62.2417415  67.0662114  41.4249112  62.5493329
  73.5308024  40.6957798  61.3232099  74.0723569  40.1928179  61.7870719
  73.8454583  40.6422993  60.5121584  73.6572421  40.6137219  61.2715911
  74.6797293  35.5894102  71.3754399  74.8939263  34.9505017  70.8217753
  74.0631192  36.0339926  70.9462261  74.6202622  35.5604246  71.2304830
  76.0901961  48.5112851  62.8208620  75.6981753  48.2079566  62.1031486
  76.2455033  49.3481941  62.6313574  76.0555551  48.5896687  62.6865117
  63.5663141  38.5034865  62.7699502  63.9462105  38.9219410  62.1059770
  62.9918505  39.0848320  63.0768346  63.5374465  38.6512724  62.7176243
  76.2541636  45.0762840  62.7614650  75.8956291  45.2477482  63.5378683
  75.7680347  45.5376045  62.2042649  76.1300333  45.1701811  62.7939920
  74.0712022  28.6994038  66.3641742  73.2005580  28.6732759  66.3175051
  74.3252363  28.5271230  65.5467587  73.9805582  28.6704182  66.2361879
  71.0430001  40.7562005  55.3014885  71.3322526  41.5326887  55.5758459
  71.1301800  40.2450736  56.0029384  71.0984257  40.7953923  55.4457383
  71.0961162  30.7100266  67.8215212  70.5799651  30.0180458  67.9466791
  70.5355091  31.3771044  67.7677811  70.9367675  30.7063524  67.8321278
  73.1653396  31.2493227  69.6508065  72.7785149  31.2742258  70.4321595
  72.6786333  30.6834905  69.1982581  73.0365905  31.1688977  69.6995968
  67.2093942  40.0695270  67.4014997  66.3681949  39.9699144  67.6093891
  67.4183950  40.8390750  67.7529318  67.1158635  40.1687313  67.4842312
  64.6869509  37.6914806  65.2299748  64.2926207  37.7657818  64.4549857
  64.1309626  38.0772753  65.7808109  64.5472321  37.7596581  65.1967407
  76.3234456  30.6696100  64.9103626  76.5284049  30.6018408  65.7560624
  75.9960880  31.4754922  64.8424804  76.3049704  30.7782041  65.0263282
  71.0210607  37.9976669  66.6512594  70.7173745  37.4432657  67.2523002
  70.3190028  38.1768879  66.1640629  70.8726817  37.9421451  66.6682300
  70.0776704  35.3077189  61.2157296  70.3536438  34.5896101  60.8034864
  70.6775373  35.9062108  61.0078402  70.2069969  35.2897559  61.1238057
  69.0828958  45.2126389  71.3584692  68.9749313  45.2228452  72.2246750
  69.2924740  46.0381170  71.1689646  69.0979069  45.3367464  71.4588784
  73.5787225  32.9790706  59.4903891  74.0330971  33.1501266  60.2151736
  74.0527270  32.3658817  59.0901667  73.7155545  32.9141591  59.5377653
  67.1002750  42.4639032  68.8206630  66.5090683  43.1048530  68.7909645
  67.8623774  42.8876649  68.7937929  67.1251011  42.6214870  68.8121777
  67.4963373  33.6241030  69.4874647  67.9564854  33.6979959  70.2249771
  67.5419480  34.4222284  69.1374469  67.5713928  33.7535177  69.5447404
  69.1446723  34.2907724  74.0546675  68.7532288  33.6441072  74.4902452
  69.3132585  34.8819160  74.6740930  69.1117633  34.2821992  74.2109380
  76.8592266  47.9148343  66.2538654  76.6611955  48.4039158  65.5594866
  76.2379977  48.1189585  66.8322788  76.7379831  48.0164882  66.2361878
  70.9200245  39.6833240  60.5948899  71.6642290  40.0707517  60.8331848
  71.0660941  38.8390666  60.7589386  71.0510830  39.6163713  60.6542868
  72.8379820  31.4783499  65.6280760  71.9915865  31.6506307  65.5022110
  72.8350953  30.6732843  65.9646588  72.7126970  31.3844528  65.6591887
  73.9078120  35.2558714  66.4942818  73.4338075  34.7300476  67.0048129
  74.2796256  34.7088186  65.9257679  73.8928009  35.0974710  66.4857965
  64.2851151  37.2530220  71.8626364  65.1476764  37.1525929  71.7763693
  63.9542934  36.6724930  71.3011936  64.3636347  37.1521847  71.7671769
  75.8361620  36.1495268  59.5568572  75.3084639  36.2324012  58.8674281
  76.2957328  36.8913140  59.5533216  75.8263471  36.2715931  59.4543267
  67.6452937  36.0772669  68.5236782  67.0206007  36.0891061  67.9162735
  67.3098531  36.5532844  69.1728022  67.5038428  36.1491186  68.5293350
  67.8294685  34.4197788  54.5809467  67.4807490  35.0717513  55.0441016
  67.3491131  34.4054901  53.8533338  67.7064929  34.5140841  54.5420558
  64.3578612  44.1373129  69.9640546  63.8278537  43.4465568  70.0135521
  64.6303705  44.1283315  69.1353255  64.3203334  44.0340261  69.8487962
  75.3898703  44.7198832  58.6878229  76.1132902  45.1856945  58.5442802
  74.9499294  44.7872441  57.9375826  75.4314395  44.7982668  58.5563010
  74.5584858  41.5796374  69.9378918  73.9441851  41.0354424  70.2327553
  75.0752143  41.0660610  69.4584734  74.5440520  41.4232783  69.9103146
  73.7981155  42.6500644  67.6723216  73.3708763  42.0250363  67.2388652
  73.7906099  42.3675566  68.4982224  73.7340296  42.5153425  67.7303044
  66.9143682  37.6865817  70.7411650  67.0737169  36.9309141  71.1463372
  66.7336576  38.2356757  71.3952388  66.9109041  37.6559631  70.8974356
  72.1266865  33.5269399  67.8865750  72.1509352  32.9929511  67.1978530
  72.3778338  33.0186707  68.5491341  72.1676783  33.3730302  67.8830395
  59.6374454  40.8100894  67.3208894  59.5317903  40.7647738  66.4560978
  58.8874674  41.1554674  67.6023179  59.5110057  40.8541802  67.2346224
  68.4068187  32.2540217  67.2671495  68.4466558  32.7549423  67.9806202
  67.5817851  32.3450610  66.9977418  68.2907713  32.3422033  67.3322033
  69.8282550  38.7700727  69.5645394  68.9974480  38.9374545  69.3580642
  69.7734067  38.3936677  70.3494279  69.6971965  38.7390458  69.6493922
  68.2018594  37.0456318  60.0935511  68.3421555  37.5428782  60.7964153
  68.7001127  36.3442613  60.2349725  68.2959675  37.0158297  60.2187090
  68.2318816  37.9123429  57.4228088  68.8663896  38.5083854  57.3577550
  68.3144427  37.6126887  58.2373958  68.3375367  37.9564337  57.5331175
  69.8097799  33.8437405  57.3973530  70.1313640  33.3640487  56.7432793
  70.0724743  34.6537051  57.2064342  69.8963825  33.8927303  57.2729022
  75.2056954  33.2309599  69.7597009  75.6312026  32.7782125  69.1480536
  74.5913947  32.6769669  70.0361797  75.1785600  33.0823575  69.7102035
  64.7371804  40.1091270  60.6917634  65.2464034  40.7055777  61.0728940
  65.2106077  39.8417244  60.0094054  64.8815180  40.1577085  60.6472157
  75.6502552  48.7819537  58.8476290  74.9331862  48.6080399  58.3823527
  76.3009290  48.5472109  58.3151776  75.6404403  48.7215329  58.7005508
  73.6451177  29.7024698  63.1687586  73.0019495  29.5522345  63.7372725
  73.3050584  29.4567044  62.4036691  73.4996254  29.6436821  63.1390601
  72.2837257  49.7980837  67.8229353  72.0602912  49.0399666  68.1913380
  71.7947101  49.8278858  67.1009793  72.1780706  49.6903062  67.7706094
  78.3978651  34.1140009  65.5007968  78.7506261  33.6869732  66.1753767
  77.5393452  34.0290852  65.6309044  78.3228096  34.0384749  65.6202979
  67.0962336  36.7447528  63.5590815  66.3774325  37.1611661  63.8263678
  67.4674698  37.3101767  63.0082453  67.0454268  36.8896810  63.5173622
  76.3961917  37.3775377  69.4492810  76.3759844  37.1958673  70.3027589
  76.4441118  38.2487396  69.4252394  76.3996558  37.4791916  69.5716105
  70.9315714  50.0181295  65.2766438  70.5176113  49.3555426  64.8870279
  71.6163088  50.1659154  64.7562132  70.9714086  49.9421953  65.1422935
  74.2981008  49.1771381  66.0290054  73.8997292  49.2873651  65.2610875
  73.6832228  49.3853447  66.6116614  74.1479898  49.2244949  66.0021354
  72.8708910  35.7845528  58.8964194  72.2773750  36.1062525  58.3448761
  72.9084188  34.9386624  58.6885300  72.7883299  35.7069857  58.7846965
  75.7466727  35.7425033  62.3265944  75.5180420  35.7657734  61.4844303
  76.0064803  34.9182500  62.4460955  75.7512915  35.6241113  62.2191142
  70.0285955  37.5959506  71.9291045  69.5164858  36.9880689  72.2876076
  69.8565452  38.3116098  72.3965020  69.9275592  37.6122805  72.0507268
  64.8751670  36.0397081  74.5793406  64.7054260  36.6998456  74.0341613
  64.4317620  36.2503642  75.3005895  64.7851004  36.1683063  74.6055036
  68.8011489  34.2801579  63.6220140  69.2768856  34.6418659  62.9870321
  68.3000089  34.9358047  63.9020283  68.7976848  34.4295768  63.5696881
  61.7753735  38.9443947  69.8381896  61.2280454  38.2744592  69.9562764
  62.5646113  38.5773795  69.9025363  61.8105918  38.7908933  69.8650597
  70.8438143  36.4242779  56.9893524  71.2237107  36.4422408  56.2044639
  70.1030739  36.8696768  56.8684371  70.7906980  36.4924554  56.8557092
  78.4723433  34.7324970  62.5769103  78.4717660  34.5773627  63.4353379
  78.2679613  35.5787957  62.5210488  78.4423211  34.8345591  62.6957042
  60.5340704  38.1564755  66.9927919  60.3562465  37.7041364  67.7182835
  60.2459726  38.9590916  67.1766397  60.4653657  38.2087312  67.1271422
  76.1964285  39.4122472  66.2305310  76.6917950  38.6945467  66.1909330
  75.3864061  39.1093270  66.1159796  76.1508178  39.2620118  66.2079035
  71.6422897  43.2620285  58.3802314  70.8334219  42.9386959  58.3335623
  72.1497806  42.5553507  58.3130563  71.5972563  43.1101602  58.3632608
  62.2713174  40.6892478  64.1049678  61.4058693  40.6778169  63.9932449
  62.3711990  40.5022701  64.9520818  62.1587341  40.6598540  64.2138623
  78.2616104  42.1626159  68.9182438  78.6871176  41.6400581  68.3652863
  77.8973024  42.7606997  68.3971061  78.2702707  42.1736387  68.7591448
  67.8970184  50.4590377  67.6779784  68.2116743  51.2726765  67.6857566
  68.3063597  50.0740596  68.3461943  68.0038282  50.5219079  67.7783875
  74.8494703  45.8760424  65.2483596  75.3205882  46.5900686  65.4173581
  75.1854882  45.2759174  65.7843465  74.9689819  45.8931888  65.3515972
  70.8357313  32.6504307  59.6721155  71.6573008  32.8202620  59.4302850
  70.3726964  32.8051568  58.9487453  70.8888476  32.6986040  59.5292800
  69.4252645  30.6447069  70.4519584  69.9697058  30.3038196  71.0423926
  69.4789581  31.5032531  70.5940869  69.5141765  30.7202329  70.5601458
  65.2383204  44.4063485  67.3258392  65.8428061  44.3659320  66.6972213
  65.0310517  45.2534637  67.3562448  65.2972101  44.5251488  67.2374509
  60.4734486  43.3898103  67.1957315  60.3758764  42.5794374  67.5047372
  61.2563356  43.3689896  66.8103583  60.5750623  43.2665193  67.1844178
  77.5591144  52.0105779  55.9230353  76.8449321  51.7243959  56.3352786
  78.0435113  52.3502405  56.5636741  77.5250507  52.0187429  56.0785988
  69.5056554  53.7284868  63.4537225  69.5916806  53.3516736  64.2350755
  70.1332352  53.3545313  62.9757183  69.6113105  53.6170350  63.4982702
  76.6890475  50.6245750  60.7334828  76.4015271  50.2547020  59.9966775
  77.3760943  51.0940605  60.4718533  76.7479372  50.6392719  60.5849903
  74.2618669  51.4026962  61.5820109  74.3634806  52.2053124  61.9101084
  75.0574556  51.2014298  61.2843189  74.3946575  51.4912861  61.5855464
  74.5395724  54.0220173  62.7699502  74.9194689  54.4404718  62.1059770
  73.9651089  54.6033628  63.0768346  74.5107049  54.1698032  62.7176243
  75.7104388  55.6276578  60.6917634  76.2196617  56.2241085  61.0728940
  76.1838660  55.3602552  60.0094054  75.8547764  55.6762393  60.6472157
  56.8567108   8.8540167  48.9593715  56.1050007   8.4755705  48.7309760
  57.3053120   8.8858600  48.2112525  56.8116775   8.8025774  48.8151217
  62.3092068   9.2765536  44.3879262  61.9743436   9.9542458  43.9523484
  62.8218938   8.8870847  43.7996133  62.3357649   9.3190114  44.2366053
  61.8496359  11.2279805  50.3290373  62.2335738  11.7966703  49.7895149
  61.7855500  10.5029315  49.8496189  61.8969786  11.2055268  50.1784236
  58.4351864   8.8658559  51.2256487  58.5362227   8.0558913  51.5353615
  57.8393609   8.7715505  50.5956166  58.3624403   8.7323587  51.1782726
  58.2752604  13.7836148  52.6271343  58.9190059  14.2249312  53.0167502
  58.6008859  12.9789574  52.5401602  58.4184432  13.7301343  52.6716821
  51.6316908   4.8878845  50.8508821  51.3967093   4.0546498  50.7441090
  51.7702549   5.1683511  50.0370022  51.6172571   4.8062349  50.7151176
  58.9773183   6.7948123  47.9991205  59.2989024   7.3353330  47.3952513
  59.6245280   6.2244894  48.1313495  59.1199238   6.7907298  47.9298240
  53.1934233   9.7664516  52.1265027  52.7101811  10.4915006  52.1024611
  54.0057551  10.0640646  52.2375185  53.2424981   9.9166870  52.1392306
  59.2648387   8.5596697  54.7314842  58.7475329   8.2004112  54.1276150
  59.9622778   8.0358871  54.7420908  59.2913968   8.4294385  54.6445100
  62.9211979   9.0091511  60.6931015  63.0095325   8.8217651  61.5409225
  63.3501692   8.3628940  60.2935861  62.9974081   8.8854518  60.7602766
  60.4882439   8.2922671  59.6748677  59.9253274   7.8795281  60.1988338
  61.2503462   8.2175576  60.0941820  60.5176887   8.2200071  59.8141677
  56.0478430  10.2820692  52.2785307  56.7499010   9.7672681  52.3358063
  55.9675913  10.6094843  53.0832182  56.1402191  10.2534918  52.4058099
  55.3729206   6.4727044  51.7870915  56.2118105   6.7049977  51.8344677
  55.4040975   5.6031355  51.7177950  55.5010923   6.3783990  51.7835560
  55.9981909   6.8927919  56.0884220  56.5380134   6.7499050  56.7587593
  55.3151855   7.2924670  56.4568247  55.9774063   6.9307590  56.2418642
  63.0332038   8.4400530  63.3574798  63.8172455   8.5531378  63.7230540
  62.8328633   7.6141667  63.5533484  63.1198064   8.3347249  63.4409184
  63.1902432  10.3510632  57.0041254  62.3917677  10.1110132  57.2615122
  63.6388443  10.4025025  57.7508301  63.1377043  10.3233023  57.1526178
  51.8112467   3.8986989  53.5230386  51.6288041   3.8733875  52.6702678
  52.5462136   4.3685927  53.5619295  51.8926531   3.9648352  53.4028305
  58.1505527   6.1595779  50.5574328  58.7879474   5.9207527  51.1026122
  58.5760599   6.3632938  49.8227489  58.3081693   6.1546790  50.5291486
  52.8418170   8.3984116  54.4408632  52.8822315   8.6698967  53.6128412
  53.4012694   8.9226024  54.8566420  52.9301516   8.5159871  54.3800520
  60.5326999   6.6368202  52.2368115  60.6066007   6.4743374  53.0909964
  61.3496506   6.8258392  51.9928596  60.6643358   6.6404944  52.3266140
  54.2932756   6.9826065  49.2662558  53.4670874   7.2287802  49.1396837
  54.3544747   6.9038146  50.1324616  54.1806923   7.0071014  49.3751502
  59.0731585   9.6002945  46.9681588  59.3629883   9.2091926  46.2440815
  59.8035066   9.7819650  47.4086863  59.2238469   9.5696759  46.9264395
  57.0137500  11.5770328  50.0341738  56.7937796  11.2867682  50.8268405
  56.7932022  10.9185283  49.5059650  56.9485095  11.4370036  50.0730646
  59.1805456  12.9499717  48.8172430  59.8329514  12.4176160  49.0463456
  58.4831065  12.5968370  49.2040304  59.1736174  12.8189240  48.9084598
  56.1286721   5.3038895  48.2239804  56.8832689   5.6851934  48.4375267
  55.5357334   5.7550039  48.6786501  56.1523435   5.4267722  48.3222683
  57.4484948   6.4747456  53.5979920  56.9265701   6.6147748  54.2831784
  57.8358968   5.7158121  53.7882037  57.4288649   6.3832980  53.7280996
  63.6451953   8.2142916  47.5840489  63.4038629   7.4810776  47.1767553
  63.8253286   8.7629773  46.9306822  63.6359577   8.1865307  47.4270711
  58.0131433  10.1808236  56.6809775  58.1620997   9.6211152  56.0283180
  58.7931435  10.2600238  57.0642294  58.1505527  10.1093802  56.6406724
  60.5384734  10.3522879  57.9594266  60.4628405   9.6831690  58.5145054
  60.4674593  11.0540668  58.4734932  60.5165341  10.3567787  58.1171114
  61.1954981   8.8723878  48.7917872  61.9604872   8.6033522  48.4700536
  61.0933071   8.3873889  49.5087935  61.2936476   8.7613443  48.8497700
  59.9276368  13.7591199  56.4172267  60.4172298  13.0601988  56.2347932
  59.3560600  13.4615069  57.0048324  59.9160898  13.6117423  56.4773308
  60.4212714   7.5067973  45.5412173  60.4905534   6.6482511  45.6805174
  61.2001169   7.7239854  45.2131198  60.5465564   7.4120837  45.5129331
  64.8120201   9.9305674  49.7548667  64.4199993   9.6272389  49.0371533
  64.9673274  10.7674764  49.5653620  64.7773791  10.0089511  49.6205164
  57.8047198   6.6319213  58.2924739  57.6967553   6.6421275  59.1586797
  58.0142980   7.4573993  58.1029693  57.8197309   6.7560287  58.3928831
  65.5810507   9.3341167  53.1878701  65.3830195   9.8231981  52.4934912
  64.9598218   9.5382408  53.7662834  65.4598071   9.4357705  53.1701924
  53.0796852   5.5565953  56.8980593  52.5496777   4.8658392  56.9475568
  53.3521946   5.5476138  56.0693301  53.0421575   5.4533084  56.7828009
  48.3592695   2.2293717  54.2548941  48.2536144   2.1840561  53.3901025
  47.6092915   2.5747497  54.5363226  48.2328298   2.2734625  54.1686271
  61.7613012   6.2849102  57.8512393  61.2538103   6.8384949  58.2953024
  61.4639659   6.3457392  57.0331168  61.6417897   6.3755413  57.7960850
  64.3720793  10.2012360  45.7816337  63.6550102  10.0273222  45.3163574
  65.0227530   9.9664932  45.2491823  64.3622643  10.1408152  45.6345555
  61.0055498  11.2173660  54.7569400  60.7821152  10.4592490  55.1253426
  60.5165341  11.2471682  54.0349840  60.8998947  11.1095885  54.7046141
  59.6533955  11.4374119  52.2106485  59.2394353  10.7748249  51.8210326
  60.3381329  11.5851977  51.6902179  59.6932326  11.3614777  52.0762982
  63.0199249  10.5964204  52.9630101  62.6215532  10.7066474  52.1950921
  62.4050468  10.8046270  53.5456661  62.8698138  10.6437772  52.9361401
  56.6188424  11.8783200  54.6119831  56.9334983  12.6919589  54.6197612
  57.0281838  11.4933419  55.2801990  56.7256522  11.9411903  54.7123922
  53.9601444   5.8256309  54.2598439  54.5646302   5.7852143  53.6312260
  53.7528757   6.6727461  54.2902495  54.0190342   5.9444311  54.1714556
  63.7745216   8.0922254  55.4760676  64.5943590   7.9485220  55.7376972
  63.4939294   8.7168453  56.0177114  63.8541960   8.1632606  55.5948616
  49.1952727   4.8090926  54.1297362  49.0977005   3.9987198  54.4387419
  49.9781596   4.7882720  53.7443630  49.2968863   4.6858016  54.1184225
  73.4458552  14.8362757  53.1956483  72.5896447  14.9971255  53.2465600
  73.4926205  13.9654821  53.2161544  73.3257663  14.7313558  53.2062549
  67.8299691  24.3725474  48.9593715  67.0782591  23.9941013  48.7309760
  68.2785703  24.4043908  48.2112525  67.7849358  24.3211082  48.8151217
  73.2824651  24.7950844  44.3879262  72.9476020  25.4727766  43.9523484
  73.7951522  24.4056155  43.7996133  73.3090232  24.8375422  44.2366053
  72.8228943  26.7465113  50.3290373  73.2068322  27.3152011  49.7895149
  72.7588084  26.0214623  49.8496189  72.8702370  26.7240576  50.1784236
  76.2910373  16.8954800  55.8388135  76.8366333  17.5739887  55.8982104
  76.2327249  16.7542261  54.9789716  76.3626287  16.9746802  55.7200195
  69.4084448  24.3843867  51.2256487  69.5094811  23.5744221  51.5353615
  68.8126193  24.2900813  50.5956166  69.3356986  24.2508895  51.1782726
  69.2485187  29.3021456  52.6271343  69.8922643  29.7434620  53.0167502
  69.5741443  28.4974882  52.5401602  69.3917016  29.2486650  52.6716821
  62.6049492  20.4064153  50.8508821  62.3699676  19.5731806  50.7441090
  62.7435133  20.6868819  50.0370022  62.5905154  20.3247657  50.7151176
  64.9039579  12.5749884  53.7493129  64.2844611  11.9842531  53.5803143
  64.8023443  13.1661319  53.1157452  64.7977255  12.5753966  53.6298118
  69.9505767  22.3133431  47.9991205  70.2721608  22.8538638  47.3952513
  70.5977863  21.7430202  48.1313495  70.0931822  22.3092606  47.9298240
  72.0007475  14.3149426  48.0825592  72.6987640  14.4937553  48.5747055
  72.3159807  13.7919765  47.4595981  72.1502812  14.2643198  48.0627602
  64.6308712  16.1202165  55.9936698  64.5067409  16.7064611  56.6286516
  65.2826997  15.6262361  56.2948973  64.7082362  16.1340970  56.1322627
  72.1895410  20.7019871  48.0705383  72.6289046  20.0936971  48.5160156
  72.0400073  20.3227244  47.2990848  72.2316876  20.5558342  48.0224551
  69.6567053  19.2963882  55.2724209  70.3016056  18.8036326  54.9535157
  69.8968830  19.4388669  56.0990287  69.7877638  19.2441325  55.3473742
  72.1953145  22.1418788  54.9231101  72.4776388  21.3470194  54.7017857
  72.9239305  22.6199376  54.9436162  72.3442708  22.0953385  54.8934116
  70.1734339   9.6841822  52.1646866  69.8437669  10.1352966  51.4950565
  69.4979340   9.6057986  52.7119873  70.0244775   9.7392957  52.1470090
  75.7904747  19.0547052  45.0236152  75.7056042  19.9108019  45.1685721
  76.2789130  18.7791376  45.6918312  75.8493644  19.1404373  45.1438234
  76.7223180  15.6731846  46.5233888  76.1934652  15.8891480  47.1831194
  77.2448200  16.3667984  46.4434857  76.7211633  15.8074983  46.6089487
  68.6122788  19.5695063  45.3241356  68.0280003  20.0745094  45.7307219
  68.2092883  19.3437450  44.5837947  68.4662092  19.6103311  45.2746381
  64.1666817  25.2849824  52.1265027  63.6834395  26.0100314  52.1024611
  64.9790135  25.5825954  52.2375185  64.2157564  25.4352178  52.1392306
  70.2380971  24.0782005  54.7314842  69.7207912  23.7189420  54.1276150
  70.9355362  23.5544179  54.7420908  70.2646552  23.9479693  54.6445100
  73.8944563  24.5276819  60.6931015  73.9827908  24.3402959  61.5409225
  74.3234275  23.8814248  60.2935861  73.9706665  24.4039826  60.7602766
  71.4615022  23.8107979  59.6748677  70.8985857  23.3980588  60.1988338
  72.2236046  23.7360884  60.0941820  71.4909471  23.7385379  59.8141677
  73.0700002  15.8160715  43.8010276  73.3096006  16.0238699  42.9885619
  73.3915843  15.0118224  43.9099221  73.1537160  15.7274816  43.6970829
  67.0211014  25.8006000  52.2785307  67.7231593  25.2857989  52.3358063
  66.9408497  26.1280151  53.0832182  67.1134774  25.7720226  52.4058099
  68.0689920  16.0381587  61.4065722  68.2410424  15.9287481  62.2551003
  68.6059278  16.6835992  61.1696914  68.1734924  16.1173588  61.4970819
  66.7347357  10.1524430  44.3447927  66.5522930  10.3696310  43.5188920
  67.5972970  10.2663442  44.4006541  66.8351947  10.2014328  44.2302414
  66.3461789  21.9912352  51.7870915  67.1850689  22.2235285  51.8344677
  66.3773558  21.1216663  51.7177950  66.4743507  21.8969298  51.7835560
  66.9714492  22.4113227  56.0884220  67.5112717  22.2684358  56.7587593
  66.2884439  22.8109978  56.4568247  66.9506646  22.4492898  56.2418642
  76.3955377  18.0904228  51.2829245  77.1512892  18.5235742  51.3218154
  76.5017702  17.4408997  51.8563881  76.5225548  18.0581712  51.3727270
  74.0064622  23.9585838  63.3574798  74.7905038  24.0716686  63.7230540
  73.8061216  23.1326975  63.5533484  74.0930647  23.8532557  63.4409184
  62.3751637  18.6313518  56.2418642  62.1090053  17.8152635  56.4009632
  62.3890201  18.6766673  55.3714158  62.3376360  18.5170423  56.1372124
  66.2809384  13.4298602  42.8570400  65.5667561  13.1436782  43.2692833
  66.7653353  13.7695228  43.4976788  66.2468748  13.4380252  43.0126035
  67.1250244  12.1691896  58.8885650  66.4322040  11.6988876  59.1346381
  67.7410571  11.9430201  59.4627357  67.1134774  12.0659028  59.0094802
  74.1635015  25.8695940  57.0041254  73.3650261  25.6295440  57.2615122
  74.6121027  25.9210333  57.7508301  74.1109626  25.8418331  57.1526178
  73.4556702  21.9328556  43.2332208  73.8707851  21.6013580  42.5416704
  72.6248632  21.6997458  43.1052345  73.3944711  21.8499812  43.1123056
  62.7845051  19.4172297  53.5230386  62.6020624  19.3919183  52.6702678
  63.5194720  19.8871235  53.5619295  62.8659115  19.4833659  53.4028305
  65.8490803  16.1357300  60.0312495  66.5730775  16.1210331  60.5177390
  65.9506939  16.8452655  59.5334463  65.9709012  16.2382003  60.0291282
  75.8967071  16.3390376  49.1856458  75.9913925  17.0779670  49.6396083
  75.2725915  15.9107851  49.6191022  75.8176101  16.3851696  49.3164605
  74.1519545  19.5176588  59.8346739  74.7258407  18.8803833  59.9895303
  74.0734349  19.5180671  58.9656396  74.2252780  19.4241700  59.7293150
  62.7515961  16.2965798  53.6729453  63.3289464  16.1602249  54.3121698
  62.0530023  15.8401582  53.9275037  62.7336983  16.2088064  53.8051743
  76.1490092  18.1839116  42.4193410  76.0670255  18.2541303  43.2848397
  76.7869813  18.7468860  42.2277150  76.2309930  18.2778087  42.5183359
  69.5083263  17.9499854  51.8867936  69.2502508  17.1171588  51.8599236
  69.5631746  18.1757467  51.0460436  69.4783041  17.8597625  51.7588073
  68.4817976  15.5037616  52.3732831  67.9067567  15.6629784  53.0096792
  68.1053652  14.8673025  51.9101281  68.3420788  15.4335429  52.3987389
  72.1491264  13.9760965  57.2325209  71.7605697  13.5515183  56.5777400
  71.4845963  14.2243115  57.7402236  71.9938192  13.9499686  57.2113077
  58.2274795  15.1477691  50.3877271  58.3135046  14.7709559  51.1690801
  58.8550592  14.7738136  49.9097230  58.3331345  15.0363173  50.4322749
  73.2530203  18.2059570  45.4302016  74.0670841  18.4974463  45.3184788
  73.1889344  17.5519432  44.8560309  73.3632942  18.1524765  45.3290854
  69.1238111  21.6781087  50.5574328  69.7612058  21.4392835  51.1026122
  69.5493182  21.8818246  49.8227489  69.2814277  21.6732098  50.5291486
  63.8150753  23.9169424  54.4408632  63.8554898  24.1884275  53.6128412
  64.3745277  24.4411332  54.8566420  63.9034099  24.0345179  54.3800520
  69.7640926  16.8983377  44.8949218  70.1486079  16.6791084  45.6465763
  69.5152546  17.7246323  45.0250294  69.7842998  16.9881523  45.0250294
  71.5059583  22.1553510  52.2368115  71.5798591  21.9928682  53.0909964
  72.3229089  22.3443700  51.9928596  71.6375941  22.1590252  52.3266140
  65.2665339  22.5011373  49.2662558  64.4403457  22.7473110  49.1396837
  65.3277331  22.4223454  50.1324616  65.1539506  22.5256322  49.3751502
  67.4841363   8.5680314  50.2257998  66.6163789   8.6402913  50.2915607
  67.7716568   9.3702393  50.4145973  67.3981111   8.6974461  50.2632765
  70.0464168  25.1188253  46.9681588  70.3362467  24.7277234  46.2440815
  70.7767649  25.3004958  47.4086863  70.1971053  25.0882067  46.9264395
  70.6358914  19.9205999  58.0534718  70.1370607  20.6321767  58.1319607
  71.4459138  20.2406666  58.0152881  70.6815020  20.0732848  58.0591287
  67.9870084  27.0955635  50.0341738  67.7670379  26.8052990  50.8268405
  67.7664606  26.4370591  49.5059650  67.9217678  26.9555344  50.0730646
  66.8987031  19.1828952  52.2997439  66.6100280  18.5566423  52.8343167
  67.7670379  19.1249239  52.3662120  66.9847283  19.0816496  52.3888394
  77.6864929  14.3263735  52.6179421  77.3429695  13.6054071  52.9686671
  77.7857972  14.1177587  51.7757779  77.6506972  14.1887939  52.5451101
  70.1538040  28.4685025  48.8172430  70.8062098  27.9361468  49.0463456
  69.4563648  28.1153678  49.2040304  70.1468758  28.3374548  48.9084598
  67.1019305  20.8224203  48.2239804  67.8565273  21.2037242  48.4375267
  66.5089917  21.2735347  48.6786501  67.1256018  20.9453030  48.3222683
  78.1477958  20.7889439  48.1603409  78.7135991  21.4482649  48.0761952
  77.5005862  21.1339138  48.6319811  78.1356715  20.9371381  48.2176166
  69.5625972  12.7787043  63.3497017  68.7525747  13.0844823  63.2386859
  70.0400658  13.4992626  63.4649601  69.5129450  12.9301645  63.3504088
  68.4217531  21.9932764  53.5979920  67.8998285  22.1333056  54.2831784
  68.8091552  21.2343429  53.7882037  68.4021232  21.9018288  53.7280996
  65.4108715  12.0438573  47.6674874  65.1233511  11.6739844  46.9306822
  66.0979183  12.5133428  47.4058579  65.4697613  12.0585542  47.5189950
  74.6184536  23.7328224  47.5840489  74.3771212  22.9996084  47.1767553
  74.7985869  24.2815081  46.9306822  74.6092160  23.7050615  47.4270711
  69.8483857  19.0236783  48.9961411  69.6526639  19.6311518  48.4021714
  70.0718202  18.3304727  48.5153085  69.8518498  19.0114309  48.8377492
  68.2462387  15.9091521  49.1142279  68.9685039  16.0732679  48.6546085
  67.7670380  16.6301186  49.0081619  68.2826118  16.0389751  49.0307893
  76.2055894  12.2455320  54.4938964  75.3666995  12.2716599  54.2577227
  76.2760262  12.8926056  55.0744311  76.0924288  12.3451446  54.5448081
  65.8970004  18.3149594  58.2196419  66.4091100  18.5933847  57.5705179
  65.6106346  19.0538888  58.5859232  65.9304867  18.4651947  58.1786297
  62.9836910  12.8219786  48.5160156  63.0853046  13.6245947  48.8441131
  63.7792797  12.6207121  48.2183236  63.1164815  12.9105684  48.5195511
  69.4153729  10.4075982  58.2797461  69.2236926  10.4231117  59.1296884
  70.2652325  10.6039657  58.2564115  69.5129451  10.4390334  58.4020755
  63.8000642  12.9366964  56.2581277  63.6586134  12.0850904  56.3825785
  64.0841205  12.9795624  55.4343483  63.8208488  12.8166714  56.1548901
  73.9539234  14.7734054  50.4025765  73.7073949  14.6929805  51.2362554
  74.2824357  13.9887522  50.2088293  73.9660478  14.6460319  50.4973288
  77.8487283  21.4817413  54.1912547  77.7101642  22.1798459  54.6961289
  77.0687281  21.3266070  53.8348728  77.7130510  21.5617580  54.2138821
  69.9136262  17.5090773  59.8148748  70.0579637  18.0891981  59.1791858
  70.2611910  17.8867069  60.5198603  69.9863723  17.6511477  59.8247743
  72.0856179  16.7080941  57.5973880  71.3379493  16.9011955  57.1922158
  72.2397704  15.8826161  57.3598001  71.9978607  16.6146052  57.5019286
  68.9864017  25.6993544  56.6809775  69.1353580  25.1396460  56.0283180
  69.7664019  25.7785546  57.0642294  69.1238110  25.6279110  56.6406724
  71.5117317  25.8708187  57.9594266  71.4360988  25.2016998  58.5145054
  71.4407176  26.5725975  58.4734932  71.4897924  25.8753095  58.1171114
  72.3257956  10.6031492  58.4869284  72.7830570  11.3355466  58.6142076
  72.4014285  10.1797957  59.2456540  72.4048926  10.6488730  58.6170360
  64.5690947  10.8497311  59.5758727  64.0333137  10.2377670  59.8919495
  64.6308712  11.4245447  60.2292394  64.4986580  10.8444239  59.7194154
  72.1687564  24.3909186  48.7917872  72.9337455  24.1218830  48.4700536
  72.0665654  23.9059197  49.5087935  72.2669060  24.2798751  48.8497700
  70.2040334  12.5933596  55.3311108  69.4136409  12.4125056  55.6528444
  70.6000957  11.8160548  55.3141402  70.1457210  12.4521057  55.3763656
  74.6906225  21.4221370  40.7717821  75.4579210  21.4821495  40.3623673
  74.2437534  20.8501811  40.2874140  74.7379652  21.3457946  40.6395532
  75.5884020  20.2276026  53.0570554  74.9129022  19.9961258  53.5583941
  75.5976396  19.6197209  52.4312659  75.4902525  20.1034951  53.0386706
  72.7178164  15.0693855  59.8134607  72.6537305  15.9303811  59.6854743
  72.8575352  14.7525848  59.0130158  72.7293634  15.1494021  59.6762820
  77.5900755  23.0841158  45.2880732  77.6720592  23.8908144  44.9642183
  78.0750497  23.1037117  46.0121505  77.6737913  23.2061821  45.3467630
  71.3997258  17.7625994  53.9550810  70.9759507  17.9630493  53.2189828
  71.2242113  16.9154842  54.0675109  71.3108139  17.6674776  53.8624500
  70.9008952  29.2776507  56.4172267  71.3904882  28.5787296  56.2347932
  70.3293184  28.9800377  57.0048324  70.8893481  29.1302731  56.4773308
  66.6879703  18.2578046  49.3878782  66.8444322  18.1924848  50.2434774
  67.0280296  19.0326598  49.1757462  66.7612938  18.3627244  49.4833376
  73.2258848  17.6335929  48.2572145  73.7674393  17.1306310  48.7210766
  73.5405407  17.5801124  47.4461631  73.3523245  17.5515350  48.2055957
  71.3945297  23.0253281  45.5412173  71.4638118  22.1667819  45.6805174
  72.1733753  23.2425161  45.2131198  71.5198147  22.9306145  45.5129331
  74.3748117  12.5272234  58.3094446  74.5890087  11.8883148  57.7557800
  73.7582016  12.9718057  57.8802308  74.3153446  12.4982377  58.1644877
  75.7852785  25.4490982  49.7548667  75.3932577  25.1457697  49.0371533
  75.9405857  26.2860072  49.5653620  75.7506375  25.5274819  49.6205164
  63.2613965  15.4412996  49.7039549  63.6412929  15.8597541  49.0399817
  62.6869329  16.0226452  50.0108393  63.2325289  15.5890855  49.6516290
  75.9492460  22.0140971  49.6954697  75.5907114  22.1855614  50.4718730
  75.4631170  22.4754176  49.1382696  75.8251157  22.1079942  49.7279966
  70.7380825  17.6940136  42.2354932  71.0273350  18.4705019  42.5098506
  70.8252624  17.1828868  42.9369431  70.7935081  17.7332055  42.3797429
  77.1097199  22.9044867  60.6421898  77.7476920  22.4105062  60.3084354
  76.4671291  22.8322267  60.0574125  77.1091426  22.8203875  60.5064253
  77.1651456  23.5964675  57.2827255  77.9543834  23.2453740  57.4029337
  77.3395053  24.4101063  57.0203889  77.3071737  23.6650532  57.2615123
  66.9044766  17.0073401  54.3355044  66.0632773  16.9077275  54.5433938
  67.1134774  17.7768881  54.6869364  66.8109459  17.1065444  54.4182359
  64.3820333  14.6292938  52.1639794  63.9877031  14.7035949  51.3889904
  63.8260450  15.0150884  52.7148156  64.2423145  14.6974712  52.1307454
  70.7161431  14.9354800  53.5852641  70.4124568  14.3810788  54.1863049
  70.0140852  15.1147010  53.0980675  70.5677641  14.8799582  53.6022347
  69.7727528  12.2455320  48.1497343  70.0487262  11.5274232  47.7374911
  70.3726197  12.8440240  47.9418449  69.9020793  12.2275690  48.0578104
  68.7779782  22.1504521  58.2924739  68.6700137  22.1606583  59.1586797
  68.9875563  22.9759301  58.1029693  68.7929893  22.2745595  58.3928831
  66.7953574  19.4017163  55.7546677  66.2041507  20.0426661  55.7249692
  67.5574598  19.8254780  55.7277976  66.8201835  19.5593001  55.7461824
  67.1914197  10.5619161  56.4214694  67.6515678  10.6358090  57.1589818
  67.2370303  11.3600415  56.0714516  67.2664752  10.6913308  56.4787451
  68.8397546  11.2285856  60.9886721  68.4483112  10.5819203  61.4242499
  69.0083409  11.8197291  61.6080977  68.8068457  11.2200124  61.1449427
  76.5543090  24.8526475  53.1878701  76.3562779  25.3417289  52.4934912
  75.9330801  25.0567716  53.7662834  76.4330655  24.9543013  53.1701924
  70.6151069  16.6211371  47.5288945  71.3593113  17.0085648  47.7671895
  70.7611765  15.7768797  47.6929433  70.7461654  16.5541844  47.5882915
  73.6028944  12.1936845  53.4282865  73.1288899  11.6678607  53.9388176
  73.9747080  11.6466318  52.8597726  73.5878833  12.0352841  53.4198012
  63.9801975  14.1908351  58.7966410  64.8427588  14.0904061  58.7103740
  63.6493758  13.6103061  58.2351983  64.0587171  14.0899978  58.7011816
  75.5312444  13.0873399  46.4908618  75.0035463  13.1702143  45.8014327
  75.9908152  13.8291271  46.4873263  75.5214295  13.2094062  46.3883314
  67.3403761  13.0150800  55.4576829  66.7156831  13.0269192  54.8502781
  67.0049355  13.4910976  56.1068069  67.1989252  13.0869317  55.4633397
  67.5245509  11.3575919  41.5149514  67.1758314  12.0095644  41.9781063
  67.0441955  11.3433032  40.7873385  67.4015753  11.4518972  41.4760605
  64.0529436  21.0751261  56.8980593  63.5229361  20.3843699  56.9475568
  64.3254529  21.0661446  56.0693301  64.0154158  20.9718392  56.7828009
  75.0849527  21.6576963  45.6218276  75.8083725  22.1235076  45.4782849
  74.6450118  21.7250573  44.8715873  75.1265219  21.7360800  45.4903057
  74.2535682  18.5174505  56.8718965  73.6392675  17.9732555  57.1667600
  74.7702967  18.0038742  56.3924781  74.2391344  18.3610914  56.8443193
  73.4931979  19.5878775  54.6063263  73.0659587  18.9628494  54.1728699
  73.4856923  19.3053697  55.4322270  73.4291120  19.4531556  54.6643091
  66.6094506  14.6243948  57.6751697  66.7687993  13.8687272  58.0803419
  66.4287399  15.1734888  58.3292435  66.6059865  14.5937762  57.8314403
  71.8217688  10.4647530  54.8205797  71.8460176   9.9307642  54.1318577
  72.0729162   9.9564839  55.4831388  71.8627607  10.3108434  54.8170442
  59.3325278  17.7479025  54.2548941  59.2268727  17.7025869  53.3901025
  58.5825498  18.0932805  54.5363226  59.2060881  17.7919933  54.1686271
  68.1019011   9.1918348  54.2011541  68.1417382   9.6927555  54.9146249
  67.2768675   9.2828742  53.9317465  67.9858537   9.2800164  54.2662080
  70.2848624  18.7579088  62.3031836  69.4344254  18.8950802  62.4389481
  70.4476751  18.0242866  62.7479538  70.1832487  18.6693189  62.3887435
  69.5233374  15.7078858  56.4985440  68.6925304  15.8752676  56.2920689
  69.4684891  15.3314809  57.2834326  69.3922789  15.6768589  56.5833969
  67.8969418  13.9834449  47.0275558  68.0372379  14.4806914  47.7304200
  68.3951951  13.2820744  47.1689772  67.9910499  13.9536428  47.1527137
  67.9269640  14.8501560  44.3568135  68.5614720  15.4461985  44.2917597
  68.0095251  14.5505018  45.1714005  68.0326191  14.8942469  44.4671222
  69.5048623  10.7815536  44.3313577  69.8264464  10.3018618  43.6772839
  69.7675567  11.5915182  44.1404389  69.5914649  10.8305434  44.2069069
  72.7345596  21.8034410  57.8512393  72.2270687  22.3570257  58.2953024
  72.4372242  21.8642700  57.0331168  72.6150481  21.8940721  57.7960850
  64.4322628  17.0469401  47.6257681  64.9414858  17.6433909  48.0068987
  64.9056900  16.7795375  46.9434101  64.5766004  17.0955217  47.5812204
  75.3453376  25.7197668  45.7816337  74.6282686  25.5458530  45.3163574
  75.9960114  25.4850240  45.2491823  75.3355227  25.6593460  45.6345555
  77.9301347  14.5962256  49.5257642  77.2592537  15.1391959  49.3970707
  78.6241098  15.0657112  49.2839337  77.9330215  14.7460528  49.4713169
  71.9788081  26.7358968  54.7569400  71.7553736  25.9777798  55.1253426
  71.4897925  26.7656990  54.0349840  71.8731530  26.6281193  54.7046141
  66.7913160  13.6825660  50.4930861  66.0725149  14.0989792  50.7603725
  67.1625522  14.2479898  49.9422500  66.7405092  13.8274941  50.4513668
  76.0912741  14.3153509  56.3832857  76.0710668  14.1336804  57.2367636
  76.1391941  15.1865527  56.3592441  76.0947382  14.4170047  56.5056152
  74.0359071  20.9040701  62.3081334  73.9954925  20.2590378  61.7226490
  74.8482389  20.8477318  62.6206746  74.1502224  20.7999667  62.2678283
  70.6266538  26.9559426  52.2106485  70.2126937  26.2933557  51.8210326
  71.3113912  27.1037285  51.6902179  70.6664910  26.8800085  52.0762982
  73.9931832  26.1149512  52.9630101  73.5948115  26.2251782  52.1950921
  73.3783052  26.3231578  53.5456661  73.8430722  26.1623080  52.9361401
  72.5659734  12.7223660  45.8304241  71.9724574  13.0440656  45.2788808
  72.6035012  11.8764755  45.6225347  72.4834123  12.6447988  45.7187012
  75.4417551  12.6803164  49.2605991  75.2131244  12.7035866  48.4184349
  75.7015627  11.8560631  49.3801002  75.4463739  12.5619244  49.1531189
  69.7236779  14.5337637  58.8631091  69.2115682  13.9258820  59.2216123
  69.5516275  15.2494230  59.3305067  69.6226416  14.5500936  58.9847315
  64.5702494  12.9775212  61.5133453  64.4005084  13.6376587  60.9681660
  64.1268444  13.1881774  62.2345942  64.4801828  13.1061195  61.5395083
  68.4962313  11.2179710  50.5560187  68.9719680  11.5796790  49.9210368
  67.9950913  11.8736178  50.8360330  68.4927672  11.3673899  50.5036928
  61.4704559  15.8822078  56.7721943  60.9231278  15.2122724  56.8902811
  62.2596937  15.5151926  56.8365410  61.5056742  15.7287064  56.7990644
  71.3188967  15.5429535  62.2685354  72.0700294  15.8581212  62.5824908
  71.5111543  15.3408706  61.4419276  71.4580381  15.5596917  62.1928750
  70.5388967  13.3620910  43.9233571  70.9187931  13.3800539  43.1384686
  69.7981563  13.8074899  43.8024418  70.4857804  13.4302685  43.7897139
  60.2291528  15.0942886  53.9267966  60.0513289  14.6419495  54.6522882
  59.9410550  15.8969047  54.1106444  60.1604481  15.1465444  54.0611469
  75.8915109  16.3500603  53.1645356  76.3868774  15.6323598  53.1249377
  75.0814885  16.0471401  53.0499843  75.8459002  16.1998249  53.1419082
  71.3373721  20.1998416  45.3142361  70.5285043  19.8765090  45.2675670
  71.8448629  19.4931639  45.2470609  71.2923387  20.0479733  45.2972655
  61.9663998  17.6270610  51.0389725  61.1009517  17.6156300  50.9272496
  62.0662814  17.4400832  51.8860864  61.8538165  17.5976671  51.1478670
  77.9566928  19.1004291  55.8522485  78.3822000  18.5778713  55.2992910
  77.5923848  19.6985128  55.3311108  77.9653531  19.1114518  55.6931495
  67.5921008  27.3968508  54.6119831  67.9067567  28.2104897  54.6197612
  68.0014421  27.0118727  55.2801990  67.6989106  27.4597211  54.7123922
  74.5445527  22.8138555  52.1823643  75.0156706  23.5278818  52.3513628
  74.8805706  22.2137305  52.7183512  74.6640642  22.8310019  52.2856018
  75.1819474  22.6056489  58.9451335  74.6340420  21.9814373  58.6771400
  75.6432502  22.7950761  58.2295415  75.1686683  22.5415539  58.8001766
  70.5308137   9.5882438  46.6061202  71.3523832   9.7580751  46.3642897
  70.0677788   9.7429699  45.8827500  70.5839299   9.6364171  46.4632847
  64.9334028  21.3441617  54.2598439  65.5378885  21.3037451  53.6312260
  64.7261340  22.1912769  54.2902495  64.9922925  21.4629619  54.1714556
  74.7477800  23.6107562  55.4760676  75.5676174  23.4670528  55.7376972
  74.4671878  24.2353761  56.0177114  74.8274543  23.6817914  55.5948616
  60.1685310  20.3276234  54.1297362  60.0709588  19.5172506  54.4387419
  60.9514180  20.3068028  53.7443630  60.2701447  20.2043324  54.1184225
  73.5782075  35.9249461  50.8508821  73.3432260  35.0917113  50.7441090
  73.7167716  36.2054127  50.0370022  73.5637738  35.8432964  50.7151176
  75.8772163  28.0935192  53.7493129  75.2577195  27.5027839  53.5803143
  75.7756026  28.6846627  53.1157452  75.7709838  28.0939274  53.6298118
  75.6041296  31.6387473  55.9936698  75.4799993  32.2249919  56.6286516
  76.2559580  31.1447669  56.2948973  75.6814945  31.6526278  56.1322627
  75.1399400  40.8035132  52.1265027  74.6566978  41.5285621  52.1024611
  75.9522718  41.1011262  52.2375185  75.1890148  40.9537486  52.1392306
  77.9943597  41.3191308  52.2785307  78.6964177  40.8043297  52.3358063
  77.9141080  41.6465459  53.0832182  78.0867358  41.2905534  52.4058099
  77.7079941  25.6709738  44.3447927  77.5255514  25.8881618  43.5188920
  78.5705554  25.7848750  44.4006541  77.8084530  25.7199635  44.2302414
  77.3194373  37.5097660  51.7870915  78.1583272  37.7420593  51.8344677
  77.3506142  36.6401971  51.7177950  77.4476090  37.4154606  51.7835560
  77.9447076  37.9298535  56.0884220  78.4845301  37.7869666  56.7587593
  77.2617022  38.3295286  56.4568247  77.9239230  37.9678206  56.2418642
  73.3484221  34.1498826  56.2418642  73.0822636  33.3337942  56.4009632
  73.3622785  34.1951981  55.3714158  73.3108943  34.0355731  56.1372124
  77.2541968  28.9483910  42.8570400  76.5400145  28.6622090  43.2692833
  77.7385937  29.2880536  43.4976788  77.2201331  28.9565560  43.0126035
  78.0982827  27.6877204  58.8885650  77.4054624  27.2174184  59.1346381
  78.7143155  27.4615509  59.4627357  78.0867357  27.5844336  59.0094802
  73.7577635  34.9357605  53.5230386  73.5753208  34.9104491  52.6702678
  74.4927303  35.4056543  53.5619295  73.8391698  35.0018967  53.4028305
  76.8223386  31.6542608  60.0312495  77.5463359  31.6395639  60.5177390
  76.9239523  32.3637963  59.5334463  76.9441595  31.7567311  60.0291282
  73.7248545  31.8151106  53.6729453  74.3022048  31.6787557  54.3121698
  73.0262607  31.3586890  53.9275037  73.7069566  31.7273372  53.8051743
  69.2007378  30.6662999  50.3877271  69.2867630  30.2894867  51.1690801
  69.8283176  30.2923444  49.9097230  69.3063929  30.5548481  50.4322749
  74.7883337  39.4354732  54.4408632  74.8287482  39.7069583  53.6128412
  75.3477861  39.9596640  54.8566420  74.8766683  39.5530487  54.3800520
  76.2397923  38.0196681  49.2662558  75.4136041  38.2658418  49.1396837
  76.3009914  37.9408762  50.1324616  76.1272090  38.0441630  49.3751502
  78.4573947  24.0865622  50.2257998  77.5896372  24.1588221  50.2915607
  78.7449151  24.8887701  50.4145973  78.3713695  24.2159769  50.2632765
  77.8719615  34.7014260  52.2997439  77.5832863  34.0751731  52.8343167
  78.7402963  34.6434547  52.3662120  77.9579867  34.6001804  52.3888394
  76.3841299  27.5623881  47.6674874  76.0966095  27.1925151  46.9306822
  77.0711767  28.0318736  47.4058579  76.4430196  27.5770850  47.5189950
  76.8702587  33.8334902  58.2196419  77.3823684  34.1119155  57.5705179
  76.5838930  34.5724196  58.5859232  76.9037450  33.9837255  58.1786297
  73.9569493  28.3405094  48.5160156  74.0585630  29.1431255  48.8441131
  74.7525380  28.1392429  48.2183236  74.0897399  28.4290992  48.5195511
  74.7733226  28.4552272  56.2581277  74.6318717  27.6036212  56.3825785
  75.0573789  28.4980932  55.4343483  74.7941072  28.3352022  56.1548901
  75.5423531  26.3682619  59.5758727  75.0065720  25.7562977  59.8919495
  75.6041296  26.9430755  60.2292394  75.4719163  26.3629547  59.7194154
  77.6612287  33.7763353  49.3878782  77.8176906  33.7110156  50.2434774
  78.0012880  34.5511906  49.1757462  77.7345521  33.8812552  49.4833376
  74.2346548  30.9598304  49.7039549  74.6145513  31.3782849  49.0399817
  73.6601913  31.5411760  50.0108393  74.2057873  31.1076163  49.6516290
  77.8777350  32.5258709  54.3355044  77.0365356  32.4262583  54.5433938
  78.0867358  33.2954189  54.6869364  77.7842042  32.6250752  54.4182359
  75.3552917  30.1478246  52.1639794  74.9609614  30.2221257  51.3889904
  74.7993033  30.5336192  52.7148156  75.2155729  30.2160020  52.1307454
  77.7686158  34.9202471  55.7546677  77.1774091  35.5611969  55.7249692
  78.5307181  35.3440088  55.7277976  77.7934418  35.0778309  55.7461824
  78.1646780  26.0804469  56.4214694  78.6248262  26.1543398  57.1589818
  78.2102887  26.8785723  56.0714516  78.2397336  26.2098616  56.4787451
  74.9534558  29.7093659  58.7966410  75.8160171  29.6089369  58.7103740
  74.6226341  29.1288369  58.2351983  75.0319754  29.6085286  58.7011816
  78.3136344  28.5336108  55.4576829  77.6889414  28.5454500  54.8502781
  77.9781939  29.0096283  56.1068069  78.1721836  28.6054625  55.4633397
  78.4978093  26.8761227  41.5149514  78.1490897  27.5280952  41.9781063
  78.0174539  26.8618340  40.7873385  78.3748337  26.9704280  41.4760605
  75.0262020  36.5936568  56.8980593  74.4961944  35.9029007  56.9475568
  75.2987113  36.5846754  56.0693301  74.9886742  36.4903700  56.7828009
  77.5827089  30.1429256  57.6751697  77.7420576  29.3872580  58.0803419
  77.4019983  30.6920196  58.3292435  77.5792448  30.1123070  57.8314403
  70.3057862  33.2664333  54.2548941  70.2001311  33.2211177  53.3901025
  69.5558082  33.6118113  54.5363226  70.1793465  33.3105241  54.1686271
  75.4055212  32.5654709  47.6257681  75.9147441  33.1619217  48.0068987
  75.8789484  32.2980683  46.9434101  75.5498587  32.6140524  47.5812204
  77.7645744  29.2010968  50.4930861  77.0457733  29.6175100  50.7603725
  78.1358106  29.7665206  49.9422500  77.7137675  29.3460249  50.4513668
  75.5435078  28.4960520  61.5133453  75.3737668  29.1561895  60.9681660
  75.1001027  28.7067082  62.2345942  75.4534411  28.6246502  61.5395083
  72.4437142  31.4007386  56.7721943  71.8963862  30.7308031  56.8902811
  73.2329520  31.0337234  56.8365410  72.4789326  31.2472372  56.7990644
  71.2024112  30.6128194  53.9267966  71.0245873  30.1604803  54.6522882
  70.9143134  31.4154355  54.1106444  71.1337065  30.6650752  54.0611469
  72.9396581  33.1455917  51.0389725  72.0742101  33.1341608  50.9272496
  73.0395397  32.9586140  51.8860864  72.8270748  33.1161979  51.1478670
  75.9066611  36.8626925  54.2598439  76.5111469  36.8222759  53.6312260
  75.6993924  37.7098077  54.2902495  75.9655509  36.9814927  54.1714556
  71.1417894  35.8461542  54.1297362  71.0442172  35.0357814  54.4387419
  71.9246763  35.8253335  53.7443630  71.2434030  35.7228632  54.1184225
  73.2732899  12.8627592  37.7848868  73.0383084  12.0295245  37.6781137
  73.4118540  13.1432258  36.9710069  73.2588562  12.7811096  37.6491223
  74.8350224  17.7413263  39.0605074  74.3517802  18.4663753  39.0364657
  75.6473542  18.0389393  39.1715232  74.8840972  17.8915617  39.0732353
  77.6894421  18.2569439  39.2125354  78.3915001  17.7421428  39.2698110
  77.6091904  18.5843590  40.0172229  77.7818182  18.2283665  39.3398146
  77.0145197  14.4475791  38.7210962  77.8534096  14.6798724  38.7684723
  77.0456966  13.5780102  38.6517997  77.1426914  14.3532737  38.7175606
  77.6397900  14.8676666  43.0224267  78.1796125  14.7247797  43.6927640
  76.9567846  15.2673417  43.3908294  77.6190054  14.9056337  43.1758689
  73.0435045  11.0876957  43.1758689  72.7773460  10.2716074  43.3349679
  73.0573609  11.1330112  42.3054204  73.0059767  10.9733862  43.0712171
  73.4528458  11.8735736  40.4570433  73.2704032  11.8482622  39.6042725
  74.1878127  12.3434674  40.4959342  73.5342522  11.9397099  40.3368352
  74.4834161  16.3732863  41.3748679  74.5238306  16.6447714  40.5468458
  75.0428685  16.8974771  41.7906467  74.5717507  16.4908618  41.3140567
  75.9348747  14.9574812  36.2002605  75.1086865  15.2036549  36.0736884
  75.9960738  14.8786893  37.0664663  75.8222914  14.9819761  36.3091549
  78.6553492  19.5519075  36.9681784  78.4353787  19.2616429  37.7608451
  78.4348014  18.8934030  36.4399697  78.5901086  19.4118783  37.0070693
  77.7702712  13.2787642  35.1579851  78.5248680  13.6600681  35.3715314
  77.1773325  13.7298786  35.6126548  77.7939426  13.4016470  35.2562730
  77.4636981  11.8580602  42.6886723  76.8724915  12.4990100  42.6589739
  78.2258005  12.2818219  42.6618023  77.4885242  12.0156441  42.6801871
  74.7212844  13.5314700  43.8320640  74.1912768  12.8407139  43.8815614
  74.9937937  13.5224885  43.0033348  74.6837566  13.4281831  43.7168056
  70.0008686  10.2042464  41.1888988  69.8952135  10.1589308  40.3241072
  69.2508906  10.5496244  41.4703273  69.8744289  10.2483372  41.1026318
  78.2604415  19.8531947  41.5459877  78.5750974  20.6668336  41.5537659
  78.6697829  19.4682166  42.2142037  78.3672513  19.9160650  41.6463969
  75.6017435  13.8005056  41.1938486  76.2062293  13.7600890  40.5652307
  75.3944748  14.6476208  41.2242542  75.6606333  13.9193058  41.1054602
  70.8368718  12.7839673  41.0637409  70.7392996  11.9735945  41.3727466
  71.6197587  12.7631467  40.6783677  70.9384854  12.6606763  41.0524272
  26.3759834  30.5626883  74.2988820  26.3453839  31.4171519  74.4707089
  26.9741183  30.2622175  74.8574963  26.4596992  30.6443379  74.4063622
  13.9600659  39.1865251  74.8178982  13.2083558  38.8080790  74.5895027
  14.4086671  39.2183685  74.0697792  13.9150326  39.1350859  74.6736484
  19.4125619  39.6090621  70.2464529  19.0776987  40.2867543  69.8108751
  19.9252489  39.2195932  69.6581400  19.4391200  39.6515199  70.0951320
  18.9529910  41.5604890  76.1875640  19.3369289  42.1291788  75.6480415
  18.8889051  40.8354400  75.7081456  19.0003337  41.5380353  76.0369503
  24.1976409  33.1379185  72.5707129  24.0815935  33.8886871  72.9999268
  24.9932296  32.8803138  72.8203216  24.2980998  33.2114031  72.6711221
  15.3786155  44.1161233  78.4856610  16.0223610  44.5574397  78.8752769
  15.7042410  43.3114659  78.3986869  15.5217983  44.0626427  78.5302087
  16.0806734  37.1273208  73.8576472  16.4022575  37.6678415  73.2537780
  16.7278831  36.5569979  73.9898762  16.2232790  37.1232383  73.7883507
  18.3196378  35.5159648  73.9290650  18.7590013  34.9076748  74.3745423
  18.1701041  35.1367021  73.1576115  18.3617844  35.3698119  73.8809817
  21.9205714  33.8686829  70.8821419  21.8357010  34.7247796  71.0270988
  22.4090098  33.5931153  71.5503578  21.9794612  33.9544150  71.0023501
  22.8524148  30.4871623  72.3819154  22.3235619  30.7031257  73.0416461
  23.3749168  31.1807761  72.3020124  22.8512601  30.6214760  72.4674754
  28.3072201  36.0617927  77.7552199  27.4769904  36.2728571  77.9185615
  28.2581453  35.2354982  77.4794482  28.1778936  35.9707534  77.7389564
  14.7423755  34.3834840  71.1826622  14.1580971  34.8884871  71.5892486
  14.3393851  34.1577227  70.4423214  14.5963059  34.4243088  71.1331648
  19.2000970  30.6300492  69.6595543  19.4396974  30.8378476  68.8470886
  19.5216811  29.8258001  69.7684487  19.2838128  30.5414593  69.5556096
  25.5636516  36.7317282  77.8916915  25.1271748  36.7354024  78.6475886
  25.2299431  37.4122781  77.4596492  25.4499136  36.8329738  77.9397747
  12.4110352  28.2438379  68.7155667  11.6968529  27.9576559  69.1278099
  12.8954320  28.5835005  69.3562054  12.3769715  28.2520029  68.8711302
  28.6980862  33.4498202  76.7836552  29.3597296  32.8888870  76.6832460
  28.0572274  32.9550233  77.1089243  28.7009729  33.2934611  76.8168892
  19.5857670  36.7468333  69.0917475  20.0008818  36.4153357  68.4001971
  18.7549599  36.5137235  68.9637612  19.5245678  36.6639589  68.9708323
  24.9845693  34.4663584  76.5248541  25.2201282  34.6108783  75.6975391
  25.1335256  35.2305992  76.9180054  25.0411496  34.6002639  76.4612145
  26.8136149  33.3065250  74.3618144  27.1444367  33.8392890  73.7558239
  27.3869238  33.3604138  75.0180095  26.9469829  33.3934819  74.3695926
  22.2791060  32.9978893  68.2778677  22.1971222  33.0681080  69.1433664
  22.9170780  33.5608637  68.0862417  22.3610897  33.0917864  68.3768626
  27.9215501  28.5475747  75.8658306  27.6652066  27.7355688  75.6756189
  28.7644815  28.5553314  75.6388493  28.0081526  28.4287744  75.8043123
  19.3831170  33.0199347  71.2887283  20.1971809  33.3114240  71.1770054
  19.3190311  32.3659209  70.7145576  19.4933909  32.9664542  71.1876120
  15.8941893  31.7123154  70.7534484  16.2787046  31.4930861  71.5051030
  15.6453514  32.5386100  70.8835561  15.9143966  31.8021300  70.8835561
  16.1765136  39.9328030  72.8266855  16.4663434  39.5417011  72.1026081
  16.9068617  40.1144735  73.2672130  16.3272020  39.9021844  72.7849662
  14.1171052  41.9095412  75.8927004  13.8971347  41.6192767  76.6853671
  13.8965574  41.2510368  75.3644917  14.0518646  41.7695121  75.9315913
  16.2839007  43.2824802  74.6757697  16.9363065  42.7501245  74.9048723
  15.5864616  42.9293455  75.0625571  16.2769725  43.1514325  74.7669865
  24.2778926  35.6029216  74.0188676  24.8436958  36.2622426  73.9347219
  23.6306829  35.9478915  74.4905078  24.2657682  35.7511158  74.0761433
  20.7485504  38.5468001  73.4425755  20.5072180  37.8135861  73.0352820
  20.9286837  39.0954858  72.7892089  20.7393128  38.5190392  73.2855978
  25.4741624  35.6535444  70.8114313  25.0948432  34.8672582  70.8043602
  24.8107869  36.2022301  70.6685957  25.3200098  35.6180268  70.7895110
  18.2988532  39.2048963  74.6503139  19.0638423  38.9358607  74.3285803
  18.1966622  38.7198973  75.3673202  18.3970027  39.0938528  74.7082966
  20.8207192  36.2361147  66.6303088  21.5880177  36.2961272  66.2208940
  20.3738501  35.6641588  66.1459407  20.8680619  36.1597723  66.4980799
  23.7201722  37.8980935  71.1465998  23.8021560  38.7047921  70.8227449
  24.2051464  37.9176894  71.8706772  23.8038880  38.0201598  71.2052897
  19.3559815  32.4475706  74.1157412  19.8975361  31.9446087  74.5796033
  19.6706374  32.3940901  73.3046897  19.4824212  32.3655127  74.0641224
  17.5246265  37.8393058  71.3997440  17.5939085  36.9807596  71.5390441
  18.3034720  38.0564938  71.0716465  17.6499115  37.7445922  71.3714597
  21.9153752  40.2630759  75.6133934  21.5233544  39.9597474  74.8956800
  22.0706825  41.0999849  75.4238887  21.8807342  40.3414596  75.4790431
  22.0793427  36.8280748  75.5539964  21.7208082  36.9995391  76.3303996
  21.5932138  37.2893953  74.9967963  21.9552124  36.9219719  75.5865233
  16.8681793  32.5079913  68.0940198  17.1574317  33.2844796  68.3683773
  16.9553591  31.9968645  68.7954698  16.9236049  32.5471832  68.2382696
  22.6844058  39.6666252  79.0463968  22.4863746  40.1557066  78.3520179
  22.0631769  39.8707493  79.6248101  22.5631622  39.7682790  79.0287191
  21.6613412  27.9013176  72.3493885  21.1336430  27.9841920  71.6599594
  22.1209120  28.6431048  72.3458530  21.6515262  28.0233839  72.2468580
  13.6546477  26.1715696  67.3734780  13.3059281  26.8235421  67.8366330
  13.1742923  26.1572809  66.6458652  13.5316721  26.2658749  67.3345872
  21.2150494  36.4716740  71.4803542  21.9384693  36.9374853  71.3368116
  20.7751085  36.5390350  70.7301139  21.2566186  36.5500577  71.3488324
  14.0570608  29.6641337  70.2153402  14.6915687  30.2601762  70.1502864
  14.1396219  29.3644795  71.0299272  14.1627159  29.7082246  70.3256488
  21.4754344  40.5337445  71.6401603  20.7583653  40.3598307  71.1748841
  22.1261081  40.2990017  71.1077089  21.4656194  40.4733237  71.4930821
  16.7567506  41.7699203  78.0691751  16.3427904  41.1073334  77.6795593
  17.4414880  41.9177062  77.5487446  16.7965877  41.6939862  77.9348249
  20.1232800  40.9289289  78.8215368  19.7249083  41.0391559  78.0536188
  19.5084019  41.1371355  79.4041928  19.9731689  40.9762857  78.7946667
  27.8574642  35.5041255  72.2058459  28.2408248  36.2532612  72.4356556
  27.0618756  35.7507075  71.9470448  27.7968425  35.6510949  72.2016032
  16.6689934  28.1760687  69.7818838  17.0488899  28.1940316  68.9969952
  15.9282530  28.6214676  69.6609685  16.6158772  28.2442462  69.6482406
  17.4674688  35.0138193  71.1727628  16.6586011  34.6904867  71.1260937
  17.9749597  34.3071415  71.1055876  17.4224355  34.8619510  71.1557922
  37.3492418  46.0812190  74.2988820  37.3186422  46.9356827  74.4707089
  37.9473767  45.7807483  74.8574963  37.4329576  46.1628687  74.4063622
  30.5492103  45.1687841  79.0541750  29.6929998  45.3296340  79.1050867
  30.5959757  44.2979905  79.0746811  30.4291214  45.0638643  79.0647816
  24.9333243  54.7050559  74.8178982  24.1816142  54.3266098  74.5895027
  25.3819254  54.7368993  74.0697792  24.8882909  54.6536166  74.6736484
  30.3858202  55.1275929  70.2464529  30.0509571  55.8052850  69.8108751
  30.8985073  54.7381240  69.6581400  30.4123784  55.1700507  70.0951320
  29.9262494  57.0790198  76.1875640  30.3101873  57.6477096  75.6480415
  29.8621635  56.3539708  75.7081456  29.9735921  57.0565661  76.0369503
  33.3943924  47.2279885  81.6973402  33.9399884  47.9064972  81.7567371
  33.3360800  47.0867346  80.8374983  33.4659838  47.3071887  81.5785462
  26.5117999  54.7168952  77.0841754  26.6128362  53.9069305  77.3938882
  25.9159744  54.6225898  76.4541433  26.4390537  54.5833980  77.0367993
  35.1708992  48.6564492  72.5707129  35.0548518  49.4072179  72.9999268
  35.9664879  48.3988446  72.8203216  35.2713582  48.7299339  72.6711221
  26.3518738  59.6346541  78.4856610  26.9956194  60.0759705  78.8752769
  26.6774994  58.8299967  78.3986869  26.4950567  59.5811735  78.5302087
  19.7083043  50.7389238  76.7094088  19.4733227  49.9056890  76.6026357
  19.8468684  51.0193904  75.8955289  19.6938705  50.6572741  76.5736443
  22.0073130  42.9074969  79.6078395  21.3878162  42.3167616  79.4388410
  21.9056994  43.4986404  78.9742719  21.9010806  42.9079051  79.4883385
  27.0539318  52.6458516  73.8576472  27.3755159  53.1863723  73.2537780
  27.7011414  52.0755287  73.9898762  27.1965373  52.6417691  73.7883507
  29.1041026  44.6474510  73.9410859  29.8021191  44.8262638  74.4332322
  29.4193359  44.1244850  73.3181248  29.2536363  44.5968283  73.9212869
  21.7342263  46.4527250  81.8521964  21.6100960  47.0389696  82.4871783
  22.3860548  45.9587446  82.1534239  21.8115913  46.4666055  81.9907894
  29.2928961  51.0344955  73.9290650  29.7322597  50.4262056  74.3745423
  29.1433624  50.6552329  73.1576115  29.3350427  50.8883427  73.8809817
  26.7600604  49.6288967  81.1309476  27.4049607  49.1361410  80.8120424
  27.0002381  49.7713754  81.9575554  26.8911190  49.5766410  81.2059009
  29.2986696  52.4743873  80.7816368  29.5809939  51.6795279  80.5603124
  30.0272856  52.9524461  80.8021429  29.4476260  52.4278470  80.7519383
  27.2767890  40.0166907  78.0232133  26.9471220  40.4678051  77.3535832
  26.6012891  39.9383070  78.5705140  27.1278326  40.0718042  78.0055356
  32.8938298  49.3872137  70.8821419  32.8089593  50.2433103  71.0270988
  33.3822681  49.1116461  71.5503578  32.9527195  49.4729458  71.0023501
  34.4844297  36.0052430  76.2681744  34.1697738  36.6955909  76.7002166
  33.9671239  35.9497212  75.5667244  34.3608768  36.0987319  76.2278693
  33.8256731  46.0056931  72.3819154  33.2968203  46.2216564  73.0416461
  34.3481751  46.6993069  72.3020124  33.8245184  46.1400068  72.4674754
  39.2804784  51.5803235  77.7552199  38.4502487  51.7913879  77.9185615
  39.2314036  50.7540290  77.4794482  39.1511520  51.4892842  77.7389564
  25.7156339  49.9020148  71.1826622  25.1313554  50.4070179  71.5892486
  25.3126434  49.6762535  70.4423214  25.5695643  49.9428396  71.1331648
  21.2700368  55.6174909  77.9850294  20.7867946  56.3425398  77.9609877
  22.0823686  55.9151039  78.0960452  21.3191115  55.7677263  77.9977573
  27.3414522  54.4107090  80.5900108  26.8241463  54.0514505  79.9861416
  28.0388913  53.8869264  80.6006174  27.3680103  54.2804778  80.5030367
  30.1733553  46.1485800  69.6595543  30.4129557  46.3563784  68.8470886
  30.4949394  45.3443308  69.7684487  30.2570711  46.0599901  69.5556096
  25.4823844  38.0779196  73.5055081  26.2369812  38.4457513  73.2672131
  25.3051378  38.4518750  74.2734260  25.5678322  38.1877383  73.5839969
  24.1244565  56.1331085  78.1370574  24.8265144  55.6183074  78.1943330
  24.0442048  56.4605236  78.9417449  24.2168325  56.1045311  78.2643366
  38.7758742  44.2273636  81.5502620  37.9387163  44.2975823  81.7850215
  38.7446973  44.2298131  80.6776923  38.6477025  44.2383863  81.4562168
  23.8380908  40.4849515  70.2033194  23.6556482  40.7021395  69.3774187
  24.7006521  40.5988527  70.2591808  23.9385498  40.5339412  70.0887681
  23.4495340  52.3237437  77.6456182  24.2884240  52.5560370  77.6929943
  23.4807109  51.4541748  77.5763217  23.5777058  52.2294383  77.6420826
  24.0748043  52.7438312  81.9469487  24.6146268  52.6009443  82.6172860
  23.3917990  53.1435063  82.3153514  24.0540197  52.7817983  82.1003909
  29.5180628  37.4875925  73.2382218  30.2466788  37.3091880  72.7920374
  29.6075520  38.3294005  73.4489396  29.6387290  37.5859804  73.2035735
  33.4988928  48.4229313  77.1414512  34.2546443  48.8560827  77.1803420
  33.6051253  47.7734082  77.7149148  33.6259099  48.3906796  77.2312537
  36.5369099  52.2502590  77.8916915  36.1004331  52.2539332  78.6475886
  36.2032015  52.9308089  77.4596492  36.4231719  52.3515046  77.9397747
  36.4566582  39.2916418  80.1346343  37.0992491  39.3614522  80.7208258
  36.7089603  38.6245641  79.6325884  36.5888714  39.2042766  80.1473622
  23.3842935  43.7623687  68.7155667  22.6701113  43.4761867  69.1278099
  23.8686904  44.1020313  69.3562054  23.3502299  43.7705337  68.8711302
  39.6713446  48.9683510  76.7836552  40.3329880  48.4074178  76.6832460
  39.0304858  48.4735540  77.1089243  39.6742313  48.8119919  76.8168892
  30.5590253  52.2653641  69.0917475  30.9741402  51.9338665  68.4001971
  29.7282183  52.0322543  68.9637612  30.4978262  52.1824897  68.9708323
  19.8878602  49.7497382  79.3815653  19.7054175  49.7244268  78.5287945
  20.6228271  50.2196320  79.4204562  19.9692666  49.8158744  79.2613572
  35.9578276  49.9848892  76.5248541  36.1933865  50.1294091  75.6975391
  36.1067840  50.7491300  76.9180054  36.0144080  50.1187947  76.4612145
  37.7868733  48.8250558  74.3618144  38.1176950  49.3578198  73.7558239
  38.3601821  48.8789446  75.0180095  37.9202412  48.9120127  74.3695926
  33.0000622  46.6715461  75.0441725  33.0947477  47.4104755  75.4981350
  32.3759466  46.2432936  75.4776289  32.9209652  46.7176781  75.1749872
  33.2523643  48.5164201  68.2778677  33.1703806  48.5866388  69.1433664
  33.8903364  49.0793944  68.0862417  33.3343481  48.6103172  68.3768626
  26.6116815  48.2824938  77.7453203  26.3536059  47.4496673  77.7184502
  26.6665297  48.5082551  76.9045703  26.5816592  48.1922710  77.6173340
  31.6917865  40.3853389  77.8457296  30.9874191  39.8962575  78.0041215
  31.7402839  40.3975864  76.9745740  31.5947916  40.3143037  77.7396635
  25.5851527  45.8362701  78.2318098  25.0101118  45.9954869  78.8682059
  25.2087203  45.1998110  77.7686548  25.4454339  45.7660514  78.2572656
  29.2524815  44.3086050  83.0910476  28.8639248  43.8840268  82.4362667
  28.5879514  44.5568200  83.5987503  29.0971743  44.2824771  83.0698344
  38.8948085  44.0661055  75.8658306  38.6384649  43.2540996  75.6756189
  39.7377398  44.0738622  75.6388493  38.9814110  43.9473052  75.8043123
  15.3308346  45.4802776  76.2462538  15.4168597  45.1034644  77.0276068
  15.9584143  45.1063221  75.7682496  15.4364897  45.3688258  76.2908016
  33.0751177  38.0060679  80.6034460  33.4561689  37.3238850  80.9902334
  32.2714461  37.7170281  80.4210125  33.0127639  37.8627728  80.6338516
  30.3563754  48.5384655  71.2887283  31.1704392  48.8299548  71.1770054
  30.2922895  47.8844517  70.7145576  30.4666493  48.4849850  71.1876120
  26.2271662  52.0106172  76.4159595  26.8645609  51.7717920  76.9611388
  26.6526733  52.2143331  75.6812756  26.3847828  52.0057182  76.3876752
  26.8674477  47.2308462  70.7534484  27.2519630  47.0116169  71.5051030
  26.6186097  48.0571407  70.8835561  26.8876549  47.3206608  70.8835561
  28.6093134  52.4878595  78.0953381  28.6832142  52.3253767  78.9495231
  29.4262640  52.6768784  77.8513863  28.7409492  52.4915337  78.1851407
  22.3698891  52.8336458  75.1247825  21.5437008  53.0798195  74.9982104
  22.4310882  52.7548539  75.9909883  22.2573057  52.8581407  75.2336769
  24.5874914  38.9005399  76.0843265  23.7197340  38.9727998  76.1500874
  24.8750119  39.7027478  76.2731240  24.5014662  39.0299546  76.1218032
  33.7107803  39.0483258  84.4154587  34.4561395  38.8593069  84.0018012
  33.2945108  39.5741496  83.8568443  33.7592777  39.0985404  84.2719160
  27.1497720  55.4513338  72.8266855  27.4396018  55.0602319  72.1026081
  27.8801200  55.6330043  73.2672130  27.3004604  55.4207152  72.7849662
  41.0870074  46.4192487  79.3660092  41.6377995  45.7860556  79.6057184
  41.0714189  46.9507879  80.0575596  41.1655270  46.4041435  79.5038950
  27.7392465  50.2531084  83.9119985  27.2404158  50.9646852  83.9904874
  28.5492689  50.5731750  83.8738148  27.7848571  50.4057932  83.9176554
  25.0903635  57.4280720  75.8927004  24.8703931  57.1378075  76.6853671
  24.8698157  56.7695675  75.3644917  25.0251229  57.2880429  75.9315913
  24.0020582  49.5154037  78.1582706  23.7133831  48.8891508  78.6928433
  24.8703930  49.4574324  78.2247387  24.0880834  49.4141581  78.2473661
  34.7898480  44.6588820  78.4764688  34.4463246  43.9379155  78.8271938
  34.8891523  44.4502671  77.6343046  34.7540523  44.5213024  78.4036368
  27.2571591  58.8010110  74.6757697  27.9095649  58.2686553  74.9048723
  26.5597200  58.4478763  75.0625571  27.2502309  58.6699633  74.7669865
  24.2052856  51.1549288  74.0825071  24.9598824  51.5362327  74.2960534
  23.6123468  51.6060432  74.5371768  24.2289569  51.2778115  74.1807950
  35.2511509  51.1214524  74.0188676  35.8169542  51.7807734  73.9347219
  34.6039413  51.4664222  74.4905078  35.2390266  51.2696466  74.0761433
  25.5251082  52.3257849  79.4565187  25.0031836  52.4658141  80.1417051
  25.9125103  51.5668514  79.6467304  25.5054783  52.2343373  79.5866263
  22.5142266  42.3763658  73.5260141  22.2267062  42.0064928  72.7892089
  23.2012735  42.8458513  73.2643846  22.5731164  42.3910627  73.3775217
  31.7218087  54.0653309  73.4425755  31.4804763  53.3321169  73.0352820
  31.9019420  54.6140166  72.7892089  31.7125711  54.0375700  73.2855978
  26.9517408  49.3561868  74.8546678  26.7560191  49.9636603  74.2606981
  27.1751754  48.6629812  74.3738352  26.9552049  49.3439394  74.6962758
  25.3495938  46.2416606  74.9727546  26.0718590  46.4057764  74.5131352
  24.8703931  46.9626271  74.8666886  25.3859669  46.3714836  74.8893160
  33.3089446  42.5780405  80.3524231  32.4700546  42.6041684  80.1162494
  33.3793813  43.2251140  80.9329578  33.1957839  42.6776531  80.4033348
  31.7558724  39.4765782  75.0851847  32.4585077  39.2773530  74.6071805
  31.4902913  38.7041724  75.3920690  31.8205356  39.3328748  75.0597288
  37.1846969  47.7848392  77.6385473  37.0980944  47.9403818  78.4920252
  36.7297449  48.4286467  77.2644878  37.1050226  47.9024147  77.7092579
  20.0870461  43.1544870  74.3745422  20.1886597  43.9571032  74.7026398
  20.8826348  42.9532206  74.0768503  20.2198367  43.2430769  74.3780778
  31.0572785  45.1059139  76.2611032  30.8107500  45.0254890  77.0947821
  31.3857908  44.3212607  76.0673560  31.0694029  44.9785404  76.3558555
  34.9520834  51.8142498  80.0497813  34.8135194  52.5123544  80.5546556
  34.1720832  51.6591155  79.6933995  34.8164061  51.8942665  80.0724088
  27.0169813  47.8415857  85.6734015  27.1613188  48.4217066  85.0377125
  27.3645461  48.2192154  86.3783870  27.0897274  47.9836562  85.6833010
  29.1889730  47.0406026  83.4559147  28.4413044  47.2337040  83.0507425
  29.3431255  46.2151245  83.2183268  29.1012158  46.9471137  83.3604553
  26.0897568  56.0318629  82.5395042  26.2387131  55.4721545  81.8868447
  26.8697570  56.1110631  82.9227561  26.2271661  55.9604195  82.4991991
  36.4474207  51.1720752  70.8114313  36.0681016  50.3857890  70.8043602
  35.7840452  51.7207609  70.6685957  36.2932682  51.1365576  70.7895110
  33.9018833  34.1146452  78.2148394  34.0202401  34.5722915  77.4815696
  33.7281009  33.3091713  77.9284611  33.8938004  34.0640224  78.0649327
  29.2721115  54.7234271  74.6503139  30.0371006  54.4543915  74.3285803
  29.1699205  54.2384281  75.3673202  29.3702611  54.6123836  74.7082966
  27.3073885  42.9258681  81.1896375  26.5169960  42.7450141  81.5113710
  27.7034508  42.1485633  81.1726669  27.2490761  42.7846141  81.2348923
  31.7939776  51.7546455  66.6303088  32.5612761  51.8146580  66.2208940
  31.3471085  51.1826896  66.1459407  31.8413203  51.6783031  66.4980799
  32.6917571  50.5601111  78.9155821  32.0162573  50.3286343  79.4169208
  32.7009947  49.9522294  78.2897926  32.5936076  50.4360036  78.8971973
  29.8211715  45.4018940  85.6719874  29.7570856  46.2628896  85.5440010
  29.9608903  45.0850933  84.8715425  29.8327185  45.4819106  85.5348086
  34.6934306  53.4166243  71.1465998  34.7754143  54.2233229  70.8227449
  35.1784048  53.4362202  71.8706772  34.7771464  53.5386905  71.2052897
  28.5030809  48.0951079  79.8136076  28.0793058  48.2955578  79.0775095
  28.3275664  47.2479927  79.9260376  28.4141690  47.9999860  79.7209767
  23.7913254  48.5903130  75.2464049  23.9477873  48.5249933  76.1020041
  24.1313847  49.3651683  75.0342729  23.8646489  48.6952329  75.3418643
  30.3292399  47.9661014  74.1157412  30.8707944  47.4631395  74.5796033
  30.6438958  47.9126209  73.3046897  30.4556796  47.8840435  74.0641224
  28.4978848  53.3578366  71.3997440  28.5671669  52.4992904  71.5390441
  29.2767304  53.5750246  71.0716465  28.6231699  53.2631229  71.3714597
  31.4781668  42.8597318  84.1679713  31.6923638  42.2208233  83.6143067
  30.8615567  43.3043142  83.7387574  31.4186997  42.8307462  84.0230144
  32.8886336  55.7816067  75.6133934  32.4966128  55.4782782  74.8956800
  33.0439408  56.6185157  75.4238887  32.8539926  55.8599904  75.4790431
  20.3647516  45.7738081  75.5624816  20.7446480  46.1922626  74.8985083
  19.7902880  46.3551537  75.8693659  20.3358841  45.9215940  75.5101557
  33.6420756  44.4686384  85.1063020  32.8297438  44.1612274  85.1876192
  34.1010691  43.9885384  85.6705732  33.5901141  44.3522876  85.2017614
  33.0526011  52.3466056  75.5539964  32.6940666  52.5180699  76.3303996
  32.5664722  52.8079261  74.9967963  32.9284708  52.4405027  75.5865233
  30.8696397  35.9697254  79.1567055  29.9989955  35.9435975  79.1100365
  31.1236738  35.7974446  78.3392901  30.7789957  35.9407398  79.0287192
  27.8414376  48.0265221  68.0940198  28.1306901  48.8030104  68.3683773
  27.9286175  47.5153953  68.7954698  27.8968632  48.0657139  68.2382696
  27.8945537  37.9803483  80.6140526  27.3784026  37.2883674  80.7392105
  27.3339466  38.6474260  80.5603125  27.7352051  37.9766740  80.6246592
  35.9387750  45.0859098  81.0673081  35.5115358  44.9985446  80.3121180
  35.3013803  45.1936873  81.6527925  35.7817358  45.0891757  81.0418522
  24.0078317  47.3398486  80.1940311  23.1666324  47.2402360  80.4019204
  24.2168325  48.1093966  80.5454631  23.9143010  47.4390529  80.2767625
  21.4853884  44.9618023  78.0225061  21.0910582  45.0361034  77.2475171
  20.9294001  45.3475969  78.5733423  21.3456696  45.0299797  77.9892721
  33.1218831  37.9399317  77.7028940  33.3268424  37.8721624  78.5485937
  32.7945255  38.7458138  77.6350118  33.1034079  38.0485257  77.8188595
  27.8194982  45.2679885  79.4437908  27.5158120  44.7135873  80.0448316
  27.1174403  45.4472095  78.9565942  27.6711192  45.2124667  79.4607614
  26.8761079  42.5780405  74.0082610  27.1520813  41.8599317  73.5960177
  27.4759748  43.1765325  73.8003716  27.0054344  42.5600775  73.9163371
  36.3752519  38.4931081  77.1831706  35.7626832  38.9801483  77.5685437
  36.4716694  37.8174572  77.7269357  36.2990416  38.4649390  77.3210564
  30.3771600  40.2493922  72.2829205  30.8315346  40.4204482  73.0077049
  30.8511645  39.6362033  71.8826981  30.5139920  40.1844807  72.3302967
  23.8987125  49.7342248  81.6131943  23.3075058  50.3751746  81.5834959
  24.6608149  50.1579865  81.5863243  23.9235386  49.8918086  81.6047091
  33.6576641  55.1851560  79.0463968  33.4596330  55.6742374  78.3520179
  33.0364352  55.3892801  79.6248101  33.5364206  55.2868098  79.0287191
  27.7184620  46.9536456  73.3874212  28.4626665  47.3410733  73.6257162
  27.8645316  46.1093882  73.5514700  27.8495205  46.8866929  73.4468182
  29.6364195  38.7486715  78.4206074  28.7900240  38.9209523  78.2947423
  29.6335328  37.9436059  78.7571902  29.5111345  38.6547744  78.4517201
  30.7062496  42.5261930  79.2868131  30.2322450  42.0003692  79.7973442
  31.0780631  41.9791403  78.7182993  30.6912384  42.3677926  79.2783279
  36.9699226  47.5864305  80.6974912  36.7297449  46.7470720  80.7017338
  37.4491233  47.6664472  81.4215686  37.0051410  47.4745705  80.8049714
  32.6345995  43.4198484  72.3493885  32.1069014  43.5027228  71.6599594
  33.0941703  44.1616356  72.3458530  32.6247846  43.5419147  72.2468580
  38.9704413  44.3665763  78.6504171  38.7314183  44.3261597  77.8124956
  39.1338314  45.2136915  78.7769892  38.9594717  44.4857848  78.5457653
  24.4437312  43.3475885  81.3162095  23.8190382  43.3594277  80.7088048
  24.1082906  43.8236060  81.9653336  24.3022803  43.4194402  81.3218664
  24.6279060  41.6901004  67.3734780  24.2791865  42.3420729  67.8366330
  24.1475506  41.6758117  66.6458652  24.5049304  41.7844057  67.3345872
  32.1883078  51.9902048  71.4803542  32.9117277  52.4560161  71.3368116
  31.7483669  52.0575657  70.7301139  32.2298770  52.0685885  71.3488324
  31.3569233  48.8499590  82.7304231  30.7426226  48.3057640  83.0252867
  31.8736518  48.3363827  82.2510047  31.3424895  48.6935999  82.7028460
  30.5965530  49.9203860  80.4648530  30.1693138  49.2953579  80.0313965
  30.5890474  49.6378782  81.2907537  30.5324671  49.7856641  80.5228358
  28.9251240  40.7972615  80.6791064  28.9493727  40.2632727  79.9903844
  29.1762713  40.2889923  81.3416655  28.9661158  40.6433519  80.6755709
  25.2052562  39.5243433  80.0596808  25.2450933  40.0252639  80.7731516
  24.3802226  39.6153827  79.7902731  25.0892088  39.6125249  80.1247347
  26.6266925  46.0403943  82.3570707  25.7958855  46.2077761  82.1505955
  26.5718442  45.6639894  83.1419593  26.4956340  46.0093674  82.4419235
  25.0002969  44.3159534  72.8860825  25.1405930  44.8131998  73.5889466
  25.4985502  43.6145829  73.0275039  25.0944050  44.2861513  73.0112404
  25.0303191  45.1826645  70.2153402  25.6648271  45.7787070  70.1502864
  25.1128802  44.8830103  71.0299272  25.1359742  45.2267553  70.3256488
  26.6082174  41.1140621  70.1898844  26.9298015  40.6343703  69.5358106
  26.8709118  41.9240267  69.9989655  26.6948200  41.1630519  70.0654336
  29.8379147  52.1359495  83.7097660  29.3304238  52.6895342  84.1538290
  29.5405793  52.1967785  82.8916434  29.7184032  52.2265806  83.6546117
  32.0041329  40.5012815  82.5522323  32.4296401  40.0485341  81.9405849
  31.3898322  39.9472885  82.8287110  31.9769975  40.3526791  82.5027348
  21.5356179  47.3794486  73.4842948  22.0448409  47.9758994  73.8654253
  22.0090452  47.1120460  72.8019367  21.6799555  47.4280301  73.4397471
  32.4486927  56.0522753  71.6401603  31.7316237  55.8783615  71.1748841
  33.0993665  55.8175325  71.1077089  32.4388778  55.9918545  71.4930821
  30.4435552  36.9727914  75.9612900  29.8003870  36.8225561  76.5298038
  30.1034959  36.7270260  75.1962005  30.2980629  36.9140037  75.9315915
  35.0334899  44.9287341  75.3842908  34.3626088  45.4717044  75.2555974
  35.7274649  45.3982197  75.1424603  35.0363766  45.0785612  75.3298436
  29.0821632  57.0684053  80.6154667  28.8587287  56.3102883  80.9838693
  28.5931476  57.0982074  79.8935107  28.9765081  56.9606278  80.5631408
  35.1963026  41.3843225  78.2933282  35.5490636  40.9572948  78.9679080
  34.3377828  41.2994068  78.4234358  35.1212471  41.3087966  78.4128292
  23.8946711  44.0150745  76.3516128  23.1758700  44.4314877  76.6188992
  24.2659073  44.5804983  75.8007766  23.8438643  44.1600026  76.3098935
  33.1946292  44.6478593  82.2418124  33.1744219  44.4661889  83.0952903
  33.2425493  45.5190612  82.2177708  33.1980933  44.7495132  82.3641419
  27.7300089  57.2884511  78.0691751  27.3160488  56.6258642  77.6795593
  28.4147463  57.4362370  77.5487446  27.7698461  57.2125170  77.9348249
  31.0965383  56.4474597  78.8215368  30.6981667  56.5576867  78.0536188
  30.4816603  56.6556663  79.4041928  30.9464273  56.4948165  78.7946667
  29.6693285  43.0548744  71.6889508  29.0758125  43.3765741  71.1374075
  29.7068563  42.2089840  71.4810614  29.5867675  42.9773073  71.5772279
  36.6287086  36.5061637  79.2217594  36.1217951  35.7990776  79.1538772
  37.4254520  36.1754826  79.3518671  36.6714325  36.3534788  79.2316589
  32.5451102  43.0128249  75.1191258  32.3164795  43.0360950  74.2769616
  32.8049178  42.1885716  75.2386268  32.5497290  42.8944329  75.0116456
  25.5995864  41.5504795  76.4145454  26.0753231  41.9121875  75.7795635
  25.0984464  42.2061263  76.6945596  25.5961223  41.6998984  76.3622195
  38.8307226  51.0226563  72.2058459  39.2140832  51.7717920  72.4356556
  38.0351339  51.2692383  71.9470448  38.7701008  51.1696257  72.2016032
  27.6422518  43.6945995  69.7818838  28.0221482  43.7125624  68.9969952
  26.9015114  44.1399984  69.6609685  27.5891355  43.7627770  69.6482406
  35.2707808  42.0028186  75.3694416  35.2702035  41.8476843  76.2278693
  35.0663988  42.8491173  75.3135802  35.2407586  42.1048807  75.4882356
  17.3325079  45.4267971  79.7853233  17.1546840  44.9744580  80.5108148
  17.0444101  46.2294132  79.9691710  17.2638032  45.4790529  79.9196736
  32.9948660  46.6825688  79.0230623  33.4902326  45.9648683  78.9834643
  32.1848436  46.3796486  78.9085110  32.9492553  46.5323334  79.0004349
  28.4407272  50.5323501  71.1727628  27.6318594  50.2090175  71.1260937
  28.9482181  49.8256723  71.1055876  28.3956939  50.3804818  71.1557922
  19.0697549  47.9595694  76.8974992  18.2043068  47.9481385  76.7857763
  19.1696365  47.7725917  77.7446131  18.9571716  47.9301756  77.0063936
  35.0600479  49.4329376  81.7107752  35.4855551  48.9103797  81.1578177
  34.6957399  50.0310213  81.1896375  35.0687082  49.4439603  81.5516762
  24.6954559  57.7293593  80.4705097  25.0101118  58.5429982  80.4782879
  25.1047972  57.3443812  81.1387257  24.8022657  57.7922295  80.5709189
  31.6479079  53.1463640  78.0408909  32.1190257  53.8603902  78.2098895
  31.9839257  52.5462390  78.5768779  31.7674194  53.1635104  78.1441285
  35.0946889  41.0066928  82.1887794  34.5109878  41.5076135  81.7765362
  35.4151183  40.4996485  81.5552118  35.0560065  41.0058763  82.0346302
  27.6341688  39.9207523  72.4646469  28.4557383  40.0905836  72.2228164
  27.1711339  40.0754784  71.7412767  27.6872851  39.9689256  72.3218113
  22.0367579  51.6766702  80.1183706  22.6412436  51.6362536  79.4897527
  21.8294892  52.5237854  80.1487762  22.0956476  51.7954704  80.0299822
  31.8511351  53.9432647  81.3345943  32.6709725  53.7995613  81.5962238
  31.5705429  54.5678846  81.8762381  31.9308095  54.0142999  81.4533883
  40.0773610  60.1659818  73.9410859  40.7753774  60.3447946  74.4332322
  40.3925942  59.6430158  73.3181248  40.2268947  60.1153590  73.9212869
  38.2500473  55.5352215  78.0232133  37.9203803  55.9863359  77.3535832
  37.5745475  55.4568378  78.5705140  38.1010910  55.5903350  78.0055356
  45.4576881  51.5237738  76.2681744  45.1430322  52.2141217  76.7002166
  44.9403823  51.4682520  75.5667244  45.3341351  51.6172627  76.2278693
  36.6888923  65.4205456  71.1826622  36.1046138  65.9255487  71.5892486
  36.2859018  65.1947843  70.4423214  36.5428226  65.4613704  71.1331648
  41.1466137  61.6671108  69.6595543  41.3862141  61.8749091  68.8470886
  41.4681978  60.8628616  69.7684487  41.2303295  61.5785209  69.5556096
  36.4556427  53.5964503  73.5055081  37.2102395  53.9642821  73.2672131
  36.2783962  53.9704058  74.2734260  36.5410906  53.7062691  73.5839969
  34.8113492  56.0034822  70.2033194  34.6289065  56.2206703  69.3774187
  35.6739105  56.1173835  70.2591808  34.9118081  56.0524720  70.0887681
  40.4913211  53.0061233  73.2382218  41.2199372  52.8277188  72.7920374
  40.5808104  53.8479313  73.4489396  40.6119873  53.1045112  73.2035735
  34.3575519  59.2808995  68.7155667  33.6433696  58.9947175  69.1278099
  34.8419488  59.6205621  69.3562054  34.3234882  59.2890645  68.8711302
  41.5322837  67.7838949  69.0917475  41.9473985  67.4523973  68.4001971
  40.7014767  67.5507851  68.9637612  41.4710846  67.7010205  68.9708323
  44.2256227  64.0349508  68.2778677  44.1436390  64.1051696  69.1433664
  44.8635947  64.5979252  68.0862417  44.3076064  64.1288480  68.3768626
  26.3040929  60.9988084  76.2462538  26.3901181  60.6219952  77.0276068
  26.9316727  60.6248529  75.7682496  26.4097480  60.8873566  76.2908016
  41.3296337  64.0569963  71.2887283  42.1436976  64.3484856  71.1770054
  41.2655478  63.4029825  70.7145576  41.4399076  64.0035157  71.1876120
  37.8407060  62.7493770  70.7534484  38.2252213  62.5301477  71.5051030
  37.5918681  63.5756715  70.8835561  37.8609133  62.8391916  70.8835561
  35.5607498  54.4190707  76.0843265  34.6929923  54.4913306  76.1500874
  35.8482702  55.2212786  76.2731240  35.4747246  54.5484854  76.1218032
  33.4874850  57.8948966  73.5260141  33.1999646  57.5250236  72.7892089
  34.1745318  58.3643821  73.2643846  33.5463747  57.9095935  73.3775217
  36.3228522  61.7601914  74.9727546  37.0451173  61.9243072  74.5131352
  35.8436514  62.4811579  74.8666886  36.3592252  61.8900144  74.8893160
  42.7291307  54.9951090  75.0851847  43.4317660  54.7958838  74.6071805
  42.4635496  54.2227032  75.3920690  42.7937940  54.8514056  75.0597288
  31.0603045  58.6730178  74.3745422  31.1619181  59.4756340  74.7026398
  31.8558931  58.4717514  74.0768503  31.1930950  58.7616077  74.3780778
  44.8751417  49.6331760  78.2148394  44.9934985  50.0908223  77.4815696
  44.7013592  48.8277021  77.9284611  44.8670588  49.5825532  78.0649327
  42.7672359  67.2731763  66.6303088  43.5345344  67.3331888  66.2208940
  42.3203668  66.7012204  66.1459407  42.8145787  67.1968338  66.4980799
  31.3380099  61.2923389  75.5624816  31.7179064  61.7107934  74.8985083
  30.7635464  61.8736844  75.8693659  31.3091424  61.4401248  75.5101557
  41.8428980  51.4882562  79.1567055  40.9722538  51.4621283  79.1100365
  42.0969322  51.3159754  78.3392901  41.7522540  51.4592706  79.0287192
  38.8146960  63.5450529  68.0940198  39.1039485  64.3215411  68.3683773
  38.9018759  63.0339260  68.7954698  38.8701216  63.5842447  68.2382696
  37.8493663  58.0965713  74.0082610  38.1253397  57.3784625  73.5960177
  38.4492332  58.6950632  73.8003716  37.9786927  58.0786083  73.9163371
  41.3504183  55.7679230  72.2829205  41.8047930  55.9389790  73.0077049
  41.8244229  55.1547341  71.8826981  41.4872503  55.7030115  72.3302967
  38.6917203  62.4721764  73.3874212  39.4359248  62.8596041  73.6257162
  38.8377899  61.6279190  73.5514700  38.8227788  62.4052237  73.4468182
  40.6096779  54.2672023  78.4206074  39.7632824  54.4394831  78.2947423
  40.6067911  53.4621367  78.7571902  40.4843929  54.1733052  78.4517201
  43.6078579  58.9383792  72.3493885  43.0801597  59.0212536  71.6599594
  44.0674287  59.6801664  72.3458530  43.5980429  59.0604455  72.2468580
  35.6011644  57.2086312  67.3734780  35.2524448  57.8606037  67.8366330
  35.1208090  57.1943425  66.6458652  35.4781888  57.3029365  67.3345872
  35.9735553  59.8344842  72.8860825  36.1138514  60.3317306  73.5889466
  36.4718085  59.1331137  73.0275039  36.0676634  59.8046821  73.0112404
  36.0035775  60.7011953  70.2153402  36.6380854  61.2972378  70.1502864
  36.0861386  60.4015411  71.0299272  36.1092326  60.7452861  70.3256488
  37.5814758  56.6325929  70.1898844  37.9030599  56.1529011  69.5358106
  37.8441702  57.4425575  69.9989655  37.6680783  56.6815827  70.0654336
  32.5088763  62.8979794  73.4842948  33.0180992  63.4944301  73.8654253
  32.9823035  62.6305768  72.8019367  32.6532139  62.9465609  73.4397471
  41.4168136  52.4913222  75.9612900  40.7736454  52.3410869  76.5298038
  41.0767543  52.2455568  75.1962005  41.2713213  52.4325345  75.9315915
  34.8679295  59.5336053  76.3516128  34.1491284  59.9500185  76.6188992
  35.2391657  60.0990291  75.8007766  34.8171226  59.6785334  76.3098935
  40.6425869  58.5734052  71.6889508  40.0490708  58.8951049  71.1374075
  40.6801147  57.7275148  71.4810614  40.5600258  58.4958381  71.5772279
  43.5183686  58.5313557  75.1191258  43.2897379  58.5546258  74.2769616
  43.7781762  57.7071024  75.2386268  43.5229874  58.4129637  75.0116456
  36.5728448  57.0690103  76.4145454  37.0485814  57.4307183  75.7795635
  36.0717048  57.7246571  76.6945596  36.5693807  57.2184292  76.3622195
  38.6155101  59.2131303  69.7818838  38.9954066  59.2310932  68.9969952
  37.8747697  59.6585292  69.6609685  38.5623939  59.2813078  69.6482406
  39.4139855  66.0508809  71.1727628  38.6051178  65.7275483  71.1260937
  39.9214764  65.3442031  71.1055876  39.3689522  65.8990126  71.1557922
  30.0430133  63.4781002  76.8974992  29.1775652  63.4666693  76.7857763
  30.1428948  63.2911225  77.7446131  29.9304300  63.4487064  77.0063936
  38.6074272  55.4392831  72.4646469  39.4289966  55.6091144  72.2228164
  38.1443923  55.5940092  71.7412767  38.6605434  55.4874564  72.3218113
  26.0710658   7.5005014  61.2328866  26.0404663   8.3549650  61.4047136
  26.6692007   7.2000306  61.7915010  26.1547816   7.5821510  61.3403669
  13.6551483  16.1243383  61.7519028  12.9034382  15.7458921  61.5235073
  14.1037495  16.1561816  61.0037839  13.6101150  16.0728990  61.6076531
  19.1076443  16.5468752  57.1804575  18.7727811  17.2245674  56.7448798
  19.6203313  16.1574063  56.5921447  19.1342024  16.5893330  57.0291367
  18.6480734  18.4983021  63.1215687  19.0320113  19.0669919  62.5820462
  18.5839875  17.7732531  62.6421503  18.6954161  18.4758484  62.9709550
  23.8927233  10.0757316  59.5047176  23.7766759  10.8265002  59.9339314
  24.6883120   9.8181269  59.7543263  23.9931822  10.1492163  59.6051268
  15.0736979  21.0539364  65.4196657  15.7174434  21.4952528  65.8092815
  15.3993234  20.2492790  65.3326916  15.2168807  21.0004559  65.4642134
  15.7757558  14.0651339  60.7916519  16.0973399  14.6056546  60.1877827
  16.4229655  13.4948110  60.9238808  15.9183614  14.0610514  60.7223554
  18.0147202  12.4537779  60.8630697  18.4540837  11.8454879  61.3085470
  17.8651865  12.0745152  60.0916162  18.0568667  12.3076250  60.8149864
  21.6156538  10.8064960  57.8161466  21.5307833  11.6625927  57.9611035
  22.1040922  10.5309284  58.4843625  21.6745436  10.8922281  57.9363548
  22.5474972   7.4249754  59.3159201  22.0186443   7.6409388  59.9756507
  23.0699992   8.1185893  59.2360171  22.5463425   7.5592891  59.4014800
  28.0023024  12.9996059  64.6892246  27.1720728  13.2106702  64.8525662
  27.9532277  12.1733113  64.4134529  27.8729760  12.9085665  64.6729611
  14.4374579  11.3212971  58.1166669  13.8531795  11.8263002  58.5232533
  14.0344675  11.0955358  57.3763261  14.2913883  11.3621219  58.0671694
  18.8951794   7.5678623  56.5935590  19.1347797   7.7756607  55.7810933
  19.2167635   6.7636132  56.7024534  18.9788952   7.4792724  56.4896143
  25.2587340  13.6695413  64.8256961  24.8222572  13.6732155  65.5815933
  24.9250255  14.3500912  64.3936539  25.1449960  13.7707869  64.8737794
  28.3931686  10.3876333  63.7176599  29.0548120   9.8267001  63.6172507
  27.7523098   9.8928364  64.0429290  28.3960553  10.2312742  63.7508939
  19.2808494  13.6846464  56.0257522  19.6959642  13.3531488  55.3342018
  18.4500423  13.4515367  55.8977659  19.2196502  13.6017720  55.9048369
  24.6796517  11.4041715  63.4588587  24.9152106  11.5486914  62.6315438
  24.8286080  12.1684123  63.8520101  24.7362320  11.5380770  63.3952191
  26.5086973  10.2443381  61.2958191  26.8395190  10.7771021  60.6898286
  27.0820061  10.2982269  61.9520142  26.6420652  10.3312950  61.3035973
  21.9741884   9.9357024  55.2118723  21.8922046  10.0059211  56.0773710
  22.6121604  10.4986768  55.0202464  22.0561721  10.0295995  55.3108673
  19.0781994   9.9577478  58.2227330  19.8922633  10.2492371  58.1110101
  19.0141135   9.3037340  57.6485623  19.1884733   9.9042673  58.1216167
  15.5892717   8.6501285  57.6874531  15.9737870   8.4308992  58.4391076
  15.3404338   9.4764231  57.8175608  15.6094790   8.7399432  57.8175608
  15.8715960  16.8706161  59.7606902  16.1614258  16.4795143  59.0366128
  16.6019441  17.0522866  60.2012177  16.0222844  16.8399975  59.7189709
  13.8121876  18.8473544  62.8267051  13.5922171  18.5570898  63.6193718
  13.5916398  18.1888499  62.2984964  13.7469470  18.7073252  62.8655960
  15.9789831  20.2202934  61.6097744  16.6313889  19.6879376  61.8388770
  15.2815440  19.8671586  61.9965618  15.9720549  20.0892457  61.7009911
  23.9729750  12.5407348  60.9528723  24.5387782  13.2000557  60.8687266
  23.3257653  12.8857046  61.4245125  23.9608506  12.6889289  61.0101479
  20.4436328  15.4846132  60.3765802  20.2023004  14.7513992  59.9692867
  20.6237661  16.0332989  59.7232135  20.4343952  15.4568523  60.2196025
  25.1692447  12.5913575  57.7454359  24.7899256  11.8050713  57.7383649
  24.5058693  13.1400432  57.6026004  25.0150922  12.5558399  57.7235156
  17.9939356  16.1427094  61.5843186  18.7589247  15.8736738  61.2625850
  17.8917446  15.6577105  62.3013249  18.0920851  16.0316659  61.6423013
  20.5158016  13.1739278  53.5643135  21.2831001  13.2339403  53.1548987
  20.0689325  12.6019720  53.0799454  20.5631443  13.0975854  53.4320845
  23.4152546  14.8359066  58.0806045  23.4972384  15.6426053  57.7567496
  23.9002288  14.8555026  58.8046819  23.4989704  14.9579729  58.1392944
  19.0510639   9.3853837  61.0497459  19.5926185   8.8824218  61.5136080
  19.3657198   9.3319032  60.2386944  19.1775036   9.3033258  60.9981271
  17.2197089  14.7771189  58.3337487  17.2889909  13.9185727  58.4730487
  17.9985544  14.9943070  58.0056512  17.3449939  14.6824053  58.3054644
  21.6104576  17.2008890  62.5473980  21.2184368  16.8975605  61.8296847
  21.7657649  18.0377980  62.3578934  21.5758166  17.2792727  62.4130477
  21.7744251  13.7658879  62.4880011  21.4158906  13.9373522  63.2644043
  21.2882962  14.2272085  61.9308009  21.6502948  13.8597850  62.5205280
  16.5632617   9.4458044  55.0280245  16.8525141  10.2222927  55.3023820
  16.6504415   8.9346776  55.7294745  16.6186873   9.4849963  55.1722743
  22.3794882  16.6044383  65.9804015  22.1814570  17.0935197  65.2860226
  21.7582593  16.8085624  66.5588148  22.2582446  16.7060921  65.9627238
  21.3564236   4.8391307  59.2833932  20.8287254   4.9220051  58.5939641
  21.8159944   5.5809179  59.2798577  21.3466086   4.9611970  59.1808627
  20.9101318  13.4094871  58.4143589  21.6335517  13.8752984  58.2708162
  20.4701909  13.4768481  57.6641186  20.9517010  13.4878708  58.2828371
  21.1705168  17.4715576  58.5741650  20.4534477  17.2976438  58.1088888
  21.8211905  17.2368148  58.0417136  21.1607018  17.4111368  58.4270868
  16.4518330  18.7077335  65.0031798  16.0378728  18.0451465  64.6135640
  17.1365704  18.8555193  64.4827492  16.4916701  18.6317993  64.8688295
  19.8183624  17.8667420  65.7555415  19.4199907  17.9769690  64.9876235
  19.2034843  18.0749486  66.3381975  19.6682513  17.9140988  65.7286714
  27.5525466  12.4419387  59.1398505  27.9359072  13.1910743  59.3696602
  26.7569580  12.6885206  58.8810495  27.4919249  12.5889080  59.1356079
  16.3640758   5.1138818  56.7158884  16.7439723   5.1318448  55.9309999
  15.6233354   5.5592807  56.5949732  16.3109596   5.1820593  56.5822453
  17.1625512  11.9516325  58.1067674  16.3536835  11.6282998  58.0600984
  17.6700421  11.2449547  58.0395923  17.1175179  11.7997641  58.0897969
  37.0443242  23.0190322  61.2328866  37.0137246  23.8734958  61.4047136
  37.6424591  22.7185614  61.7915010  37.1280400  23.1006818  61.3403669
  30.2442927  22.1065973  65.9881797  29.3880822  22.2674471  66.0390914
  30.2910580  21.2358037  66.0086858  30.1242038  22.0016775  65.9987863
  24.6284066  31.6428691  61.7519028  23.8766966  31.2644229  61.5235073
  25.0770078  31.6747124  61.0037839  24.5833733  31.5914298  61.6076531
  33.5536643  28.3752498  75.5942253  34.2603411  27.8804529  75.7229187
  33.7424579  28.8161580  74.8644911  33.6864549  28.3670849  75.5051298
  30.0809026  32.0654060  57.1804575  29.7460395  32.7430982  56.7448798
  30.5935897  31.6759371  56.5921447  30.1074607  32.1078638  57.0291367
  29.6213318  34.0168329  63.1215687  30.0052697  34.5855227  62.5820462
  29.5572459  33.2917839  62.6421503  29.6686745  33.9943792  62.9709550
  33.0894748  24.1658017  68.6313448  33.6350708  24.8443103  68.6907418
  33.0311624  24.0245477  67.7715030  33.1610662  24.2450018  68.5125509
  26.2068823  31.6547083  64.0181801  26.3079186  30.8447437  64.3278929
  25.6110568  31.5604029  63.3881479  26.1341361  31.5212111  63.9708039
  34.8659816  25.5942624  59.5047176  34.7499342  26.3450310  59.9339314
  35.6615703  25.3366577  59.7543263  34.9664406  25.6677471  59.6051268
  26.0469562  36.5724672  65.4196657  26.6907018  37.0137836  65.8092815
  26.3725818  35.7678098  65.3326916  26.1901391  36.5189867  65.4642134
  19.4033867  27.6767369  63.6434135  19.1684051  26.8435022  63.5366403
  19.5419508  27.9572035  62.8295335  19.3889529  27.5950873  63.5076490
  21.7023954  19.8453100  66.5418442  21.0828986  19.2545747  66.3728457
  21.6007818  20.4364535  65.9082765  21.5961630  19.8457182  66.4223432
  26.7490142  29.5836647  60.7916519  27.0705983  30.1241854  60.1877827
  27.3962238  29.0133418  60.9238808  26.8916197  29.5795822  60.7223554
  28.7991850  21.5852642  60.8750905  29.4972015  21.7640769  61.3672369
  29.1144183  21.0622981  60.2521295  28.9487187  21.5346414  60.8552915
  21.4293087  23.3905382  68.7862011  21.3051784  23.9767827  69.4211830
  22.0811372  22.8965577  69.0874286  21.5066737  23.4044186  68.9247941
  28.9879785  27.9723087  60.8630697  29.4273421  27.3640187  61.3085470
  28.8384448  27.5930460  60.0916162  29.0301251  27.8261558  60.8149864
  26.4551428  26.5667099  68.0649522  27.1000431  26.0739542  67.7460471
  26.6953205  26.7091885  68.8915601  26.5862013  26.5144541  68.1399056
  28.9937520  29.4122004  67.7156415  29.2760763  28.6173410  67.4943171
  29.7223680  29.8902592  67.7361476  29.1427083  29.3656601  67.6859430
  26.9718714  16.9545038  64.9572180  26.6422044  17.4056182  64.2875879
  26.2963715  16.8761202  65.5045186  26.8229150  17.0096174  64.9395403
  32.5889122  26.3250268  57.8161466  32.5040417  27.1811235  57.9611035
  33.0773505  26.0494592  58.4843625  32.6478019  26.4107589  57.9363548
  34.1795121  12.9430561  63.2021791  33.8648562  13.6334040  63.6342213
  33.6622063  12.8875343  62.5007291  34.0559592  13.0365450  63.1618740
  33.5207555  22.9435062  59.3159201  32.9919027  23.1594696  59.9756507
  34.0432575  23.6371201  59.2360171  33.5196008  23.0778199  59.4014800
  38.9755608  28.5181367  64.6892246  38.1453311  28.7292010  64.8525662
  38.9264860  27.6918421  64.4134529  38.8462343  28.4270973  64.6729611
  25.4107163  26.8398279  58.1166669  24.8264378  27.3448310  58.5232533
  25.0077258  26.6140666  57.3763261  25.2646467  26.8806527  58.0671694
  20.9651192  32.5553040  64.9190341  20.4818770  33.2803530  64.8949924
  21.7774510  32.8529170  65.0300498  21.0141939  32.7055394  64.9317620
  27.0365346  31.3485221  67.5240155  26.5192287  30.9892636  66.9201463
  27.7339737  30.8247395  67.5346221  27.0630927  31.2182909  67.4370414
  30.6928938  31.7980035  73.4856328  30.7812283  31.6106175  74.3334539
  31.1218650  31.1517464  73.0861175  30.7691040  31.6743043  73.5528080
  28.2599397  31.0811195  72.4673990  27.6970232  30.6683805  72.9913652
  29.0220421  31.0064100  72.8867134  28.2893846  31.0088595  72.6066991
  29.8684377  23.0863931  56.5935590  30.1080381  23.2941915  55.7810933
  30.1900218  22.2821440  56.7024534  29.9521535  22.9978032  56.4896143
  25.1774668  15.0157327  60.4395128  25.9320636  15.3835644  60.2012178
  25.0002202  15.3896881  61.2074307  25.2629146  15.1255515  60.5180016
  23.8195389  33.0709216  65.0710621  24.5215968  32.5561205  65.1283377
  23.7392872  33.3983367  65.8757496  23.9119149  33.0423442  65.1983413
  38.4709566  21.1651767  68.4842667  37.6337987  21.2353954  68.7190261
  38.4397797  21.1676262  67.6116969  38.3427849  21.1761994  68.3902215
  23.5331732  17.4227646  57.1373241  23.3507306  17.6399527  56.3114233
  24.3957345  17.5366658  57.1931855  23.6336322  17.4717544  57.0227728
  23.1446164  29.2615568  64.5796229  23.9835064  29.4938501  64.6269990
  23.1757933  28.3919879  64.5103264  23.2727882  29.1672514  64.5760873
  23.7698867  29.6816443  68.8809534  24.3097092  29.5387574  69.5512906
  23.0868814  30.0813194  69.2493560  23.7491021  29.7196114  69.0343956
  29.2131451  14.4254056  60.1722264  29.9417612  14.2470011  59.7260421
  29.3026344  15.2672136  60.3829443  29.3338114  14.5237935  60.1375782
  33.1939752  25.3607444  64.0754558  33.9497267  25.7938958  64.1143467
  33.3002077  24.7112213  64.6489194  33.3209923  25.3284928  64.1652584
  36.2319923  29.1880721  64.8256961  35.7955155  29.1917463  65.5815933
  35.8982839  29.8686220  64.3936539  36.1182543  29.2893177  64.8737794
  30.8048997  31.2289054  76.1500112  31.5889414  31.3419902  76.5155854
  30.6045591  30.4030191  76.3458798  30.8915022  31.1235773  76.2334498
  19.1736012  25.9016734  69.0343956  18.9074428  25.0855851  69.1934946
  19.1874576  25.9469889  68.1639471  19.1360735  25.7873639  68.9297438
  36.1517406  16.2294549  67.0686389  36.7943315  16.2992653  67.6548305
  36.4040427  15.5623772  66.5665931  36.2839538  16.1420897  67.0813669
  23.0793759  20.7001818  55.6495714  22.3651936  20.4139998  56.0618146
  23.5637728  21.0398444  56.2902101  23.0453123  20.7083468  55.8051349
  30.9619390  33.1399156  69.7966567  30.1634636  32.8998656  70.0540436
  31.4105402  33.1913549  70.5433615  30.9094001  33.1121547  69.9451492
  39.3664269  25.9061641  63.7176599  40.0280704  25.3452309  63.6172507
  38.7255681  25.4113672  64.0429290  39.3693137  25.7498050  63.7508939
  30.2541077  29.2031772  56.0257522  30.6692226  28.8716796  55.3342018
  29.4233007  28.9700675  55.8977659  30.1929086  29.1203028  55.9048369
  19.5829426  26.6875513  66.3155700  19.4004999  26.6622399  65.4627992
  20.3179095  27.1574451  66.3544609  19.6643490  26.7536876  66.1953618
  35.6529100  26.9227023  63.4588587  35.8884689  27.0672222  62.6315438
  35.8018664  27.6869431  63.8520101  35.7094903  27.0566078  63.3952191
  37.4819557  25.7628689  61.2958191  37.8127774  26.2956329  60.6898286
  38.0552645  25.8167577  61.9520142  37.6153236  25.8498258  61.3035973
  32.6951446  23.6093592  61.9781771  32.7898300  24.3482886  62.4321397
  32.0710290  23.1811067  62.4116336  32.6160476  23.6554913  62.1089919
  30.9503920  26.7879805  72.6272052  31.5242782  26.1507049  72.7820616
  30.8718724  26.7883887  71.7581710  31.0237155  26.6944916  72.5218463
  19.5500336  23.5669014  66.4654766  20.1273839  23.4305465  67.1047012
  18.8514398  23.1104798  66.7200351  19.5321358  23.4791280  66.5977056
  32.9474467  25.4542332  55.2118723  32.8654630  25.5244519  56.0773710
  33.5854188  26.0172076  55.0202464  33.0294305  25.5481303  55.3108673
  26.3067639  25.2203070  64.6793250  26.0486883  24.3874805  64.6524549
  26.3616121  25.4460683  63.8385750  26.2767416  25.1300841  64.5513386
  31.3868689  17.3231520  64.7797342  30.6825015  16.8340706  64.9381262
  31.4353663  17.3353995  63.9085787  31.2898740  17.2521168  64.6736682
  25.2802351  22.7740832  65.1658144  24.7051942  22.9333001  65.8022105
  24.9038027  22.1376241  64.7026595  25.1405163  22.7038645  65.1912703
  28.9475639  21.2464181  70.0250523  28.5590072  20.8218399  69.3702714
  28.2830338  21.4946331  70.5327549  28.7922567  21.2202903  70.0038391
  38.5898908  21.0039186  62.7998353  38.3335473  20.1919128  62.6096236
  39.4328222  21.0116753  62.5728540  38.6764934  20.8851184  62.7383170
  15.0259170  22.4180907  63.1802585  15.1119421  22.0412775  63.9616115
  15.6534967  22.0441353  62.7022543  15.1315721  22.3066389  63.2248062
  32.7702001  14.9438810  67.5374507  33.1512513  14.2616981  67.9242381
  31.9665285  14.6548412  67.3550172  32.7078463  14.8005859  67.5678563
  30.0514578  25.4762786  58.2227330  30.8655216  25.7677679  58.1110101
  29.9873719  24.8222648  57.6485623  30.1617317  25.4227981  58.1216167
  36.2724068  28.1588782  72.6356905  36.0362705  27.3276847  72.5168966
  36.9167297  28.1074389  73.2211750  36.3318738  28.0286470  72.7042799
  25.9222486  28.9484303  63.3499642  26.5596433  28.7096051  63.8951435
  26.3477557  29.1521462  62.6152803  26.0798652  28.9435314  63.3216799
  20.6135128  31.1872640  67.2333946  20.6539273  31.4587491  66.4053725
  21.1729652  31.7114548  67.6491734  20.7018474  31.3048395  67.1725834
  26.5625301  24.1686593  57.6874531  26.9470454  23.9494300  58.4391076
  26.3136921  24.9949539  57.8175608  26.5827373  24.2584739  57.8175608
  37.2960488  27.9433231  68.6985200  36.9906305  28.6761288  69.0598516
  36.5766704  27.5371160  68.4177986  37.1447831  27.9914964  68.7098337
  28.3043958  29.4256726  65.0293428  28.3782966  29.2631898  65.8835278
  29.1213464  29.6146916  64.7853910  28.4360316  29.4293468  65.1191454
  42.9962281  24.5826232  68.0253544  42.9286781  24.6022191  67.1556131
  42.9817943  25.4256559  68.2509215  42.9841037  24.7099966  67.9306021
  22.0649714  29.7714589  62.0587872  21.2387832  30.0176326  61.9322150
  22.1261706  29.6926670  62.9249930  21.9523881  29.7959538  62.1676816
  24.2825738  15.8383530  63.0183312  23.4148164  15.9106129  63.0840921
  24.5700943  16.6405609  63.2071287  24.1965486  15.9677677  63.0558078
  26.8448543  32.3891469  59.7606902  27.1346842  31.9980450  59.0366128
  27.5752024  32.5708174  60.2012177  26.9955428  32.3585283  59.7189709
  40.7820898  23.3570618  66.3000139  41.3328819  22.7238687  66.5397231
  40.7665013  23.8886011  66.9915643  40.8606094  23.3419566  66.4378997
  27.4343289  27.1909215  70.8460032  26.9354982  27.9024983  70.9244921
  28.2443513  27.5109882  70.8078194  27.4799395  27.3436064  70.8516601
  24.7854459  34.3658852  62.8267051  24.5654754  34.0756206  63.6193718
  24.5648981  33.7073807  62.2984964  24.7202053  34.2258560  62.8655960
  23.6971406  26.4532168  65.0922753  23.4084655  25.8269639  65.6268480
  24.5654754  26.3952455  65.1587433  23.7831658  26.3519712  65.1813708
  34.4849304  21.5966951  65.4104735  34.1414070  20.8757287  65.7611984
  34.5842347  21.3880803  64.5683093  34.4491347  21.4591155  65.3376415
  26.9522415  35.7388241  61.6097744  27.6046473  35.2064684  61.8388770
  26.2548024  35.3856894  61.9965618  26.9453133  35.6077764  61.7009911
  23.9003680  28.0927419  61.0165118  24.6549648  28.4740458  61.2300581
  23.3074292  28.5438563  61.4711815  23.9240393  28.2156246  61.1147996
  34.9462333  28.0592656  60.9528723  35.5120366  28.7185865  60.8687266
  34.2990237  28.4042354  61.4245125  34.9341090  28.2074597  61.0101479
  25.2201906  29.2635980  66.3905233  24.6982660  29.4036272  67.0757098
  25.6075927  28.5046645  66.5807351  25.2005607  29.1721504  66.5206310
  22.2093090  19.3141789  60.4600188  21.9217886  18.9443060  59.7232135
  22.8963559  19.7836645  60.1983893  22.2681988  19.3288759  60.3115264
  31.4168911  31.0031440  60.3765802  31.1755587  30.2699300  59.9692867
  31.5970244  31.5518297  59.7232135  31.4076535  30.9753831  60.2196025
  26.6468232  26.2940000  61.7886724  26.4511015  26.9014734  61.1947027
  26.8702577  25.6007944  61.3078398  26.6502873  26.2817525  61.6302805
  25.0446762  23.1794737  61.9067593  25.7669414  23.3435896  61.4471399
  24.5654755  23.9004402  61.8006933  25.0810493  23.3092967  61.8233207
  33.0040269  19.5158536  67.2864278  32.1651370  19.5419815  67.0502541
  33.0744637  20.1629272  67.8669624  32.8908663  19.6154662  67.3373395
  22.6954379  25.5852810  71.0121733  23.2075476  25.8637063  70.3630492
  22.4090721  26.3242104  71.3784546  22.7289242  25.7355164  70.9711611
  31.4509548  16.4143913  62.0191894  32.1535901  16.2151662  61.5411852
  31.1853736  15.6419856  62.3260737  31.5156180  16.2706879  61.9937335
  36.8797793  24.7226523  64.5725520  36.7931768  24.8781949  65.4260298
  36.4248273  25.3664599  64.1984925  36.8001050  24.8402278  64.6432626
  19.7821285  20.0923002  61.3085469  19.8837421  20.8949163  61.6366445
  20.5777172  19.8910338  61.0108550  19.9149191  20.1808900  61.3120825
  30.7523609  22.0437270  63.1951079  30.5058324  21.9633021  64.0287868
  31.0808732  21.2590738  63.0013607  30.7644853  21.9163535  63.2898602
  34.6471658  28.7520629  66.9837860  34.5086017  29.4501675  67.4886603
  33.8671656  28.5969286  66.6274042  34.5114885  28.8320796  67.0064134
  32.9849743  25.0517005  73.2360242  32.9797782  24.1796821  73.2402668
  33.6910737  25.2505174  72.7629698  33.0894747  24.9520879  73.1667277
  26.7120637  24.7793989  72.6074062  26.8564012  25.3595197  71.9717172
  27.0596285  25.1570285  73.3123917  26.7848098  24.9214693  72.6173057
  28.8840554  23.9784157  70.3899194  28.1363868  24.1715171  69.9847472
  29.0382079  23.1529377  70.1523315  28.7962982  23.8849268  70.2944600
  25.7848392  32.9696760  69.4735089  25.9337955  32.4099676  68.8208493
  26.5648394  33.0488762  69.8567608  25.9222485  32.8982326  69.4332038
  36.1425031  28.1098883  57.7454359  35.7631840  27.3236021  57.7383649
  35.4791276  28.6585740  57.6026004  35.9883506  28.0743707  57.7235156
  28.3101692  33.1411403  70.7519580  28.2345363  32.4720214  71.3070368
  28.2391551  33.8429192  71.2660246  28.2882299  33.1456311  70.9096428
  33.5969657  11.0524583  65.1488440  33.7153225  11.5101046  64.4155743
  33.4231833  10.2469844  64.8624658  33.5888828  11.0018355  64.9989374
  28.9671939  31.6612402  61.5843186  29.7321830  31.3922046  61.2625850
  28.8650029  31.1762413  62.3013249  29.0653435  31.5501967  61.6423013
  27.0024709  19.8636812  68.1236421  26.2120784  19.6828272  68.4453757
  27.3985332  19.0863764  68.1066716  26.9441585  19.7224273  68.1688970
  31.4890600  28.6924586  53.5643135  32.2563585  28.7524711  53.1548987
  31.0421909  28.1205027  53.0799454  31.5364027  28.6161162  53.4320845
  32.3868395  27.4979242  65.8495867  31.7113397  27.2664474  66.3509254
  32.3960771  26.8900425  65.2237972  32.2886900  27.3738167  65.8312020
  29.5162539  22.3397071  72.6059920  29.4521680  23.2007027  72.4780057
  29.6559727  22.0229064  71.8055472  29.5278009  22.4197237  72.4688133
  34.3885130  30.3544374  58.0806045  34.4704967  31.1611360  57.7567496
  34.8734872  30.3740333  58.8046819  34.4722288  30.4765037  58.1392944
  28.1981633  25.0329210  66.7476123  27.7743882  25.2333709  66.0115142
  28.0226488  24.1858058  66.8600423  28.1092514  24.9377992  66.6549813
  27.6993327  36.5479723  69.2097581  28.1889257  35.8490512  69.0273245
  27.1277559  36.2503593  69.7973638  27.6877857  36.4005947  69.2698621
  23.4864078  25.5281262  62.1804096  23.6428697  25.4628064  63.0360088
  23.8264671  26.3029814  61.9682775  23.5597313  25.6330460  62.2758690
  30.0243223  24.9039145  61.0497459  30.5658768  24.4009526  61.5136080
  30.3389782  24.8504340  60.2386944  30.1507620  24.8218566  60.9981271
  33.8960330  29.1141793  78.1624371  34.7095195  28.8426941  78.3229504
  33.7355296  28.8149332  77.3584567  33.9930279  29.0296719  78.0669777
  28.1929672  30.2956497  58.3337487  28.2622493  29.4371035  58.4730487
  28.9718128  30.5128378  58.0056512  28.3182522  30.2009361  58.3054644
  31.1732492  19.7975450  71.1019759  31.3874462  19.1586364  70.5483113
  30.5566391  20.2421274  70.6727621  31.1137821  19.7685593  70.9570191
  32.5837160  32.7194198  62.5473980  32.1916952  32.4160913  61.8296847
  32.7390232  33.5563288  62.3578934  32.5490750  32.7978035  62.4130477
  20.0598340  22.7116212  62.4964863  20.4397304  23.1300757  61.8325130
  19.4853704  23.2929668  62.8033706  20.0309664  22.8594071  62.4441604
  33.3371580  21.4064515  72.0403067  32.5248262  21.0990405  72.1216239
  33.7961515  20.9263515  72.6045779  33.2851965  21.2901007  72.1357661
  32.7476835  29.2844187  62.4880011  32.3891489  29.4558830  63.2644043
  32.2615546  29.7457392  61.9308009  32.6235532  29.3783158  62.5205280
  30.5647221  12.9075385  66.0907102  29.6940779  12.8814106  66.0440412
  30.8187562  12.7352578  65.2732948  30.4740781  12.8785529  65.9627239
  27.5365200  24.9643352  55.0280245  27.8257725  25.7408235  55.3023820
  27.6236999  24.4532084  55.7294745  27.5919456  25.0035271  55.1722743
  33.9081574  30.1748083  73.4347212  34.5461295  29.6808278  73.1009668
  33.2655666  30.1025483  72.8499439  33.9075801  30.0907091  73.2989567
  35.6338574  22.0237229  68.0013127  35.2066182  21.9363577  67.2461227
  34.9964627  22.1315004  68.5867971  35.4768181  22.0269889  67.9758569
  33.9635831  30.8667891  70.0752569  34.7528209  30.5156956  70.1954650
  34.1379429  31.6804279  69.8129202  34.1056112  30.9353748  70.0540437
  23.7029141  24.2776617  67.1280357  22.8617148  24.1780491  67.3359251
  23.9119149  25.0472097  67.4794678  23.6093834  24.3768660  67.2107672
  21.1804708  21.8996154  64.9565108  20.7861406  21.9739166  64.1815218
  20.6244825  22.2854100  65.5073470  21.0407520  21.9677928  64.9232768
  32.8169655  14.8777448  64.6368987  33.0219248  14.8099756  65.4825984
  32.4896079  15.6836269  64.5690164  32.7984903  14.9863388  64.7528642
  27.5145806  22.2058016  66.3777955  27.2108944  21.6514004  66.9788363
  26.8125227  22.3850226  65.8905989  27.3662016  22.1502798  66.3947661
  26.5711903  19.5158536  60.9422657  26.8471637  18.7977448  60.5300224
  27.1710572  20.1143456  60.7343763  26.7005168  19.4978907  60.8503418
  25.5764157  29.4207737  71.0850053  25.4684512  29.4309799  71.9512111
  25.7859938  30.2462517  70.8955006  25.5914268  29.5448812  71.1854144
  36.0703343  15.4309212  64.1171752  35.4577656  15.9179614  64.5025484
  36.1667517  14.7552703  64.6609404  35.9941240  15.4027521  64.2550611
  30.0722424  17.1872053  59.2169252  30.5266170  17.3582614  59.9417096
  30.5462469  16.5740164  58.8167027  30.2090744  17.1222938  59.2643013
  23.5937949  26.6720379  68.5471990  23.0025882  27.3129877  68.5175005
  24.3558973  27.0957996  68.5203290  23.6186210  26.8296218  68.5387137
  39.7128371  26.5026149  69.5449269  39.7711494  26.9512798  70.2909245
  39.0794838  26.9124962  69.1079349  39.6279666  26.6299883  69.5901817
  33.3527465  32.1229691  65.9804015  33.1547154  32.6120505  65.2860226
  32.7315176  32.3270932  66.5588148  33.2315030  32.2246229  65.9627238
  27.4135444  23.8914588  60.3214259  28.1577489  24.2788864  60.5597209
  27.5596140  23.0472013  60.4854747  27.5446029  23.8245060  60.3808229
  29.3315019  15.6864846  65.3546120  28.4851064  15.8587654  65.2287470
  29.3286151  14.8814190  65.6911949  29.2062169  15.5925875  65.3857247
  30.4013319  19.4640061  66.2208178  29.9273274  18.9381823  66.7313489
  30.7731455  18.9169534  65.6523040  30.3863208  19.3056057  66.2123326
  36.6650050  24.5242437  67.6314959  36.4248273  23.6848852  67.6357385
  37.1442057  24.6042603  68.3555732  36.7002234  24.4123836  67.7389761
  32.3296819  20.3576615  59.2833932  31.8019838  20.4405359  58.5939641
  32.7892527  21.0994487  59.2798577  32.3198670  20.4797278  59.1808627
  38.6655237  21.3043894  65.5844218  38.4265007  21.2639728  64.7465003
  38.8289138  22.1515046  65.7109939  38.6545540  21.4235979  65.4797700
  35.2701267  25.6893843  71.5149263  35.9935466  25.2366369  71.3360283
  35.0051229  25.9698509  70.7321591  35.3382540  25.6644812  71.3727978
  24.1388136  20.2854017  68.2502142  23.5141206  20.2972409  67.6428095
  23.8033730  20.7614192  68.8993382  23.9973627  20.3572534  68.2558711
  24.3229884  18.6279135  54.3074827  23.9742689  19.2798860  54.7706377
  23.8426330  18.6136248  53.5798698  24.2000128  18.7222189  54.2685919
  20.8513811  28.3454477  69.6905907  20.3213736  27.6546916  69.7400881
  21.1238904  28.3364662  68.8618615  20.8138533  28.2421608  69.5753323
  31.8833902  28.9280179  58.4143589  32.6068100  29.3938292  58.2708162
  31.4434493  28.9953789  57.6641186  31.9249594  29.0064016  58.2828371
  31.0520057  25.7877721  69.6644278  30.4377050  25.2435772  69.9592913
  31.5687342  25.2741958  69.1850094  31.0375719  25.6314130  69.6368507
  30.2916354  26.8581991  67.3988577  29.8643962  26.2331710  66.9654012
  30.2841298  26.5756913  68.2247584  30.2275495  26.7234772  67.4568404
  28.6202064  17.7350746  67.6131111  28.6444551  17.2010858  66.9243891
  28.8713537  17.2268055  68.2756701  28.6611982  17.5811650  67.6095755
  16.1309653  25.0182241  67.0474255  16.0253102  24.9729085  66.1826339
  15.3809873  25.3636021  67.3288540  16.0045256  25.0623149  66.9611585
  24.9003386  16.4621564  66.9936855  24.9401757  16.9630771  67.7071563
  24.0753050  16.5531958  66.7242778  24.7842912  16.5503380  67.0587393
  26.3217749  22.9782074  69.2910754  25.4909679  23.1455892  69.0846002
  26.2669266  22.6018025  70.0759639  26.1907164  22.9471805  69.3759282
  24.6953793  21.2537665  59.8200872  24.8356754  21.7510130  60.5229513
  25.1936326  20.5523960  59.9615085  24.7894874  21.2239644  59.9452451
  24.7254015  22.1204776  57.1493449  25.3599095  22.7165202  57.0842910
  24.8079626  21.8208234  57.9639319  24.8310566  22.1645685  57.2596535
  37.7036581  24.6520254  70.0179813  38.2954421  25.2917505  70.0498011
  38.1395576  23.9543291  70.3071880  37.8555012  24.6438604  70.0660645
  26.3032998  18.0518752  57.1238891  26.6248839  17.5721834  56.4698153
  26.5659942  18.8618398  56.9329702  26.3899024  18.1008650  56.9994383
  29.5329971  29.0737626  70.6437707  29.0255062  29.6273473  71.0878337
  29.2356617  29.1345916  69.8256481  29.4134856  29.1643937  70.5886163
  31.6992153  17.4390946  69.4862370  32.1247225  16.9863472  68.8745896
  31.0849146  16.8851017  69.7627157  31.6720799  17.2904922  69.4367395
  21.2307003  24.3172617  60.4182995  21.7399233  24.9137125  60.7994300
  21.7041276  24.0498591  59.7359414  21.3750379  24.3658433  60.3737517
  32.1437751  32.9900884  58.5741650  31.4267061  32.8161746  58.1088888
  32.7944489  32.7553456  58.0417136  32.1339602  32.9296676  58.4270868
  30.1386376  13.9106046  62.8952947  29.4954694  13.7603692  63.4638085
  29.7985783  13.6648391  62.1302051  29.9931453  13.8518168  62.8655962
  34.7285722  21.8665472  62.3182955  34.0576912  22.4095175  62.1896021
  35.4225473  22.3360328  62.0764650  34.7314590  22.0163744  62.2638483
  28.7772456  34.0062184  67.5494714  28.5538111  33.2481014  67.9178740
  28.2882300  34.0360206  66.8275153  28.6715905  33.8984409  67.4971455
  34.8913850  18.3221356  65.2273329  35.2441460  17.8951079  65.9019127
  34.0328651  18.2372200  65.3574405  34.8163295  18.2466097  65.3468339
  23.5897535  20.9528876  63.2856175  22.8709524  21.3693008  63.5529039
  23.9609897  21.5183115  62.7347813  23.5389467  21.0978157  63.2438982
  32.8897116  21.5856725  69.1758171  32.8695043  21.4040020  70.0292950
  32.9376316  22.4568743  69.1517754  32.8931757  21.6873263  69.2981466
  30.8343446  28.1743917  75.1006647  30.7939300  27.5293594  74.5151803
  31.6466764  28.1180534  75.4132059  30.9486599  28.0702884  75.0603597
  27.4250913  34.2262643  65.0031798  27.0111312  33.5636773  64.6135640
  28.1098287  34.3740501  64.4827492  27.4649285  34.1503301  64.8688295
  30.7916207  33.3852728  65.7555415  30.3932491  33.4954998  64.9876235
  30.1767427  33.5934794  66.3381975  30.6415097  33.4326296  65.7286714
  29.3644109  19.9926876  58.6229555  28.7708949  20.3143872  58.0714122
  29.4019387  19.1467971  58.4150661  29.2818498  19.9151204  58.5112326
  36.3237910  13.4439768  66.1557641  35.8168775  12.7368908  66.0878819
  37.1205344  13.1132957  66.2858718  36.3665149  13.2912919  66.1656636
  32.2401926  19.9506380  62.0531305  32.0115619  19.9739082  61.2109663
  32.5000002  19.1263847  62.1726315  32.2448114  19.8322460  61.9456502
  25.2946688  18.4882926  63.3485500  25.7704055  18.8500006  62.7135682
  24.7935288  19.1439394  63.6285643  25.2912047  18.6377115  63.2962241
  38.5258050  27.9604695  59.1398505  38.9091656  28.7096051  59.3696602
  37.7302163  28.2070514  58.8810495  38.4651832  28.1074388  59.1356079
  27.3373342  20.6324126  56.7158884  27.7172306  20.6503755  55.9309999
  26.5965938  21.0778115  56.5949732  27.2842179  20.7005901  56.5822453
  34.9658632  18.9406317  62.3034463  34.9652859  18.7854974  63.1618739
  34.7614812  19.7869305  62.2475849  34.9358410  19.0426938  62.4222402
  17.0275903  22.3646102  66.7193280  16.8497664  21.9122711  67.4448195
  16.7394925  23.1672263  66.9031757  16.9588856  22.4168660  66.8536783
  32.6899484  23.6203819  65.9570670  33.1853149  22.9026814  65.9174690
  31.8799260  23.3174617  65.8425157  32.6443377  23.4701466  65.9344396
  28.1358096  27.4701633  58.1067674  27.3269418  27.1468306  58.0600984
  28.6433005  26.7634855  58.0395923  28.0907762  27.3182949  58.0897969
  18.7648373  24.8973826  63.8315039  17.8993892  24.8859516  63.7197810
  18.8647189  24.7104049  64.6786178  18.6522540  24.8679887  63.9403983
  34.7551303  26.3707507  68.6447799  35.1806375  25.8481929  68.0918224
  34.3908223  26.9688344  68.1236422  34.7637906  26.3817734  68.4856808
  24.3905383  34.6671724  67.4045144  24.7051942  35.4808113  67.4122926
  24.7998796  34.2821943  68.0727303  24.4973481  34.7300427  67.5049236
  31.3429902  30.0841771  64.9748956  31.8141081  30.7982034  65.1438941
  31.6790081  29.4840521  65.5108826  31.4625018  30.1013235  65.0781332
  33.4306887  31.6943084  77.1541028  33.5403853  30.9051645  77.5097775
  33.7597784  31.6049021  76.3515366  33.4959293  31.5648937  77.0883419
  31.9803849  29.8759705  71.7376649  31.4324795  29.2517589  71.4696714
  32.4416878  30.0653977  71.0220728  31.9671058  29.8118755  71.5927080
  34.7897713  17.9445060  69.1227841  34.2060702  18.4454266  68.7105409
  35.1102007  17.4374616  68.4892164  34.7510888  17.9436895  68.9686348
  27.3292512  16.8585654  59.3986516  28.1508207  17.0283967  59.1568211
  26.8662163  17.0132915  58.6752814  27.3823675  16.9067387  59.2558160
  21.7318403  28.6144833  67.0523753  22.3363260  28.5740667  66.4237573
  21.5245715  29.4615985  67.0827808  21.7907300  28.7332835  66.9639869
  31.5462175  30.8810778  68.2685990  32.3660549  30.7373744  68.5302285
  31.2656253  31.5056977  68.8102428  31.6258918  30.9521130  68.3873929
  16.9669685  27.5979450  66.9222676  16.8693963  26.7875722  67.2312732
  17.7498555  27.5771244  66.5368944  17.0685822  27.4746540  66.9109539
  41.2175510  37.6251281  65.9881797  40.3613406  37.7859779  66.0390914
  41.2643164  36.7543345  66.0086858  41.0974622  37.5202082  65.9987863
  44.5269227  43.8937806  75.5942253  45.2335994  43.3989837  75.7229187
  44.7157162  44.3346888  74.8644911  44.6597132  43.8856157  75.5051298
  44.0627331  39.6843325  68.6313448  44.6083291  40.3628411  68.6907418
  44.0044208  39.5430785  67.7715030  44.1343246  39.7635326  68.5125509
  37.1801406  47.1732391  64.0181801  37.2811769  46.3632745  64.3278929
  36.5843151  47.0789337  63.3881479  37.1073945  47.0397419  63.9708039
  37.0202146  52.0909980  65.4196657  37.6639601  52.5323144  65.8092815
  37.3458401  51.2863406  65.3326916  37.1633974  52.0375175  65.4642134
  30.3766450  43.1952677  63.6434135  30.1416635  42.3620330  63.5366403
  30.5152091  43.4757343  62.8295335  30.3622113  43.1136181  63.5076490
  32.6756538  35.3638408  66.5418442  32.0561570  34.7731055  66.3728457
  32.5740402  35.9549843  65.9082765  32.5694213  35.3642490  66.4223432
  39.7724434  37.1037950  60.8750905  40.4704598  37.2826077  61.3672369
  40.0876766  36.5808289  60.2521295  39.9219771  37.0531722  60.8552915
  32.4025671  38.9090689  68.7862011  32.2784368  39.4953135  69.4211830
  33.0543955  38.4150885  69.0874286  32.4799320  38.9229494  68.9247941
  37.4284012  42.0852406  68.0649522  38.0733014  41.5924850  67.7460471
  37.6685789  42.2277193  68.8915601  37.5594597  42.0329849  68.1399056
  39.9670103  44.9307312  67.7156415  40.2493346  44.1358718  67.4943171
  40.6956264  45.4087900  67.7361476  40.1159667  44.8841909  67.6859430
  37.9451297  32.4730346  64.9572180  37.6154627  32.9241490  64.2875879
  37.2696299  32.3946510  65.5045186  37.7961733  32.5281481  64.9395403
  45.1527705  28.4615869  63.2021791  44.8381146  29.1519348  63.6342213
  44.6354647  28.4060651  62.5007291  45.0292175  28.5550758  63.1618740
  36.3839747  42.3583587  58.1166669  35.7996962  42.8633618  58.5232533
  35.9809842  42.1325974  57.3763261  36.2379050  42.3991835  58.0671694
  31.9383775  48.0738348  64.9190341  31.4551353  48.7988838  64.8949924
  32.7507093  48.3714478  65.0300498  31.9874523  48.2240702  64.9317620
  38.0097929  46.8670529  67.5240155  37.4924871  46.5077944  66.9201463
  38.7072320  46.3432703  67.5346221  38.0363510  46.7368217  67.4370414
  41.6661521  47.3165343  73.4856328  41.7544867  47.1291483  74.3334539
  42.0951234  46.6702772  73.0861175  41.7423624  47.1928350  73.5528080
  39.2331981  46.5996503  72.4673990  38.6702816  46.1869113  72.9913652
  39.9953004  46.5249408  72.8867134  39.2626430  46.5273903  72.6066991
  36.1507251  30.5342635  60.4395128  36.9053219  30.9020952  60.2012178
  35.9734786  30.9082189  61.2074307  36.2361730  30.6440823  60.5180016
  34.7927972  48.5894524  65.0710621  35.4948552  48.0746513  65.1283377
  34.7125455  48.9168675  65.8757496  34.8851733  48.5608750  65.1983413
  49.4442150  36.6837075  68.4842667  48.6070571  36.7539262  68.7190261
  49.4130381  36.6861570  67.6116969  49.3160432  36.6947302  68.3902215
  35.8406879  38.8270111  74.1991036  36.0127383  38.7176005  75.0476317
  36.3776236  39.4724516  73.9622228  35.9451883  38.9062112  74.2896132
  34.5064316  32.9412954  57.1373241  34.3239889  33.1584834  56.3114233
  35.3689929  33.0551966  57.1931855  34.6068905  32.9902852  57.0227728
  34.1178748  44.7800876  64.5796229  34.9567647  45.0123809  64.6269990
  34.1490517  43.9105187  64.5103264  34.2460465  44.6857822  64.5760873
  34.7431451  45.2001751  68.8809534  35.2829676  45.0572882  69.5512906
  34.0601397  45.5998502  69.2493560  34.7223605  45.2381422  69.0343956
  40.1864035  29.9439364  60.1722264  40.9150195  29.7655319  59.7260421
  40.2758928  30.7857444  60.3829443  40.3070697  30.0423243  60.1375782
  44.1672336  40.8792752  64.0754558  44.9229851  41.3124266  64.1143467
  44.2734660  40.2297521  64.6489194  44.2942506  40.8470236  64.1652584
  47.2052507  44.7066029  64.8256961  46.7687739  44.7102771  65.5815933
  46.8715422  45.3871528  64.3936539  47.0915127  44.8078485  64.8737794
  41.7781580  46.7474362  76.1500112  42.5621997  46.8605210  76.5155854
  41.5778175  45.9215499  76.3458798  41.8647606  46.6421081  76.2334498
  30.1468596  41.4202042  69.0343956  29.8807011  40.6041159  69.1934946
  30.1607160  41.4655197  68.1639471  30.1093318  41.3058947  68.9297438
  47.1249990  31.7479857  67.0686389  47.7675898  31.8177961  67.6548305
  47.3773010  31.0809080  66.5665931  47.2572122  31.6606205  67.0813669
  34.8967202  34.9580420  71.6810963  34.2038999  34.4877400  71.9271695
  35.5127530  34.7318725  72.2552670  34.8851732  34.8547552  71.8020116
  41.9351974  48.6584464  69.7966567  41.1367220  48.4183964  70.0540436
  42.3837985  48.7098857  70.5433615  41.8826585  48.6306855  69.9451492
  30.5562010  42.2060821  66.3155700  30.3737583  42.1807707  65.4627992
  31.2911678  42.6759759  66.3544609  30.6376073  42.2722183  66.1953618
  46.6261684  42.4412331  63.4588587  46.8617273  42.5857530  62.6315438
  46.7751247  43.2054739  63.8520101  46.6827487  42.5751386  63.3952191
  33.6207761  38.9245824  72.8237809  34.3447734  38.9098855  73.3102703
  33.7223898  39.6341179  72.3259777  33.7425970  39.0270527  72.8216595
  40.9952711  42.4044909  77.6886756  40.2025691  42.7188421  77.8739375
  41.1101638  42.6196377  76.8507540  40.8948121  42.4828745  77.5925090
  41.9236503  42.3065112  72.6272052  42.4975365  41.6692357  72.7820616
  41.8451307  42.3069195  71.7581710  41.9969738  42.2130224  72.5218463
  30.5232920  39.0854322  66.4654766  31.1006423  38.9490773  67.1047012
  29.8246982  38.6290106  66.7200351  30.5053941  38.9976588  66.5977056
  37.2800222  40.7388378  64.6793250  37.0219466  39.9060112  64.6524549
  37.3348705  40.9645991  63.8385750  37.2500000  40.6486149  64.5513386
  42.3601272  32.8416828  64.7797342  41.6557599  32.3526014  64.9381262
  42.4086247  32.8539303  63.9085787  42.2631324  32.7706476  64.6736682
  36.2534934  38.2926140  65.1658144  35.6784526  38.4518308  65.8022105
  35.8770611  37.6561549  64.7026595  36.1137747  38.2223953  65.1912703
  39.9208223  36.7649489  70.0250523  39.5322656  36.3403707  69.3702714
  39.2562921  37.0131639  70.5327549  39.7655151  36.7388210  70.0038391
  49.5631492  36.5224494  62.7998353  49.3068057  35.7104436  62.6096236
  50.4060806  36.5302061  62.5728540  49.6497517  36.4036491  62.7383170
  25.9991753  37.9366215  63.1802585  26.0852005  37.5598083  63.9616115
  26.6267551  37.5626660  62.7022543  26.1048304  37.8251697  63.2248062
  43.7434584  30.4624118  67.5374507  44.1245096  29.7802289  67.9242381
  42.9397869  30.1733720  67.3550172  43.6811046  30.3191167  67.5678563
  47.2456651  43.6774090  72.6356905  47.0095289  42.8462155  72.5168966
  47.8899880  43.6259697  73.2211750  47.3051322  43.5471778  72.7042799
  36.8955069  44.4669611  63.3499642  37.5329016  44.2281359  63.8951435
  37.3210141  44.6706770  62.6152803  37.0531236  44.4620622  63.3216799
  31.5867712  46.7057948  67.2333946  31.6271857  46.9772799  66.4053725
  32.1462236  47.2299856  67.6491734  31.6751058  46.8233703  67.1725834
  37.5357884  39.6871901  57.6874531  37.9203037  39.4679608  58.4391076
  37.2869505  40.5134847  57.8175608  37.5559957  39.7770047  57.8175608
  37.7026425  32.9678316  77.4037116  37.3879866  33.7377879  77.1406678
  37.3816357  32.4048572  76.8189342  37.6085344  32.9988585  77.2778465
  48.2693072  43.4618539  68.6985200  47.9638889  44.1946596  69.0598516
  47.5499288  43.0556468  68.4177986  48.1180414  43.5100272  68.7098337
  39.2776541  44.9442034  65.0293428  39.3515550  44.7817206  65.8835278
  40.0946048  45.1332224  64.7853910  39.4092900  44.9478776  65.1191454
  53.9694864  40.1011540  68.0253544  53.9019364  40.1207499  67.1556131
  53.9550526  40.9441867  68.2509215  53.9573621  40.2285274  67.9306021
  33.0382298  45.2899897  62.0587872  32.2120416  45.5361634  61.9322150
  33.0994289  45.2111978  62.9249930  32.9256465  45.3144846  62.1676816
  35.2558322  31.3568838  63.0183312  34.3880747  31.4291437  63.0840921
  35.5433526  32.1590917  63.2071287  35.1698070  31.4862985  63.0558078
  44.3791211  31.5046697  71.3494634  45.1244803  31.3156508  70.9358059
  43.9628515  32.0304935  70.7908490  44.4276185  31.5548843  71.2059207
  51.7553481  38.8755926  66.3000139  52.3061403  38.2423995  66.5397231
  51.7397597  39.4071319  66.9915643  51.8338678  38.8604874  66.4378997
  38.4075872  42.7094523  70.8460032  37.9087566  43.4210291  70.9244921
  39.2176097  43.0295190  70.8078194  38.4531979  42.8621372  70.8516601
  35.7587043  49.8844159  62.8267051  35.5387338  49.5941514  63.6193718
  35.5381565  49.2259115  62.2984964  35.6934637  49.7443868  62.8655960
  34.6703990  41.9717476  65.0922753  34.3817238  41.3454947  65.6268480
  35.5387338  41.9137763  65.1587433  34.7564242  41.8705020  65.1813708
  45.4581888  37.1152259  65.4104735  45.1146654  36.3942595  65.7611984
  45.5574930  36.9066111  64.5683093  45.4223930  36.9776463  65.3376415
  37.9254998  51.2573549  61.6097744  38.5779056  50.7249992  61.8388770
  37.2280607  50.9042202  61.9965618  37.9185716  51.1263072  61.7009911
  34.8736263  43.6112727  61.0165118  35.6282231  43.9925766  61.2300581
  34.2806876  44.0623871  61.4711815  34.8972977  43.7341554  61.1147996
  37.3342930  35.5675567  76.1422330  36.5242706  35.8733347  76.0312173
  37.8117617  36.2881150  76.2574914  37.2846409  35.7190169  76.1429401
  36.1934490  44.7821288  66.3905233  35.6715243  44.9221580  67.0757098
  36.5808510  44.0231953  66.5807351  36.1738191  44.6906812  66.5206310
  33.1825674  34.8327097  60.4600188  32.8950470  34.4628368  59.7232135
  33.8696142  35.3021952  60.1983893  33.2414571  34.8474067  60.3115264
  37.6200815  41.8125307  61.7886724  37.4243598  42.4200042  61.1947027
  37.8435161  41.1193251  61.3078398  37.6235456  41.8002833  61.6302805
  36.0179345  38.6980045  61.9067593  36.7401997  38.8621203  61.4471399
  35.5387338  39.4189710  61.8006933  36.0543076  38.8278275  61.8233207
  43.9772853  35.0343844  67.2864278  43.1383954  35.0605123  67.0502541
  44.0477220  35.6814580  67.8669624  43.8641247  35.1339970  67.3373395
  33.6686962  41.1038118  71.0121733  34.1808059  41.3822371  70.3630492
  33.3823305  41.8427412  71.3784546  33.7021825  41.2540471  70.9711611
  42.4242131  31.9329221  62.0191894  43.1268484  31.7336969  61.5411852
  42.1586320  31.1605164  62.3260737  42.4888764  31.7892187  61.9937335
  47.8530377  40.2411831  64.5725520  47.7664351  40.3967257  65.4260298
  47.3980857  40.8849906  64.1984925  47.7733634  40.3587586  64.6432626
  30.7553868  35.6108310  61.3085469  30.8570005  36.4134471  61.6366445
  31.5509755  35.4095646  61.0108550  30.8881774  35.6994208  61.3120825
  37.1870688  33.1964506  71.0722774  36.9953885  33.2119641  71.9222198
  38.0369284  33.3928181  71.0489429  37.2846409  33.2278858  71.1946069
  31.5717601  35.7255488  69.0506591  31.4303092  34.8739428  69.1751099
  31.8558164  35.7684148  68.2268797  31.5925447  35.6055238  68.9474215
  41.7256193  37.5622578  63.1951079  41.4790907  37.4818329  64.0287868
  42.0541316  36.7776046  63.0013607  41.7377436  37.4348843  63.2898602
  45.6204242  44.2705937  66.9837860  45.4818601  44.9686983  67.4886603
  44.8404240  44.1154594  66.6274042  45.4847469  44.3506104  67.0064134
  43.9582327  40.5702313  73.2360242  43.9530365  39.6982129  73.2402668
  44.6643321  40.7690482  72.7629698  44.0627331  40.4706187  73.1667277
  37.6853220  40.2979297  72.6074062  37.8296596  40.8780505  71.9717172
  38.0328869  40.6755593  73.3123917  37.7580682  40.4400001  72.6173057
  39.8573138  39.4969465  70.3899194  39.1096452  39.6900479  69.9847472
  40.0114663  38.6714685  70.1523315  39.7695565  39.4034576  70.2944600
  36.7580975  48.4882068  69.4735089  36.9070539  47.9284984  68.8208493
  37.5380977  48.5674070  69.8567608  36.8955069  48.4167634  69.4332038
  39.2834276  48.6596711  70.7519580  39.2077947  47.9905522  71.3070368
  39.2124135  49.3614499  71.2660246  39.2614883  48.6641619  70.9096428
  40.0974915  33.3920016  71.2794597  40.5547529  34.1243990  71.4067390
  40.1731243  32.9686481  72.0381853  40.1765884  33.4377254  71.4095674
  32.3407906  33.6385835  72.3684041  31.8050095  33.0266194  72.6844808
  32.4025671  34.2133971  73.0217708  32.2703538  33.6332763  72.5119468
  44.5702241  26.5709891  65.1488440  44.6885809  27.0286354  64.4155743
  44.3964416  25.7655152  64.8624658  44.5621412  26.5203663  64.9989374
  37.9757292  35.3822120  68.1236421  37.1853367  35.2013580  68.4453757
  38.3717915  34.6049072  68.1066716  37.9174169  35.2409581  68.1688970
  43.3600979  43.0164550  65.8495867  42.6845981  42.7849782  66.3509254
  43.3693355  42.4085733  65.2237972  43.2619483  42.8923475  65.8312020
  40.4895123  37.8582379  72.6059920  40.4254264  38.7192335  72.4780057
  40.6292311  37.5414372  71.8055472  40.5010593  37.9382545  72.4688133
  39.1714217  40.5514518  66.7476123  38.7476466  40.7519017  66.0115142
  38.9959072  39.7043366  66.8600423  39.0825097  40.4563300  66.6549813
  38.6725910  52.0665031  69.2097581  39.1621840  51.3675820  69.0273245
  38.1010142  51.7688901  69.7973638  38.6610440  51.9191255  69.2698621
  34.4596662  41.0466570  62.1804096  34.6161281  40.9813372  63.0360088
  34.7997255  41.8215122  61.9682775  34.5329896  41.1515768  62.2758690
  44.8692914  44.6327100  78.1624371  45.6827779  44.3612249  78.3229504
  44.7087880  44.3334640  77.3584567  44.9662862  44.5482026  78.0669777
  42.1465076  35.3160758  71.1019759  42.3607045  34.6771672  70.5483113
  41.5298975  35.7606581  70.6727621  42.0870405  35.2870901  70.9570191
  43.5569744  48.2379506  62.5473980  43.1649535  47.9346221  61.8296847
  43.7122816  49.0748596  62.3578934  43.5223333  48.3163343  62.4130477
  31.0330923  38.2301520  62.4964863  31.4129888  38.6486065  61.8325130
  30.4586288  38.8114976  62.8033706  31.0042248  38.3779379  62.4441604
  44.3104164  36.9249823  72.0403067  43.4980845  36.6175713  72.1216239
  44.7694098  36.4448823  72.6045779  44.2584548  36.8086315  72.1357661
  43.7209418  44.8029495  62.4880011  43.3624073  44.9744138  63.2644043
  43.2348129  45.2642700  61.9308009  43.5968115  44.8968466  62.5205280
  41.5379804  28.4260693  66.0907102  40.6673362  28.3999414  66.0440412
  41.7920146  28.2537885  65.2732948  41.4473364  28.3970837  65.9627239
  41.4057671  38.3309894  76.8231769  41.8757302  38.9552011  77.2099643
  41.4519551  37.6626870  77.3824984  41.4825547  38.3244575  76.9631840
  38.5628945  30.4366922  67.5480573  38.0467433  29.7447113  67.6732152
  38.0022874  31.1037699  67.4943171  38.4035458  30.4330179  67.5586639
  40.6321178  30.9759882  69.3773425  40.2452931  31.0008913  70.1586955
  40.1454116  30.4101560  68.9247942  40.5033687  30.8955633  69.4261329
  44.8814158  45.6933391  73.4347212  45.5193878  45.1993586  73.1009668
  44.2388249  45.6210791  72.8499439  44.8808384  45.6092399  73.2989567
  46.6071158  37.5422537  68.0013127  46.1798766  37.4548885  67.2461227
  45.9697211  37.6500312  68.5867971  46.4500765  37.5455197  67.9758569
  40.2978320  27.8626867  71.6683685  40.9271438  28.3987167  71.3904755
  40.4664183  27.7704226  72.5197251  40.4156115  27.9288229  71.7532213
  40.0992235  32.6498062  73.9410097  40.9265664  32.3783211  73.9968711
  40.1200081  33.4458904  74.2973915  40.2245085  32.7277816  74.0025280
  44.9368414  46.3853199  70.0752569  45.7260792  46.0342264  70.1954650
  45.1112012  47.1989587  69.8129202  45.0788696  46.4539056  70.0540437
  34.6761725  39.7961925  67.1280357  33.8349731  39.6965799  67.3359251
  34.8851733  40.5657405  67.4794678  34.5826417  39.8953968  67.2107672
  32.1537292  37.4181462  64.9565108  31.7593989  37.4924474  64.1815218
  31.5977409  37.8039408  65.5073470  32.0140104  37.4863236  64.9232768
  43.7902238  30.3962756  64.6368987  43.9951832  30.3285064  65.4825984
  43.4628662  31.2021577  64.5690164  43.7717486  30.5048696  64.7528642
  38.4878390  37.7243324  66.3777955  38.1841527  37.1699312  66.9788363
  37.7857810  37.9035534  65.8905989  38.3394599  37.6688106  66.3947661
  37.5444487  35.0343844  60.9422657  37.8204221  34.3162756  60.5300224
  38.1443156  35.6328764  60.7343763  37.6737751  35.0164214  60.8503418
  36.5496741  44.9393045  71.0850053  36.4417095  44.9495107  71.9512111
  36.7592522  45.7647825  70.8955006  36.5646852  45.0634119  71.1854144
  47.0435926  30.9494520  64.1171752  46.4310240  31.4364922  64.5025484
  47.1400101  30.2738011  64.6609404  46.9673824  30.9212829  64.2550611
  41.0455007  32.7057361  59.2169252  41.4998754  32.8767921  59.9417096
  41.5195053  32.0925472  58.8167027  41.1823327  32.6408246  59.2643013
  34.5670533  42.1905687  68.5471990  33.9758466  42.8315185  68.5175005
  35.3291556  42.6143304  68.5203290  34.5918793  42.3481525  68.5387137
  34.9631155  33.3507685  69.2140008  35.4232637  33.4246614  69.9515132
  35.0087262  34.1488939  68.8639829  35.0381711  33.4801832  69.2712764
  36.6114505  34.0174380  73.7812035  36.2200070  33.3707727  74.2167813
  36.7800368  34.6085815  74.4006290  36.5785415  34.0088648  73.9374741
  50.6860954  42.0211457  69.5449269  50.7444078  42.4698105  70.2909245
  50.0527422  42.4310270  69.1079349  50.6012249  42.1485191  69.5901817
  44.3260049  47.6414999  65.9804015  44.1279737  48.1305813  65.2860226
  43.7047760  47.8456240  66.5588148  44.2047613  47.7431537  65.9627238
  38.3868027  39.4099895  60.3214259  39.1310072  39.7974172  60.5597209
  38.5328723  38.5657321  60.4854747  38.5178612  39.3430368  60.3808229
  40.3047603  31.2050154  65.3546120  39.4583648  31.3772962  65.2287470
  40.3018735  30.3999498  65.6911949  40.1794753  31.1111183  65.3857247
  41.3745903  34.9825369  66.2208178  40.9005857  34.4567131  66.7313489
  41.7464039  34.4354842  65.6523040  41.3595792  34.8241365  66.2123326
  31.7518933  36.9796875  71.5891724  32.6144546  36.8792585  71.5029054
  31.4210716  36.3991585  71.0277296  31.8304130  36.8788502  71.4937130
  47.6382634  40.0427744  67.6314959  47.3980856  39.2034160  67.6357385
  48.1174641  40.1227911  68.3555732  47.6734817  39.9309144  67.7389761
  49.6387821  36.8229202  65.5844218  49.3997591  36.7825036  64.7465003
  49.8021722  37.6700354  65.7109939  49.6278124  36.9421287  65.4797700
  46.2433851  41.2079151  71.5149263  46.9668050  40.7551677  71.3360283
  45.9783813  41.4883817  70.7321591  46.3115124  41.1830119  71.3727978
  35.1120719  35.8039324  68.2502142  34.4873789  35.8157716  67.6428095
  34.7766314  36.2799500  68.8993382  34.9706211  35.8757841  68.2558711
  31.8246395  43.8639785  69.6905907  31.2946319  43.1732223  69.7400881
  32.0971488  43.8549970  68.8618615  31.7871117  43.7606916  69.5753323
  42.0252640  41.3063029  69.6644278  41.4109633  40.7621079  69.9592913
  42.5419925  40.7927266  69.1850094  42.0108303  41.1499438  69.6368507
  41.2648937  42.3767299  67.3988577  40.8376545  41.7517018  66.9654012
  41.2573882  42.0942221  68.2247584  41.2008079  42.2420080  67.4568404
  34.3811465  37.4132472  70.4677011  34.5404951  36.6575796  70.8728733
  34.2004358  37.9623412  71.1217748  34.3776823  37.3826286  70.6239717
  42.3231767  29.5793708  71.0227800  41.8272329  29.7757382  70.3319367
  43.0800830  29.9786376  70.8516602  42.3618592  29.6671442  70.8947937
  39.5934647  33.2536054  67.6131111  39.6177134  32.7196166  66.9243891
  39.8446121  32.7453363  68.2756701  39.6344566  33.0996958  67.6095755
  27.1042237  40.5367549  67.0474255  26.9985686  40.4914393  66.1826339
  26.3542457  40.8821329  67.3288540  26.9777840  40.5808457  66.9611585
  35.8735969  31.9806872  66.9936855  35.9134341  32.4816079  67.7071563
  35.0485634  32.0717266  66.7242778  35.7575495  32.0688688  67.0587393
  38.0565582  41.5467612  75.0957150  37.2061213  41.6839326  75.2314795
  38.2193710  40.8131390  75.5404851  37.9549446  41.4581713  75.1812749
  37.2950333  38.4967382  69.2910754  36.4642262  38.6641200  69.0846002
  37.2401850  38.1203333  70.0759639  37.1639748  38.4657113  69.3759282
  35.1034116  31.9876275  74.9267165  35.7286819  31.4438408  75.1996597
  34.6484596  31.5071192  74.3574955  35.1282377  31.8365756  74.8828759
  35.6686377  36.7722973  59.8200872  35.8089338  37.2695438  60.5229513
  36.1668909  36.0709268  59.9615085  35.7627457  36.7424952  59.9452451
  35.6986599  37.6390084  57.1493449  36.3331678  38.2350509  57.0842910
  35.7812210  37.3393542  57.9639319  35.8043150  37.6830993  57.2596535
  48.6769165  40.1705562  70.0179813  49.2687005  40.8102812  70.0498011
  49.1128159  39.4728598  70.3071880  48.8287596  40.1623912  70.0660645
  37.2765582  33.5704060  57.1238891  37.5981423  33.0907142  56.4698153
  37.5392526  34.3803706  56.9329702  37.3631607  33.6193958  56.9994383
  40.5062555  44.5922934  70.6437707  39.9987646  45.1458781  71.0878337
  40.2089201  44.6531224  69.8256481  40.3867440  44.6829245  70.5886163
  42.6724737  32.9576254  69.4862370  43.0979808  32.5048780  68.8745896
  42.0581730  32.4036324  69.7627157  42.6453382  32.8090230  69.4367395
  32.2039587  39.8357925  60.4182995  32.7131816  40.4322433  60.7994300
  32.6773859  39.5683899  59.7359414  32.3482962  39.8843741  60.3737517
  41.1118960  29.4291354  62.8952947  40.4687278  29.2789000  63.4638085
  40.7718367  29.1833699  62.1302051  40.9664037  29.3703476  62.8655962
  39.7505040  49.5247492  67.5494714  39.5270694  48.7666322  67.9178740
  39.2614883  49.5545514  66.8275153  39.6448489  49.4169717  67.4971455
  45.8646434  33.8406664  65.2273329  46.2174044  33.4136387  65.9019127
  45.0061235  33.7557508  65.3574405  45.7895878  33.7651405  65.3468339
  34.5630119  36.4714184  63.2856175  33.8442108  36.8878316  63.5529039
  34.9342481  37.0368422  62.7347813  34.5122050  36.6163465  63.2438982
  43.8629699  37.1042033  69.1758171  43.8427627  36.9225328  70.0292950
  43.9108900  37.9754051  69.1517754  43.8664340  37.2058571  69.2981466
  41.8076029  43.6929225  75.1006647  41.7671884  43.0478902  74.5151803
  42.6199347  43.6365842  75.4132059  41.9219183  43.5888191  75.0603597
  38.3983497  49.7447950  65.0031798  37.9843895  49.0822081  64.6135640
  39.0830871  49.8925809  64.4827492  38.4381868  49.6688609  64.8688295
  41.7648791  48.9038036  65.7555415  41.3665074  49.0140306  64.9876235
  41.1500010  49.1120102  66.3381975  41.6147680  48.9511604  65.7286714
  40.3376693  35.5112184  58.6229555  39.7441532  35.8329180  58.0714122
  40.3751971  34.6653279  58.4150661  40.2551082  35.4336512  58.5112326
  47.2970494  28.9625076  66.1557641  46.7901358  28.2554215  66.0878819
  48.0937927  28.6318265  66.2858718  47.3397733  28.8098227  66.1656636
  37.4953738  37.3226161  71.6556405  36.9832641  36.7147344  72.0141436
  37.3233234  38.0382754  72.1230381  37.3943375  37.3389460  71.7772629
  32.3419453  35.7663736  74.3058767  32.1722043  36.4265111  73.7606973
  31.8985403  35.9770298  75.0271256  32.2518786  35.8949719  74.3320396
  36.2679272  34.0068234  63.3485500  36.7436638  34.3685314  62.7135682
  35.7667872  34.6624702  63.6285643  36.2644631  34.1562423  63.2962241
  41.3722808  35.2450406  74.0958661  41.9294238  35.0164215  73.4637126
  41.0483873  36.0056071  73.8193873  41.4069218  35.3234242  73.9615158
  29.2421517  38.6710602  69.5647257  28.6948237  38.0011248  69.6828125
  30.0313895  38.3040450  69.6290724  29.2773701  38.5175588  69.5915957
  39.0905926  38.3318059  75.0610668  39.8417253  38.6469736  75.3750222
  39.2828502  38.1297230  74.2344589  39.2297340  38.3485441  74.9854063
  45.9391216  34.4591625  62.3034463  45.9385442  34.3040282  63.1618739
  45.7347396  35.3054612  62.2475849  45.9090994  34.5612246  62.4222402
  28.0008487  37.8831410  66.7193280  27.8230248  37.4308019  67.4448195
  27.7127509  38.6857571  66.9031757  27.9321440  37.9353968  66.8536783
  43.6632068  39.1389127  65.9570670  44.1585733  38.4212122  65.9174690
  42.8531843  38.8359925  65.8425157  43.6175961  38.9886773  65.9344396
  29.7380956  40.4159134  63.8315039  28.8726476  40.4044824  63.7197810
  29.8379772  40.2289356  64.6786178  29.6255123  40.3865195  63.9403983
  45.7283887  41.8892815  68.6447799  46.1538958  41.3667237  68.0918224
  45.3640806  42.4873652  68.1236422  45.7370489  41.9003042  68.4856808
  35.3637966  50.1857032  67.4045144  35.6784525  50.9993421  67.4122926
  35.7731380  49.8007251  68.0727303  35.4706064  50.2485735  67.5049236
  42.3162486  45.6027079  64.9748956  42.7873664  46.3167342  65.1438941
  42.6522665  45.0025829  65.5108826  42.4357601  45.6198543  65.0781332
  44.4039471  47.2128392  77.1541028  44.5136436  46.4236953  77.5097775
  44.7330367  47.1234329  76.3515366  44.4691876  47.0834245  77.0883419
  39.2331981  30.3754550  71.9307051  39.3659887  29.5785543  72.2588027
  39.6177134  30.9020953  72.5105327  39.3088310  30.3354466  72.0650554
  42.9536432  45.3945013  71.7376649  42.4057378  44.7702897  71.4696714
  43.4149461  45.5839285  71.0220728  42.9403642  45.3304063  71.5927080
  42.3064336  27.2984876  68.5288144  41.5010300  27.1882605  68.8455983
  42.1771072  27.3997331  67.6718010  42.1684469  27.2968546  68.4496185
  45.7630297  33.4630368  69.1227841  45.1793286  33.9639574  68.7105409
  46.0834591  32.9559924  68.4892164  45.7243472  33.4622203  68.9686348
  38.3025096  32.3770962  59.3986516  39.1240790  32.5469275  59.1568211
  37.8394747  32.5318223  58.6752814  38.3556258  32.4252695  59.2558160
  36.8920428  30.3713725  70.1784945  37.4364841  30.0304851  70.7689286
  36.9457363  31.2299186  70.3206229  36.9809547  30.4468984  70.2866818
  32.7050987  44.1330141  67.0523753  33.3095844  44.0925975  66.4237573
  32.4978299  44.9801293  67.0827808  32.7639884  44.2518143  66.9639869
  42.5194759  46.3996086  68.2685990  43.3393132  46.2559052  68.5302285
  42.2388836  47.0242285  68.8102428  42.5991502  46.4706438  68.3873929
  27.9402269  43.1164758  66.9222676  27.8426547  42.3061030  67.2312732
  28.7231139  43.0956552  66.5368944  28.0418405  42.9931848  66.9109539
  58.9908409  54.0560937  61.2328866  58.9602413  54.9105574  61.4047136
  59.5889758  53.7556230  61.7915010  59.0745567  54.1377434  61.3403669
  52.1908094  53.1436588  65.9881797  51.3345989  53.3045087  66.0390914
  52.2375748  52.2728652  66.0086858  52.0707205  53.0387390  65.9987863
  46.5749234  62.6799306  61.7519028  45.8232133  62.3014845  61.5235073
  47.0235245  62.7117740  61.0037839  46.5298900  62.6284914  61.6076531
  52.0274193  63.1024676  57.1804575  51.6925562  63.7801597  56.7448798
  52.5401064  62.7129987  56.5921447  52.0539775  63.1449254  57.0291367
  51.5678485  65.0538945  63.1215687  51.9517864  65.6225843  62.5820462
  51.5037626  64.3288455  62.6421503  51.6151912  65.0314408  62.9709550
  55.0359915  55.2028632  68.6313448  55.5815875  55.8813719  68.6907418
  54.9776791  55.0616093  67.7715030  55.1075829  55.2820634  68.5125509
  48.1533990  62.6917699  64.0181801  48.2544353  61.8818052  64.3278929
  47.5575735  62.5974645  63.3881479  48.0806528  62.5582727  63.9708039
  56.8124984  56.6313240  59.5047176  56.6964509  57.3820926  59.9339314
  57.6080870  56.3737193  59.7543263  56.9129573  56.7048086  59.6051268
  47.9934729  67.6095288  65.4196657  48.6372185  68.0508452  65.8092815
  48.3190985  66.8048714  65.3326916  48.1366558  67.5560482  65.4642134
  41.3499034  58.7137985  63.6434135  41.1149218  57.8805637  63.5366403
  41.4884675  58.9942651  62.8295335  41.3354697  58.6321488  63.5076490
  43.6489122  50.8823716  66.5418442  43.0294153  50.2916363  66.3728457
  43.5472985  51.4735151  65.9082765  43.5426797  50.8827798  66.4223432
  48.6955309  60.6207263  60.7916519  49.0171150  61.1612470  60.1877827
  49.3427406  60.0504034  60.9238808  48.8381364  60.6166438  60.7223554
  50.7457017  52.6223257  60.8750905  51.4437182  52.8011385  61.3672369
  51.0609350  52.0993597  60.2521295  50.8952354  52.5717030  60.8552915
  43.3758255  54.4275997  68.7862011  43.2516951  55.0138443  69.4211830
  44.0276539  53.9336193  69.0874286  43.4531904  54.4414802  68.9247941
  50.9344953  59.0093703  60.8630697  51.3738588  58.4010803  61.3085470
  50.7849615  58.6301076  60.0916162  50.9766418  58.8632174  60.8149864
  48.4016596  57.6037714  68.0649522  49.0465598  57.1110157  67.7460471
  48.6418373  57.7462501  68.8915601  48.5327181  57.5515157  68.1399056
  50.9402687  60.4492620  67.7156415  51.2225930  59.6544026  67.4943171
  51.6688847  60.9273208  67.7361476  51.0892251  60.4027217  67.6859430
  54.5354289  57.3620884  57.8161466  54.4505584  58.2181850  57.9611035
  55.0238672  57.0865208  58.4843625  54.5943186  57.4478205  57.9363548
  56.1260289  43.9801177  63.2021791  55.8113729  44.6704656  63.6342213
  55.6087230  43.9245959  62.5007291  56.0024759  44.0736066  63.1618740
  55.4672722  53.9805678  59.3159201  54.9384194  54.1965312  59.9756507
  55.9897742  54.6741816  59.2360171  55.4661175  54.1148815  59.4014800
  60.9220775  59.5551982  64.6892246  60.0918478  59.7662626  64.8525662
  60.8730028  58.7289037  64.4134529  60.7927511  59.4641589  64.6729611
  47.3572330  57.8768895  58.1166669  46.7729545  58.3818926  58.5232533
  46.9542425  57.6511282  57.3763261  47.2111634  57.9177143  58.0671694
  42.9116359  63.5923656  64.9190341  42.4283937  64.3174146  64.8949924
  43.7239677  63.8899786  65.0300498  42.9607106  63.7426010  64.9317620
  48.9830513  62.3855837  67.5240155  48.4657454  62.0263252  66.9201463
  49.6804904  61.8618011  67.5346221  49.0096094  62.2553525  67.4370414
  51.8149545  54.1234547  56.5935590  52.0545548  54.3312531  55.7810933
  52.1365386  53.3192056  56.7024534  51.8986702  54.0348648  56.4896143
  45.7660556  64.1079832  65.0710621  46.4681135  63.5931821  65.1283377
  45.6858039  64.4353983  65.8757496  45.8584316  64.0794058  65.1983413
  60.4174734  52.2022383  68.4842667  59.5803155  52.2724570  68.7190261
  60.3862964  52.2046878  67.6116969  60.2893016  52.2132610  68.3902215
  46.8139463  54.3455419  74.1991036  46.9859966  54.2361313  75.0476317
  47.3508820  54.9909824  73.9622228  46.9184467  54.4247420  74.2896132
  45.0911331  60.2986184  64.5796229  45.9300231  60.5309117  64.6269990
  45.1223101  59.4290495  64.5103264  45.2193049  60.2043130  64.5760873
  45.7164034  60.7187059  68.8809534  46.2562259  60.5758190  69.5512906
  45.0333981  61.1183810  69.2493560  45.6956188  60.7566730  69.0343956
  55.1404919  56.3978060  64.0754558  55.8962434  56.8309574  64.1143467
  55.2467244  55.7482829  64.6489194  55.2675090  56.3655543  64.1652584
  58.1785090  60.2251337  64.8256961  57.7420322  60.2288079  65.5815933
  57.8448006  60.9056836  64.3936539  58.0647710  60.3263793  64.8737794
  41.1201179  56.9387350  69.0343956  40.8539595  56.1226466  69.1934946
  41.1339744  56.9840505  68.1639471  41.0825902  56.8244255  68.9297438
  58.0982573  47.2665165  67.0686389  58.7408482  47.3363269  67.6548305
  58.3505594  46.5994388  66.5665931  58.2304705  47.1791513  67.0813669
  45.8699786  50.4765728  71.6810963  45.1771583  50.0062708  71.9271695
  46.4860113  50.2504033  72.2552670  45.8584316  50.3732860  71.8020116
  61.3129437  56.9432257  63.7176599  61.9745871  56.3822925  63.6172507
  60.6720849  56.4484287  64.0429290  61.3158304  56.7868666  63.7508939
  52.2006244  60.2402388  56.0257522  52.6157393  59.9087412  55.3342018
  51.3698174  60.0071290  55.8977659  52.1394253  60.1573644  55.9048369
  41.5294593  57.7246129  66.3155700  41.3470166  57.6993015  65.4627992
  42.2644262  58.1945067  66.3544609  41.6108657  57.7907491  66.1953618
  57.5994267  57.9597639  63.4588587  57.8349857  58.1042838  62.6315438
  57.7483831  58.7240047  63.8520101  57.6560071  58.0936694  63.3952191
  44.5940345  54.4431132  72.8237809  45.3180317  54.4284163  73.3102703
  44.6956481  55.1526487  72.3259777  44.7158554  54.5455835  72.8216595
  59.4284724  56.7999305  61.2958191  59.7592941  57.3326945  60.6898286
  60.0017812  56.8538193  61.9520142  59.5618403  56.8868874  61.3035973
  54.6416613  54.6464208  61.9781771  54.7363468  55.3853502  62.4321397
  54.0175457  54.2181683  62.4116336  54.5625643  54.6925528  62.1089919
  41.4965503  54.6039630  66.4654766  42.0739006  54.4676081  67.1047012
  40.7979565  54.1475414  66.7200351  41.4786525  54.5161896  66.5977056
  54.8939635  56.4912948  55.2118723  54.8119797  56.5615135  56.0773710
  55.5319355  57.0542692  55.0202464  54.9759472  56.5851919  55.3108673
  48.2532806  56.2573686  64.6793250  47.9952050  55.4245420  64.6524549
  48.3081288  56.4831299  63.8385750  48.2232584  56.1671457  64.5513386
  47.2267518  53.8111448  65.1658144  46.6517109  53.9703616  65.8022105
  46.8503194  53.1746857  64.7026595  47.0870330  53.7409261  65.1912703
  50.8940806  52.2834797  70.0250523  50.5055239  51.8589015  69.3702714
  50.2295505  52.5316947  70.5327549  50.7387734  52.2573518  70.0038391
  60.5364076  52.0409802  62.7998353  60.2800640  51.2289743  62.6096236
  61.3793390  52.0487369  62.5728540  60.6230101  51.9221799  62.7383170
  36.9724337  53.4551523  63.1802585  37.0584589  53.0783391  63.9616115
  37.6000134  53.0811968  62.7022543  37.0780888  53.3437005  63.2248062
  54.7167168  45.9809426  67.5374507  55.0977680  45.2987597  67.9242381
  53.9130452  45.6919028  67.3550172  54.6543630  45.8376475  67.5678563
  51.9979745  56.5133402  58.2227330  52.8120384  56.8048295  58.1110101
  51.9338886  55.8593264  57.6485623  52.1082484  56.4598597  58.1216167
  47.8687653  59.9854919  63.3499642  48.5061600  59.7466667  63.8951435
  48.2942725  60.1892078  62.6152803  48.0263819  59.9805930  63.3216799
  42.5600295  62.2243256  67.2333946  42.6004441  62.4958107  66.4053725
  43.1194819  62.7485164  67.6491734  42.6483641  62.3419011  67.1725834
  48.5090468  55.2057209  57.6874531  48.8935621  54.9864916  58.4391076
  48.2602088  56.0320154  57.8175608  48.5292541  55.2955355  57.8175608
  48.6759008  48.4863624  77.4037116  48.3612449  49.2563187  77.1406678
  48.3548941  47.9233880  76.8189342  48.5817927  48.5173893  77.2778465
  50.2509125  60.4627342  65.0293428  50.3248133  60.3002514  65.8835278
  51.0678631  60.6517532  64.7853910  50.3825484  60.4664084  65.1191454
  44.0114882  60.8085205  62.0587872  43.1852999  61.0546942  61.9322150
  44.0726873  60.7297286  62.9249930  43.8989049  60.8330154  62.1676816
  46.2290905  46.8754146  63.0183312  45.3613331  46.9476745  63.0840921
  46.5166110  47.6776225  63.2071287  46.1430653  47.0048293  63.0558078
  55.3523794  47.0232005  71.3494634  56.0977386  46.8341816  70.9358059
  54.9361099  47.5490243  70.7908490  55.4008768  47.0734151  71.2059207
  48.7913711  63.4262085  59.7606902  49.0812009  63.0351066  59.0366128
  49.5217191  63.6078790  60.2012177  48.9420595  63.3955899  59.7189709
  62.7286065  54.3941234  66.3000139  63.2793987  53.7609303  66.5397231
  62.7130180  54.9256626  66.9915643  62.8071261  54.3790182  66.4378997
  49.3808456  58.2279831  70.8460032  48.8820149  58.9395599  70.9244921
  50.1908680  58.5480498  70.8078194  49.4264563  58.3806680  70.8516601
  46.7319626  65.4029467  62.8267051  46.5119922  65.1126822  63.6193718
  46.5114148  64.7444422  62.2984964  46.6667220  65.2629176  62.8655960
  45.6436573  57.4902784  65.0922753  45.3549822  56.8640255  65.6268480
  46.5119921  57.4323071  65.1587433  45.7296825  57.3890328  65.1813708
  56.4314471  52.6337567  65.4104735  56.0879237  51.9127903  65.7611984
  56.5307514  52.4251418  64.5683093  56.3956514  52.4961771  65.3376415
  48.8987582  66.7758857  61.6097744  49.5511640  66.2435300  61.8388770
  48.2013191  66.4227510  61.9965618  48.8918300  66.6448380  61.7009911
  45.8468847  59.1298035  61.0165118  46.6014815  59.5111074  61.2300581
  45.2539459  59.5809179  61.4711815  45.8705560  59.2526862  61.1147996
  56.8927500  59.0963271  60.9528723  57.4585533  59.7556481  60.8687266
  56.2455404  59.4412969  61.4245125  56.8806257  59.2445213  61.0101479
  48.3075514  51.0860875  76.1422330  47.4975290  51.3918655  76.0312173
  48.7850201  51.8066458  76.2574914  48.2578993  51.2375476  76.1429401
  47.1667073  60.3006596  66.3905233  46.6447827  60.4406888  67.0757098
  47.5541094  59.5417261  66.5807351  47.1470774  60.2092120  66.5206310
  44.1558257  50.3512405  60.4600188  43.8683053  49.9813675  59.7232135
  44.8428726  50.8207260  60.1983893  44.2147155  50.3659374  60.3115264
  53.3634078  62.0402056  60.3765802  53.1220754  61.3069916  59.9692867
  53.5435411  62.5888913  59.7232135  53.3541702  62.0124447  60.2196025
  48.5933399  57.3310615  61.7886724  48.3976182  57.9385350  61.1947027
  48.8167745  56.6378559  61.3078398  48.5968040  57.3188141  61.6302805
  46.9911929  54.2165353  61.9067593  47.7134581  54.3806511  61.4471399
  46.5119922  54.9375018  61.8006933  47.0275660  54.3463583  61.8233207
  54.9505437  50.5529152  67.2864278  54.1116537  50.5790431  67.0502541
  55.0209804  51.1999888  67.8669624  54.8373830  50.6525278  67.3373395
  44.6419546  56.6223426  71.0121733  45.1540643  56.9007679  70.3630492
  44.3555888  57.3612720  71.3784546  44.6754409  56.7725779  70.9711611
  58.8262960  55.7597139  64.5725520  58.7396935  55.9152565  65.4260298
  58.3713440  56.4035214  64.1984925  58.7466217  55.8772894  64.6432626
  41.7286452  51.1293618  61.3085469  41.8302588  51.9319779  61.6366445
  42.5242339  50.9280953  61.0108550  41.8614358  51.2179516  61.3120825
  48.1603271  48.7149814  71.0722774  47.9686468  48.7304949  71.9222198
  49.0101867  48.9113489  71.0489429  48.2578993  48.7464165  71.1946069
  42.5450184  51.2440796  69.0506591  42.4035676  50.3924736  69.1751099
  42.8290748  51.2869456  68.2268797  42.5658030  51.1240546  68.9474215
  52.6988777  53.0807886  63.1951079  52.4523491  53.0003637  64.0287868
  53.0273900  52.2961354  63.0013607  52.7110020  52.9534151  63.2898602
  56.5936825  59.7891245  66.9837860  56.4551185  60.4872291  67.4886603
  55.8136823  59.6339902  66.6274042  56.4580052  59.8691412  67.0064134
  48.6585804  55.8164605  72.6074062  48.8029180  56.3965813  71.9717172
  49.0061452  56.1940901  73.3123917  48.7313265  55.9585309  72.6173057
  50.8305721  55.0154773  70.3899194  50.0829035  55.2085787  69.9847472
  50.9847246  54.1899992  70.1523315  50.7428149  54.9219884  70.2944600
  47.7313559  64.0067376  69.4735089  47.8803123  63.4470292  68.8208493
  48.5113561  64.0859378  69.8567608  47.8687652  63.9352942  69.4332038
  58.0890198  59.1469499  57.7454359  57.7097007  58.3606637  57.7383649
  57.4256444  59.6956356  57.6026004  57.9348673  59.1114323  57.7235156
  51.0707498  48.9105324  71.2794597  51.5280112  49.6429298  71.4067390
  51.1463827  48.4871789  72.0381853  51.1498468  48.9562562  71.4095674
  43.3140489  49.1571143  72.3684041  42.7782679  48.5451502  72.6844808
  43.3758254  49.7319279  73.0217708  43.2436122  49.1518071  72.5119468
  55.5434824  42.0895199  65.1488440  55.6618392  42.5471662  64.4155743
  55.3697000  41.2840460  64.8624658  55.5353995  42.0388971  64.9989374
  50.9137106  62.6983018  61.5843186  51.6786997  62.4292662  61.2625850
  50.8115196  62.2133028  62.3013249  51.0118602  62.5872583  61.6423013
  48.9489876  50.9007428  68.1236421  48.1585951  50.7198888  68.4453757
  49.3450499  50.1234380  68.1066716  48.8906752  50.7594888  68.1688970
  53.4355767  59.7295202  53.5643135  54.2028752  59.7895327  53.1548987
  52.9887076  59.1575643  53.0799454  53.4829194  59.6531778  53.4320845
  54.3333562  58.5349858  65.8495867  53.6578564  58.3035090  66.3509254
  54.3425938  57.9271041  65.2237972  54.2352067  58.4108783  65.8312020
  51.4627706  53.3767687  72.6059920  51.3986848  54.2377643  72.4780057
  51.6024894  53.0599680  71.8055472  51.4743176  53.4567853  72.4688133
  56.3350297  61.3914990  58.0806045  56.4170134  62.1981976  57.7567496
  56.8200039  61.4110949  58.8046819  56.4187455  61.5135652  58.1392944
  50.1446800  56.0699826  66.7476123  49.7209049  56.2704325  66.0115142
  49.9691655  55.2228674  66.8600423  50.0557681  55.9748607  66.6549813
  45.4329245  56.5651877  62.1804096  45.5893864  56.4998680  63.0360088
  45.7729838  57.3400430  61.9682775  45.5062480  56.6701076  62.2758690
  51.9708390  55.9409761  61.0497459  52.5123935  55.4380142  61.5136080
  52.2854949  55.8874956  60.2386944  52.0972787  55.8589182  60.9981271
  50.1394840  61.3327113  58.3337487  50.2087660  60.4741651  58.4730487
  50.9183295  61.5498993  58.0056512  50.2647690  61.2379977  58.3054644
  53.1197659  50.8346066  71.1019759  53.3339629  50.1956980  70.5483113
  52.5031558  51.2791889  70.6727621  53.0602988  50.8056209  70.9570191
  42.0063507  53.7486828  62.4964863  42.3862472  54.1671373  61.8325130
  41.4318872  54.3300284  62.8033706  41.9774832  53.8964687  62.4441604
  55.2836747  52.4435131  72.0403067  54.4713429  52.1361021  72.1216239
  55.7426682  51.9634131  72.6045779  55.2317132  52.3271623  72.1357661
  54.6942002  60.3214803  62.4880011  54.3356657  60.4929446  63.2644043
  54.2080713  60.7828008  61.9308009  54.5700699  60.4153774  62.5205280
  52.5112388  43.9446001  66.0907102  51.6405946  43.9184722  66.0440412
  52.7652729  43.7723193  65.2732948  52.4205948  43.9156145  65.9627239
  49.4830367  56.0013968  55.0280245  49.7722892  56.7778851  55.3023820
  49.5702166  55.4902700  55.7294745  49.5384624  56.0405886  55.1722743
  49.5361528  45.9552230  67.5480573  49.0200017  45.2632421  67.6732152
  48.9755457  46.6223007  67.4943171  49.3768042  45.9515487  67.5586639
  51.6053762  46.4945190  69.3773425  51.2185515  46.5194221  70.1586955
  51.1186699  45.9286868  68.9247942  51.4766271  46.4140941  69.4261329
  57.5803741  53.0607845  68.0013127  57.1531349  52.9734193  67.2461227
  56.9429794  53.1685620  68.5867971  57.4233349  53.0640504  67.9758569
  51.2710904  43.3812175  71.6683685  51.9004022  43.9172475  71.3904755
  51.4396766  43.2889534  72.5197251  51.3888698  43.4473537  71.7532213
  51.0724818  48.1683370  73.9410097  51.8998248  47.8968519  73.9968711
  51.0932664  48.9644212  74.2973915  51.1977669  48.2463124  74.0025280
  45.6494308  55.3147233  67.1280357  44.8082315  55.2151107  67.3359251
  45.8584316  56.0842713  67.4794678  45.5559001  55.4139276  67.2107672
  43.1269875  52.9366770  64.9565108  42.7326573  53.0109781  64.1815218
  42.5709992  53.3224716  65.5073470  42.9872688  53.0048544  64.9232768
  54.7634822  45.9148064  64.6368987  54.9684415  45.8470372  65.4825984
  54.4361246  46.7206885  64.5690164  54.7450070  46.0234004  64.7528642
  49.4610973  53.2428632  66.3777955  49.1574111  52.6884620  66.9788363
  48.7590394  53.4220842  65.8905989  49.3127183  53.1873414  66.3947661
  47.5229324  60.4578353  71.0850053  47.4149679  60.4680415  71.9512111
  47.7325106  61.2833133  70.8955006  47.5379435  60.5819427  71.1854144
  58.0168510  46.4679828  64.1171752  57.4042823  46.9550230  64.5025484
  58.1132685  45.7923319  64.6609404  57.9406407  46.4398137  64.2550611
  45.5403116  57.7090995  68.5471990  44.9491049  58.3500493  68.5175005
  46.3024140  58.1328612  68.5203290  45.5651377  57.8666833  68.5387137
  45.9363739  48.8692993  69.2140008  46.3965220  48.9431922  69.9515132
  45.9819846  49.6674247  68.8639829  46.0114294  48.9987140  69.2712764
  47.5847089  49.5359688  73.7812035  47.1932654  48.8893035  74.2167813
  47.7532951  50.1271123  74.4006290  47.5517999  49.5273955  73.9374741
  55.2992632  63.1600307  65.9804015  55.1012321  63.6491121  65.2860226
  54.6780343  63.3641548  66.5588148  55.1780197  63.2616845  65.9627238
  49.3600611  54.9285203  60.3214259  50.1042656  55.3159480  60.5597209
  49.5061307  54.0842629  60.4854747  49.4911196  54.8615676  60.3808229
  52.3478487  50.5010677  66.2208178  51.8738441  49.9752439  66.7313489
  52.7196622  49.9540150  65.6523040  52.3328376  50.3426673  66.2123326
  42.7251517  52.4982183  71.5891724  43.5877130  52.3977893  71.5029054
  42.3943300  51.9176893  71.0277296  42.8036713  52.3973810  71.4937130
  58.6115217  55.5613052  67.6314959  58.3713440  54.7219468  67.6357385
  59.0907224  55.6413219  68.3555732  58.6467401  55.4494452  67.7389761
  60.6120404  52.3414510  65.5844218  60.3730174  52.3010344  64.7465003
  60.7754305  53.1885662  65.7109939  60.6010708  52.4606595  65.4797700
  46.0853303  51.3224632  68.2502142  45.4606373  51.3343024  67.6428095
  45.7498898  51.7984808  68.8993382  45.9438795  51.3943149  68.2558711
  42.7978978  59.3825092  69.6905907  42.2678903  58.6917531  69.7400881
  43.0704072  59.3735278  68.8618615  42.7603701  59.2792224  69.5753323
  53.8299069  59.9650795  58.4143589  54.5533268  60.4308908  58.2708162
  53.3899660  60.0324404  57.6641186  53.8714761  60.0434632  58.2828371
  52.9985224  56.8248337  69.6644278  52.3842217  56.2806387  69.9592913
  53.5152509  56.3112574  69.1850094  52.9840886  56.6684746  69.6368507
  52.2381521  57.8952607  67.3988577  51.8109129  57.2702326  66.9654012
  52.2306465  57.6127529  68.2247584  52.1740662  57.7605388  67.4568404
  45.3544048  52.9317780  70.4677011  45.5137535  52.1761104  70.8728733
  45.1736942  53.4808720  71.1217748  45.3509407  52.9011594  70.6239717
  53.2964351  45.0979016  71.0227800  52.8004912  45.2942690  70.3319367
  54.0533413  45.4971684  70.8516602  53.3351176  45.1856750  70.8947937
  50.5667231  48.7721362  67.6131111  50.5909718  48.2381474  66.9243891
  50.8178704  48.2638670  68.2756701  50.6077149  48.6182266  67.6095755
  38.0774820  56.0552857  67.0474255  37.9718270  56.0099701  66.1826339
  37.3275040  56.4006637  67.3288540  37.9510423  56.0993765  66.9611585
  46.8468553  47.4992180  66.9936855  46.8866924  48.0001386  67.7071563
  46.0218218  47.5902574  66.7242778  46.7308079  47.5873996  67.0587393
  48.2682916  54.0152690  69.2910754  47.4374846  54.1826508  69.0846002
  48.2134433  53.6388641  70.0759639  48.1372331  53.9842421  69.3759282
  46.0766700  47.5061583  74.9267165  46.7019403  46.9623715  75.1996597
  45.6217179  47.0256500  74.3574955  46.1014960  47.3551064  74.8828759
  46.6418960  52.2908281  59.8200872  46.7821921  52.7880746  60.5229513
  47.1401493  51.5894576  59.9615085  46.7360041  52.2610260  59.9452451
  46.6719182  53.1575392  57.1493449  47.3064262  53.7535817  57.0842910
  46.7544793  52.8578850  57.9639319  46.7775733  53.2016300  57.2596535
  48.2498165  49.0889368  57.1238891  48.5714006  48.6092450  56.4698153
  48.5125109  49.8989014  56.9329702  48.3364191  49.1379266  56.9994383
  53.6457320  48.4761562  69.4862370  54.0712392  48.0234088  68.8745896
  53.0314313  47.9221632  69.7627157  53.6185966  48.3275538  69.4367395
  43.1772170  55.3543233  60.4182995  43.6864400  55.9507741  60.7994300
  43.6506443  55.0869207  59.7359414  43.3215546  55.4029049  60.3737517
  54.0902918  64.0271500  58.5741650  53.3732228  63.8532362  58.1088888
  54.7409656  63.7924072  58.0417136  54.0804769  63.9667292  58.4270868
  56.6750890  52.9036088  62.3182955  56.0042080  53.4465791  62.1896021
  57.3690640  53.3730944  62.0764650  56.6779757  53.0534360  62.2638483
  50.7237623  65.0432800  67.5494714  50.5003278  64.2851630  67.9178740
  50.2347467  65.0730822  66.8275153  50.6181072  64.9355025  67.4971455
  56.8379017  49.3591972  65.2273329  57.1906627  48.9321695  65.9019127
  55.9793819  49.2742815  65.3574405  56.7628462  49.2836713  65.3468339
  45.5362702  51.9899492  63.2856175  44.8174691  52.4063624  63.5529039
  45.9075064  52.5553730  62.7347813  45.4854634  52.1348773  63.2438982
  54.8362283  52.6227341  69.1758171  54.8160210  52.4410636  70.0292950
  54.8841484  53.4939359  69.1517754  54.8396924  52.7243879  69.2981466
  49.3716080  65.2633258  65.0031798  48.9576479  64.6007389  64.6135640
  50.0563455  65.4111117  64.4827492  49.4114452  65.1873917  64.8688295
  52.7381374  64.4223344  65.7555415  52.3397658  64.5325614  64.9876235
  52.1232594  64.6305410  66.3381975  52.5880264  64.4696912  65.7286714
  58.2703077  44.4810384  66.1557641  57.7633942  43.7739523  66.0878819
  59.0670511  44.1503573  66.2858718  58.3130316  44.3283535  66.1656636
  54.1867093  50.9876996  62.0531305  53.9580786  51.0109697  61.2109663
  54.4465169  50.1634463  62.1726315  54.1913281  50.8693076  61.9456502
  48.4686321  52.8411469  71.6556405  47.9565225  52.2332652  72.0141436
  48.2965818  53.5568062  72.1230381  48.3675959  52.8574768  71.7772629
  43.3152036  51.2849044  74.3058767  43.1454626  51.9450419  73.7606973
  42.8717986  51.4955606  75.0271256  43.2251370  51.4135027  74.3320396
  47.2411856  49.5253542  63.3485500  47.7169222  49.8870622  62.7135682
  46.7400455  50.1810010  63.6285643  47.2377215  49.6747731  63.2962241
  60.4723217  58.9975310  59.1398505  60.8556823  59.7466667  59.3696602
  59.6767330  59.2441130  58.8810495  60.4116999  59.1445004  59.1356079
  52.3455392  50.7635714  74.0958661  52.9026822  50.5349523  73.4637126
  52.0216457  51.5241379  73.8193873  52.3801802  50.8419550  73.9615158
  40.2154101  54.1895910  69.5647257  39.6680820  53.5196555  69.6828125
  41.0046479  53.8225758  69.6290724  40.2506284  54.0360896  69.5915957
  49.2838509  51.6694742  56.7158884  49.6637474  51.6874371  55.9309999
  48.5431105  52.1148731  56.5949732  49.2307346  51.7376517  56.5822453
  56.9123799  49.9776933  62.3034463  56.9118026  49.8225590  63.1618739
  56.7079979  50.8239920  62.2475849  56.8823577  50.0797554  62.4222402
  38.9741070  53.4016718  66.7193280  38.7962831  52.9493327  67.4448195
  38.6860092  54.2042879  66.9031757  38.9054023  53.4539276  66.8536783
  54.6364651  54.6574435  65.9570670  55.1318317  53.9397430  65.9174690
  53.8264427  54.3545233  65.8425157  54.5908545  54.5072081  65.9344396
  50.0823263  58.5072248  58.1067674  49.2734586  58.1838922  58.0600984
  50.5898172  57.8005470  58.0395923  50.0372930  58.3553565  58.0897969
  40.7113540  55.9344441  63.8315039  39.8459060  55.9230132  63.7197810
  40.8112356  55.7474664  64.6786178  40.5987707  55.9050503  63.9403983
  56.7016470  57.4078123  68.6447799  57.1271542  56.8852544  68.0918224
  56.3373390  58.0058960  68.1236422  56.7103073  57.4188350  68.4856808
  46.3370550  65.7042340  67.4045144  46.6517109  66.5178729  67.4122926
  46.7463963  65.3192559  68.0727303  46.4438648  65.7671042  67.5049236
  53.2895070  61.1212387  64.9748956  53.7606248  61.8352649  65.1438941
  53.6255248  60.5211137  65.5108826  53.4090185  61.1383851  65.0781332
  50.2064565  45.8939857  71.9307051  50.3392470  45.0970851  72.2588027
  50.5909717  46.4206260  72.5105327  50.2820893  45.8539774  72.0650554
  53.2796920  42.8170184  68.5288144  52.4742883  42.7067913  68.8455983
  53.1503655  42.9182639  67.6718010  53.1417053  42.8153854  68.4496185
  56.7362880  48.9815675  69.1227841  56.1525869  49.4824882  68.7105409
  57.0567174  48.4745232  68.4892164  56.6976056  48.9807511  68.9686348
  47.8653011  45.8899033  70.1784945  48.4097424  45.5490159  70.7689286
  47.9189947  46.7484494  70.3206229  47.9542131  45.9654292  70.2866818
  43.6783570  59.6515449  67.0523753  44.2828427  59.6111283  66.4237573
  43.4710883  60.4986601  67.0827808  43.7372467  59.7703451  66.9639869
  53.4927342  61.9181394  68.2685990  54.3125716  61.7744360  68.5302285
  53.2121420  62.5427593  68.8102428  53.5724086  61.9891746  68.3873929
  38.9134852  58.6350066  66.9222676  38.8159130  57.8246338  67.2312732
  39.6963722  58.6141859  66.5368944  39.0150989  58.5117156  66.9109539
  61.7189601  68.1408565  60.8750905  62.4169765  68.3196693  61.3672369
  62.0341933  67.6178905  60.2521295  61.8684938  68.0902338  60.8552915
  59.8916464  63.5100962  64.9572180  59.5619794  63.9612106  64.2875879
  59.2161466  63.4317125  65.5045186  59.7426901  63.5652097  64.9395403
  67.0992872  59.4986485  63.2021791  66.7846313  60.1889964  63.6342213
  66.5819814  59.4431267  62.5007291  66.9757343  59.5921374  63.1618740
  58.3304914  73.3954203  58.1166669  57.7462129  73.9004234  58.5232533
  57.9275009  73.1696590  57.3763261  58.1844217  73.4362451  58.0671694
  62.7882128  69.6419855  56.5935590  63.0278132  69.8497839  55.7810933
  63.1097969  68.8377363  56.7024534  62.8719286  69.5533956  56.4896143
  58.0972418  61.5713250  60.4395128  58.8518386  61.9391568  60.2012178
  57.9199953  61.9452805  61.2074307  58.1826897  61.6811438  60.5180016
  56.4529483  63.9783569  57.1373241  56.2705056  64.1955450  56.3114233
  57.3155096  64.0922582  57.1931855  56.5534072  64.0273467  57.0227728
  62.1329202  60.9809980  60.1722264  62.8615363  60.8025935  59.7260421
  62.2224095  61.8228060  60.3829443  62.2535864  61.0793859  60.1375782
  55.9991510  67.2557742  55.6495714  55.2849687  66.9695922  56.0618146
  56.4835479  67.5954368  56.2902101  55.9650873  67.2639392  55.8051349
  63.1738828  75.7587696  56.0257522  63.5889976  75.4272720  55.3342018
  62.3430758  75.5256598  55.8977659  63.1126837  75.6758952  55.9048369
  65.8672218  72.0098256  55.2118723  65.7852381  72.0800443  56.0773710
  66.5051939  72.5727999  55.0202464  65.9492055  72.1037227  55.3108673
  47.9456920  68.9736831  63.1802585  48.0317172  68.5968699  63.9616115
  48.5732718  68.5997276  62.7022543  48.0513471  68.8622313  63.2248062
  62.9712328  72.0318710  58.2227330  63.7852967  72.3233603  58.1110101
  62.9071470  71.3778572  57.6485623  63.0815067  71.9783905  58.1216167
  59.4823052  70.7242517  57.6874531  59.8668204  70.5050224  58.4391076
  59.2334672  71.5505462  57.8175608  59.5025124  70.8140663  57.8175608
  57.2023489  62.3939454  63.0183312  56.3345914  62.4662053  63.0840921
  57.4898693  63.1961533  63.2071287  57.1163237  62.5233601  63.0558078
  55.1290841  65.8697713  60.4600188  54.8415637  65.4998983  59.7232135
  55.8161309  66.3392568  60.1983893  55.1879738  65.8844682  60.3115264
  57.9644513  69.7350661  61.9067593  58.6867165  69.8991819  61.4471399
  57.4852505  70.4560326  61.8006933  58.0008243  69.8648891  61.8233207
  64.3707298  62.9699837  62.0191894  65.0733651  62.7707585  61.5411852
  64.1051487  62.1975779  62.3260737  64.4353931  62.8262803  61.9937335
  52.7019036  66.6478925  61.3085469  52.8035172  67.4505087  61.6366445
  53.4974922  66.4466261  61.0108550  52.8346941  66.7364824  61.3120825
  66.5167408  57.6080507  65.1488440  66.6350976  58.0656970  64.4155743
  66.3429583  56.8025768  64.8624658  66.5086579  57.5574279  64.9989374
  64.4088350  75.2480510  53.5643135  65.1761336  75.3080635  53.1548987
  63.9619659  74.6760951  53.0799454  64.4561778  75.1717085  53.4320845
  52.9796090  69.2672136  62.4964863  53.3595055  69.6856681  61.8325130
  52.4051455  69.8485592  62.8033706  52.9507415  69.4149995  62.4441604
  63.4844971  59.4631309  66.0907102  62.6138529  59.4370030  66.0440412
  63.7385313  59.2908501  65.2732948  63.3938532  59.4341453  65.9627239
  60.4562951  71.5199276  55.0280245  60.7455476  72.2964159  55.3023820
  60.5434750  71.0088007  55.7294745  60.5117207  71.5591194  55.1722743
  59.4909654  66.0714460  60.9422657  59.7669388  65.3533372  60.5300224
  60.0908323  66.6699379  60.7343763  59.6202918  66.0534830  60.8503418
  62.9920174  63.7427977  59.2169252  63.4463921  63.9138537  59.9417096
  63.4660220  63.1296088  58.8167027  63.1288494  63.6778862  59.2643013
  60.3333194  70.4470511  60.3214259  61.0775239  70.8344788  60.5597209
  60.4793890  69.6027937  60.4854747  60.4643779  70.3800984  60.3808229
  65.2494570  66.9132539  59.2833932  64.7217588  66.9961283  58.5939641
  65.7090278  67.6550411  59.2798577  65.2396420  67.0353202  59.1808627
  57.2427635  65.1835059  54.3074827  56.8940439  65.8354784  54.7706377
  56.7624081  65.1692172  53.5798698  57.1197879  65.2778112  54.2685919
  57.6151544  67.8093589  59.8200872  57.7554505  68.3066053  60.5229513
  58.1134076  67.1079884  59.9615085  57.7092625  67.7795568  59.9452451
  57.6451766  68.6760700  57.1493449  58.2796846  69.2721125  57.0842910
  57.7277377  68.3764158  57.9639319  57.7508317  68.7201608  57.2596535
  59.2230749  64.6074676  57.1238891  59.5446590  64.1277758  56.4698153
  59.4857693  65.4174322  56.9329702  59.3096774  64.6564574  56.9994383
  54.1504754  70.8728541  60.4182995  54.6596983  71.4693049  60.7994300
  54.6239026  70.6054515  59.7359414  54.2948130  70.9214356  60.3737517
  63.0584127  60.4661969  62.8952947  62.4152445  60.3159616  63.4638085
  62.7183534  60.2204315  62.1302051  62.9129204  60.4074092  62.8655962
  56.5095286  67.5084800  63.2856175  55.7907275  67.9248932  63.5529039
  56.8807648  68.0739038  62.7347813  56.4587217  67.6534081  63.2438982
  62.2841860  66.5482799  58.6229555  61.6906699  66.8699796  58.0714122
  62.3217138  65.7023895  58.4150661  62.2016249  66.4707128  58.5112326
  58.2144439  65.0438850  63.3485500  58.6901805  65.4055930  62.7135682
  57.7133039  65.6995318  63.6285643  58.2109798  65.1933039  63.2962241
  60.2571092  67.1880050  56.7158884  60.6370057  67.2059679  55.9309999
  59.5163688  67.6334039  56.5949732  60.2039930  67.2561825  56.5822453
  61.0555846  74.0257556  58.1067674  60.2467169  73.7024230  58.0600984
  61.5630755  73.3190778  58.0395923  61.0105513  73.8738873  58.0897969
  60.2490263  63.4141578  59.3986516  61.0705957  63.5839891  59.1568211
  59.7859914  63.5688839  58.6752814  60.3021425  63.4623311  59.2558160
  36.7394066  -0.0431547  48.1668913  36.7088070   0.8113090  48.3387183
  37.3375415  -0.3436255  48.7255057  36.8231224   0.0384949  48.2743715
  29.9393751  -0.9555896  52.9221844  29.0831646  -0.7947398  52.9730960
  29.9861404  -1.8263832  52.9426905  29.8192862  -1.0605094  52.9327910
  24.3234890   8.5806822  48.6859075  23.5717790   8.2022360  48.4575120
  24.7720902   8.6125255  47.9377885  24.2784557   8.5292429  48.5416577
  33.2487467   5.3130629  62.5282300  33.9554234   4.8182660  62.6569234
  33.4375403   5.7539711  61.7984958  33.3815373   5.3048980  62.4391345
  29.7759850   9.0032191  44.1144622  29.4411219   9.6809113  43.6788844
  30.2886721   8.6137502  43.5261494  29.8025431   9.0456769  43.9631414
  29.3164142  10.9546460  50.0555734  29.7003521  11.5233359  49.5160509
  29.2523283  10.2295970  49.5761550  29.3637569  10.9321923  49.9049596
  32.7845572   1.1036148  55.5653495  33.3301532   1.7821234  55.6247465
  32.7262448   0.9623609  54.7055077  32.8561486   1.1828149  55.4465556
  25.9019647   8.5925214  50.9521848  26.0030009   7.7825568  51.2618975
  25.3061392   8.4982160  50.3221526  25.8292185   8.4590242  50.9048086
  34.5610640   2.5320755  46.4387223  34.4450166   3.2828441  46.8679361
  35.3566527   2.2744708  46.6883310  34.6615230   2.6055602  46.5391315
  25.7420386  13.5102803  52.3536704  26.3857842  13.9515967  52.7432862
  26.0676642  12.7056229  52.2666962  25.8852215  13.4567998  52.3982181
  19.0984691   4.6145500  50.5774181  18.8634875   3.7813153  50.4706450
  19.2370332   4.8950166  49.7635382  19.0840353   4.5329004  50.4416536
  26.4440966   6.5214778  47.7256565  26.7656807   7.0619985  47.1217874
  27.0913062   5.9511549  47.8578855  26.5867021   6.5173953  47.6563601
  28.4942674  -1.4769227  47.8090952  29.1922839  -1.2981100  48.3012415
  28.8095006  -1.9998888  47.1861341  28.6438011  -1.5275455  47.7892962
  21.1243911   0.3283513  55.7202058  21.0002608   0.9145958  56.3551877
  21.7762196  -0.1656292  56.0214333  21.2017561   0.3422317  55.8587987
  28.6830609   4.9101218  47.7970744  29.1224245   4.3018318  48.2425516
  28.5335272   4.5308591  47.0256209  28.7252075   4.7639689  47.7489911
  26.1502252   3.5045230  54.9989569  26.7951255   3.0117673  54.6800518
  26.3904029   3.6470016  55.8255647  26.2812837   3.4522672  55.0739102
  28.6888344   6.3500136  54.6496462  28.9711587   5.5551541  54.4283218
  29.4174504   6.8280723  54.6701523  28.8377907   6.3034732  54.6199477
  32.2839946   3.2628399  44.7501513  32.1991241   4.1189366  44.8951082
  32.7724329   2.9872723  45.4183672  32.3428843   3.3485721  44.8703594
  33.2158379  -0.1186807  46.2499248  32.6869851   0.0972827  46.9096554
  33.7383399   0.5749332  46.1700217  33.2146832   0.0156330  46.3354847
  38.6706432   5.4559498  51.6232292  37.8404135   5.6670141  51.7865709
  38.6215684   4.6296552  51.3474576  38.5413167   5.3649104  51.6069658
  25.1057987   3.7776410  45.0506716  24.5215202   4.2826441  45.4572580
  24.7028082   3.5518797  44.3103308  24.9597291   3.8184658  45.0011741
  20.6602016   9.4931171  51.8530388  20.1769594  10.2181661  51.8289971
  21.4725334   9.7907301  51.9640545  20.7092763   9.6433525  51.8657667
  26.7316170   8.2863352  54.4580202  26.2143111   7.9270767  53.8541510
  27.4290561   7.7625526  54.4686268  26.7581751   8.1561040  54.3710461
  30.3879762   8.7358166  60.4196375  30.4763107   8.5484306  61.2674585
  30.8169474   8.0895596  60.0201222  30.4641864   8.6121174  60.4868126
  27.9550221   8.0189326  59.4014037  27.3921056   7.6061936  59.9253698
  28.7171245   7.9442232  59.8207180  27.9844670   7.9466726  59.5407038
  23.5146213  10.0087347  52.0050667  24.2166792   9.4939336  52.0623424
  23.4343696  10.3361498  52.8097542  23.6069973   9.9801573  52.1323460
  38.1660390  -1.8970102  55.4182714  37.3288811  -1.8267915  55.6530308
  38.1348621  -1.8945607  54.5457016  38.0378673  -1.8859875  55.3242262
  22.8396988   6.1993699  51.5136275  23.6785888   6.4316632  51.5610037
  22.8708757   5.3298011  51.4443311  22.9678706   6.1050646  51.5100920
  23.4649691   6.6194574  55.8149581  24.0047916   6.4765705  56.4852953
  22.7819637   7.0191325  56.1833607  23.4441845   6.6574245  55.9684003
  32.8890576   2.2985575  51.0094605  33.6448091   2.7317089  51.0483514
  32.9952901   1.6490345  51.5829241  33.0160747   2.2663059  51.0992631
  35.9270747   6.1258852  51.7597008  35.4905979   6.1295595  52.5155980
  35.5933663   6.8064351  51.3276586  35.8133367   6.2271308  51.8077841
  30.4999821   8.1667185  63.0840159  31.2840237   8.2798033  63.4495901
  30.2996415   7.3408322  63.2798844  30.5865846   8.0613904  63.1674545
  18.8686836   2.8394865  55.9684002  18.6025252   2.0233982  56.1274993
  18.8825400   2.8848021  55.0979518  18.8311559   2.7251770  55.8637484
  22.7744583  -2.3620050  42.5835761  22.0602760  -2.6481871  42.9958193
  23.2588552  -2.0223425  43.2242148  22.7403947  -2.3538401  42.7391395
  30.6570214  10.0777287  56.7306614  29.8585460   9.8376787  56.9880483
  31.1056226  10.1291680  57.4773662  30.6044825  10.0499678  56.8791538
  39.0615093   2.8439772  50.6516645  39.7231528   2.2830441  50.5512554
  38.4206505   2.3491803  50.9769337  39.0643961   2.6876181  50.6848986
  29.9491901   6.1409903  42.9597569  30.3643050   5.8094927  42.2682064
  29.1183831   5.9078806  42.8317705  29.8879910   6.0581159  42.8388416
  19.2780250   3.6253645  53.2495747  19.0955823   3.6000531  52.3968039
  20.0129919   4.0952582  53.2884655  19.3594314   3.6915007  53.1293665
  35.3479924   3.8605154  50.3928634  35.5835513   4.0050353  49.5655485
  35.4969488   4.6247562  50.7860148  35.4045727   3.9944209  50.3292238
  37.1770381   2.7006820  48.2298238  37.5078598   3.2334461  47.6238333
  37.7503469   2.7545708  48.8860189  37.3104060   2.7876389  48.2376020
  32.3902270   0.5471723  48.9121818  32.4849124   1.2861017  49.3661444
  31.7661114   0.1189199  49.3456383  32.3111300   0.5933044  49.0429966
  30.6454744   3.7257936  59.5612099  31.2193606   3.0885180  59.7160663
  30.5669548   3.7262018  58.6921757  30.7187979   3.6323047  59.4558510
  19.2451160   0.5047145  53.3994813  19.8224663   0.3683596  54.0387059
  18.5465222   0.0482929  53.6540398  19.2272182   0.4169411  53.5317103
  32.6425291   2.3920463  42.1458770  32.5605454   2.4622650  43.0113757
  33.2805012   2.9550207  41.9542511  32.7245129   2.4859434  42.2448720
  26.0018462   2.1581201  51.6133297  25.7437707   1.3252936  51.5864596
  26.0566945   2.3838814  50.7725797  25.9718240   2.0678972  51.4853433
  24.9753175  -0.2881037  52.0998191  24.4002766  -0.1288868  52.7362152
  24.5988851  -0.9245628  51.6366642  24.8355987  -0.3583224  52.1252750
  28.6426463  -1.8157687  56.9590570  28.2540896  -2.2403470  56.3042761
  27.9781162  -1.5675538  57.4667596  28.4873391  -1.8418966  56.9378438
  29.7465402   2.4140917  45.1567377  30.5606040   2.7055810  45.0450148
  29.6824543   1.7600780  44.5825670  29.8568141   2.3606112  45.0556214
  35.9674892   5.0966913  59.5696952  35.7313529   4.2654978  59.4509013
  36.6118121   5.0452521  60.1551797  36.0269562   4.9664601  59.6382846
  25.6173310   5.8862435  50.2839689  26.2547257   5.6474182  50.8291482
  26.0428381   6.0899594  49.5492849  25.7749476   5.8813445  50.2556846
  20.3085952   8.1250771  54.1673993  20.3490097   8.3965622  53.3393772
  20.8680476   8.6492679  54.5831780  20.3969298   8.2426526  54.1065881
  26.2576125   1.1064724  44.6214578  26.6421278   0.8872431  45.3731123
  26.0087745   1.9327670  44.7515654  26.2778197   1.1962871  44.7515655
  36.9911312   4.8811362  55.6325247  36.6857129   5.6139419  55.9938562
  36.2717528   4.4749292  55.3518033  36.8398655   4.9293095  55.6438384
  27.9994782   6.3634857  51.9633475  28.0733790   6.2010029  52.8175325
  28.8164288   6.5525047  51.7193957  28.1311140   6.3671600  52.0531501
  42.6913104   1.5204363  54.9593591  42.6237605   1.5400322  54.0896178
  42.6768767   2.3634690  55.1849262  42.6791861   1.6478097  54.8646068
  21.7600538   6.7092720  48.9927919  20.9338656   6.9554457  48.8662197
  21.8212530   6.6304801  49.8589977  21.6474705   6.7337669  49.1016863
  26.5399367   9.3269600  46.6946948  26.8297666   8.9358582  45.9706175
  27.2702848   9.5086305  47.1352224  26.6906252   9.2963414  46.6529755
  40.4771722   0.2948749  53.2340185  41.0279643  -0.3383182  53.4737278
  40.4615837   0.8264142  53.9255690  40.5556918   0.2797697  53.3719044
  27.1294113   4.1287346  57.7800079  26.6305806   4.8403114  57.8584967
  27.9394337   4.4488013  57.7418241  27.1750219   4.2814195  57.7856647
  24.4805283  11.3036983  49.7607098  24.2605578  11.0134337  50.5533765
  24.2599805  10.6451938  49.2325010  24.4152877  11.1636691  49.7996007
  23.3922230   3.3910299  52.0262800  23.1035479   2.7647771  52.5608527
  24.2605578   3.3330587  52.0927480  23.4782482   3.2897843  52.1153754
  34.1800128  -1.4654917  52.3444782  33.8364894  -2.1864582  52.6952031
  34.2793171  -1.6741066  51.5023140  34.1442171  -1.6030714  52.2716462
  26.6473239  12.6766373  48.5437791  27.2997297  12.1442815  48.7728817
  25.9498847  12.3235025  48.9305665  26.6403957  12.5455896  48.6349958
  23.5954504   5.0305550  47.9505165  24.3500472   5.4118589  48.1640627
  23.0025116   5.4816694  48.4051861  23.6191217   5.1534378  48.0488043
  34.6413157   4.9970787  47.8868770  35.2071190   5.6563997  47.8027313
  33.9941061   5.3420485  48.3585172  34.6291914   5.1452728  47.9441526
  24.9152730   6.2014112  53.3245280  24.3933484   6.3414403  54.0097145
  25.3026751   5.4424776  53.5147398  24.8956431   6.1099635  53.4546357
  31.1119735   7.9409571  47.3105849  30.8706411   7.2077432  46.9032914
  31.2921068   8.4896428  46.6572182  31.1027359   7.9131962  47.1536072
  26.3419056   3.2318131  48.7226771  26.1461838   3.8392865  48.1287074
  26.5653401   2.5386075  48.2418445  26.3453697   3.2195656  48.5642852
  24.7397586   0.1172869  48.8407640  25.4620238   0.2814027  48.3811446
  24.2605579   0.8382533  48.7346979  24.7761316   0.2471098  48.7573254
  32.6991093  -3.5463333  54.2204325  31.8602194  -3.5202054  53.9842588
  32.7695461  -2.8992597  54.8009671  32.5859487  -3.4467207  54.2713441
  22.3905203   2.5230941  57.9461779  22.9026299   2.8015194  57.2970539
  22.1041545   3.2620235  58.3124593  22.4240066   2.6733295  57.9051658
  36.5748617   1.6604654  51.5065566  36.4882592   1.8160080  52.3600345
  36.1199097   2.3042730  51.1324971  36.4951874   1.7780409  51.5772673
  34.3422482   5.6898761  53.9177907  34.2036841   6.3879806  54.4226649
  33.5622480   5.5347417  53.5614089  34.2065709   5.7698927  53.9404181
  32.6800567   1.9895136  60.1700289  32.6748606   1.1174952  60.1742715
  33.3861561   2.1883305  59.6969744  32.7845571   1.8899010  60.1007324
  26.4071461   1.7172120  59.5414109  26.5514836   2.2973328  58.9057219
  26.7547109   2.0948417  60.2463964  26.4798922   1.8592824  59.5513104
  28.5791378   0.9162288  57.3239240  27.8314692   1.1093303  56.9187519
  28.7332903   0.0907508  57.0863362  28.4913806   0.8227400  57.2284646
  25.4799216   9.9074892  56.4075136  25.6288779   9.3477808  55.7548540
  26.2599218   9.9866893  56.7907655  25.6173309   9.8360457  56.3672085
  35.8375855   5.0477014  44.6794406  35.4582664   4.2614152  44.6723696
  35.1742100   5.5963871  44.5366050  35.6834330   5.0121838  44.6575203
  28.0052516  10.0789535  57.6859627  27.9296187   9.4098345  58.2410415
  27.9342375  10.7807323  58.2000293  27.9833123  10.0834442  57.8436475
  28.6622763   8.5990533  48.5183233  29.4272654   8.3300177  48.1965897
  28.5600853   8.1140544  49.2353295  28.7604259   8.4880098  48.5763060
  26.6975533  -3.1985057  55.0576468  25.9071608  -3.3793597  55.3793804
  27.0936156  -3.9758105  55.0406763  26.6392409  -3.3397596  55.1029017
  31.1841424   5.6302717  40.4983182  31.9514409   5.6902842  40.0889034
  30.7372733   5.0583159  40.0139500  31.2314851   5.5539293  40.3660892
  32.0819219   4.4357373  52.7835914  31.4064221   4.2042605  53.2849301
  32.0911595   3.8278556  52.1578019  31.9837724   4.3116298  52.7652066
  29.2113363  -0.7224798  59.5399967  29.1472504   0.1385158  59.4120104
  29.3510551  -1.0392805  58.7395518  29.2228833  -0.6424631  59.4028180
  34.0835954   7.2922505  45.0146092  34.1655791   8.0989492  44.6907543
  34.5685696   7.3118465  45.7386866  34.1673112   7.4143168  45.0732991
  27.8932457   1.9707341  53.6816170  27.4694706   2.1711840  52.9455188
  27.7177312   1.1236189  53.7940470  27.8043338   1.8756123  53.5889860
  27.3944151  13.4857854  56.1437627  27.8840081  12.7868644  55.9613292
  26.8228383  13.1881724  56.7313685  27.3828680  13.3384078  56.2038668
  23.1814902   2.4659393  49.1144143  23.3379521   2.4006196  49.9700135
  23.5215495   3.2407945  48.9022822  23.2548137   2.5708591  49.2098737
  29.7194047   1.8417276  47.9837506  30.2609592   1.3387657  48.4476126
  30.0340606   1.7882471  47.1726991  29.8458444   1.7596697  47.9321318
  33.5911154   6.0519924  65.0964418  34.4046019   5.7805073  65.2569551
  33.4306120   5.7527464  64.2924614  33.6881103   5.9674850  65.0009824
  27.8880496   7.2334628  45.2677534  27.9573317   6.3749166  45.4070534
  28.6668952   7.4506509  44.9396558  28.0133346   7.1387492  45.2394691
  30.8683316  -3.2646419  58.0359806  31.0825286  -3.9035505  57.4823160
  30.2517215  -2.8200595  57.6067668  30.8088645  -3.2936275  57.8910237
  32.2787984   9.6572329  49.4814027  31.8867776   9.3539044  48.7636893
  32.4341056  10.4941419  49.2918981  32.2441574   9.7356166  49.3470524
  19.7549164  -0.3505657  49.4304910  20.1348128   0.0678888  48.7665177
  19.1804528   0.2307799  49.7373753  19.7260488  -0.2027798  49.3781651
  33.0322404  -1.6557354  58.9743113  32.2199086  -1.9631464  59.0556286
  33.4912339  -2.1358354  59.5385826  32.9802789  -1.7720862  59.0697708
  32.4427659   6.2222318  49.4220058  32.0842313   6.3936961  50.1984090
  31.9566369   6.6835524  48.8648056  32.3186356   6.3161289  49.4545327
  27.2316024   1.9021483  41.9620292  27.5208549   2.6786366  42.2363866
  27.3187823   1.3910215  42.6634791  27.2870280   1.9413402  42.1062790
  33.6032398   7.1126214  60.3687259  34.2412119   6.6186410  60.0349715
  32.9606490   7.0403614  59.7839485  33.6026625   7.0285222  60.2329614
  35.3289398  -1.0384640  54.9353174  34.9017006  -1.1258291  54.1801274
  34.6915451  -0.9306865  55.5208018  35.1719005  -1.0351980  54.9098616
  33.6586655   7.8046022  57.0092615  34.4479033   7.4535087  57.1294697
  33.8330252   8.6182411  56.7469249  33.8006936   7.8731879  56.9880483
  23.3979965   1.2154748  54.0620404  22.5567972   1.1158622  54.2699298
  23.6069973   1.9850228  54.4134725  23.3044658   1.3146791  54.1447719
  20.8755532  -1.1625715  51.8905155  20.4812230  -1.0882703  51.1155264
  20.3195649  -0.7767769  52.4413517  20.7358344  -1.0943940  51.8572815
  27.2096630  -0.8563853  53.3118002  26.9059767  -1.4107865  53.9128409
  26.5076051  -0.6771643  52.8246036  27.0612840  -0.9119070  53.3287707
  26.2662727  -3.5463333  47.8762704  26.5422461  -4.2644420  47.4640271
  26.8661396  -2.9478413  47.6683810  26.3955992  -3.5642962  47.7843465
  25.2714981   6.3585868  58.0190099  25.1635336   6.3687930  58.8852158
  25.4810762   7.1840648  57.8295053  25.2865092   6.4826943  58.1194191
  23.2888773   3.6098510  55.4812037  22.6976706   4.2508008  55.4515052
  24.0509796   4.0336128  55.4543337  23.3137034   3.7674349  55.4727184
  39.4079194   3.4404280  56.4789315  39.4662318   3.8890929  57.2249292
  38.7745662   3.8503093  56.0419395  39.3230490   3.5678015  56.5241864
  33.0478289   9.0607822  52.9144062  32.8497978   9.5498636  52.2200273
  32.4266000   9.2649063  53.4928195  32.9265854   9.1624360  52.8967285
  27.1086268   0.8292719  47.2554306  27.8528312   1.2166995  47.4937256
  27.2546964  -0.0149856  47.4194794  27.2396853   0.7623192  47.3148276
  30.0964143  -3.5981808  53.1548225  29.6224098  -4.1240046  53.6653536
  30.4682279  -4.1452335  52.5863087  30.0814032  -3.7565811  53.1463372
  36.3600874   1.4620568  54.5655006  36.1199097   0.6226983  54.5697432
  36.8392881   1.5420734  55.2895779  36.3953058   1.3501967  54.6729808
  32.0247643  -2.7045253  46.2173979  31.4970662  -2.6216509  45.5279688
  32.4843351  -1.9627382  46.2138624  32.0149494  -2.5824591  46.1148674
  38.3606061  -1.7577975  52.5184265  38.1215831  -1.7982141  51.6805049
  38.5239962  -0.9106823  52.6449986  38.3496364  -1.6385890  52.4137747
  34.9652091   2.6271974  58.4489310  35.6886290   2.1744501  58.2700330
  34.7002053   2.9076640  57.6661638  35.0333364   2.6022943  58.3068025
  23.8338959  -2.7767852  55.1842189  23.2092030  -2.7649460  54.5768142
  23.4984554  -2.3007677  55.8333429  23.6924451  -2.7049335  55.1898758
  20.5464635   5.2832608  56.6245953  20.0164560   4.5925047  56.6740928
  20.8189728   5.2742793  55.7958662  20.5089357   5.1799740  56.5093369
  31.5784726   5.8658310  45.3483636  32.3018924   6.3316423  45.2048209
  31.1385317   5.9331920  44.5981233  31.6200418   5.9442147  45.2168417
  30.7470881   2.7255852  56.5984325  30.1327874   2.1813903  56.8932960
  31.2638166   2.2120089  56.1190141  30.7326543   2.5692261  56.5708553
  29.9867178   3.7960122  54.3328624  29.5594786   3.1709841  53.8994059
  29.9792122   3.5135044  55.1587631  29.9226319   3.6612903  54.3908451
  15.8260477   1.9560372  53.9814302  15.7203926   1.9107216  53.1166386
  15.0760697   2.3014153  54.2628587  15.6996080   2.0001280  53.8951631
  26.0168573  -0.0839795  56.2250801  25.1860503   0.0834023  56.0186049
  25.9620090  -0.4603844  57.0099686  25.8857988  -0.1150064  56.3099329
  24.3904617  -1.8084203  46.7540919  24.5307578  -1.3111739  47.4569560
  24.8887150  -2.5097909  46.8955132  24.4845698  -1.8382225  46.8792498
  24.4204839  -0.9417092  44.0833495  25.0549919  -0.3456667  44.0182957
  24.5030450  -1.2413635  44.8979366  24.5261390  -0.8976184  44.1936582
  37.3987405   1.5898385  56.9519860  37.9905245   2.2295636  56.9838058
  37.8346400   0.8921422  57.2411926  37.5505836   1.5816735  57.0000692
  25.9983822  -5.0103117  44.0578937  26.3199663  -5.4900034  43.4038200
  26.2610766  -4.2003471  43.8669749  26.0849848  -4.9613219  43.9334430
  29.2280795   6.0115757  57.5777754  28.7205886   6.5651604  58.0218384
  28.9307441   6.0724047  56.7596528  29.1085680   6.1022069  57.5226210
  20.9257827   1.2550748  47.3523041  21.4350057   1.8515256  47.7334347
  21.3992099   0.9876722  46.6699461  21.0701203   1.3036564  47.3077564
  31.8388575   9.9279015  45.5081697  31.1217885   9.7539877  45.0428934
  32.4895313   9.6931587  44.9757183  31.8290426   9.8674808  45.3610915
  34.4236546  -1.1956396  49.2523002  33.7527736  -0.6526694  49.1236068
  35.1176297  -0.7261541  49.0104697  34.4265414  -1.0458125  49.1978530
  28.4723280  10.9440316  54.4834760  28.2488935  10.1859145  54.8518787
  27.9833123  10.9738337  53.7615200  28.3666729  10.8362540  54.4311501
  23.2848359  -2.1092993  50.2196222  22.5660348  -1.6928860  50.4869085
  23.6560721  -1.5438754  49.6687860  23.2340291  -1.9643712  50.1779029
  32.5847940  -1.4765144  56.1098218  32.5645867  -1.6581849  56.9632996
  32.6327140  -0.6053126  56.0857801  32.5882581  -1.3748606  56.2321512
  30.5294270   5.1122048  62.0346694  30.4890124   4.4671725  61.4491850
  31.3417588   5.0558665  62.3472106  30.6437423   5.0081015  61.9943643
  27.1201737  11.1640774  51.9371845  26.7062136  10.5014904  51.5475687
  27.8049111  11.3118633  51.4167539  27.1600109  11.0881432  51.8028342
  30.4867031  10.3230859  52.6895462  30.0883314  10.4333129  51.9216282
  29.8718251  10.5312925  53.2722021  30.3365921  10.3704427  52.6626761
  29.0594933  -3.0694993  45.5569601  28.4659773  -2.7477997  45.0054168
  29.0970211  -3.9153898  45.3490707  28.9769322  -3.1470665  45.4452373
  31.9352750  -3.1115489  48.9871352  31.7066443  -3.0882787  48.1449710
  32.1950826  -3.9358022  49.1066362  31.9398938  -3.2299409  48.8796549
  24.9897512  -4.5738942  50.2825547  25.4654879  -4.2121863  49.6475728
  24.4886112  -3.9182475  50.5625690  24.9862871  -4.4244754  50.2302288
  38.2208874   4.8982826  46.0738552  38.6042480   5.6474182  46.3036649
  37.4252987   5.1448645  45.8150541  38.1602656   5.0452520  46.0696126
  27.0324166  -2.4297743  43.6498931  27.4123130  -2.4118113  42.8650046
  26.2916762  -1.9843754  43.5289779  26.9793003  -2.3615968  43.5162499
  32.3850308   0.5581950  52.8910717  32.8803973  -0.1595055  52.8514737
  31.5750084   0.2552748  52.7765204  32.3394201   0.4079597  52.8684443
  27.8308920   4.4079764  45.0407721  27.0220242   4.0846437  44.9941031
  28.3383828   3.7012986  44.9735970  27.7858586   4.2561080  45.0238016
  18.4599197   1.8351957  50.7655086  17.5944716   1.8237647  50.6537857
  18.5598013   1.6482180  51.6126225  18.3473364   1.8058018  50.8744030
  34.4502127   3.3085638  55.5787846  34.8757198   2.7860060  55.0258271
  34.0859047   3.9066475  55.0576468  34.4588730   3.3195865  55.4196855
  24.0856207  11.6049855  54.3385191  24.4002766  12.4186244  54.3462973
  24.4949620  11.2200074  55.0067350  24.1924305  11.6678558  54.4389283
  31.0380726   7.0219902  51.9089003  31.5091905   7.7360165  52.0778988
  31.3740905   6.4218652  52.4448872  31.1575841   7.0391366  52.0121379
  33.1257711   8.6321216  64.0881075  33.2354676   7.8429776  64.4437822
  33.4548608   8.5427152  63.2855413  33.1910117   8.5027068  64.0223466
  31.6754673   6.8137836  58.6716696  31.1275619   6.1895720  58.4036761
  32.1367701   7.0032108  57.9560775  31.6621882   6.7496887  58.5267127
  21.4269227   5.5522964  53.9863799  22.0314084   5.5118798  53.3577620
  21.2196539   6.3994116  54.0167855  21.4858124   5.6710966  53.8979916
  31.2412999   7.8188909  55.2026037  32.0611373   7.6751875  55.4642332
  30.9607077   8.4435108  55.7442475  31.3209742   7.8899261  55.3213976
  40.9126334  14.5629412  52.9221844  40.0564230  14.7237910  52.9730960
  40.9593988  13.6921476  52.9426905  40.7925446  14.4580214  52.9327910
  44.2220051  20.8315937  62.5282300  44.9286818  20.3367968  62.6569234
  44.4107986  21.2725019  61.7984958  44.3547956  20.8234288  62.4391345
  43.7578155  16.6221456  55.5653495  44.3034115  17.3006542  55.6247465
  43.6995032  16.4808917  54.7055077  43.8294070  16.7013457  55.4465556
  36.7152970  29.0288111  52.3536704  37.3590425  29.4701275  52.7432862
  37.0409225  28.2241537  52.2666962  36.8584798  28.9753306  52.3982181
  30.0717274  20.1330808  50.5774181  29.8367459  19.2998461  50.4706450
  30.2102915  20.4135474  49.7635382  30.0572937  20.0514312  50.4416536
  32.3707362  12.3016539  53.4758489  31.7512394  11.7109186  53.3068504
  32.2691225  12.8927974  52.8422812  32.2645037  12.3020621  53.3563479
  39.4675258  14.0416081  47.8090952  40.1655422  14.2204208  48.3012415
  39.7827590  13.5186420  47.1861341  39.6170595  13.9909853  47.7892962
  32.0976495  15.8468821  55.7202058  31.9735192  16.4331266  56.3551877
  32.7494779  15.3529016  56.0214333  32.1750144  15.8607625  55.8587987
  39.6563193  20.4286526  47.7970744  40.0956828  19.8203626  48.2425516
  39.5067856  20.0493899  47.0256209  39.6984659  20.2824997  47.7489911
  37.1234836  19.0230538  54.9989569  37.7683838  18.5302981  54.6800518
  37.3636613  19.1655324  55.8255647  37.2545421  18.9707980  55.0739102
  39.6620927  21.8685443  54.6496462  39.9444170  21.0736849  54.4283218
  40.3907088  22.3466031  54.6701523  39.8110491  21.8220040  54.6199477
  37.6402121   9.4108477  51.8912227  37.3105451   9.8619621  51.2215926
  36.9647123   9.3324641  52.4385233  37.4912557   9.4659613  51.8735450
  44.8478529   5.3994000  50.1361837  44.5331970   6.0897479  50.5682260
  44.3305471   5.3438783  49.4347338  44.7242999   5.4928889  50.0958787
  49.6439016  20.9744806  51.6232292  48.8136719  21.1855449  51.7865709
  49.5948268  20.1481860  51.3474576  49.5145751  20.8834412  51.6069658
  36.0790570  19.2961718  45.0506716  35.4947786  19.8011749  45.4572580
  35.6760666  19.0704105  44.3103308  35.9329874  19.3369966  45.0011741
  31.6334599  25.0116479  51.8530388  31.1502177  25.7366969  51.8289971
  32.4457917  25.3092609  51.9640545  31.6825347  25.1618833  51.8657667
  37.7048753  23.8048660  54.4580202  37.1875695  23.4456075  53.8541510
  38.4023144  23.2810834  54.4686268  37.7314334  23.6746348  54.3710461
  41.3612345  24.2543474  60.4196375  41.4495691  24.0669614  61.2674585
  41.7902058  23.6080903  60.0201222  41.4374447  24.1306482  60.4868126
  38.9282805  23.5374634  59.4014037  38.3653640  23.1247244  59.9253698
  39.6903828  23.4627540  59.8207180  38.9577254  23.4652034  59.5407038
  40.5367785  15.5427370  43.5275637  40.7763789  15.7505354  42.7150980
  40.8583626  14.7384879  43.6364581  40.6204943  15.4541471  43.4236190
  35.8458075   7.4720766  47.3735174  36.6004043   7.8399083  47.1352225
  35.6685610   7.8460320  48.1414354  35.9312554   7.5818954  47.4520063
  34.4878796  25.5272655  52.0050667  35.1899376  25.0124644  52.0623424
  34.4076279  25.8546806  52.8097542  34.5802557  25.4986881  52.1323460
  49.1392974  13.6215206  55.4182714  48.3021395  13.6917393  55.6530308
  49.1081205  13.6239701  54.5457016  49.0111256  13.6325433  55.3242262
  35.5357703  15.7648242  61.1331082  35.7078207  15.6554137  61.9816364
  36.0727060  16.4102647  60.8962275  35.6402707  15.8440244  61.2236179
  34.2015140   9.8791085  44.0713287  34.0190713  10.0962966  43.2454280
  35.0640753   9.9930098  44.1271902  34.3019729   9.9280983  43.9567775
  33.8129572  21.7179007  51.5136275  34.6518471  21.9501940  51.5610037
  33.8441341  20.8483318  51.4443311  33.9411289  21.6235953  51.5100920
  34.4382275  22.1379882  55.8149581  34.9780500  21.9951013  56.4852953
  33.7552221  22.5376633  56.1833607  34.4174429  22.1759553  55.9684003
  39.8814859   6.8817496  47.1062311  40.6101019   6.7033450  46.6600468
  39.9709752   7.7235575  47.3169489  40.0021521   6.9801374  47.0715829
  43.8623160  17.8170883  51.0094605  44.6180675  18.2502397  51.0483514
  43.9685484  17.1675653  51.5829241  43.9893330  17.7848367  51.0992631
  46.9003331  21.6444160  51.7597008  46.4638563  21.6480903  52.5155980
  46.5666246  22.3249659  51.3276586  46.7865951  21.7456616  51.8077841
  41.4732404  23.6852493  63.0840159  42.2572821  23.7983341  63.4495901
  41.2728999  22.8593630  63.2798844  41.5598430  23.5799212  63.1674545
  29.8419420  18.3580173  55.9684002  29.5757835  17.5419290  56.1274993
  29.8557984  18.4033329  55.0979518  29.8044142  18.2437078  55.8637484
  46.8200814   8.6857988  54.0026436  47.4626722   8.7556093  54.5888351
  47.0723834   8.0187211  53.5005978  46.9522946   8.5984337  54.0153715
  33.7477167  13.1565257  42.5835761  33.0335344  12.8703437  42.9958193
  34.2321136  13.4961883  43.2242148  33.7136530  13.1646907  42.7391395
  34.5918026  11.8958551  58.6151010  33.8989823  11.4255531  58.8611742
  35.2078354  11.6696856  59.1892717  34.5802556  11.7925683  58.7360163
  41.6302798  25.5962595  56.7306614  40.8318043  25.3562095  56.9880483
  42.0788809  25.6476988  57.4773662  41.5777409  25.5684986  56.8791538
  50.0347677  18.3625080  50.6516645  50.6964111  17.8015748  50.5512554
  49.3939089  17.8677111  50.9769337  50.0376545  18.2061489  50.6848986
  30.2512834  19.1438952  53.2495747  30.0688407  19.1185838  52.3968039
  30.9862502  19.6137890  53.2884655  30.3326897  19.2100315  53.1293665
  46.3212508  19.3790462  50.3928634  46.5568097  19.5235661  49.5655485
  46.4702071  20.1432870  50.7860148  46.3778311  19.5129517  50.3292238
  33.3158585  15.8623955  59.7577855  34.0398558  15.8476986  60.2442750
  33.4174722  16.5719311  59.2599824  33.4376794  15.9648658  59.7556642
  40.6903535  19.3423040  64.6226802  39.8976515  19.6566552  64.8079422
  40.8052462  19.5574508  63.7847587  40.5898945  19.4206877  64.5265137
  43.3634854  16.0657031  48.9121818  43.4581708  16.8046325  49.3661444
  42.7393697  15.6374507  49.3456383  43.2843884  16.1118352  49.0429966
  41.6187327  19.2443244  59.5612099  42.1926189  18.6070488  59.7160663
  41.5402131  19.2447326  58.6921757  41.6920562  19.1508355  59.4558510
  30.2183744  16.0232453  53.3994813  30.7957246  15.8868904  54.0387059
  29.5197806  15.5668237  53.6540398  30.2004765  15.9354719  53.5317103
  36.9751046  17.6766509  51.6133297  36.7170290  16.8438244  51.5864596
  37.0299529  17.9024122  50.7725797  36.9450824  17.5864280  51.4853433
  42.0552096   9.7794959  51.7137389  41.3508423   9.2904145  51.8721308
  42.1037071   9.7917434  50.8425834  41.9582148   9.7084607  51.6076729
  35.9485758  15.2304271  52.0998191  35.3735349  15.3896440  52.7362152
  35.5721434  14.5939680  51.6366642  35.8088571  15.1602084  52.1252750
  39.6159047  13.7027621  56.9590570  39.2273480  13.2781838  56.3042761
  38.9513745  13.9509770  57.4667596  39.4605975  13.6766342  56.9378438
  49.2582316  13.4602625  49.7338400  49.0018881  12.6482567  49.5436283
  50.1011630  13.4680192  49.5068587  49.3448341  13.3414623  49.6723217
  25.6942577  14.8744346  50.1142632  25.7802829  14.4976214  50.8956162
  26.3218375  14.5004792  49.6362590  25.7999128  14.7629828  50.1588109
  43.4385408   7.4002249  54.4714554  43.8195920   6.7180420  54.8582428
  42.6348693   7.1111851  54.2890218  43.3761870   7.2569298  54.5018610
  40.7197985  17.9326225  45.1567377  41.5338624  18.2241118  45.0450148
  40.6557126  17.2786087  44.5825670  40.8300724  17.8791420  45.0556214
  46.9407475  20.6152221  59.5696952  46.7046113  19.7840286  59.4509013
  47.5850704  20.5637828  60.1551797  47.0002146  20.4849909  59.6382846
  36.5905893  21.4047743  50.2839689  37.2279840  21.1659490  50.8291482
  37.0160965  21.6084901  49.5492849  36.7482060  21.3998753  50.2556846
  31.2818536  23.6436079  54.1673993  31.3222681  23.9150930  53.3393772
  31.8413060  24.1677987  54.5831780  31.3701882  23.7611834  54.1065881
  37.2308708  16.6250032  44.6214578  37.6153861  16.4057739  45.3731123
  36.9820329  17.4512978  44.7515654  37.2510781  16.7148179  44.7515655
  37.3977249   9.9056448  64.3377162  37.0830690  10.6756010  64.0746725
  37.0767181   9.3426704  63.7529389  37.3036168   9.9366716  64.2118512
  47.9643896  20.3996670  55.6325247  47.6589713  21.1324727  55.9938562
  47.2450112  19.9934600  55.3518033  47.8131238  20.4478403  55.6438384
  38.9727365  21.8820165  51.9633475  39.0466374  21.7195337  52.8175325
  39.7896872  22.0710355  51.7193957  39.1043724  21.8856908  52.0531501
  53.6645688  17.0389671  54.9593591  53.5970188  17.0585630  54.0896178
  53.6501350  17.8819998  55.1849262  53.6524444  17.1663405  54.8646068
  32.7333122  22.2278028  48.9927919  31.9071240  22.4739765  48.8662197
  32.7945113  22.1490109  49.8589977  32.6207289  22.2522977  49.1016863
  34.9509146   8.2946969  49.9523359  34.0831571   8.3669569  50.0180968
  35.2384350   9.0969048  50.1411334  34.8648894   8.4241116  49.9898125
  44.0742034   8.4424828  58.2834680  44.8195627   8.2534639  57.8698106
  43.6579339   8.9683066  57.7248537  44.1227009   8.4926974  58.1399254
  51.4504305  15.8134057  53.2340185  52.0012227  15.1802126  53.4737278
  51.4348421  16.3449450  53.9255690  51.5289502  15.7983005  53.3719044
  38.1026696  19.6472654  57.7800079  37.6038390  20.3588422  57.8584967
  38.9126920  19.9673321  57.7418241  38.1482803  19.7999503  57.7856647
  34.3654814  18.9095607  52.0262800  34.0768062  18.2833078  52.5608527
  35.2338162  18.8515895  52.0927480  34.4515066  18.8083151  52.1153754
  45.1532712  14.0530391  52.3444782  44.8097477  13.3320726  52.6952031
  45.2525754  13.8444242  51.5023140  45.1174754  13.9154594  52.2716462
  45.6145741  20.5156095  47.8868770  46.1803773  21.1749305  47.8027313
  44.9673644  20.8605793  48.3585172  45.6024497  20.6638036  47.9441526
  37.0293754  12.5053699  63.0762377  36.2193530  12.8111478  62.9652219
  37.5068441  13.2259281  63.1914961  36.9797233  12.6568300  63.0769448
  35.8885314  21.7199420  53.3245280  35.3666067  21.8599711  54.0097145
  36.2759334  20.9610084  53.5147398  35.8689015  21.6284943  53.4546357
  32.8776498  11.7705228  47.3940235  32.5901294  11.4006499  46.6572182
  33.5646966  12.2400084  47.1323940  32.9365395  11.7852198  47.2455311
  37.3151639  18.7503439  48.7226771  37.1194422  19.3578173  48.1287074
  37.5385985  18.0571383  48.2418445  37.3186280  18.7380964  48.5642852
  35.7130169  15.6358177  48.8407640  36.4352821  15.7999335  48.3811446
  35.2338162  16.3567841  48.7346979  35.7493900  15.7656406  48.7573254
  43.6723677  11.9721975  54.2204325  42.8334778  11.9983254  53.9842588
  43.7428044  12.6192711  54.8009671  43.5592070  12.0718101  54.2713441
  33.3637786  18.0416249  57.9461779  33.8758883  18.3200502  57.2970539
  33.0774129  18.7805543  58.3124593  33.3972649  18.1918603  57.9051658
  42.1192955   8.8707352  48.9531940  42.8219308   8.6715101  48.4751899
  41.8537144   8.0983295  49.2600784  42.1839588   8.7270318  48.9277382
  47.5481201  17.1789962  51.5065566  47.4615175  17.3345388  52.3600345
  47.0931681  17.8228038  51.1324971  47.4684457  17.2965717  51.5772673
  30.4504692  12.5486441  48.2425516  30.5520829  13.3512602  48.5706491
  31.2460579  12.3473777  47.9448597  30.5832598  12.6372340  48.2460871
  36.8821511  10.1342638  58.0062821  36.6904709  10.1497772  58.8562245
  37.7320107  10.3306312  57.9829476  36.9797233  10.1656989  58.1286116
  31.2668424  12.6633619  55.9846638  31.1253916  11.8117560  56.1091146
  31.5508988  12.7062280  55.1608844  31.2876271  12.5433369  55.8814262
  41.4207017  14.5000709  50.1291126  41.1741731  14.4196460  50.9627915
  41.7492140  13.7154177  49.9353653  41.4328260  14.3726975  50.2238649
  45.3155066  21.2084069  53.9177907  45.1769425  21.9065114  54.4226649
  44.5355064  21.0532725  53.5614089  45.1798293  21.2884235  53.9404181
  43.6533151  17.5080444  60.1700289  43.6481189  16.6360260  60.1742715
  44.3594145  17.7068613  59.6969744  43.7578155  17.4084318  60.1007324
  37.3804044  17.2357428  59.5414109  37.5247420  17.8158636  58.9057219
  37.7279693  17.6133724  60.2463964  37.4531505  17.3778132  59.5513104
  39.5523961  16.4347596  57.3239240  38.8047276  16.6278611  56.9187519
  39.7065487  15.6092816  57.0863362  39.4646389  16.3412708  57.2284646
  36.4531799  25.4260200  56.4075136  36.6021363  24.8663115  55.7548540
  37.2331801  25.5052201  56.7907655  36.5905893  25.3545765  56.3672085
  38.9785100  25.5974842  57.6859627  38.9028771  24.9283653  58.2410415
  38.9074959  26.2992631  58.2000293  38.9565707  25.6019750  57.8436475
  39.7925739  10.3298147  58.2134644  40.2498353  11.0622121  58.3407436
  39.8682067   9.9064612  58.9721900  39.8716708  10.3755385  58.3435721
  32.0358730  10.5763967  59.3024088  31.5000919   9.9644325  59.6184855
  32.0976494  11.1512103  59.9557755  31.9654362  10.5710894  59.4459515
  44.2653064   3.5088022  52.0828487  44.3836633   3.9664485  51.3495790
  44.0915240   2.7033283  51.7964705  44.2572235   3.4581794  51.9329421
  37.6708116  12.3200251  55.0576468  36.8804191  12.1391711  55.3793804
  38.0668739  11.5427203  55.0406763  37.6124993  12.1787712  55.1029017
  43.0551803  19.9542681  52.7835914  42.3796805  19.7227913  53.2849301
  43.0644179  19.3463864  52.1578019  42.9570307  19.8301606  52.7652066
  40.1845947  14.7960510  59.5399967  40.1205088  15.6570466  59.4120104
  40.3243134  14.4792503  58.7395518  40.1961417  14.8760677  59.4028180
  38.8665041  17.4892649  53.6816170  38.4427290  17.6897148  52.9455188
  38.6909896  16.6421497  53.7940470  38.7775921  17.3941431  53.5889860
  38.3676734  29.0043162  56.1437627  38.8572664  28.3053951  55.9613292
  37.7960966  28.7067032  56.7313685  38.3561264  28.8569386  56.2038668
  34.1547486  17.9844701  49.1144143  34.3112105  17.9191504  49.9700135
  34.4948079  18.7593253  48.9022822  34.2280720  18.0893899  49.2098737
  40.6926630  17.3602584  47.9837506  41.2342176  16.8572965  48.4476126
  41.0073189  17.3067779  47.1726991  40.8191027  17.2782005  47.9321318
  44.5643738  21.5705232  65.0964418  45.3778603  21.2990380  65.2569551
  44.4038704  21.2712772  64.2924614  44.6613686  21.4860158  65.0009824
  41.8415900  12.2538889  58.0359806  42.0557869  11.6149803  57.4823160
  41.2249799  12.6984713  57.6067668  41.7821229  12.2249032  57.8910237
  30.7281747  15.1679651  49.4304910  31.1080712  15.5864196  48.7665177
  30.1537112  15.7493107  49.7373753  30.6993072  15.3157510  49.3781651
  44.0054988  13.8627954  58.9743113  43.1931669  13.5553844  59.0556286
  44.4644922  13.3826954  59.5385826  43.9535372  13.7464446  59.0697708
  43.4160242  21.7407626  49.4220058  43.0574897  21.9122269  50.1984090
  42.9298953  22.2020832  48.8648056  43.2918939  21.8346597  49.4545327
  41.2330628   5.3638824  53.0247149  40.3624186   5.3377546  52.9780459
  41.4870970   5.1916017  52.2072995  41.1424188   5.3348968  52.8967286
  38.2048608  17.4206791  41.9620292  38.4941132  18.1971674  42.2363866
  38.2920407  16.9095523  42.6634791  38.2602864  17.4598710  42.1062790
  41.1008495  15.2688025  63.7571816  41.5708126  15.8930142  64.1439690
  41.1470375  14.6005001  64.3165030  41.1776371  15.2622706  63.8971887
  38.2579769   7.3745053  54.4820619  37.7418257   6.6825244  54.6072198
  37.6973698   8.0415830  54.4283218  38.0986282   7.3708311  54.4926685
  40.3272002   7.9138013  56.3113472  39.9403755   7.9387044  57.0927002
  39.8404939   7.3479692  55.8587989  40.1984511   7.8333764  56.3601376
  44.5764982  22.6311522  60.3687259  45.2144702  22.1371718  60.0349715
  43.9339073  22.5588922  59.7839485  44.5759208  22.5470530  60.2329614
  46.3021982  14.4800668  54.9353174  45.8749590  14.3927016  54.1801274
  45.6648035  14.5878443  55.5208018  46.1451589  14.4833328  54.9098616
  39.9929144   4.8004998  58.6023732  40.6222262   5.3365298  58.3244802
  40.1615007   4.7082357  59.4537298  40.1106938   4.8666361  58.6872260
  39.7943059   9.5876193  60.8750144  40.6216488   9.3161342  60.9308758
  39.8150905  10.3837035  61.2313962  39.9195909   9.6655947  60.9365326
  44.6319238  23.3231330  57.0092615  45.4211616  22.9720395  57.1294697
  44.8062836  24.1367719  56.7469249  44.7739520  23.3917187  56.9880483
  34.3712549  16.7340056  54.0620404  33.5300555  16.6343930  54.2699298
  34.5802557  17.5035536  54.4134725  34.2777241  16.8332099  54.1447719
  31.8488116  14.3559593  51.8905155  31.4544813  14.4302605  51.1155264
  31.2928232  14.7417539  52.4413517  31.7090928  14.4241367  51.8572815
  43.4853062   7.3340887  51.5709034  43.6902656   7.2663195  52.4166031
  43.1579486   8.1399708  51.5030211  43.4668310   7.4426827  51.6868689
  38.1829213  14.6621455  53.3118002  37.8792351  14.1077443  53.9128409
  37.4808634  14.8413665  52.8246036  38.0345423  14.6066237  53.3287707
  37.2395311  11.9721975  47.8762704  37.5155045  11.2540887  47.4640271
  37.8393980  12.5706895  47.6683810  37.3688575  11.9542346  47.7843465
  36.2447565  21.8771176  58.0190099  36.1367919  21.8873238  58.8852158
  36.4543346  22.7025956  57.8295053  36.2597676  22.0012251  58.1194191
  46.7386750   7.8872651  51.0511799  46.1261064   8.3743053  51.4365531
  46.8350925   7.2116142  51.5949450  46.6624648   7.8590960  51.1890657
  40.7405831   9.6435492  46.1509299  41.1949578   9.8146053  46.8757143
  41.2145877   9.0303603  45.7507074  40.8774151   9.5786378  46.1983060
  34.2621357  19.1283818  55.4812037  33.6709290  19.7693316  55.4515052
  35.0242380  19.5521435  55.4543337  34.2869617  19.2859657  55.4727184
  34.6581979  10.2885816  56.1480055  35.1183461  10.3624745  56.8855178
  34.7038086  11.0867070  55.7979876  34.7332535  10.4179963  56.2052811
  36.3065329  10.9552511  60.7152082  35.9150894  10.3085858  61.1507860
  36.4751192  11.5463946  61.3346337  36.2736239  10.9466779  60.8714788
  50.3811778  18.9589588  56.4789315  50.4394902  19.4076237  57.2249292
  49.7478246  19.3688401  56.0419395  50.2963073  19.0863323  56.5241864
  44.0210873  24.5793130  52.9144062  43.8230561  25.0683944  52.2200273
  43.3998584  24.7834371  53.4928195  43.8998437  24.6809668  52.8967285
  38.0818851  16.3478027  47.2554306  38.8260896  16.7352303  47.4937256
  38.2279547  15.5035452  47.4194794  38.2129436  16.2808499  47.3148276
  39.9998427   8.1428286  52.2886167  39.1534472   8.3151093  52.1627517
  39.9969559   7.3377629  52.6251996  39.8745576   8.0489314  52.3197294
  41.0696727  11.9203500  53.1548225  40.5956681  11.3945262  53.6653536
  41.4414863  11.3732973  52.5863087  41.0546616  11.7619497  53.1463372
  31.4469757  13.9175007  58.5231771  32.3095370  13.8170716  58.4369101
  31.1161540  13.3369716  57.9617343  31.5254953  13.8166633  58.4277177
  47.3333458  16.9805876  54.5655006  47.0931680  16.1412291  54.5697432
  47.8125465  17.0606042  55.2895779  47.3685641  16.8687275  54.6729808
  42.9980227  12.8140055  46.2173979  42.4703245  12.8968799  45.5279688
  43.4575935  13.5557926  46.2138624  42.9882077  12.9360717  46.1148674
  49.3338645  13.7607333  52.5184265  49.0948415  13.7203167  51.6805049
  49.4972546  14.6078485  52.6449986  49.3228948  13.8799418  52.4137747
  45.9384675  18.1457282  58.4489310  46.6618874  17.6929809  58.2700330
  45.6734637  18.4261948  57.6661638  46.0065948  18.1208251  58.3068025
  34.8071543  12.7417456  55.1842189  34.1824613  12.7535848  54.5768142
  34.4717138  13.2177631  55.8333429  34.6657035  12.8135973  55.1898758
  34.9913292  11.0842574  41.2414874  34.6426096  11.7362299  41.7046423
  34.5109738  11.0699687  40.5138745  34.8683536  11.1785628  41.2025965
  31.5197219  20.8017916  56.6245953  30.9897143  20.1110355  56.6740928
  31.7922312  20.7928101  55.7958662  31.4821941  20.6985048  56.5093369
  41.7203464  18.2441160  56.5984325  41.1060457  17.6999211  56.8932960
  42.2370749  17.7305397  56.1190141  41.7059127  18.0877569  56.5708553
  40.9599761  19.3145430  54.3328624  40.5327369  18.6895149  53.8994059
  40.9524706  19.0320352  55.1587631  40.8958903  19.1798211  54.3908451
  34.0762288  14.3510603  57.4017058  34.2355775  13.5953928  57.8068779
  33.8955182  14.9001543  58.0557795  34.0727647  14.3204417  57.5579764
  42.0182591   6.5171839  57.9567847  41.5223153   6.7135513  57.2659414
  42.7751653   6.9164507  57.7856649  42.0569416   6.6049573  57.8287984
  39.2885471  10.1914185  54.5471158  39.3127958   9.6574297  53.8583938
  39.5396945   9.6831494  55.2096748  39.3295390  10.0375089  54.5435802
  26.7993061  17.4745680  53.9814302  26.6936510  17.4292524  53.1166386
  26.0493281  17.8199460  54.2628587  26.6728664  17.5186588  53.8951631
  35.5686793   8.9185003  53.9276902  35.6085165   9.4194210  54.6411609
  34.7436458   9.0095397  53.6582825  35.4526319   9.0066819  53.9927440
  37.7516406  18.4845743  62.0297196  36.9012037  18.6217457  62.1654841
  37.9144534  17.7509521  62.4744898  37.6500270  18.3959844  62.1152796
  36.9901157  15.4345513  56.2250801  36.1593086  15.6019331  56.0186049
  36.9352674  15.0581464  57.0099686  36.8590572  15.4035244  56.3099329
  34.7984940   8.9254406  61.8607212  35.4237643   8.3816539  62.1336644
  34.3435420   8.4449323  61.2915002  34.8233201   8.7743887  61.8168805
  35.3637200  13.7101105  46.7540919  35.5040162  14.2073569  47.4569560
  35.8619733  13.0087399  46.8955132  35.4578281  13.6803083  46.8792498
  35.3937423  14.5768216  44.0833495  36.0282502  15.1728641  44.0182957
  35.4763034  14.2771673  44.8979366  35.4993974  14.6209124  44.1936582
  48.3719989  17.1083693  56.9519860  48.9637829  17.7480944  56.9838058
  48.8078983  16.4106730  57.2411926  48.5238420  17.1002043  57.0000692
  36.9716406  10.5082191  44.0578937  37.2932247  10.0285273  43.4038200
  37.2343349  11.3181837  43.8669749  37.0582431  10.5572089  43.9334430
  40.2013378  21.5301065  57.5777754  39.6938470  22.0836912  58.0218384
  39.9040025  21.5909355  56.7596528  40.0818263  21.6207377  57.5226210
  42.3675561   9.8954385  56.4202417  42.7930632   9.4426911  55.8085943
  41.7532554   9.3414456  56.6967204  42.3404206   9.7468361  56.3707442
  31.8990411  16.7736056  47.3523041  32.4082640  17.3700564  47.7334347
  32.3724683  16.5062030  46.6699461  32.0433786  16.8221872  47.3077564
  40.8069784   6.3669485  49.8292994  40.1638102   6.2167131  50.3978132
  40.4669191   6.1211830  49.0642098  40.6614861   6.3081607  49.7996009
  45.3969130  14.3228912  49.2523002  44.7260320  14.8658614  49.1236068
  46.0908880  14.7923767  49.0104697  45.3997998  14.4727183  49.1978530
  39.4455864  26.4625624  54.4834760  39.2221518  25.7044453  54.8518787
  38.9565707  26.4923645  53.7615200  39.3399313  26.3547848  54.4311501
  45.5597257  10.7784795  52.1613375  45.9124868  10.3514518  52.8359174
  44.7012059  10.6935639  52.2914452  45.4846702  10.7029536  52.2808386
  34.2580942  13.4092315  50.2196222  33.5392932  13.8256447  50.4869085
  34.6293305  13.9746554  49.6687860  34.2072874  13.5541596  50.1779029
  43.5580523  14.0420164  56.1098218  43.5378451  13.8603459  56.9632996
  43.6059724  14.9132182  56.0857801  43.5615164  14.1436702  56.2321512
  41.5026853  20.6307356  62.0346694  41.4622708  19.9857033  61.4491850
  42.3150171  20.5743973  62.3472106  41.6170007  20.5266323  61.9943643
  41.4599615  25.8416167  52.6895462  41.0615898  25.9518437  51.9216282
  40.8450834  26.0498233  53.2722021  41.3098504  25.8889735  52.6626761
  40.0327517  12.4490315  45.5569601  39.4392356  12.7707311  45.0054168
  40.0702795  11.6031410  45.3490707  39.9501906  12.3714643  45.4452373
  46.9921318   5.9003207  53.0897688  46.4852182   5.1932347  53.0218865
  47.7888751   5.5696396  53.2198764  47.0348557   5.7476358  53.0996683
  42.9085333  12.4069819  48.9871352  42.6799026  12.4302521  48.1449710
  43.1683410  11.5827286  49.1066362  42.9131521  12.2885899  48.8796549
  37.1904562  14.2604292  58.5896452  36.6783465  13.6525475  58.9481483
  37.0184058  14.9760885  59.0570428  37.0894199  14.2767592  58.7112675
  32.0370277  12.7041868  61.2398814  31.8672867  13.3643242  60.6947020
  31.5936226  12.9148429  61.9611303  31.9469610  12.8327850  61.2660443
  35.9630096  10.9446366  50.2825547  36.4387462  11.3063445  49.6475728
  35.4618696  11.6002833  50.5625690  35.9595455  11.0940554  50.2302288
  41.0673632  12.1828537  61.0298707  41.6245062  11.9542346  60.3977173
  40.7434697  12.9434203  60.7533920  41.1020042  12.2612374  60.8955204
  28.9372341  15.6088733  56.4987303  28.3899061  14.9389379  56.6168172
  29.7264719  15.2418581  56.5630771  28.9724525  15.4553720  56.5256004
  38.7856749  15.2696190  61.9950714  39.5368076  15.5847867  62.3090269
  38.9779326  15.0675361  61.1684636  38.9248164  15.2863572  61.9194110
  38.0056749  13.0887565  43.6498931  38.3855714  13.1067195  42.8650046
  37.2649345  13.5341554  43.5289779  37.9525587  13.1569340  43.5162499
  45.6342040  11.3969757  49.2374510  45.6336266  11.2418413  50.0958786
  45.4298220  12.2432744  49.1815895  45.6041817  11.4990377  49.3562449
  27.6959311  14.8209541  53.6533326  27.5181072  14.3686150  54.3788242
  27.4078333  15.6235702  53.8371804  27.6272264  14.8732099  53.7876829
  43.3582892  16.0767258  52.8910717  43.8536557  15.3590253  52.8514737
  42.5482667  15.7738056  52.7765204  43.3126785  15.9264905  52.8684443
  29.4331780  17.3537265  50.7655086  28.5677300  17.3422955  50.6537857
  29.5330596  17.1667488  51.6126225  29.3205947  17.3243326  50.8744030
  45.4234711  18.8270946  55.5787846  45.8489782  18.3045368  55.0258271
  45.0591630  19.4251783  55.0576468  45.4321313  18.8381173  55.4196855
  35.0588790  27.1235163  54.3385191  35.3735349  27.9371552  54.3462973
  35.4682204  26.7385382  55.0067350  35.1656888  27.1863866  54.4389283
  42.0113310  22.5405210  51.9089003  42.4824488  23.2545473  52.0778988
  42.3473488  21.9403960  52.4448872  42.1308425  22.5576674  52.0121379
  44.0990295  24.1506524  64.0881075  44.2087260  23.3615084  64.4437822
  44.4281191  24.0612460  63.2855413  44.1642700  24.0212376  64.0223466
  38.9282805   7.3132681  58.8647098  39.0610711   6.5163674  59.1928073
  39.3127958   7.8399084  59.4445373  39.0039134   7.2732597  58.9990601
  42.6487256  22.3323144  58.6716696  42.1008202  21.7081028  58.4036761
  43.1100285  22.5217416  57.9560775  42.6354466  22.2682194  58.5267127
  42.0015160   4.2363007  55.4628191  41.1961124   4.1260736  55.7796029
  41.8721896   4.3375463  54.6058057  41.8635293   4.2346677  55.3836231
  45.4581121  10.4008499  56.0567888  44.8744109  10.9017705  55.6445455
  45.7785415   9.8938055  55.4232211  45.4194296  10.4000334  55.9026395
  37.9975920   9.3149094  46.3326563  38.8191614   9.4847406  46.0908258
  37.5345571   9.4696355  45.6092860  38.0507082   9.3630827  46.1898207
  36.5871252   7.3091856  57.1124992  37.1315665   6.9682983  57.7029333
  36.6408187   8.1677317  57.2546276  36.6760371   7.3847115  57.2206865
  32.4001810  21.0708272  53.9863799  33.0046668  21.0304106  53.3577620
  32.1929123  21.9179424  54.0167855  32.4590708  21.1896274  53.8979916
  42.2145583  23.3374217  55.2026037  43.0343956  23.1937183  55.4642332
  41.9339660  23.9620416  55.7442475  42.2942326  23.4084569  55.3213976
  27.6353093  20.0542889  53.8562723  27.5377371  19.2439161  54.1652779
  28.4181962  20.0334683  53.4708991  27.7369229  19.9309980  53.8449586
  58.6859233  30.9939069  48.1668913  58.6553237  31.8483705  48.3387183
  59.2840582  30.6934361  48.7255057  58.7696391  31.0755565  48.2743715
  51.8858918  30.0814720  52.9221844  51.0296813  30.2423218  52.9730960
  51.9326572  29.2106784  52.9426905  51.7658029  29.9765522  52.9327910
  55.1952634  36.3501245  62.5282300  55.9019402  35.8553276  62.6569234
  55.3840570  36.7910327  61.7984958  55.3280540  36.3419596  62.4391345
  54.7310739  32.1406764  55.5653495  55.2766699  32.8191850  55.6247465
  54.6727615  31.9994224  54.7055077  54.8026653  32.2198765  55.4465556
  43.3439945  27.8201847  53.4758489  42.7244977  27.2294494  53.3068504
  43.2423809  28.4113282  52.8422812  43.2377621  27.8205929  53.3563479
  50.4407841  29.5601389  47.8090952  51.1388006  29.7389516  48.3012415
  50.7560174  29.0371728  47.1861341  50.5903178  29.5095161  47.7892962
  43.0709078  31.3654129  55.7202058  42.9467775  31.9516574  56.3551877
  43.7227363  30.8714324  56.0214333  43.1482728  31.3792933  55.8587987
  48.6134705  24.9293785  51.8912227  48.2838035  25.3804929  51.2215926
  47.9379706  24.8509949  52.4385233  48.4645141  24.9844921  51.8735450
  55.8211112  20.9179308  50.1361837  55.5064553  21.6082787  50.5682260
  55.3038054  20.8624090  49.4347338  55.6975583  21.0114197  50.0958787
  60.6171599  36.4930114  51.6232292  59.7869302  36.7040757  51.7865709
  60.5680851  35.6667168  51.3474576  60.4878335  36.4019720  51.6069658
  60.1125557  29.1400514  55.4182714  59.2753979  29.2102701  55.6530308
  60.0813788  29.1425009  54.5457016  59.9843840  29.1510741  55.3242262
  46.5090286  31.2833550  61.1331082  46.6810790  31.1739445  61.9816364
  47.0459644  31.9287955  60.8962275  46.6135290  31.3625552  61.2236179
  57.8735914  37.1629468  51.7597008  57.4371146  37.1666210  52.5155980
  57.5398830  37.8434967  51.3276586  57.7598534  37.2641924  51.8077841
  52.4464988  39.2037801  63.0840159  53.2305405  39.3168649  63.4495901
  52.2461583  38.3778938  63.2798844  52.5331013  39.0984520  63.1674545
  57.7933397  24.2043296  54.0026436  58.4359306  24.2741400  54.5888351
  58.0456418  23.5372519  53.5005978  57.9255529  24.1169645  54.0153715
  45.5650610  27.4143859  58.6151010  44.8722407  26.9440839  58.8611742
  46.1810937  27.1882164  59.1892717  45.5535140  27.3110991  58.7360163
  61.0080261  33.8810388  50.6516645  61.6696695  33.3201056  50.5512554
  60.3671673  33.3862419  50.9769337  61.0109128  33.7246797  50.6848986
  57.2945091  34.8975770  50.3928634  57.5300680  35.0420969  49.5655485
  57.4434655  35.6618178  50.7860148  57.3510895  35.0314825  50.3292238
  44.2891169  31.3809263  59.7577855  45.0131141  31.3662294  60.2442750
  44.3907305  32.0904618  59.2599824  44.4109378  31.4833966  59.7556642
  59.1235548  33.7377436  48.2298238  59.4543765  34.2705076  47.6238333
  59.6968636  33.7916324  48.8860189  59.2569227  33.8247005  48.2376020
  51.6636118  34.8608348  64.6226802  50.8709099  35.1751860  64.8079422
  51.7785045  35.0759816  63.7847587  51.5631529  34.9392185  64.5265137
  52.5919911  34.7628552  59.5612099  53.1658773  34.1255796  59.7160663
  52.5134715  34.7632634  58.6921757  52.6653146  34.6693663  59.4558510
  53.0284680  25.2980267  51.7137389  52.3241006  24.8089453  51.8721308
  53.0769654  25.3102742  50.8425834  52.9314731  25.2269915  51.6076729
  50.5891630  29.2212928  56.9590570  50.2006063  28.7967146  56.3042761
  49.9246329  29.4695078  57.4667596  50.4338558  29.1951650  56.9378438
  60.2314900  28.9787933  49.7338400  59.9751464  28.1667875  49.5436283
  61.0744213  28.9865500  49.5068587  60.3180925  28.8599931  49.6723217
  54.4117992  22.9187557  54.4714554  54.7928504  22.2365728  54.8582428
  53.6081276  22.6297159  54.2890218  54.3494454  22.7754606  54.5018610
  57.9140059  36.1337529  59.5696952  57.6778696  35.3025594  59.4509013
  58.5583288  36.0823136  60.1551797  57.9734730  36.0035217  59.6382846
  48.3709832  25.4241755  64.3377162  48.0563273  26.1941318  64.0746725
  48.0499765  24.8612011  63.7529389  48.2768751  25.4552024  64.2118512
  58.9376479  35.9181978  55.6325247  58.6322296  36.6510035  55.9938562
  58.2182695  35.5119907  55.3518033  58.7863822  35.9663711  55.6438384
  64.6378272  32.5574979  54.9593591  64.5702772  32.5770938  54.0896178
  64.6233934  33.4005306  55.1849262  64.6257028  32.6848713  54.8646068
  45.9241729  23.8132277  49.9523359  45.0564155  23.8854876  50.0180968
  46.2116934  24.6154356  50.1411334  45.8381477  23.9426424  49.9898125
  55.0474618  23.9610136  58.2834680  55.7928210  23.7719947  57.8698106
  54.6311923  24.4868374  57.7248537  55.0959592  24.0112282  58.1399254
  62.4236889  31.3319365  53.2340185  62.9744810  30.6987434  53.4737278
  62.4081004  31.8634758  53.9255690  62.5022085  31.3168313  53.3719044
  49.0759280  35.1657962  57.7800079  48.5770973  35.8773730  57.8584967
  49.8859504  35.4858629  57.7418241  49.1215386  35.3184811  57.7856647
  56.1265295  29.5715698  52.3444782  55.7830061  28.8506034  52.6952031
  56.2258338  29.3629550  51.5023140  56.0907338  29.4339902  52.2716462
  48.0026338  28.0239007  63.0762377  47.1926113  28.3296786  62.9652219
  48.4801024  28.7444589  63.1914961  47.9529817  28.1753608  63.0769448
  54.6456261  27.4907283  54.2204325  53.8067361  27.5168562  53.9842588
  54.7160628  28.1378019  54.8009671  54.5324654  27.5903409  54.2713441
  44.3370370  33.5601557  57.9461779  44.8491467  33.8385810  57.2970539
  44.0506712  34.2990851  58.3124593  44.3705233  33.7103911  57.9051658
  53.0925539  24.3892660  48.9531940  53.7951892  24.1900409  48.4751899
  52.8269728  23.6168603  49.2600784  53.1572171  24.2455626  48.9277382
  58.5213784  32.6975270  51.5065566  58.4347759  32.8530696  52.3600345
  58.0664264  33.3413346  51.1324971  58.4417041  32.8151025  51.5772673
  47.8554095  25.6527945  58.0062821  47.6637292  25.6683080  58.8562245
  48.7052691  25.8491620  57.9829476  47.9529817  25.6842297  58.1286116
  42.2401008  28.1818927  55.9846638  42.0986500  27.3302868  56.1091146
  42.5241571  28.2247588  55.1608844  42.2608854  28.0618677  55.8814262
  52.3939600  30.0186017  50.1291126  52.1474315  29.9381768  50.9627915
  52.7224724  29.2339485  49.9353653  52.4060844  29.8912282  50.2238649
  56.2887649  36.7269376  53.9177907  56.1502009  37.4250422  54.4226649
  55.5087647  36.5718033  53.5614089  56.1530876  36.8069543  53.9404181
  54.6265734  33.0265752  60.1700289  54.6213773  32.1545568  60.1742715
  55.3326728  33.2253921  59.6969744  54.7310738  32.9269626  60.1007324
  48.3536628  32.7542736  59.5414109  48.4980003  33.3343944  58.9057219
  48.7012276  33.1319032  60.2463964  48.4264089  32.8963440  59.5513104
  50.5256545  31.9532904  57.3239240  49.7779859  32.1463918  56.9187519
  50.6798070  31.1278124  57.0863362  50.4378973  31.8598015  57.2284646
  50.7658322  25.8483455  58.2134644  51.2230936  26.5807429  58.3407436
  50.8414651  25.4249920  58.9721900  50.8449292  25.8940693  58.3435721
  43.0091313  26.0949275  59.3024088  42.4733503  25.4829633  59.6184855
  43.0709078  26.6697411  59.9557755  42.9386946  26.0896202  59.4459515
  55.2385648  19.0273330  52.0828487  55.3569216  19.4849793  51.3495790
  55.0647824  18.2218591  51.7964705  55.2304819  18.9767102  51.9329421
  48.6440700  27.8385559  55.0576468  47.8536775  27.6577019  55.3793804
  49.0401323  27.0612511  55.0406763  48.5857576  27.6973020  55.1029017
  51.1578530  30.3145818  59.5399967  51.0937672  31.1755774  59.4120104
  51.2975718  29.9977811  58.7395518  51.1694000  30.3945984  59.4028180
  55.5376321  37.0890540  65.0964418  56.3511186  36.8175688  65.2569551
  55.3771288  36.7898080  64.2924614  55.6346270  37.0045466  65.0009824
  52.8148483  27.7724197  58.0359806  53.0290453  27.1335111  57.4823160
  52.1982382  28.2170021  57.6067668  52.7553812  27.7434340  57.8910237
  54.9787571  29.3813262  58.9743113  54.1664253  29.0739152  59.0556286
  55.4377506  28.9012262  59.5385826  54.9267956  29.2649754  59.0697708
  52.2063212  20.8824132  53.0247149  51.3356770  20.8562853  52.9780459
  52.4603553  20.7101325  52.2072995  52.1156772  20.8534276  52.8967286
  52.0741079  30.7873333  63.7571816  52.5440710  31.4115450  64.1439690
  52.1202959  30.1190309  64.3165030  52.1508955  30.7808014  63.8971887
  49.2312352  22.8930361  54.4820619  48.7150841  22.2010552  54.6072198
  48.6706281  23.5601138  54.4283218  49.0718866  22.8893618  54.4926685
  51.3004586  23.4323321  56.3113472  50.9136339  23.4572352  57.0927002
  50.8137523  22.8664999  55.8587989  51.1717095  23.3519072  56.3601376
  55.5497565  38.1496830  60.3687259  56.1877286  37.6557025  60.0349715
  54.9071657  38.0774230  59.7839485  55.5491792  38.0655838  60.2329614
  57.2754565  29.9985976  54.9353174  56.8482173  29.9112324  54.1801274
  56.6380618  30.1063751  55.5208018  57.1184173  30.0018636  54.9098616
  50.9661728  20.3190306  58.6023732  51.5954845  20.8550606  58.3244802
  51.1347590  20.2267665  59.4537298  51.0839522  20.3851669  58.6872260
  50.7675642  25.1061501  60.8750144  51.5949072  24.8346650  60.9308758
  50.7883488  25.9022343  61.2313962  50.8928492  25.1841255  60.9365326
  55.6051822  38.8416638  57.0092615  56.3944200  38.4905703  57.1294697
  55.7795420  39.6553027  56.7469249  55.7472103  38.9102495  56.9880483
  54.4585646  22.8526195  51.5709034  54.6635239  22.7848503  52.4166031
  54.1312070  23.6585016  51.5030211  54.4400894  22.9612135  51.6868689
  49.1561797  30.1806763  53.3118002  48.8524935  29.6262751  53.9128409
  48.4541218  30.3598973  52.8246036  49.0078007  30.1251545  53.3287707
  57.7119334  23.4057959  51.0511799  57.0993647  23.8928361  51.4365531
  57.8083509  22.7301450  51.5949450  57.6357231  23.3776268  51.1890657
  51.7138415  25.1620800  46.1509299  52.1682161  25.3331361  46.8757143
  52.1878460  24.5488911  45.7507074  51.8506735  25.0971685  46.1983060
  45.6314563  25.8071124  56.1480055  46.0916044  25.8810053  56.8855178
  45.6770670  26.6052378  55.7979876  45.7065118  25.9365271  56.2052811
  47.2797913  26.4737819  60.7152082  46.8883478  25.8271166  61.1507860
  47.4483775  27.0649254  61.3346337  47.2468823  26.4652087  60.8714788
  61.3544362  34.4774896  56.4789315  61.4127485  34.9261545  57.2249292
  60.7210829  34.8873709  56.0419395  61.2695657  34.6048630  56.5241864
  54.9943456  40.0978438  52.9144062  54.7963145  40.5869252  52.2200273
  54.3731167  40.3019679  53.4928195  54.8731021  40.1994976  52.8967285
  50.9731010  23.6613593  52.2886167  50.1267055  23.8336401  52.1627517
  50.9702143  22.8562937  52.6251996  50.8478160  23.5674622  52.3197294
  52.0429311  27.4388808  53.1548225  51.5689265  26.9130570  53.6653536
  52.4147446  26.8918281  52.5863087  52.0279199  27.2804804  53.1463372
  42.4202341  29.4360315  58.5231771  43.2827954  29.3356024  58.4369101
  42.0894124  28.8555024  57.9617343  42.4987537  29.3351941  58.4277177
  58.3066041  32.4991184  54.5655006  58.0664264  31.6597599  54.5697432
  58.7858048  32.5791350  55.2895779  58.3418225  32.3872583  54.6729808
  53.9712810  28.3325362  46.2173979  53.4435829  28.4154106  45.5279688
  54.4308518  29.0743234  46.2138624  53.9614661  28.4546025  46.1148674
  60.3071228  29.2792641  52.5184265  60.0680998  29.2388475  51.6805049
  60.4705129  30.1263793  52.6449986  60.2961532  29.3984726  52.4137747
  56.9117258  33.6642590  58.4489310  57.6351457  33.2115116  58.2700330
  56.6467221  33.9447256  57.6661638  56.9798532  33.6393559  58.3068025
  45.7804127  28.2602764  55.1842189  45.1557197  28.2721156  54.5768142
  45.4449722  28.7362939  55.8333429  45.6389618  28.3321281  55.1898758
  52.6936048  33.7626468  56.5984325  52.0793041  33.2184519  56.8932960
  53.2103333  33.2490705  56.1190141  52.6791710  33.6062877  56.5708553
  45.0494872  29.8695911  57.4017058  45.2088359  29.1139236  57.8068779
  44.8687766  30.4186851  58.0557795  45.0460231  29.8389725  57.5579764
  52.9915175  22.0357147  57.9567847  52.4955736  22.2320821  57.2659414
  53.7484237  22.4349815  57.7856649  53.0302000  22.1234881  57.8287984
  50.2618055  25.7099493  54.5471158  50.2860542  25.1759605  53.8583938
  50.5129528  25.2016802  55.2096748  50.3027973  25.5560397  54.5435802
  48.7248990  34.0031051  62.0297196  47.8744620  34.1402765  62.1654841
  48.8877117  33.2694829  62.4744898  48.6232853  33.9145152  62.1152796
  47.9633740  30.9530821  56.2250801  47.1325670  31.1204639  56.0186049
  47.9085257  30.5766772  57.0099686  47.8323155  30.9220552  56.3099329
  45.7717523  24.4439714  61.8607212  46.3970227  23.9001847  62.1336644
  45.3168003  23.9634631  61.2915002  45.7965784  24.2929195  61.8168805
  59.3452572  32.6269001  56.9519860  59.9370412  33.2666252  56.9838058
  59.7811567  31.9292038  57.2411926  59.4971003  32.6187351  57.0000692
  51.1745962  37.0486373  57.5777754  50.6671053  37.6022220  58.0218384
  50.8772608  37.1094663  56.7596528  51.0550847  37.1392684  57.5226210
  53.3408144  25.4139693  56.4202417  53.7663216  24.9612219  55.8085943
  52.7265137  24.8599764  56.6967204  53.3136790  25.2653669  56.3707442
  51.7802367  21.8854793  49.8292994  51.1370685  21.7352439  50.3978132
  51.4401774  21.6397138  49.0642098  51.6347444  21.8266915  49.7996009
  56.3701714  29.8414219  49.2523002  55.6992903  30.3843922  49.1236068
  57.0641464  30.3109075  49.0104697  56.3730581  29.9912491  49.1978530
  56.5329841  26.2970103  52.1613375  56.8857451  25.8699826  52.8359174
  55.6744643  26.2120947  52.2914452  56.4579286  26.2214844  52.2808386
  54.5313107  29.5605472  56.1098218  54.5111034  29.3788767  56.9632996
  54.5792308  30.4317490  56.0857801  54.5347748  29.6622010  56.2321512
  52.4759437  36.1492664  62.0346694  52.4355292  35.5042341  61.4491850
  53.2882755  36.0929281  62.3472106  52.5902590  36.0451631  61.9943643
  51.0060100  27.9675623  45.5569601  50.4124940  28.2892619  45.0054168
  51.0435378  27.1216718  45.3490707  50.9234490  27.8899951  45.4452373
  57.9653901  21.4188515  53.0897688  57.4584766  20.7117655  53.0218865
  58.7621335  21.0881704  53.2198764  58.0081140  21.2661666  53.0996683
  53.8817917  27.9255127  48.9871352  53.6531610  27.9487829  48.1449710
  54.1415993  27.1012594  49.1066362  53.8864105  27.8071207  48.8796549
  48.1637145  29.7789600  58.5896452  47.6516049  29.1710783  58.9481483
  47.9916642  30.4946193  59.0570428  48.0626782  29.7952900  58.7112675
  43.0102860  28.2227176  61.2398814  42.8405450  28.8828550  60.6947020
  42.5668810  28.4333737  61.9611303  42.9202194  28.3513158  61.2660443
  46.9362680  26.4631674  50.2825547  47.4120046  26.8248753  49.6475728
  46.4351279  27.1188141  50.5625690  46.9328038  26.6125862  50.2302288
  60.1674041  35.9353442  46.0738552  60.5507647  36.6844798  46.3036649
  59.3718154  36.1819261  45.8150541  60.1067823  36.0823135  46.0696126
  52.0406216  27.7013845  61.0298707  52.5977646  27.4727654  60.3977173
  51.7167281  28.4619511  60.7533920  52.0752626  27.7797682  60.8955204
  39.9104925  31.1274041  56.4987303  39.3631644  30.4574687  56.6168172
  40.6997303  30.7603889  56.5630771  39.9457108  30.9739028  56.5256004
  49.7589333  30.7881498  61.9950714  50.5100660  31.1033175  62.3090269
  49.9511910  30.5860669  61.1684636  49.8980747  30.8048880  61.9194110
  56.6074623  26.9155065  49.2374510  56.6068850  26.7603721  50.0958786
  56.4030803  27.7618052  49.1815895  56.5774401  27.0175685  49.3562449
  38.6691894  30.3394849  53.6533326  38.4913655  29.8871458  54.3788242
  38.3810916  31.1421010  53.8371804  38.6004847  30.3917407  53.7876829
  54.3315475  31.5952566  52.8910717  54.8269141  30.8775561  52.8514737
  53.5215251  31.2923364  52.7765204  54.2859369  31.4450213  52.8684443
  56.3967294  34.3456254  55.5787846  56.8222366  33.8230676  55.0258271
  56.0324214  34.9437091  55.0576468  56.4053897  34.3566481  55.4196855
  55.0722878  39.6691831  64.0881075  55.1819844  38.8800392  64.4437822
  55.4013775  39.5797768  63.2855413  55.1375284  39.5397684  64.0223466
  49.9015389  22.8317989  58.8647098  50.0343294  22.0348982  59.1928073
  50.2860541  23.3584392  59.4445373  49.9771717  22.7917905  58.9990601
  53.6219840  37.8508452  58.6716696  53.0740786  37.2266336  58.4036761
  54.0832869  38.0402724  57.9560775  53.6087049  37.7867502  58.5267127
  52.9747744  19.7548315  55.4628191  52.1693707  19.6446044  55.7796029
  52.8454479  19.8560770  54.6058057  52.8367877  19.7531985  55.3836231
  56.4313704  25.9193807  56.0567888  55.8476693  26.4203013  55.6445455
  56.7517998  25.4123363  55.4232211  56.3926880  25.9185642  55.9026395
  47.5603835  22.8277164  57.1124992  48.1048248  22.4868291  57.7029333
  47.6140771  23.6862625  57.2546276  47.6492955  22.9032423  57.2206865
  53.1878166  38.8559525  55.2026037  54.0076540  38.7122491  55.4642332
  52.9072244  39.4805724  55.7442475  53.2674910  38.9269877  55.3213976
  69.6591817  46.5124377  48.1668913  69.6285821  47.3669013  48.3387183
  70.2573165  46.2119669  48.7255057  69.7428974  46.5940873  48.2743715
  62.8591501  45.6000028  52.9221844  62.0029397  45.7608526  52.9730960
  62.9059155  44.7292092  52.9426905  62.7390613  45.4950829  52.9327910
  57.2432641  55.1362745  48.6859075  56.4915541  54.7578284  48.4575120
  57.6918653  55.1681179  47.9377885  57.1982308  55.0848353  48.5416577
  66.1685218  51.8686553  62.5282300  66.8751985  51.3738584  62.6569234
  66.3573153  52.3095635  61.7984958  66.3013124  51.8604904  62.4391345
  62.2361892  57.5102384  50.0555734  62.6201272  58.0789282  49.5160509
  62.1721034  56.7851894  49.5761550  62.2835320  57.4877847  49.9049596
  65.7043322  47.6592072  55.5653495  66.2499282  48.3377158  55.6247465
  65.6460199  47.5179532  54.7055077  65.7759237  47.7384073  55.4465556
  58.8217397  55.1481138  50.9521848  58.9227760  54.3381492  51.2618975
  58.2259143  55.0538084  50.3221526  58.7489936  55.0146166  50.9048086
  67.4808391  49.0876679  46.4387223  67.3647917  49.8384365  46.8679361
  68.2764278  48.8300632  46.6883310  67.5812981  49.1611526  46.5391315
  58.6618137  60.0658727  52.3536704  59.3055592  60.5071891  52.7432862
  58.9874392  59.2612153  52.2666962  58.8049966  60.0123922  52.3982181
  59.3638717  53.0770702  47.7256565  59.6854558  53.6175909  47.1217874
  60.0110813  52.5067473  47.8578855  59.5064772  53.0729877  47.6563601
  61.6028360  51.4657142  47.7970744  62.0421996  50.8574242  48.2425516
  61.4533023  51.0864515  47.0256209  61.6449826  51.3195613  47.7489911
  59.0700003  50.0601153  54.9989569  59.7149006  49.5673597  54.6800518
  59.3101780  50.2025940  55.8255647  59.2010588  50.0078596  55.0739102
  61.6086094  52.9056059  54.6496462  61.8909337  52.1107465  54.4283218
  62.3372255  53.3836647  54.6701523  61.7575658  52.8590656  54.6199477
  59.5867288  40.4479093  51.8912227  59.2570618  40.8990237  51.2215926
  58.9112290  40.3695257  52.4385233  59.4377725  40.5030228  51.8735450
  65.2037697  49.8184323  44.7501513  65.1188992  50.6745290  44.8951082
  65.6922080  49.5428647  45.4183672  65.2626594  49.9041644  44.8703594
  66.7943696  36.4364616  50.1361837  66.4797137  37.1268095  50.5682260
  66.2770638  36.3809398  49.4347338  66.6708166  36.5299505  50.0958787
  66.1356130  46.4369117  46.2499248  65.6067601  46.6528751  46.9096554
  66.6581150  47.1305256  46.1700217  66.1344583  46.5712254  46.3354847
  71.5904183  52.0115422  51.6232292  70.7601886  52.2226065  51.7865709
  71.5413435  51.1852476  51.3474576  71.4610918  51.9205028  51.6069658
  53.5799766  56.0487095  51.8530388  53.0967344  56.7737585  51.8289971
  54.3923085  56.3463225  51.9640545  53.6290514  56.1989449  51.8657667
  59.6513920  54.8419276  54.4580202  59.1340862  54.4826691  53.8541510
  60.3488312  54.3181450  54.4686268  59.6779501  54.7116964  54.3710461
  63.3077512  55.2914090  60.4196375  63.3960858  55.1040230  61.2674585
  63.7367225  54.6451519  60.0201222  63.3839615  55.1677097  60.4868126
  60.8747972  54.5745250  59.4014037  60.3118807  54.1617860  59.9253698
  61.6368996  54.4998155  59.8207180  60.9042421  54.5022650  59.5407038
  56.4343964  56.5643271  52.0050667  57.1364543  56.0495260  52.0623424
  56.3541447  56.8917422  52.8097542  56.5267724  56.5357497  52.1323460
  71.0858141  44.6585822  55.4182714  70.2486562  44.7288009  55.6530308
  71.0546372  44.6610317  54.5457016  70.9576423  44.6696049  55.3242262
  57.4822870  46.8018858  61.1331082  57.6543374  46.6924752  61.9816364
  58.0192228  47.4473263  60.8962275  57.5867874  46.8810860  61.2236179
  56.3847442  53.1750498  55.8149581  56.9245667  53.0321629  56.4852953
  55.7017388  53.5747249  56.1833607  56.3639596  53.2130169  55.9684003
  61.8280026  37.9188111  47.1062311  62.5566187  37.7404066  46.6600468
  61.9174919  38.7606191  47.3169489  61.9486688  38.0171990  47.0715829
  65.8088327  48.8541499  51.0094605  66.5645842  49.2873013  51.0483514
  65.9150651  48.2046268  51.5829241  65.9358497  48.8218983  51.0992631
  68.8468498  52.6814776  51.7597008  68.4103730  52.6851518  52.5155980
  68.5131413  53.3620275  51.3276586  68.7331118  52.7827232  51.8077841
  63.4197572  54.7223109  63.0840159  64.2037988  54.8353957  63.4495901
  63.2194166  53.8964246  63.2798844  63.5063597  54.6169828  63.1674545
  68.7665981  39.7228604  54.0026436  69.4091889  39.7926708  54.5888351
  69.0189002  39.0557827  53.5005978  68.8988113  39.6354952  54.0153715
  63.5767965  56.6333211  56.7306614  62.7783211  56.3932711  56.9880483
  64.0253976  56.6847604  57.4773662  63.5242576  56.6055602  56.8791538
  71.9812844  49.3995696  50.6516645  72.6429278  48.8386364  50.5512554
  71.3404256  48.9047727  50.9769337  71.9841712  49.2432105  50.6848986
  62.8689652  52.6965827  42.9597569  63.2840800  52.3650851  42.2682064
  62.0381582  52.4634730  42.8317705  62.8077661  52.6137083  42.8388416
  68.2677675  50.4161078  50.3928634  68.5033264  50.5606277  49.5655485
  68.4167239  51.1803486  50.7860148  68.3243478  50.5500133  50.3292238
  70.0968132  49.2562744  48.2298238  70.4276349  49.7890384  47.6238333
  70.6701220  49.3101632  48.8860189  70.2301811  49.3432313  48.2376020
  65.3100021  47.1027647  48.9121818  65.4046875  47.8416941  49.3661444
  64.6858864  46.6745122  49.3456383  65.2309051  47.1488967  49.0429966
  63.5652495  50.2813860  59.5612099  64.1391356  49.6441104  59.7160663
  63.4867298  50.2817942  58.6921757  63.6385729  50.1878971  59.4558510
  65.5623042  48.9476387  42.1458770  65.4803205  49.0178574  43.0113757
  66.2002763  49.5106131  41.9542511  65.6442879  49.0415358  42.2448720
  58.9216213  48.7137125  51.6133297  58.6635457  47.8808859  51.5864596
  58.9764696  48.9394738  50.7725797  58.8915991  48.6234896  51.4853433
  64.0017263  40.8165575  51.7137389  63.2973590  40.3274761  51.8721308
  64.0502238  40.8288050  50.8425834  63.9047315  40.7455223  51.6076729
  61.5624214  44.7398236  56.9590570  61.1738647  44.3152454  56.3042761
  60.8978912  44.9880386  57.4667596  61.4071142  44.7136957  56.9378438
  71.2047483  44.4973241  49.7338400  70.9484048  43.6853183  49.5436283
  72.0476797  44.5050808  49.5068587  71.2913509  44.3785239  49.6723217
  65.3850576  38.4372865  54.4714554  65.7661087  37.7551036  54.8582428
  64.5813860  38.1482467  54.2890218  65.3227037  38.2939914  54.5018610
  68.8872642  51.6522837  59.5696952  68.6511280  50.8210902  59.4509013
  69.5315871  51.6008444  60.1551797  68.9467313  51.5220525  59.6382846
  58.5371061  52.4418358  50.2839689  59.1745007  52.2030106  50.8291482
  58.9626132  52.6455517  49.5492849  58.6947227  52.4369369  50.2556846
  53.2283703  54.6806695  54.1673993  53.2687848  54.9521546  53.3393772
  53.7878227  55.2048603  54.5831780  53.3167049  54.7982450  54.1065881
  59.3442416  40.9427063  64.3377162  59.0295857  41.7126626  64.0746725
  59.0232348  40.3797319  63.7529389  59.2501335  40.9737332  64.2118512
  69.9109063  51.4367286  55.6325247  69.6054880  52.1695343  55.9938562
  69.1915279  51.0305215  55.3518033  69.7596405  51.4849019  55.6438384
  60.9192532  52.9190781  51.9633475  60.9931541  52.7565953  52.8175325
  61.7362039  53.1080971  51.7193957  61.0508891  52.9227523  52.0531501
  75.6110855  48.0760287  54.9593591  75.5435355  48.0956246  54.0896178
  75.5966518  48.9190614  55.1849262  75.5989612  48.2034021  54.8646068
  66.0207202  39.4795444  58.2834680  66.7660794  39.2905255  57.8698106
  65.6044506  40.0053682  57.7248537  66.0692176  39.5297590  58.1399254
  59.4597118  55.8825524  46.6946948  59.7495417  55.4914505  45.9706175
  60.1900599  56.0642229  47.1352224  59.6104002  55.8519338  46.6529755
  73.3969473  46.8504673  53.2340185  73.9477394  46.2172742  53.4737278
  73.3813588  47.3820066  53.9255690  73.4754669  46.8353621  53.3719044
  60.0491863  50.6843270  57.7800079  59.5503557  51.3959038  57.8584967
  60.8592088  51.0043937  57.7418241  60.0947970  50.8370119  57.7856647
  57.4003034  57.8592907  49.7607098  57.1803329  57.5690261  50.5533765
  57.1797556  57.2007862  49.2325010  57.3350628  57.7192615  49.7996007
  67.0997879  45.0901006  52.3444782  66.7562645  44.3691342  52.6952031
  67.1990921  44.8814858  51.5023140  67.0639922  44.9525210  52.2716462
  59.5670989  59.2322296  48.5437791  60.2195047  58.6998739  48.7728817
  58.8696598  58.8790949  48.9305665  59.5601707  59.1011819  48.6349958
  67.5610908  51.5526710  47.8868770  68.1268940  52.2119920  47.8027313
  66.9138811  51.8976409  48.3585172  67.5489664  51.7008652  47.9441526
  58.9758921  43.5424314  63.0762377  58.1658697  43.8482094  62.9652219
  59.4533608  44.2629897  63.1914961  58.9262400  43.6938916  63.0769448
  57.8350481  52.7570035  53.3245280  57.3131234  52.8970327  54.0097145
  58.2224501  51.9980700  53.5147398  57.8154182  52.6655559  53.4546357
  64.0317486  54.4965495  47.3105849  63.7904162  53.7633355  46.9032914
  64.2118819  55.0452352  46.6572182  64.0225110  54.4687886  47.1536072
  59.2616807  49.7874054  48.7226771  59.0659589  50.3948789  48.1287074
  59.4851152  49.0941998  48.2418445  59.2651448  49.7751580  48.5642852
  65.6188844  43.0092591  54.2204325  64.7799945  43.0353870  53.9842588
  65.6893211  43.6563327  54.8009671  65.5057238  43.1088717  54.2713441
  64.0658122  39.9077968  48.9531940  64.7684475  39.7085717  48.4751899
  63.8002311  39.1353911  49.2600784  64.1304755  39.7640934  48.9277382
  69.4946368  48.2160578  51.5065566  69.4080342  48.3716004  52.3600345
  69.0396848  48.8598653  51.1324971  69.4149625  48.3336333  51.5772673
  58.8286679  41.1713253  58.0062821  58.6369876  41.1868388  58.8562245
  59.6785275  41.3676928  57.9829476  58.9262401  41.2027605  58.1286116
  63.3672184  45.5371325  50.1291126  63.1206898  45.4567076  50.9627915
  63.6957307  44.7524793  49.9353653  63.3793428  45.4097590  50.2238649
  67.2620233  52.2454684  53.9177907  67.1234592  52.9435730  54.4226649
  66.4820231  52.0903341  53.5614089  67.1263460  52.3254851  53.9404181
  65.5998318  48.5451060  60.1700289  65.5946356  47.6730876  60.1742715
  66.3059312  48.7439229  59.6969744  65.7043322  48.4454934  60.1007324
  59.3269211  48.2728044  59.5414109  59.4712587  48.8529252  58.9057219
  59.6744860  48.6504340  60.2463964  59.3996673  48.4148748  59.5513104
  61.4989129  47.4718212  57.3239240  60.7512443  47.6649226  56.9187519
  61.6530654  46.6463432  57.0863362  61.4111556  47.3783323  57.2284646
  58.3996966  56.4630815  56.4075136  58.5486530  55.9033731  55.7548540
  59.1796968  56.5422817  56.7907655  58.5371060  56.3916381  56.3672085
  68.7573606  51.6032938  44.6794406  68.3780414  50.8170076  44.6723696
  68.0939851  52.1519795  44.5366050  68.6032080  51.5677762  44.6575203
  60.9250267  56.6345458  57.6859627  60.8493938  55.9654269  58.2410415
  60.8540126  57.3363246  58.2000293  60.9030874  56.6390366  57.8436475
  61.7390906  41.3668763  58.2134644  62.1963520  42.0992737  58.3407436
  61.8147234  40.9435228  58.9721900  61.8181876  41.4126001  58.3435721
  66.2118232  34.5458638  52.0828487  66.3301800  35.0035101  51.3495790
  66.0380407  33.7403899  51.7964705  66.2037403  34.4952410  51.9329421
  61.5820514  55.1546457  48.5183233  62.3470405  54.8856101  48.1965897
  61.4798604  54.6696468  49.2353295  61.6802009  55.0436022  48.5763060
  59.6173284  43.3570867  55.0576468  58.8269358  43.1762327  55.3793804
  60.0133906  42.5797819  55.0406763  59.5590160  43.2158328  55.1029017
  64.1039174  52.1858641  40.4983182  64.8712160  52.2458766  40.0889034
  63.6570483  51.6139082  40.0139500  64.1512602  52.1095217  40.3660892
  65.0016970  50.9913297  52.7835914  64.3261972  50.7598529  53.2849301
  65.0109346  50.3834480  52.1578019  64.9035474  50.8672222  52.7652066
  62.1311114  45.8331126  59.5399967  62.0670255  46.6941082  59.4120104
  62.2708302  45.5163119  58.7395518  62.1426584  45.9131292  59.4028180
  67.0033704  53.8478429  45.0146092  67.0853542  54.6545415  44.6907543
  67.4883447  53.8674388  45.7386866  67.0870862  53.9699092  45.0732991
  60.8130208  48.5263265  53.6816170  60.3892457  48.7267764  52.9455188
  60.6375063  47.6792113  53.7940470  60.7241088  48.4312047  53.5889860
  60.3141901  60.0413778  56.1437627  60.8037832  59.3424567  55.9613292
  59.7426134  59.7437648  56.7313685  60.3026431  59.8940002  56.2038668
  66.5108905  52.6075847  65.0964418  67.3243770  52.3360996  65.2569551
  66.3503871  52.3083387  64.2924614  66.6078853  52.5230774  65.0009824
  60.8078247  53.7890552  45.2677534  60.8771067  52.9305090  45.4070534
  61.5866702  54.0062433  44.9396558  60.9331097  53.6943416  45.2394691
  63.7881067  43.2909505  58.0359806  64.0023036  42.6520419  57.4823160
  63.1714966  43.7355328  57.6067668  63.7286396  43.2619648  57.8910237
  65.1985735  56.2128253  49.4814027  64.8065526  55.9094968  48.7636893
  65.3538807  57.0497343  49.2918981  65.1639324  56.2912090  49.3470524
  65.9520155  44.8998570  58.9743113  65.1396836  44.5924460  59.0556286
  66.4110089  44.4197570  59.5385826  65.9000540  44.7835062  59.0697708
  65.3625409  52.7778242  49.4220058  65.0040064  52.9492885  50.1984090
  64.8764120  53.2391447  48.8648056  65.2384106  52.8717213  49.4545327
  63.1795795  36.4009440  53.0247149  62.3089353  36.3748161  52.9780459
  63.4336137  36.2286632  52.2072995  63.0889355  36.3719584  52.8967286
  63.0473662  46.3058641  63.7571816  63.5173293  46.9300758  64.1439690
  63.0935542  45.6375617  64.3165030  63.1241538  46.2993322  63.8971887
  60.2044936  38.4115669  54.4820619  59.6883424  37.7195860  54.6072198
  59.6438865  39.0786446  54.4283218  60.0451449  38.4078926  54.4926685
  62.2737169  38.9508629  56.3113472  61.8868922  38.9757660  57.0927002
  61.7870107  38.3850307  55.8587989  62.1449678  38.8704380  56.3601376
  66.5230149  53.6682138  60.3687259  67.1609869  53.1742333  60.0349715
  65.8804240  53.5959538  59.7839485  66.5224375  53.5841146  60.2329614
  68.2487149  45.5171284  54.9353174  67.8214757  45.4297632  54.1801274
  67.6113202  45.6249059  55.5208018  68.0916756  45.5203944  54.9098616
  61.9394311  35.8375614  58.6023732  62.5687429  36.3735914  58.3244802
  62.1080174  35.7452973  59.4537298  62.0572106  35.9036977  58.6872260
  61.7408226  40.6246809  60.8750144  62.5681655  40.3531958  60.9308758
  61.7616072  41.4207651  61.2313962  61.8661076  40.7026563  60.9365326
  66.5784405  54.3601946  57.0092615  67.3676784  54.0091011  57.1294697
  66.7528003  55.1738334  56.7469249  66.7204687  54.4287803  56.9880483
  56.3177716  47.7710672  54.0620404  55.4765722  47.6714546  54.2699298
  56.5267724  48.5406152  54.4134725  56.2242408  47.8702715  54.1447719
  65.4318230  38.3711503  51.5709034  65.6367823  38.3033811  52.4166031
  65.1044654  39.1770324  51.5030211  65.4133477  38.4797443  51.6868689
  60.1294381  45.6992071  53.3118002  59.8257518  45.1448059  53.9128409
  59.4273801  45.8784281  52.8246036  59.9810590  45.6436853  53.3287707
  58.1912732  52.9141792  58.0190099  58.0833087  52.9243854  58.8852158
  58.4008513  53.7396572  57.8295053  58.2062843  53.0382866  58.1194191
  68.6851917  38.9243267  51.0511799  68.0726231  39.4113669  51.4365531
  68.7816092  38.2486758  51.5949450  68.6089815  38.8961576  51.1890657
  56.2086524  50.1654434  55.4812037  55.6174457  50.8063932  55.4515052
  56.9707547  50.5892051  55.4543337  56.2334784  50.3230272  55.4727184
  56.6047146  41.3256432  56.1480055  57.0648628  41.3995361  56.8855178
  56.6503253  42.1237686  55.7979876  56.6797702  41.4550579  56.2052811
  58.2530496  41.9923127  60.7152082  57.8616061  41.3456474  61.1507860
  58.4216359  42.5834562  61.3346337  58.2201407  41.9837395  60.8714788
  72.3276945  49.9960204  56.4789315  72.3860069  50.4446853  57.2249292
  71.6943413  50.4059017  56.0419395  72.2428240  50.1233938  56.5241864
  65.9676040  55.6163746  52.9144062  65.7695729  56.1054560  52.2200273
  65.3463751  55.8204987  53.4928195  65.8463604  55.7180284  52.8967285
  61.9463594  39.1798901  52.2886167  61.0999639  39.3521709  52.1627517
  61.9434726  38.3748245  52.6251996  61.8210744  39.0859930  52.3197294
  63.0161894  42.9574116  53.1548225  62.5421848  42.4315878  53.6653536
  63.3880030  42.4103589  52.5863087  63.0011783  42.7990112  53.1463372
  69.2798625  48.0176491  54.5655006  69.0396848  47.1782907  54.5697432
  69.7590632  48.0976658  55.2895779  69.3150808  47.9057891  54.6729808
  64.9445394  43.8510670  46.2173979  64.4168412  43.9339414  45.5279688
  65.4041102  44.5928542  46.2138624  64.9347244  43.9731333  46.1148674
  71.2803812  44.7977949  52.5184265  71.0413582  44.7573783  51.6805049
  71.4437713  45.6449101  52.6449986  71.2694115  44.9170034  52.4137747
  67.8849842  49.1827898  58.4489310  68.6084041  48.7300424  58.2700330
  67.6199804  49.4632564  57.6661638  67.9531115  49.1578866  58.3068025
  64.4982476  52.4214234  45.3483636  65.2216675  52.8872347  45.2048209
  64.0583067  52.4887844  44.5981233  64.5398168  52.4998071  45.2168417
  63.6668631  49.2811776  56.5984325  63.0525624  48.7369827  56.8932960
  64.1835916  48.7676013  56.1190141  63.6524294  49.1248185  56.5708553
  62.9064928  50.3516046  54.3328624  62.4792537  49.7265765  53.8994059
  62.8989873  50.0690968  55.1587631  62.8424070  50.2168827  54.3908451
  63.9647759  37.5542455  57.9567847  63.4688320  37.7506129  57.2659414
  64.7216821  37.9535123  57.7856649  64.0034583  37.6420189  57.8287984
  61.2350638  41.2284801  54.5471158  61.2593125  40.6944913  53.8583938
  61.4862112  40.7202110  55.2096748  61.2760557  41.0745705  54.5435802
  57.5151960  39.9555619  53.9276902  57.5550332  40.4564826  54.6411609
  56.6901625  40.0466013  53.6582825  57.3991486  40.0437435  53.9927440
  59.6981573  49.5216359  62.0297196  58.8477204  49.6588073  62.1654841
  59.8609701  48.7880137  62.4744898  59.5965437  49.4330460  62.1152796
  58.9366324  46.4716129  56.2250801  58.1058253  46.6389947  56.0186049
  58.8817841  46.0952080  57.0099686  58.8055739  46.4405860  56.3099329
  56.7450107  39.9625022  61.8607212  57.3702810  39.4187155  62.1336644
  56.2900587  39.4819939  61.2915002  56.7698368  39.8114503  61.8168805
  70.3185156  48.1454309  56.9519860  70.9102996  48.7851559  56.9838058
  70.7544150  47.4477346  57.2411926  70.4703587  48.1372659  57.0000692
  62.1478546  52.5671681  57.5777754  61.6403637  53.1207528  58.0218384
  61.8505192  52.6279971  56.7596528  62.0283431  52.6577992  57.5226210
  64.3140728  40.9325001  56.4202417  64.7395799  40.4797527  55.8085943
  63.6997721  40.3785072  56.6967204  64.2869373  40.7838977  56.3707442
  64.7586326  56.4834939  45.5081697  64.0415636  56.3095801  45.0428934
  65.4093064  56.2487511  44.9757183  64.7488176  56.4230731  45.3610915
  62.7534951  37.4040101  49.8292994  62.1103269  37.2537747  50.3978132
  62.4134358  37.1582446  49.0642098  62.6080028  37.3452223  49.7996009
  67.3434297  45.3599527  49.2523002  66.6725487  45.9029230  49.1236068
  68.0374047  45.8294383  49.0104697  67.3463165  45.5097799  49.1978530
  61.3921031  57.4996239  54.4834760  61.1686685  56.7415069  54.8518787
  60.9030874  57.5294261  53.7615200  61.2864480  57.3918464  54.4311501
  67.5062425  41.8155411  52.1613375  67.8590035  41.3885134  52.8359174
  66.6477226  41.7306255  52.2914452  67.4311869  41.7400152  52.2808386
  65.5045690  45.0790780  56.1098218  65.4843618  44.8974075  56.9632996
  65.5524891  45.9502798  56.0857801  65.5080331  45.1807318  56.2321512
  63.4492020  51.6677972  62.0346694  63.4087875  51.0227649  61.4491850
  64.2615339  51.6114589  62.3472106  63.5635174  51.5636938  61.9943643
  60.0399488  57.7196698  51.9371845  59.6259886  57.0570828  51.5475687
  60.7246862  57.8674556  51.4167539  60.0797860  57.6437356  51.8028342
  63.4064782  56.8786783  52.6895462  63.0081065  56.9889053  51.9216282
  62.7916002  57.0868849  53.2722021  63.2563671  56.9260351  52.6626761
  68.9386485  36.9373823  53.0897688  68.4317349  36.2302962  53.0218865
  69.7353918  36.6067012  53.2198764  68.9813724  36.7846974  53.0996683
  64.8550501  43.4440435  48.9871352  64.6264194  43.4673137  48.1449710
  65.1148577  42.6197902  49.1066362  64.8596689  43.3256515  48.8796549
  59.1369729  45.2974908  58.5896452  58.6248632  44.6896091  58.9481483
  58.9649225  46.0131501  59.0570428  59.0359366  45.3138207  58.7112675
  53.9835444  43.7412483  61.2398814  53.8138034  44.4013858  60.6947020
  53.5401394  43.9519045  61.9611303  53.8934777  43.8698466  61.2660443
  71.1406625  51.4538750  46.0738552  71.5240230  52.2030106  46.3036649
  70.3450738  51.7004569  45.8150541  71.0800407  51.6008443  46.0696126
  63.0138799  43.2199153  61.0298707  63.5710230  42.9912962  60.3977173
  62.6899864  43.9804818  60.7533920  63.0485210  43.2982990  60.8955204
  60.7321917  46.3066806  61.9950714  61.4833244  46.6218483  62.3090269
  60.9244493  46.1045977  61.1684636  60.8713331  46.3234188  61.9194110
  67.5807207  42.4340372  49.2374510  67.5801433  42.2789029  50.0958786
  67.3763387  43.2803359  49.1815895  67.5506985  42.5360993  49.3562449
  65.3048059  47.1137874  52.8910717  65.8001724  46.3960869  52.8514737
  64.4947835  46.8108672  52.7765204  65.2591952  46.9635520  52.8684443
  67.3699878  49.8641562  55.5787846  67.7954949  49.3415984  55.0258271
  67.0056798  50.4622399  55.0576468  67.3786480  49.8751789  55.4196855
  57.0053957  58.1605779  54.3385191  57.3200516  58.9742168  54.3462973
  57.4147371  57.7755998  55.0067350  57.1122055  58.2234482  54.4389283
  63.9578477  53.5775826  51.9089003  64.4289655  54.2916089  52.0778988
  64.2938656  52.9774576  52.4448872  64.0773592  53.5947290  52.0121379
  66.0455462  55.1877139  64.0881075  66.1552427  54.3985700  64.4437822
  66.3746358  55.0983076  63.2855413  66.1107868  55.0582992  64.0223466
  60.8747972  38.3503297  58.8647098  61.0075878  37.5534290  59.1928073
  61.2593125  38.8769700  59.4445373  60.9504301  38.3103213  58.9990601
  64.5952423  53.3693760  58.6716696  64.0473369  52.7451644  58.4036761
  65.0565452  53.5588032  57.9560775  64.5819633  53.3052810  58.5267127
  63.9480327  35.2733623  55.4628191  63.1426291  35.1631352  55.7796029
  63.8187063  35.3746078  54.6058057  63.8100460  35.2717293  55.3836231
  67.4046288  41.4379115  56.0567888  66.8209277  41.9388321  55.6445455
  67.7250582  40.9308671  55.4232211  67.3659463  41.4370950  55.9026395
  58.5336419  38.3462472  57.1124992  59.0780832  38.0053598  57.7029333
  58.5873355  39.2047933  57.2546276  58.6225538  38.4217731  57.2206865
  54.3466978  52.1078888  53.9863799  54.9511835  52.0674722  53.3577620
  54.1394290  52.9550040  54.0167855  54.4055875  52.2266890  53.8979916
  64.1610750  54.3744833  55.2026037  64.9809124  54.2307799  55.4642332
  63.8804827  54.9991032  55.7442475  64.2407493  54.4455185  55.3213976
  73.8324085  61.1185336  52.9221844  72.9761980  61.2793834  52.9730960
  73.8791739  60.2477399  52.9426905  73.7123196  61.0136137  52.9327910
  68.2165225  70.6548053  48.6859075  67.4648124  70.2763592  48.4575120
  68.6651236  70.6866487  47.9377885  68.1714892  70.6033661  48.5416577
  76.6775906  63.1777379  55.5653495  77.2231866  63.8562466  55.6247465
  76.6192782  63.0364840  54.7055077  76.7491820  63.2569381  55.4465556
  69.7949981  70.6666446  50.9521848  69.8960344  69.8566800  51.2618975
  69.1991726  70.5723392  50.3221526  69.7222520  70.5331474  50.9048086
  62.9915025  66.6886732  50.5774181  62.7565210  65.8554385  50.4706450
  63.1300666  66.9691398  49.7635382  62.9770688  66.6070236  50.4416536
  65.2905113  58.8572463  53.4758489  64.6710144  58.2665110  53.3068504
  65.1888976  59.4483898  52.8422812  65.1842788  58.8576545  53.3563479
  70.3371300  68.5956010  47.7256565  70.6587141  69.1361217  47.1217874
  70.9843397  68.0252781  47.8578855  70.4797355  68.5915185  47.6563601
  72.3873008  60.5972005  47.8090952  73.0853173  60.7760132  48.3012415
  72.7025341  60.0742344  47.1861341  72.5368345  60.5465777  47.7892962
  65.0174246  62.4024744  55.7202058  64.8932942  62.9887190  56.3551877
  65.6692530  61.9084940  56.0214333  65.0947895  62.4163549  55.8587987
  72.5760944  66.9842450  47.7970744  73.0154579  66.3759550  48.2425516
  72.4265606  66.6049823  47.0256209  72.6182409  66.8380921  47.7489911
  70.0432587  65.5786461  54.9989569  70.6881589  65.0858905  54.6800518
  70.2834364  65.7211248  55.8255647  70.1743172  65.5263904  55.0739102
  72.5818678  68.4241367  54.6496462  72.8641921  67.6292773  54.4283218
  73.3104838  68.9021955  54.6701523  72.7308242  68.3775964  54.6199477
  70.5599872  55.9664401  51.8912227  70.2303202  56.4175545  51.2215926
  69.8844874  55.8880565  52.4385233  70.4110308  56.0215536  51.8735450
  76.1770280  65.3369631  44.7501513  76.0921575  66.1930597  44.8951082
  76.6654663  65.0613955  45.4183672  76.2359177  65.4226952  44.8703594
  77.7676280  51.9549924  50.1361837  77.4529721  52.6453403  50.5682260
  77.2503221  51.8994706  49.4347338  77.6440750  52.0484813  50.0958787
  77.1088713  61.9554425  46.2499248  76.5800185  62.1714059  46.9096554
  77.6313733  62.6490563  46.1700217  77.1077166  62.0897562  46.3354847
  68.9988321  65.8517642  45.0506716  68.4145536  66.3567673  45.4572580
  68.5958416  65.6260029  44.3103308  68.8527625  65.8925890  45.0011741
  64.5532350  71.5672403  51.8530388  64.0699928  72.2922893  51.8289971
  65.3655668  71.8648533  51.9640545  64.6023098  71.7174757  51.8657667
  70.6246504  70.3604584  54.4580202  70.1073446  70.0011999  53.8541510
  71.3220895  69.8366758  54.4686268  70.6512085  70.2302272  54.3710461
  73.4565536  62.0983294  43.5275637  73.6961539  62.3061278  42.7150980
  73.7781377  61.2940803  43.6364581  73.5402694  62.0097395  43.4236190
  68.7655826  54.0276690  47.3735174  69.5201794  54.3955007  47.1352225
  68.5883360  54.4016244  48.1414354  68.8510304  54.1374877  47.4520063
  67.4076547  72.0828579  52.0050667  68.1097126  71.5680568  52.0623424
  67.3274030  72.4102730  52.8097542  67.5000308  72.0542805  52.1323460
  68.4555454  62.3204166  61.1331082  68.6275957  62.2110060  61.9816364
  68.9924811  62.9658571  60.8962275  68.5600458  62.3996167  61.2236179
  67.1212891  56.4347009  44.0713287  66.9388464  56.6518889  43.2454280
  67.9838504  56.5486021  44.1271902  67.2217480  56.4836907  43.9567775
  66.7327323  68.2734931  51.5136275  67.5716222  68.5057864  51.5610037
  66.7639092  67.4039242  51.4443311  66.8609040  68.1791877  51.5100920
  67.3580026  68.6935806  55.8149581  67.8978250  68.5506937  56.4852953
  66.6749972  69.0932557  56.1833607  67.3372179  68.7315477  55.9684003
  72.8012610  53.4373419  47.1062311  73.5298770  53.2589374  46.6600468
  72.8907503  54.2791499  47.3169489  72.9219272  53.5357298  47.0715829
  76.7820910  64.3726807  51.0094605  77.5378425  64.8058321  51.0483514
  76.8883235  63.7231576  51.5829241  76.9091081  64.3404290  51.0992631
  62.7617171  64.9136097  55.9684002  62.4955586  64.0975213  56.1274993
  62.7755735  64.9589252  55.0979518  62.7241893  64.7993002  55.8637484
  66.6674918  59.7121181  42.5835761  65.9533095  59.4259361  42.9958193
  67.1518886  60.0517807  43.2242148  66.6334281  59.7202831  42.7391395
  67.5115777  58.4514475  58.6151010  66.8187574  57.9811455  58.8611742
  68.1276104  58.2252780  59.1892717  67.5000307  58.3481607  58.7360163
  73.8422235  68.2151135  42.9597569  74.2573384  67.8836159  42.2682064
  73.0114165  67.9820037  42.8317705  73.7810244  68.1322391  42.8388416
  63.1710584  65.6994876  53.2495747  62.9886157  65.6741762  52.3968039
  63.9060253  66.1693814  53.2884655  63.2524648  65.7656238  53.1293665
  66.2356336  62.4179879  59.7577855  66.9596308  62.4032910  60.2442750
  66.3372472  63.1275234  59.2599824  66.3574545  62.5204582  59.7556642
  76.2832604  62.6212955  48.9121818  76.3779459  63.3602249  49.3661444
  75.6591448  62.1930430  49.3456383  76.2041634  62.6674275  49.0429966
  63.1381495  62.5788377  53.3994813  63.7154997  62.4424828  54.0387059
  62.4395556  62.1224161  53.6540398  63.1202516  62.4910643  53.5317103
  76.5355626  64.4661695  42.1458770  76.4535788  64.5363882  43.0113757
  77.1735346  65.0291439  41.9542511  76.6175463  64.5600666  42.2448720
  69.8948797  64.2322433  51.6133297  69.6368041  63.3994167  51.5864596
  69.9497280  64.4580046  50.7725797  69.8648575  64.1420204  51.4853433
  74.9749847  56.3350883  51.7137389  74.2706174  55.8460069  51.8721308
  75.0234821  56.3473358  50.8425834  74.8779898  56.2640531  51.6076729
  68.8683509  61.7860195  52.0998191  68.2933100  61.9452363  52.7362152
  68.4919185  61.1495604  51.6366642  68.7286321  61.7158008  52.1252750
  72.5356798  60.2583544  56.9590570  72.1471230  59.8337762  56.3042761
  71.8711496  60.5065694  57.4667596  72.3803725  60.2322265  56.9378438
  58.6140328  61.4300270  50.1142632  58.7000580  61.0532138  50.8956162
  59.2416125  61.0560715  49.6362590  58.7196879  61.3185752  50.1588109
  76.3583159  53.9558173  54.4714554  76.7393671  53.2736344  54.8582428
  75.5546443  53.6667775  54.2890218  76.2959621  53.8125222  54.5018610
  73.6395736  64.4882149  45.1567377  74.4536375  64.7797042  45.0450148
  73.5754877  63.8342011  44.5825670  73.7498475  64.4347344  45.0556214
  69.5103644  67.9603666  50.2839689  70.1477591  67.7215414  50.8291482
  69.9358716  68.1640825  49.5492849  69.6679810  67.9554677  50.2556846
  64.2016286  70.1992003  54.1673993  64.2420432  70.4706854  53.3393772
  64.7610811  70.7233911  54.5831780  64.2899632  70.3167758  54.1065881
  70.1506459  63.1805956  44.6214578  70.5351612  62.9613663  45.3731123
  69.9018079  64.0068902  44.7515654  70.1708532  63.2704102  44.7515655
  70.3175000  56.4612371  64.3377162  70.0028441  57.2311934  64.0746725
  69.9964932  55.8982627  63.7529389  70.2233919  56.4922640  64.2118512
  71.8925116  68.4376089  51.9633475  71.9664124  68.2751261  52.8175325
  72.7094622  68.6266279  51.7193957  72.0241475  68.4412831  52.0531501
  65.6530873  68.7833952  48.9927919  64.8268990  69.0295689  48.8662197
  65.7142864  68.7046033  49.8589977  65.5405040  68.8078901  49.1016863
  67.8706896  54.8502893  49.9523359  67.0029322  54.9225492  50.0180968
  68.1582101  55.6524972  50.1411334  67.7846645  54.9797040  49.9898125
  76.9939785  54.9980752  58.2834680  77.7393377  54.8090563  57.8698106
  76.5777090  55.5238990  57.7248537  77.0424759  55.0482898  58.1399254
  70.4329702  71.4010832  46.6946948  70.7228000  71.0099813  45.9706175
  71.1633183  71.5827537  47.1352224  70.5836586  71.3704646  46.6529755
  71.0224447  66.2028578  57.7800079  70.5236141  66.9144346  57.8584967
  71.8324671  66.5229245  57.7418241  71.0680554  66.3555427  57.7856647
  68.3735617  73.3778214  49.7607098  68.1535913  73.0875569  50.5533765
  68.1530139  72.7193169  49.2325010  68.3083212  73.2377923  49.7996007
  67.2852565  65.4651531  52.0262800  66.9965813  64.8389002  52.5608527
  68.1535913  65.4071818  52.0927480  67.3712816  65.3639075  52.1153754
  78.0730462  60.6086314  52.3444782  77.7295228  59.8876650  52.6952031
  78.1723505  60.4000166  51.5023140  78.0372505  60.4710518  52.2716462
  67.4884838  67.1046782  47.9505165  68.2430806  67.4859821  48.1640627
  66.8955451  67.5557926  48.4051861  67.5121551  67.2275609  48.0488043
  69.9491505  59.0609622  63.0762377  69.1391281  59.3667402  62.9652219
  70.4266192  59.7815205  63.1914961  69.8994984  59.2124224  63.0769448
  68.8083065  68.2755343  53.3245280  68.2863818  68.4155635  54.0097145
  69.1957085  67.5166008  53.5147398  68.7886765  68.1840867  53.4546357
  65.7974249  58.3261152  47.3940235  65.5099044  57.9562423  46.6572182
  66.4844717  58.7956007  47.1323940  65.8563146  58.3408121  47.2455311
  70.2349390  65.3059362  48.7226771  70.0392173  65.9134097  48.1287074
  70.4583736  64.6127306  48.2418445  70.2384031  65.2936888  48.5642852
  68.6327920  62.1914100  48.8407640  69.3550572  62.3555258  48.3811446
  68.1535913  62.9123765  48.7346979  68.6691651  62.3212330  48.7573254
  76.5921428  58.5277899  54.2204325  75.7532528  58.5539178  53.9842588
  76.6625795  59.1748635  54.8009671  76.4789821  58.6274025  54.2713441
  66.2835537  64.5972173  57.9461779  66.7956634  64.8756426  57.2970539
  65.9971879  65.3361467  58.3124593  66.3170400  64.7474526  57.9051658
  75.0390706  55.4263276  48.9531940  75.7417059  55.2271024  48.4751899
  74.7734895  54.6539218  49.2600784  75.1037338  55.2826242  48.9277382
  63.3702443  59.1042365  48.2425516  63.4718580  59.9068526  48.5706491
  64.1658330  58.9029700  47.9448597  63.5030349  59.1928263  48.2460871
  69.8019262  56.6898561  58.0062821  69.6102459  56.7053696  58.8562245
  70.6517858  56.8862236  57.9829476  69.8994984  56.7212913  58.1286116
  64.1866175  59.2189543  55.9846638  64.0451667  58.3673483  56.1091146
  64.4706739  59.2618203  55.1608844  64.2074021  59.0989293  55.8814262
  74.3404768  61.0556633  50.1291126  74.0939482  60.9752384  50.9627915
  74.6689891  60.2710101  49.9353653  74.3526011  60.9282898  50.2238649
  70.3001795  63.7913352  59.5414109  70.4445171  64.3714560  58.9057219
  70.6477443  64.1689648  60.2463964  70.3729256  63.9334056  59.5513104
  72.4721712  62.9903520  57.3239240  71.7245026  63.1834534  56.9187519
  72.6263237  62.1648739  57.0863362  72.3844140  62.8968631  57.2284646
  72.7123489  56.8854071  58.2134644  73.1696103  57.6178045  58.3407436
  72.7879818  56.4620536  58.9721900  72.7914459  56.9311309  58.3435721
  64.9556480  57.1319890  59.3024088  64.4198670  56.5200249  59.6184855
  65.0174245  57.7068026  59.9557755  64.8852113  57.1266818  59.4459515
  77.1850815  50.0643946  52.0828487  77.3034383  50.5220409  51.3495790
  77.0112991  49.2589207  51.7964705  77.1769986  50.0137718  51.9329421
  72.5553097  70.6731765  48.5183233  73.3202989  70.4041409  48.1965897
  72.4531187  70.1881775  49.2353295  72.6534593  70.5621330  48.5763060
  70.5905867  58.8756175  55.0576468  69.8001942  58.6947635  55.3793804
  70.9866490  58.0983127  55.0406763  70.5322743  58.7343636  55.1029017
  75.0771758  67.7043949  40.4983182  75.8444743  67.7644074  40.0889034
  74.6303067  67.1324390  40.0139500  75.1245185  67.6280525  40.3660892
  75.9749553  66.5098605  52.7835914  75.2994555  66.2783837  53.2849301
  75.9841930  65.9019788  52.1578019  75.8768058  66.3857530  52.7652066
  73.1043697  61.3516434  59.5399967  73.0402839  62.2126390  59.4120104
  73.2440885  61.0348427  58.7395518  73.1159168  61.4316600  59.4028180
  71.7862791  64.0448573  53.6816170  71.3625040  64.2453072  52.9455188
  71.6107647  63.1977421  53.7940470  71.6973672  63.9497355  53.5889860
  67.0745236  64.5400624  49.1144143  67.2309855  64.4747427  49.9700135
  67.4145829  65.3149177  48.9022822  67.1478471  64.6449823  49.2098737
  73.6124381  63.9158508  47.9837506  74.1539926  63.4128889  48.4476126
  73.9270940  63.8623703  47.1726991  73.7388778  63.8337929  47.9321318
  71.7810831  69.3075860  45.2677534  71.8503651  68.4490398  45.4070534
  72.5599286  69.5247740  44.9396558  71.9063681  69.2128724  45.2394691
  74.7613650  58.8094813  58.0359806  74.9755620  58.1705727  57.4823160
  74.1447549  59.2540636  57.6067668  74.7018980  58.7804956  57.8910237
  63.6479498  61.7235575  49.4304910  64.0278463  62.1420120  48.7665177
  63.0734863  62.3049031  49.7373753  63.6190823  61.8713434  49.3781651
  76.9252738  60.4183878  58.9743113  76.1129420  60.1109768  59.0556286
  77.3842673  59.9382878  59.5385826  76.8733123  60.3020370  59.0697708
  76.3357993  68.2963550  49.4220058  75.9772648  68.4678193  50.1984090
  75.8496704  68.7576755  48.8648056  76.2116690  68.3902521  49.4545327
  74.1528379  51.9194748  53.0247149  73.2821937  51.8933469  52.9780459
  74.4068720  51.7471940  52.2072995  74.0621939  51.8904892  52.8967286
  71.1246358  63.9762715  41.9620292  71.4138883  64.7527598  42.2363866
  71.2118157  63.4651447  42.6634791  71.1800615  64.0154633  42.1062790
  71.1777519  53.9300977  54.4820619  70.6616008  53.2381168  54.6072198
  70.6171448  54.5971754  54.4283218  71.0184033  53.9264234  54.4926685
  73.2469753  54.4693937  56.3113472  72.8601506  54.4942968  57.0927002
  72.7602690  53.9035615  55.8587989  73.1182262  54.3889688  56.3601376
  72.9126895  51.3560922  58.6023732  73.5420013  51.8921222  58.3244802
  73.0812757  51.2638281  59.4537298  73.0304689  51.4222284  58.6872260
  72.7140810  56.1432117  60.8750144  73.5414239  55.8717266  60.9308758
  72.7348656  56.9392959  61.2313962  72.8393660  56.2211871  60.9365326
  67.2910299  63.2895980  54.0620404  66.4498306  63.1899854  54.2699298
  67.5000307  64.0591460  54.4134725  67.1974992  63.3888023  54.1447719
  64.7685866  60.9115517  51.8905155  64.3742564  60.9858528  51.1155264
  64.2125983  61.2973463  52.4413517  64.6288679  60.9797291  51.8572815
  76.4050813  53.8896811  51.5709034  76.6100406  53.8219119  52.4166031
  76.0777237  54.6955632  51.5030211  76.3866061  53.9982751  51.6868689
  71.1026964  61.2177379  53.3118002  70.7990102  60.6633367  53.9128409
  70.4006385  61.3969589  52.8246036  70.9543174  61.1622161  53.3287707
  70.1593061  58.5277899  47.8762704  70.4352796  57.8096811  47.4640271
  70.7591731  59.1262819  47.6683810  70.2886326  58.5098269  47.7843465
  69.1645315  68.4327100  58.0190099  69.0565670  68.4429162  58.8852158
  69.3741097  69.2581880  57.8295053  69.1795426  68.5568174  58.1194191
  73.6603582  56.1991416  46.1509299  74.1147328  56.3701976  46.8757143
  74.1343628  55.5859527  45.7507074  73.7971902  56.1342301  46.1983060
  67.1819107  65.6839742  55.4812037  66.5907040  66.3249240  55.4515052
  67.9440131  66.1077359  55.4543337  67.2067368  65.8415580  55.4727184
  67.5779730  56.8441740  56.1480055  68.0381212  56.9180669  56.8855178
  67.6235837  57.6422994  55.7979876  67.6530285  56.9735887  56.2052811
  69.2263080  57.5108435  60.7152082  68.8348645  56.8641782  61.1507860
  69.3948942  58.1019870  61.3346337  69.1933990  57.5022702  60.8714788
  71.0016602  62.9033950  47.2554306  71.7458647  63.2908227  47.4937256
  71.1477298  62.0591376  47.4194794  71.1327187  62.8364423  47.3148276
  72.9196177  54.6984209  52.2886167  72.0732222  54.8707017  52.1627517
  72.9167310  53.8933553  52.6251996  72.7943327  54.6045238  52.3197294
  73.9894478  58.4759424  53.1548225  73.5154432  57.9501186  53.6653536
  74.3612613  57.9288897  52.5863087  73.9744367  58.3175420  53.1463372
  64.3667508  60.4730930  58.5231771  65.2293121  60.3726640  58.4369101
  64.0359291  59.8925640  57.9617343  64.4452704  60.3722557  58.4277177
  75.9177977  59.3695978  46.2173979  75.3900996  59.4524722  45.5279688
  76.3773685  60.1113850  46.2138624  75.9079828  59.4916641  46.1148674
  67.7269294  59.2973379  55.1842189  67.1022364  59.3091771  54.5768142
  67.3914889  59.7733555  55.8333429  67.5854786  59.3691896  55.1898758
  67.9111042  57.6398498  41.2414874  67.5623847  58.2918223  41.7046423
  67.4307488  57.6255611  40.5138745  67.7881286  57.7341551  41.2025965
  64.4394969  67.3573840  56.6245953  63.9094894  66.6666278  56.6740928
  64.7120063  67.3484025  55.7958662  64.4019692  67.2540971  56.5093369
  75.4715060  67.9399542  45.3483636  76.1949259  68.4057655  45.2048209
  75.0315651  68.0073152  44.5981233  75.5130752  68.0183379  45.2168417
  74.6401215  64.7997084  56.5984325  74.0258208  64.2555134  56.8932960
  75.1568500  64.2861321  56.1190141  74.6256877  64.6433493  56.5708553
  73.8797512  65.8701354  54.3328624  73.4525120  65.2451073  53.8994059
  73.8722456  65.5876276  55.1587631  73.8156653  65.7354135  54.3908451
  66.9960039  60.9066527  57.4017058  67.1553526  60.1509851  57.8068779
  66.8152933  61.4557467  58.0557795  66.9925398  60.8760341  57.5579764
  74.9380342  53.0727763  57.9567847  74.4420903  53.2691437  57.2659414
  75.6949404  53.4720431  57.7856649  74.9767167  53.1605497  57.8287984
  72.2083222  56.7470109  54.5471158  72.2325709  56.2130221  53.8583938
  72.4594695  56.2387418  55.2096748  72.2493140  56.5931013  54.5435802
  59.7190812  64.0301604  53.9814302  59.6134261  63.9848448  53.1166386
  58.9691032  64.3755384  54.2628587  59.5926414  64.0742512  53.8951631
  68.4884544  55.4740927  53.9276902  68.5282916  55.9750134  54.6411609
  67.6634209  55.5651321  53.6582825  68.3724070  55.5622743  53.9927440
  69.9098907  61.9901437  56.2250801  69.0790837  62.1575255  56.0186049
  69.8550425  61.6137388  57.0099686  69.7788322  61.9591168  56.3099329
  67.7182691  55.4810330  61.8607212  68.3435394  54.9372462  62.1336644
  67.2633171  55.0005247  61.2915002  67.7430951  55.3299811  61.8168805
  68.2834951  60.2657028  46.7540919  68.4237912  60.7629493  47.4569560
  68.7817484  59.5643323  46.8955132  68.3776032  60.2359007  46.8792498
  68.3135174  61.1324139  44.0833495  68.9480253  61.7284564  44.0182957
  68.3960784  60.8327597  44.8979366  68.4191725  61.1765048  44.1936582
  69.8914156  57.0638115  44.0578937  70.2129998  56.5841197  43.4038200
  70.1541100  57.8737761  43.8669749  69.9780182  57.1128013  43.9334430
  75.2873311  56.4510309  56.4202417  75.7128383  55.9982835  55.8085943
  74.6730305  55.8970379  56.6967204  75.2601957  56.3024285  56.3707442
  64.8188161  63.3291980  47.3523041  65.3280391  63.9256488  47.7334347
  65.2922434  63.0617954  46.6699461  64.9631537  63.3777796  47.3077564
  73.7267534  52.9225409  49.8292994  73.0835852  52.7723055  50.3978132
  73.3866941  52.6767754  49.0642098  73.5812612  52.8637531  49.7996009
  67.1778693  59.9648239  50.2196222  66.4590682  60.3812371  50.4869085
  67.5491055  60.5302477  49.6687860  67.1270625  60.1097520  50.1779029
  76.4778274  60.5976088  56.1098218  76.4576201  60.4159383  56.9632996
  76.5257475  61.4688106  56.0857801  76.4812915  60.6992626  56.2321512
  72.9525268  59.0046239  45.5569601  72.3590107  59.3263235  45.0054168
  72.9900545  58.1587334  45.3490707  72.8699657  58.9270567  45.4452373
  75.8283084  58.9625743  48.9871352  75.5996777  58.9858445  48.1449710
  76.0881160  58.1383210  49.1066362  75.8329272  58.8441823  48.8796549
  70.1102313  60.8160216  58.5896452  69.5981216  60.2081399  58.9481483
  69.9381809  61.5316809  59.0570428  70.0091950  60.8323515  58.7112675
  64.9568027  59.2597791  61.2398814  64.7870618  59.9199166  60.6947020
  64.5133977  59.4704353  61.9611303  64.8667361  59.3883774  61.2660443
  68.8827847  57.5002289  50.2825547  69.3585213  57.8619369  49.6475728
  68.3816446  58.1558757  50.5625690  68.8793206  57.6496478  50.2302288
  73.9871383  58.7384461  61.0298707  74.5442813  58.5098270  60.3977173
  73.6632448  59.4990126  60.7533920  74.0217793  58.8168297  60.8955204
  61.8570092  62.1644657  56.4987303  61.3096811  61.4945303  56.6168172
  62.6462470  61.7974505  56.5630771  61.8922275  62.0109643  56.5256004
  70.9254500  59.6443489  43.6498931  71.3053465  59.6623118  42.8650046
  70.1847096  60.0897478  43.5289779  70.8723338  59.7125264  43.5162499
  78.5539790  57.9525680  49.2374510  78.5534017  57.7974337  50.0958786
  78.3495970  58.7988667  49.1815895  78.5239568  58.0546301  49.3562449
  60.6157061  61.3765465  53.6533326  60.4378822  60.9242074  54.3788242
  60.3276083  62.1791626  53.8371804  60.5470014  61.4288023  53.7876829
  76.2780642  62.6323182  52.8910717  76.7734308  61.9146177  52.8514737
  75.4680418  62.3293980  52.7765204  76.2324536  62.4820828  52.8684443
  71.7239254  66.4820995  45.0407721  70.9150577  66.1587669  44.9941031
  72.2314163  65.7754217  44.9735970  71.6788921  66.3302312  45.0238016
  62.3529531  63.9093189  50.7655086  61.4875051  63.8978879  50.6537857
  62.4528347  63.7223411  51.6126225  62.2403698  63.8799250  50.8744030
  67.9786541  73.6791087  54.3385191  68.2933100  74.4927476  54.3462973
  68.3879954  73.2941306  55.0067350  68.0854639  73.7419790  54.4389283
  74.9311061  69.0961134  51.9089003  75.4022239  69.8101397  52.0778988
  75.2671239  68.4959884  52.4448872  75.0506176  69.1132598  52.0121379
  71.8480556  53.8688605  58.8647098  71.9808461  53.0719598  59.1928073
  72.2325708  54.3955007  59.4445373  71.9236885  53.8288521  58.9990601
  74.9212911  50.7918931  55.4628191  74.1158875  50.6816660  55.7796029
  74.7919646  50.8931386  54.6058057  74.7833044  50.7902601  55.3836231
  78.3778871  56.9564423  56.0567888  77.7941860  57.4573629  55.6445455
  78.6983165  56.4493979  55.4232211  78.3392047  56.9556258  55.9026395
  70.9173671  55.8705017  46.3326563  71.7389365  56.0403330  46.0908258
  70.4543321  56.0252278  45.6092860  70.9704833  55.9186750  46.1898207
  69.5069002  53.8647780  57.1124992  70.0513415  53.5238906  57.7029333
  69.5605938  54.7233241  57.2546276  69.5958122  53.9403039  57.2206865
  65.3199561  67.6264196  53.9863799  65.9244419  67.5860030  53.3577620
  65.1126874  68.4735348  54.0167855  65.3788458  67.7452198  53.8979916
  60.5550843  66.6098813  53.8562723  60.4575122  65.7995085  54.1652779
  61.3379713  66.5890606  53.4708991  60.6566980  66.4865903  53.8449586
  34.9918298   1.0370261  35.6199122  34.2401197   0.6585799  35.3915167
  35.4404310   1.0688694  34.8717932  34.9467965   0.9855868  35.4756624
  40.4443258   1.4595630  31.0484669  40.1094626   2.1372552  30.6128891
  40.9570128   1.0700942  30.4601541  40.4708839   1.5020209  30.8971461
  39.9847549   3.4109899  36.9895781  40.3686928   3.9796798  36.4500556
  39.9206690   2.6859409  36.5101597  40.0320976   3.3885362  36.8389643
  36.5703054   1.0488653  37.8861894  36.6713417   0.2389007  38.1959022
  35.9744799   0.9545599  37.2561573  36.4975593   0.9153681  37.8388133
  36.4103794   5.9666242  39.2876751  37.0541249   6.4079406  39.6772909
  36.7360049   5.1619668  39.2007009  36.5535622   5.9131437  39.3322228
  29.7668098  -2.9291060  37.5114228  29.5318283  -3.7623408  37.4046497
  29.9053739  -2.6486395  36.6975429  29.7523761  -3.0107557  37.3756583
  37.1124373  -1.0221783  34.6596612  37.4340214  -0.4816576  34.0557920
  37.7596470  -1.5925012  34.7918902  37.2550429  -1.0262608  34.5903648
  31.3285423   1.9494610  38.7870434  30.8453001   2.6745100  38.7630018
  32.1408741   2.2470740  38.8980592  31.3776171   2.0996964  38.7997714
  37.3999577   0.7426791  41.3920249  36.8826519   0.3834206  40.7881557
  38.0973968   0.2188965  41.4026315  37.4265158   0.6124479  41.3050507
  41.0563169   1.1921605  47.3536422  41.1446515   1.0047746  48.2014632
  41.4852882   0.5459035  46.9541269  41.1325271   1.0684613  47.4208173
  38.6233629   0.4752765  46.3354084  38.0604464   0.0625375  46.8593745
  39.3854652   0.4005671  46.7547227  38.6528077   0.4030166  46.4747084
  34.1829620   2.4650786  38.9390714  34.8850200   1.9502775  38.9963471
  34.1027103   2.7924938  39.7437589  34.2753381   2.4365012  39.0663506
  33.5080396  -1.3442862  38.4476322  34.3469295  -1.1119929  38.4950084
  33.5392165  -2.2138550  38.3783358  33.6362113  -1.4385915  38.4440967
  34.1333099  -0.9241987  42.7489628  34.6731324  -1.0670856  43.4193000
  33.4503045  -0.5245236  43.1173654  34.1125253  -0.8862316  42.9024049
  41.1683228   0.6230624  50.0180205  41.9523645   0.7361472  50.3835948
  40.9679823  -0.2028239  50.2138891  41.2549254   0.5177344  50.1014591
  41.3253622   2.5340726  43.6646661  40.5268867   2.2940226  43.9220530
  41.7739633   2.5855119  44.4113709  41.2728233   2.5063117  43.8131585
  29.9463657  -3.9182916  40.1835794  29.7639231  -3.9436030  39.3308086
  30.6813326  -3.4483979  40.2224702  30.0277721  -3.8521554  40.0633712
  36.2856717  -1.6574126  37.2179736  36.9230664  -1.8962379  37.7631529
  36.7111789  -1.4536967  36.4832896  36.4432884  -1.6623116  37.1896893
  30.9769360   0.5814210  41.1014039  31.0173505   0.8529061  40.2733819
  31.5363884   1.1056118  41.5171827  31.0652706   0.6989965  41.0405928
  38.6678189  -1.1801704  38.8973522  38.7417198  -1.3426532  39.7515372
  39.4847696  -0.9911514  38.6534003  38.7994548  -1.1764961  38.9871547
  32.4283946  -0.8343841  35.9267965  31.6022064  -0.5882104  35.8002244
  32.4895937  -0.9131760  36.7930023  32.3158113  -0.8098892  36.0356910
  37.2082775   1.7833039  33.6286995  37.4981073   1.3922021  32.9046222
  37.9386256   1.9649744  34.0692271  37.3589659   1.7526853  33.5869802
  35.1488691   3.7600422  36.6947145  34.9288986   3.4697777  37.4873812
  34.9283213   3.1015377  36.1665057  35.0836285   3.6200130  36.7336054
  37.3156646   5.1329812  35.4777837  37.9680704   4.6006254  35.7068863
  36.6182255   4.7798464  35.8645711  37.3087364   5.0019335  35.5690005
  34.2637911  -2.5131011  34.8845212  35.0183879  -2.1317972  35.0980674
  33.6708524  -2.0619867  35.3391908  34.2874625  -2.3902183  34.9828090
  35.5836138  -1.3422449  40.2585327  35.0616891  -1.2022158  40.9437192
  35.9710158  -2.1011785  40.4487444  35.5639839  -1.4336925  40.3886404
  41.7803143   0.3973010  34.2445896  41.5389819  -0.3359129  33.8372961
  41.9604476   0.9459867  33.5912229  41.7710767   0.3695401  34.0876119
  36.1482623   2.3638331  43.3415183  36.2972187   1.8041247  42.6888587
  36.9282625   2.4430332  43.7247701  36.2856717   2.2923896  43.3012132
  38.6735924   2.5352974  44.6199673  38.5979595   1.8661784  45.1750462
  38.6025783   3.2370762  45.1340340  38.6516531   2.5397881  44.7776521
  39.3306171   1.0553973  35.4523279  40.0956062   0.7863616  35.1305944
  39.2284261   0.5703983  36.1693342  39.4287666   0.9443537  35.5103107
  38.0627558   5.9421293  43.0777674  38.5523488   5.2432083  42.8953339
  37.4911790   5.6445163  43.6653731  38.0512088   5.7947517  43.1378715
  38.5563904  -0.3101933  32.2017581  38.6256724  -1.1687395  32.3410581
  39.3352359  -0.0930052  31.8736605  38.6816754  -0.4049069  32.1734738
  42.9471391   2.1135768  36.4154074  42.5551183   1.8102483  35.6976940
  43.1024464   2.9504858  36.2259028  42.9124981   2.1919605  36.2810571
  35.9398388  -1.1850693  44.9530146  35.8318743  -1.1748631  45.8192204
  36.1494170  -0.3595913  44.7635100  35.9548500  -1.0609618  45.0534238
  43.7161697   1.5171261  39.8484108  43.5181385   2.0062075  39.1540320
  43.0949408   1.7212502  40.4268242  43.5949261   1.6187799  39.8307332
  31.2148043  -2.2603953  43.5586000  30.6847967  -2.9511514  43.6080975
  31.4873136  -2.2693768  42.7298709  31.1772765  -2.3636821  43.4433416
  26.4943885  -5.5876189  40.9154348  26.3887334  -5.6329345  40.0506433
  25.7444105  -5.2422408  41.1968633  26.3679488  -5.5435281  40.8291678
  39.8964202  -1.5320804  44.5117800  39.3889294  -0.9784957  44.9558431
  39.5990849  -1.4712514  43.6936575  39.7769087  -1.4414492  44.4566257
  42.5071983   2.3842454  32.4421744  41.7901292   2.2103316  31.9768981
  43.1578720   2.1495026  31.9097230  42.4973833   2.3238247  32.2950962
  39.1406688   3.4003755  41.4174807  38.9172342   2.6422584  41.7858834
  38.6516531   3.4301776  40.6955247  39.0350137   3.2925979  41.3651548
  37.7885145   3.6204213  38.8711892  37.3745543   2.9578343  38.4815734
  38.4732519   3.7682072  38.3507586  37.8283516   3.5444871  38.7368389
  41.1550439   2.7794298  39.6235508  40.7566722   2.8896568  38.8556329
  40.5401658   2.9876364  40.2062068  41.0049328   2.8267866  39.5966808
  34.7539614   4.0613295  41.2725238  35.0686173   4.8749683  41.2803020
  35.1633028   3.6763513  41.9407397  34.8607712   4.1241997  41.3729330
  43.7941118   1.0884655  51.0221122  43.9038084   0.2993215  51.3777869
  44.1232015   0.9990591  50.2195460  43.8593524   0.9590508  50.9563513
  32.0952634  -1.9913597  40.9203846  32.6997492  -2.0317763  40.2917667
  31.8879947  -1.1442445  40.9507902  32.1541532  -1.8725595  40.8319963
  41.9096407   0.2752348  42.1366084  42.7294780   0.1315314  42.3982379
  41.6290484   0.8998547  42.6782522  41.9893150   0.3462700  42.2554023
  27.3303917  -3.0078979  40.7902769  27.2328195  -3.8182708  41.0992826
  28.1132786  -3.0287186  40.4049038  27.4320053  -3.1311889  40.7789632
  58.3810057   7.9317200  35.1008960  58.3504061   8.7861837  35.2727229
  58.9791406   7.6312492  35.6595104  58.4647215   8.0133696  35.2083762
  51.5809742   7.0192851  39.8561890  50.7247637   7.1801349  39.9071007
  51.6277395   6.1484915  39.8766951  51.4608853   6.9143653  39.8667956
  54.8903458  13.2879376  49.4622347  55.5970226  12.7931407  49.5909281
  55.0791394  13.7288458  48.7325005  55.0231364  13.2797727  49.3731392
  51.4175841  16.9780938  31.0484669  51.0827210  17.6557860  30.6128891
  51.9302712  16.5886250  30.4601541  51.4441422  17.0205516  30.8971461
  50.9580133  18.9295207  36.9895781  51.3419512  19.4982106  36.4500556
  50.8939274  18.2044717  36.5101597  51.0053560  18.9070670  36.8389643
  54.4261563   9.0784895  42.4993542  54.9717523   9.7569981  42.5587512
  54.3678439   8.9372356  41.6395124  54.4977477   9.1576896  42.3805603
  56.2026631  10.5069502  33.3727270  56.0866157  11.2577188  33.8019408
  56.9982518  10.2493455  33.6223357  56.3031221  10.5804349  33.4731362
  40.7400682  12.5894247  37.5114228  40.5050866  11.7561900  37.4046497
  40.8786323  12.8698913  36.6975429  40.7256344  12.5077751  37.3756583
  43.0390769   4.7579978  40.4098536  42.4195801   4.1672625  40.2408551
  42.9374633   5.3491413  39.7762859  42.9328445   4.7584061  40.2903525
  50.1358665   6.4979520  34.7430999  50.8338830   6.6767647  35.2352462
  50.4510998   5.9749859  34.1201388  50.2854002   6.4473292  34.7233009
  42.7659902   8.3032260  42.6542105  42.6418599   8.8894705  43.2891924
  43.4178187   7.8092455  42.9554380  42.8433552   8.3171064  42.7928034
  47.7918243  11.4793977  41.9329616  48.4367246  10.9866420  41.6140564
  48.0320020  11.6218763  42.7595694  47.9228829  11.4271419  42.0079149
  50.3304335  14.3248883  41.5836508  50.6127578  13.5300288  41.3623264
  51.0590495  14.8029470  41.6041569  50.4793898  14.2783479  41.5539524
  48.3085529   1.8671917  38.8252274  47.9788859   2.3183060  38.1555972
  47.6330530   1.7888080  39.3725280  48.1595965   1.9223052  38.8075497
  53.9255937  11.2377146  31.6841560  53.8407232  12.0938113  31.8291129
  54.4140320  10.9621470  32.3523719  53.9844834  11.3234468  31.8043641
  54.8574370   7.8561940  33.1839295  54.3285842   8.0721574  33.8436601
  55.3799390   8.5498079  33.1040264  54.8562823   7.9905077  33.2694894
  60.3122423  13.4308245  38.5572339  59.4820126  13.6418888  38.7205756
  60.2631675  12.6045299  38.2814623  60.1829159  13.3397851  38.5409705
  46.7473978  11.7525157  31.9846763  46.1631193  12.2575188  32.3912627
  46.3444073  11.5267544  31.2443355  46.6013282  11.7933405  31.9351788
  52.0295753  16.7106913  47.3536422  52.1179098  16.5233053  48.2014632
  52.4585465  16.0644343  46.9541269  52.1057855  16.5869921  47.4208173
  51.2051192   7.9990809  30.4615683  51.4447196   8.2068793  29.6491026
  51.5267033   7.1948318  30.5704628  51.2888350   7.9104910  30.3576236
  59.8076381   6.0778645  42.3522761  58.9704802   6.1480833  42.5870355
  59.7764612   6.0803140  41.4797063  59.6794664   6.0888872  42.2582309
  46.2041110   8.2211681  48.0671129  46.3761614   8.1117576  48.9156411
  46.7410468   8.8666087  47.8302322  46.3086114   8.3003683  48.1576226
  44.8698547   2.3354524  31.0053334  44.6874121   2.5526405  30.1794327
  45.7324160   2.4493537  31.0611949  44.9703137   2.3844422  30.8907821
  54.5306567  10.2734322  37.9434652  55.2864082  10.7065836  37.9823561
  54.6368892   9.6239092  38.5169288  54.6576738  10.2411806  38.0332678
  57.5686738  14.1007599  38.6937055  57.1321970  14.1044342  39.4496026
  57.2349654  14.7813098  38.2616633  57.4549358  14.2020055  38.7417888
  52.1415812  16.1415932  50.0180205  52.9256229  16.2546780  50.3835948
  51.9412406  15.3157069  50.2138891  52.2281837  16.0362651  50.1014591
  40.5102827  10.8143612  42.9024049  40.2441243   9.9982729  43.0615040
  40.5241392  10.8596768  42.0319565  40.4727550  10.7000517  42.7977531
  44.4160574   5.6128697  29.5175807  43.7018751   5.3266876  29.9298240
  44.9004543   5.9525322  30.1582195  44.3819938   5.6210346  29.6731442
  45.2601434   4.3521990  45.5491057  44.5673231   3.8818970  45.7951789
  45.8761761   4.1260295  46.1232764  45.2485964   4.2489122  45.6700210
  60.7031085  10.8188519  37.5856692  61.3647519  10.2579188  37.4852601
  60.0622497  10.3240550  37.9109383  60.7059952  10.6624928  37.6189032
  51.5907892  14.1158651  29.8937616  52.0059041  13.7843674  29.2022111
  50.7599822  13.8827553  29.7657752  51.5295901  14.0329906  29.7728463
  40.9196241  11.6002392  40.1835794  40.7371814  11.5749278  39.3308086
  41.6545910  12.0701329  40.2224702  41.0010305  11.6663754  40.0633712
  56.9895915  11.8353902  37.3268681  57.2251504  11.9799100  36.4995532
  57.1385479  12.5996310  37.7200195  57.0461718  11.9692956  37.2632285
  43.9841993   8.3187394  46.6917902  44.7081965   8.3040425  47.1782797
  44.0858129   9.0282750  46.1939870  44.1060202   8.4212098  46.6896689
  58.8186372  10.6755567  35.1638285  59.1494589  11.2083208  34.5578380
  59.3919460  10.7294455  35.8200236  58.9520051  10.7625136  35.1716067
  51.3586942  11.7986479  51.5566849  50.5659923  12.1129991  51.7419469
  51.4735869  12.0137947  50.7187634  51.2582353  11.8770316  51.4605184
  54.0318261   8.5220470  35.8461865  54.1265115   9.2609764  36.3001491
  53.4077105   8.0937946  36.2796430  53.9527291   8.5681791  35.9770013
  52.2870735  11.7006683  46.4952146  52.8609597  11.0633927  46.6500710
  52.2085539  11.7010765  45.6261804  52.3603970  11.6071794  46.3898557
  40.8867151   8.4795892  40.3334860  41.4640654   8.3432343  40.9727105
  40.1881213   8.0231676  40.5880444  40.8688173   8.3918158  40.4657150
  54.2841282  10.3669210  29.0798817  54.2021445  10.4371397  29.9453804
  54.9221003  10.9298954  28.8882558  54.3661120  10.4608181  29.1788767
  47.6434454  10.1329948  38.5473343  47.3853698   9.3001683  38.5204643
  47.6982936  10.3587561  37.7065844  47.6134231  10.0427719  38.4193480
  46.6169166   7.6867710  39.0338238  46.0418757   7.8459879  39.6702199
  46.2404842   7.0503119  38.5706689  46.4771978   7.6165523  39.0592796
  50.2842454   6.1591060  43.8930617  49.8956887   5.7345277  43.2382808
  49.6197153   6.4073209  44.4007643  50.1289382   6.1329781  43.8718484
  36.3625985   7.3307785  37.0482679  36.4486236   6.9539653  37.8296209
  36.9901782   6.9568231  36.5702637  36.4682536   7.2193267  37.0928156
  51.3881393  10.3889664  32.0907423  52.2022031  10.6804557  31.9790195
  51.3240534   9.7349527  31.5165716  51.4984132  10.3354859  31.9896261
  57.6090883  13.0715660  46.5036999  57.3729520  12.2403725  46.3849060
  58.2534112  13.0201268  47.0891843  57.6685554  12.9413348  46.5722893
  47.8992116   9.0813471  31.5554625  48.2837269   8.8621178  32.3071170
  47.6503736   9.9076417  31.6855701  47.9194188   9.1711618  31.6855701
  48.0660656   2.3619887  51.2717209  47.7514097   3.1319449  51.0086772
  47.7450589   1.7990143  50.6869436  47.9719575   2.3930155  51.1458559
  58.6327303  12.8560109  42.5665294  58.3273120  13.5888166  42.9278609
  57.9133519  12.4498039  42.2858080  58.4814646  12.9041842  42.5778431
  64.3329096   9.4953110  41.8933638  64.2653596   9.5149069  41.0236224
  64.3184758  10.3383437  42.1189308  64.3207852   9.6226844  41.7986115
  43.4016530  14.6841467  35.9267965  42.5754647  14.9303204  35.8002244
  43.4628521  14.6053548  36.7930023  43.2890696  14.7086416  36.0356910
  45.6192553   0.7510408  36.8863405  44.7514979   0.8233008  36.9521015
  45.9067758   1.5532487  37.0751381  45.5332301   0.8804555  36.9238172
  62.1187713   8.2697496  40.1680232  62.6695634   7.6365565  40.4077324
  62.1031828   8.8012889  40.8595737  62.1972909   8.2546444  40.3059090
  48.7710104  12.1036093  44.7140126  48.2721797  12.8151861  44.7925014
  49.5810328  12.4236760  44.6758288  48.8166210  12.2562942  44.7196694
  45.0338221  11.3659046  38.9602847  44.7451470  10.7396518  39.4948574
  45.9021569  11.3079334  39.0267527  45.1198473  11.2646591  39.0493801
  55.8216119   6.5093830  39.2784828  55.4780885   5.7884165  39.6292078
  55.9209162   6.3007681  38.4363187  55.7858162   6.3718033  39.2056508
  56.2829148  12.9719534  34.8208817  56.8487181  13.6312744  34.7367360
  55.6357052  13.3169232  35.2925219  56.2707905  13.1201475  34.8781573
  47.6977162   4.9617138  50.0102424  46.8876937   5.2674917  49.8992266
  48.1751848   5.6822720  50.1255008  47.6480640   5.1131739  50.0109495
  43.5459905   4.2268667  34.3280282  43.2584701   3.8569938  33.5912229
  44.2330374   4.6963523  34.0663987  43.6048803   4.2415637  34.1795357
  52.7535726  15.9158318  34.2445896  52.5122402  15.1826179  33.8372961
  52.9337059  16.4645175  33.5912229  52.7443350  15.8880709  34.0876119
  46.3813577   8.0921616  35.7747686  47.1036229   8.2562774  35.3151492
  45.9021570   8.8131280  35.6687026  46.4177308   8.2219845  35.6913300
  54.3407085   4.4285414  41.1544371  53.5018185   4.4546693  40.9182635
  54.4111452   5.0756150  41.7349718  54.2275478   4.5281540  41.2053488
  44.0321194  10.4979688  44.8801826  44.5442291  10.7763941  44.2310586
  43.7457536  11.2368982  45.2464639  44.0656057  10.6482042  44.8391704
  58.2164608   9.6353401  38.4405613  58.1298583   9.7908827  39.2940392
  57.7615088  10.2791477  38.0665018  58.1367865   9.7529156  38.5112720
  41.1188100   5.0049880  35.1765563  41.2204236   5.8076041  35.5046538
  41.9143987   4.8037216  34.8788643  41.2516006   5.0935779  35.1800918
  47.5504919   2.5906077  44.9402868  47.3588116   2.6061211  45.7902291
  48.4003515   2.7869751  44.9169523  47.6480641   2.6220428  45.0626163
  41.9351832   5.1197058  42.9186684  41.7937324   4.2680999  43.0431192
  42.2192395   5.1625719  42.0948890  41.9559678   4.9996808  42.8154308
  52.0890424   6.9564148  37.0631173  51.8425139   6.8759899  37.8967962
  52.4175547   6.1717616  36.8693700  52.1011668   6.8290414  37.1578696
  55.9838473  13.6647508  40.8517954  55.8452833  14.3628553  41.3566696
  55.2038471  13.5096164  40.4954136  55.8481700  13.7447674  40.8744228
  54.3216558   9.9643883  47.1040336  54.3164597   9.0923700  47.1082762
  55.0277552  10.1632052  46.6309791  54.4261562   9.8647757  47.0347371
  48.0487452   9.6920867  46.4754156  48.1930827  10.2722075  45.8397266
  48.3963100  10.0697164  47.1804010  48.1214913   9.8341571  46.4853151
  50.2207369   8.8911035  44.2579287  49.4730683   9.0842050  43.8527565
  50.3748894   8.0656255  44.0203409  50.1329797   8.7976147  44.1624693
  57.4791846  13.0225761  31.6134453  57.0998655  12.2362899  31.6063742
  56.8158091  13.5712618  31.4706097  57.3250321  12.9870585  31.5915250
  50.4609146   2.7861586  45.1474691  50.9181760   3.5185560  45.2747483
  50.5365475   2.3628051  45.9061947  50.5400116   2.8318824  45.2775768
  42.7042137   3.0327406  46.2364135  42.1684327   2.4207764  46.5524902
  42.7659902   3.6075542  46.8897801  42.6337770   3.0274333  46.3799561
  48.3391524   4.7763690  41.9916515  47.5487599   4.5955150  42.3133851
  48.7352147   3.9990642  41.9746810  48.2808400   4.6351151  42.0369063
  52.8257415  13.6051464  27.4323229  53.5930400  13.6651589  27.0229080
  52.3788724  13.0331906  26.9479547  52.8730842  13.5288040  27.3000939
  53.7235210  12.4106120  39.7175961  53.0480212  12.1791352  40.2189348
  53.7327586  11.8027303  39.0918066  53.6253715  12.2865045  39.6992113
  50.8529354   7.2523949  46.4740014  50.7888495   8.1133905  46.3460151
  50.9926542   6.9355942  45.6735565  50.8644824   7.3324116  46.3368227
  55.7251945  15.2671252  31.9486139  55.8071782  16.0738239  31.6247590
  56.2101687  15.2867212  32.6726912  55.8089103  15.3891915  32.0073038
  49.5348448   9.9456088  40.6156217  49.1110697  10.1460587  39.8795235
  49.3593303   9.0984936  40.7280517  49.4459329   9.8504870  40.5229907
  44.8230893  10.4408140  36.0484189  44.9795512  10.3754943  36.9040181
  45.1631486  11.2156692  35.8362869  44.8964128  10.5457338  36.1438784
  51.3610038   9.8166023  34.9177553  51.9025583   9.3136404  35.3816173
  51.6756597   9.7631218  34.1067038  51.4874435   9.7345444  34.8661365
  55.2327145  14.0268671  52.0304465  56.0462010  13.7553820  52.1909597
  55.0722111  13.7276211  51.2264661  55.3297094  13.9423597  51.9349871
  52.5099307   4.7102328  44.9699853  52.7241277   4.0713242  44.4163207
  51.8933206   5.1548152  44.5407715  52.4504636   4.6812472  44.8250284
  53.9203975  17.6321076  36.4154074  53.5283767  17.3287791  35.6976940
  54.0757047  18.4690166  36.2259028  53.8857565  17.7104913  36.2810571
  41.3965155   7.6243090  36.3644957  41.7764119   8.0427635  35.7005224
  40.8220519   8.2056546  36.6713800  41.3676479   7.7720949  36.3121698
  54.6738395   6.3191393  45.9083160  53.8615077   6.0117283  45.9896333
  55.1328330   5.8390393  46.4725872  54.6218780   6.2027885  46.0037754
  54.0843650  14.1971065  36.3560105  53.7258305  14.3685708  37.1324137
  53.5982361  14.6584271  35.7988103  53.9602347  14.2910036  36.3885374
  48.8732015   9.8770230  28.8960339  49.1624540  10.6535113  29.1703913
  48.9603814   9.3658962  29.5974838  48.9286271   9.9162149  29.0402837
  51.7691903   7.7251465  50.6911862  52.2391534   8.3493581  51.0779737
  51.8153783   7.0568440  51.2505077  51.8459778   7.7186145  50.8311934
  55.2448389  15.0874961  47.3027305  55.8828110  14.5935157  46.9689761
  54.6022481  15.0152361  46.7179532  55.2442616  15.0033970  47.1669660
  56.9705389   6.9364107  41.8693221  56.5432997   6.8490456  41.1141321
  56.3331442   7.0441882  42.4548065  56.8134996   6.9396767  41.8438663
  55.3002646  15.7794769  43.9432662  56.0895024  15.4283834  44.0634744
  55.4746244  16.5931158  43.6809296  55.4422927  15.8480626  43.9220530
  45.0395956   9.1903495  40.9960451  44.1983963   9.0907369  41.2039345
  45.2485964   9.9598975  41.3474772  44.9460649   9.2895538  41.0787766
  42.5171523   6.8123032  38.8245202  42.1228221   6.8866044  38.0495311
  41.9611640   7.1980978  39.3753563  42.3774335   6.8804807  38.7912861
  48.8512621   7.1184894  40.2458049  48.5475759   6.5640882  40.8468456
  48.1492042   7.2977104  39.7586083  48.7028831   7.0629677  40.2627754
  47.9078718   4.4285414  34.8102750  48.1838452   3.7104327  34.3980318
  48.5077387   5.0270334  34.6023856  48.0371983   4.4105785  34.7183512
  44.9304764  11.5847257  42.4152084  44.3392697  12.2256756  42.3855099
  45.6925788  12.0084875  42.3883383  44.9553025  11.7423096  42.4067231
  45.3265387   2.7449255  43.0820101  45.7866868   2.8188185  43.8195225
  45.3721494   3.5430509  42.7319923  45.4015942   2.8743402  43.1392858
  46.9748737   3.4115950  47.6492129  46.5834302   2.7649297  48.0847906
  47.1434599   4.0027385  48.2686384  46.9419647   3.4030218  47.8054835
  61.0495186  11.4153027  43.4129362  61.1078309  11.8639676  44.1589339
  60.4161653  11.8251840  42.9759442  60.9646481  11.5426762  43.4581910
  54.6894280  17.0356569  39.8484108  54.4913969  17.5247383  39.1540320
  54.0681991  17.2397810  40.4268242  54.5681845  17.1373107  39.8307332
  48.7502259   8.8041466  34.1894353  49.4944304   9.1915742  34.4277303
  48.8962955   7.9598891  34.3534840  48.8812844   8.7371939  34.2488322
  51.7380134   4.3766939  40.0888272  51.2640089   3.8508701  40.5993583
  52.1098270   3.8296412  39.5203133  51.7230023   4.2182936  40.0803419
  42.1153165   6.3738446  45.4571818  42.9778778   6.2734155  45.3709148
  41.7844948   5.7933155  44.8957390  42.1938361   6.2730072  45.3617224
  58.0016865   9.4369315  41.4995052  57.7615088   8.5975730  41.5037479
  58.4808872   9.5169481  42.2235826  58.0369049   9.3250714  41.6069855
  53.6663634   5.2703494  33.1514026  53.1386653   5.3532238  32.4619735
  54.1259342   6.0121365  33.1478670  53.6565485   5.3924156  33.0488721
  60.0022052   6.2170772  39.4524312  59.7631822   6.1766606  38.6145096
  60.1655953   7.0641924  39.5790033  59.9912356   6.3362857  39.3477794
  56.6068082  10.6020721  45.3829357  57.3302281  10.1493248  45.2040377
  56.3418045  10.8825387  44.6001685  56.6749356  10.5771690  45.2408072
  45.4754951   5.1980895  42.1182236  44.8508021   5.2099287  41.5108189
  45.1400545   5.6741070  42.7673476  45.3340442   5.2699412  42.1238804
  45.6596699   3.5406013  28.1754921  45.3109504   4.1925738  28.6386470
  45.1793145   3.5263126  27.4478792  45.5366943   3.6349067  28.1366012
  42.1880626  13.2581355  43.5586000  41.6580551  12.5673794  43.6080975
  42.4605719  13.2491540  42.7298709  42.1505348  13.1548487  43.4433416
  53.2200717  13.8407057  32.2823683  53.9434916  14.3065170  32.1388256
  52.7801308  13.9080667  31.5321280  53.2616409  13.9190894  32.1508464
  52.3886872  10.7004599  43.5324372  51.7743865  10.1562650  43.8273007
  52.9054157  10.1868836  43.0530188  52.3742534  10.5441008  43.5048600
  51.6283169  11.7708869  41.2668670  51.2010777  11.1458588  40.8334106
  51.6208113  11.4883791  42.0927678  51.5642310  11.6361650  41.3248498
  44.7445696   6.8074043  44.3357104  44.9039183   6.0517367  44.7408826
  44.5638590   7.3564982  44.9897842  44.7411055   6.7767856  44.4919810
  49.9568879   2.6477624  41.4811204  49.9811366   2.1137736  40.7923984
  50.2080352   2.1394933  42.1436795  49.9978797   2.4938528  41.4775849
  37.4676468   9.9309119  40.9154348  37.3619917   9.8855963  40.0506433
  36.7176688  10.2762900  41.1968633  37.3412071   9.9750027  40.8291678
  46.2370201   1.3748442  40.8616949  46.2768572   1.8757649  41.5751656
  45.4119865   1.4658836  40.5922872  46.1209727   1.4630259  40.9267487
  48.4199814  10.9409182  48.9637243  47.5695444  11.0780897  49.0994888
  48.5827941  10.2072960  49.4084945  48.3183677  10.8523283  49.0492842
  47.6584564   7.8908952  43.1590848  46.8276494   8.0582770  42.9526096
  47.6036081   7.5144903  43.9439733  47.5273979   7.8598683  43.2439376
  45.4668347   1.3817845  48.7947258  46.0921051   0.8379978  49.0676691
  45.0118827   0.9012763  48.2255049  45.4916608   1.2307326  48.7508852
  46.0320608   6.1664544  33.6880965  46.1723569   6.6637008  34.3909607
  46.5303141   5.4650838  33.8295179  46.1261689   6.1366522  33.8132544
  46.0620830   7.0331655  31.0173542  46.6965910   7.6292080  30.9523004
  46.1446441   6.7335112  31.8319412  46.1677381   7.0772563  31.1276629
  59.0403396   9.5647132  43.8859906  59.6321236  10.2044383  43.9178104
  59.4762391   8.8670169  44.1751973  59.1921827   9.5565482  43.9340739
  47.6399813   2.9645630  30.9918984  47.9615654   2.4848713  30.3378247
  47.9026757   3.7745276  30.8009796  47.7265839   3.0135528  30.8674476
  50.8696786  13.9864504  44.5117800  50.3621877  14.5400351  44.9558431
  50.5723432  14.0472794  43.6936575  50.7501671  14.0770816  44.4566257
  42.5673818   9.2299495  34.2863088  43.0766048   9.8264003  34.6674394
  43.0408091   8.9625469  33.6039508  42.7117194   9.2785311  34.2417611
  53.4804566  17.9027762  32.4421744  52.7633876  17.7288624  31.9768981
  54.1311304  17.6680334  31.9097230  53.4706417  17.8423555  32.2950962
  56.0652538   6.7792351  36.1863049  55.3943727   7.3222053  36.0576114
  56.7592288   7.2487206  35.9444744  56.0681405   6.9290622  36.1318577
  44.9264350   5.8655754  37.1536269  44.2076339   6.2819887  37.4209132
  45.2976712   6.4309993  36.6027907  44.8756282   6.0105035  37.1119076
  54.2263931   6.4983603  43.0438264  54.2061858   6.3166898  43.8973043
  54.2743132   7.3695621  43.0197848  54.2298572   6.6000141  43.1661559
  52.1710261  13.0870795  48.9686741  52.1306116  12.4420472  48.3831897
  52.9833579  13.0307412  49.2812153  52.2853414  12.9829762  48.9283690
  52.1283022  18.2979606  39.6235508  51.7299306  18.4081876  38.8556329
  51.5134242  18.5061672  40.2062068  51.9781912  18.3453174  39.5966808
  50.7010924   4.9053754  32.4909648  50.1075764   5.2270750  31.9394215
  50.7386202   4.0594849  32.2830754  50.6185313   4.8278082  32.3792419
  53.5768741   4.8633258  35.9211398  53.3482434   4.8865960  35.0789757
  53.8366817   4.0390725  36.0406409  53.5814929   4.7449338  35.8136596
  47.8587969   6.7167731  45.5236499  47.3466872   6.1088914  45.8821530
  47.6867466   7.4324324  45.9910474  47.7577606   6.7331031  45.6452722
  42.7053684   5.1605307  48.1738860  42.5356274   5.8206682  47.6287067
  42.2619634   5.3711868  48.8951350  42.6153018   5.2891289  48.2000490
  46.6313503   3.4009805  37.2165594  47.1070870   3.7626885  36.5815775
  46.1302103   4.0566272  37.4965737  46.6278862   3.5503993  37.1642335
  59.8624865  12.8731573  33.0078599  60.2458471  13.6222929  33.2376696
  59.0668978  13.1197392  32.7490588  59.8018647  13.0201267  33.0036173
  51.7357040   4.6391976  47.9638754  52.2928470   4.4105786  47.3317220
  51.4118105   5.3997642  47.6873967  51.7703450   4.7175813  47.8295251
  39.6055749   8.0652172  43.4327350  39.0582468   7.3952818  43.5508219
  40.3948127   7.6982020  43.4970817  39.6407932   7.9117159  43.4596051
  49.4540157   7.7259629  48.9290761  50.2051484   8.0411306  49.2430315
  49.6462733   7.5238800  48.1024683  49.5931571   7.7427011  48.8534157
  48.6740157   5.5451004  30.5838978  49.0539121   5.5630634  29.7990093
  47.9332753   5.9904993  30.4629825  48.6208994   5.6132779  30.4502546
  38.3642718   7.2772980  40.5873373  38.1864479   6.8249589  41.3128289
  38.0761740   8.0799141  40.7711851  38.2955671   7.3295538  40.7216876
  54.0266299   8.5330697  39.8250764  54.5219964   7.8153693  39.7854784
  53.2166075   8.2301495  39.7105251  53.9810192   8.3828344  39.8024489
  49.4724911  12.3828511  31.9747768  48.6636233  12.0595184  31.9281078
  49.9799820  11.6761733  31.9076017  49.4274577  12.2309827  31.9578062
  40.1015188   9.8100704  37.6995132  39.2360707   9.7986394  37.5877904
  40.2014004   9.6230927  38.5466272  39.9889355   9.7806765  37.8084077
  56.0918118  11.2834385  42.5127892  56.5173190  10.7608807  41.9598317
  55.7275038  11.8815222  41.9916515  56.1004721  11.2944612  42.3536902
  52.6796717  14.9968649  38.8429050  53.1507896  15.7108912  39.0119035
  53.0156896  14.3967399  39.3788919  52.7991833  15.0140114  38.9461426
  54.7673702  16.6069963  51.0221122  54.8770668  15.8178523  51.3777869
  55.0964599  16.5175899  50.2195460  54.8326108  16.4775816  50.9563513
  53.3170664  14.7886583  45.6056742  52.7691610  14.1644467  45.3376808
  53.7783693  14.9780855  44.8900822  53.3037873  14.7245634  45.4607174
  48.6659327   1.7712533  33.2666610  49.4875022   1.9410846  33.0248304
  48.2028978   1.9259794  32.5432907  48.7190490   1.8194266  33.1238254
  43.0685218  13.5271711  40.9203846  43.6730075  13.4867545  40.2917667
  42.8612531  14.3742863  40.9507902  43.1274115  13.6459713  40.8319963
  52.8828990  15.7937656  42.1366084  53.7027364  15.6500622  42.3982379
  52.6023068  16.4183855  42.6782522  52.9625733  15.8648008  42.2554023
  38.3036500  12.5106328  40.7902769  38.2060778  11.7002600  41.0992826
  39.0865370  12.4898122  40.4049038  38.4052637  12.3873419  40.7789632
  69.3542641  23.4502508  35.1008960  69.3236645  24.3047144  35.2727229
  69.9523989  23.1497800  35.6595104  69.4379798  23.5319004  35.2083762
  62.5542325  22.5378159  39.8561890  61.6980221  22.6986657  39.9071007
  62.6009979  21.6670223  39.8766951  62.4341437  22.4328961  39.8667956
  65.8636042  28.8064684  49.4622347  66.5702809  28.3116715  49.5909281
  66.0523977  29.2473766  48.7325005  65.9963947  28.7983035  49.3731392
  62.3908425  32.4966246  31.0484669  62.0559793  33.1743168  30.6128891
  62.9035295  32.1071557  30.4601541  62.4174006  32.5390824  30.8971461
  61.9312716  34.4480515  36.9895781  62.3152096  35.0167413  36.4500556
  61.8671857  33.7230025  36.5101597  61.9786143  34.4255978  36.8389643
  65.3994146  24.5970203  42.4993542  65.9450106  25.2755289  42.5587512
  65.3411023  24.4557664  41.6395124  65.4710061  24.6762204  42.3805603
  58.5168221  32.0859269  37.8861894  58.6178584  31.2759623  38.1959022
  57.9209966  31.9916215  37.2561573  58.4440760  31.9524297  37.8388133
  67.1759215  26.0254810  33.3727270  67.0598741  26.7762496  33.8019408
  67.9715102  25.7678763  33.6223357  67.2763804  26.0989657  33.4731362
  54.0123353  20.2765286  40.4098536  53.3928385  19.6857933  40.2408551
  53.9107217  20.8676721  39.7762859  53.9061028  20.2769368  40.2903525
  59.0589541  30.0148833  34.6596612  59.3805382  30.5554040  34.0557920
  59.7061637  29.4445604  34.7918902  59.2015596  30.0108008  34.5903648
  61.1091249  22.0164828  34.7430999  61.8071413  22.1952955  35.2352462
  61.4243581  21.4935167  34.1201388  61.2586586  21.9658600  34.7233009
  53.7392486  23.8217568  42.6542105  53.6151183  24.4080013  43.2891924
  54.3910770  23.3277763  42.9554380  53.8166135  23.8356372  42.7928034
  61.2979184  28.4035273  34.7310790  61.7372819  27.7952373  35.1765563
  61.1483847  28.0242646  33.9596255  61.3400650  28.2573744  34.6829958
  58.7650827  26.9979285  41.9329616  59.4099830  26.5051728  41.6140564
  59.0052604  27.1404071  42.7595694  58.8961412  26.9456727  42.0079149
  61.3036918  29.8434190  41.5836508  61.5860161  29.0485596  41.3623264
  62.0323079  30.3214778  41.6041569  61.4526482  29.7968787  41.5539524
  59.2818112  17.3857224  38.8252274  58.9521442  17.8368368  38.1555972
  58.6063114  17.3073388  39.3725280  59.1328548  17.4408360  38.8075497
  64.8988521  26.7562454  31.6841560  64.8139816  27.6123421  31.8291129
  65.3872904  26.4806778  32.3523719  64.9577418  26.8419776  31.8043641
  66.4894520  13.3742747  37.0701884  66.1747961  14.0646226  37.5022307
  65.9721462  13.3187530  36.3687385  66.3658990  13.4677636  37.0298833
  65.8306954  23.3747248  33.1839295  65.3018425  23.5906882  33.8436601
  66.3531974  24.0683387  33.1040264  65.8295407  23.5090385  33.2694894
  71.2855007  28.9493553  38.5572339  70.4552710  29.1604196  38.7205756
  71.2364259  28.1230607  38.2814623  71.1561742  28.8583159  38.5409705
  57.7206562  27.2710465  31.9846763  57.1363777  27.7760496  32.3912627
  57.3176657  27.0452852  31.2443355  57.5745865  27.3118713  31.9351788
  59.3464744  31.7797407  41.3920249  58.8291686  31.4204822  40.7881557
  60.0439135  31.2559581  41.4026315  59.3730325  31.6495095  41.3050507
  63.0028336  32.2292221  47.3536422  63.0911682  32.0418361  48.2014632
  63.4318049  31.5829650  46.9541269  63.0790439  32.1055229  47.4208173
  60.5698796  31.5123381  46.3354084  60.0069631  31.0995991  46.8593745
  61.3319819  31.4376287  46.7547227  60.5993245  31.4400781  46.4747084
  62.1783776  23.5176117  30.4615683  62.4179780  23.7254101  29.6491026
  62.4999617  22.7133626  30.5704628  62.2620934  23.4290218  30.3576236
  57.4874066  15.4469513  34.3075221  58.2420034  15.8147830  34.0692272
  57.3101601  15.8209067  35.0754401  57.5728545  15.5567701  34.3860110
  70.7808965  21.5963953  42.3522761  69.9437386  21.6666140  42.5870355
  70.7497196  21.5988448  41.4797063  70.6527247  21.6074180  42.2582309
  57.1773694  23.7396989  48.0671129  57.3494198  23.6302884  48.9156411
  57.7143052  24.3851394  47.8302322  57.2818698  23.8188991  48.1576226
  55.8431131  17.8539832  31.0053334  55.6606704  18.0711713  30.1794327
  56.7056744  17.9678845  31.0611949  55.9435720  17.9029730  30.8907821
  56.0798266  30.1128629  42.7489628  56.6196491  29.9699760  43.4193000
  55.3968212  30.5125380  43.1173654  56.0590420  30.1508300  42.9024049
  61.5230850  14.8566243  34.0402358  62.2517011  14.6782197  33.5940514
  61.6125743  15.6984322  34.2509536  61.6437512  14.9550121  34.0055876
  65.5039151  25.7919630  37.9434652  66.2596666  26.2251144  37.9823561
  65.6101475  25.1424400  38.5169288  65.6309321  25.7597114  38.0332678
  68.5419322  29.6192907  38.6937055  68.1054554  29.6229650  39.4496026
  68.2082237  30.2998406  38.2616633  68.4281942  29.7205363  38.7417888
  63.1148395  31.6601240  50.0180205  63.8988812  31.7732088  50.3835948
  62.9144990  30.8342377  50.2138891  63.2014421  31.5547959  50.1014591
  51.4835411  26.3328920  42.9024049  51.2173826  25.5168037  43.0615040
  51.4973975  26.3782076  42.0319565  51.4460133  26.2185825  42.7977531
  68.4616805  16.6606735  40.9366483  69.1042713  16.7304840  41.5228398
  68.7139826  15.9935958  40.4346025  68.5938937  16.5733084  40.9493762
  55.3893158  21.1314004  29.5175807  54.6751335  20.8452184  29.9298240
  55.8737127  21.4710630  30.1582195  55.3552521  21.1395654  29.6731442
  56.2334017  19.8707298  45.5491057  55.5405814  19.4004278  45.7951789
  56.8494345  19.6445603  46.1232764  56.2218547  19.7674430  45.6700210
  63.2718789  33.5711342  43.6646661  62.4734035  33.3310842  43.9220530
  63.7204800  33.6225735  44.4113709  63.2193400  33.5433733  43.8131585
  71.6763668  26.3373827  37.5856692  72.3380102  25.7764496  37.4852601
  71.0355080  25.8425858  37.9109383  71.6792536  26.1810236  37.6189032
  62.5640476  29.6343958  29.8937616  62.9791624  29.3028982  29.2022111
  61.7332405  29.4012861  29.7657752  62.5028485  29.5515214  29.7728463
  67.9628499  27.3539209  37.3268681  68.1984088  27.4984408  36.4995532
  68.1118062  28.1181617  37.7200195  68.0194302  27.4878264  37.2632285
  54.9574576  23.8372702  46.6917902  55.6814549  23.8225733  47.1782797
  55.0590713  24.5468058  46.1939870  55.0792785  23.9397406  46.6896689
  69.7918956  26.1940875  35.1638285  70.1227173  26.7268516  34.5578380
  70.3652044  26.2479763  35.8200236  69.9252635  26.2810444  35.1716067
  62.3319526  27.3171787  51.5566849  61.5392506  27.6315299  51.7419469
  62.4468453  27.5323255  50.7187634  62.2314936  27.3955624  51.4605184
  65.0050845  24.0405778  35.8461865  65.0997699  24.7795072  36.3001491
  64.3809688  23.6123254  36.2796430  64.9259875  24.0867099  35.9770013
  63.2603319  27.2191991  46.4952146  63.8342180  26.5819235  46.6500710
  63.1818122  27.2196073  45.6261804  63.3336553  27.1257102  46.3898557
  65.2573866  25.8854518  29.0798817  65.1754029  25.9556705  29.9453804
  65.8953586  26.4484262  28.8882558  65.3393703  25.9793489  29.1788767
  58.6167037  25.6515256  38.5473343  58.3586281  24.8186991  38.5204643
  58.6715520  25.8772869  37.7065844  58.5866815  25.5613027  38.4193480
  63.6968087  17.7543707  38.6477436  62.9924414  17.2652892  38.8061355
  63.7453062  17.7666181  37.7765880  63.5998139  17.6833354  38.5416776
  57.5901749  23.2053018  39.0338238  57.0151341  23.3645187  39.6702199
  57.2137426  22.5688427  38.5706689  57.4504562  23.1350831  39.0592796
  61.2575038  21.6776368  43.8930617  60.8689471  21.2530585  43.2382808
  60.5929736  21.9258517  44.4007643  61.1021966  21.6515089  43.8718484
  70.8998307  21.4351372  36.6678447  70.6434872  20.6231314  36.4776329
  71.7427621  21.4428939  36.4408634  70.9864332  21.3163370  36.6063264
  65.0801399  15.3750996  41.4054601  65.4611911  14.6929167  41.7922475
  64.2764684  15.0860598  41.2230265  65.0177861  15.2318045  41.4358657
  62.3613976  25.9074972  32.0907423  63.1754615  26.1989865  31.9790195
  62.2973117  25.2534835  31.5165716  62.4716715  25.8540167  31.9896261
  68.5823466  28.5900968  46.5036999  68.3462104  27.7589033  46.3849060
  69.2266695  28.5386575  47.0891843  68.6418137  28.4598656  46.5722893
  58.2321884  29.3796490  37.2179736  58.8695831  29.1408237  37.7631529
  58.6576956  29.5833649  36.4832896  58.3898051  29.3747500  37.1896893
  58.8724699  24.5998779  31.5554625  59.2569852  24.3806486  32.3071170
  58.6236320  25.4261725  31.6855701  58.8926772  24.6896926  31.6855701
  59.0393240  17.8805195  51.2717209  58.7246681  18.6504757  51.0086772
  58.7183172  17.3175451  50.6869436  58.9452159  17.9115463  51.1458559
  69.6059887  28.3745417  42.5665294  69.3005704  29.1073474  42.9278609
  68.8866103  27.9683347  42.2858080  69.4547229  28.4227150  42.5778431
  60.6143356  29.8568912  38.8973522  60.6882365  29.6944084  39.7515372
  61.4312863  30.0459102  38.6534003  60.7459715  29.8605655  38.9871547
  75.3061679  25.0138418  41.8933638  75.2386179  25.0334377  41.0236224
  75.2917342  25.8568745  42.1189308  75.2940436  25.1412152  41.7986115
  56.5925137  16.2695716  36.8863405  55.7247562  16.3418316  36.9521015
  56.8800341  17.0717795  37.0751381  56.5064885  16.3989863  36.9238172
  65.7158026  16.4173575  45.2174727  66.4611618  16.2283386  44.8038153
  65.2995330  16.9431813  44.6588584  65.7643000  16.4675721  45.0739301
  59.1547942  32.8203655  33.6286995  59.4446241  32.4292637  32.9046222
  59.8851423  33.0020360  34.0692271  59.3054826  32.7897469  33.5869802
  73.0920296  23.7882804  40.1680232  73.6428218  23.1550873  40.4077324
  73.0764412  24.3198197  40.8595737  73.1705493  23.7731752  40.3059090
  59.7442687  27.6221401  44.7140126  59.2454381  28.3337169  44.7925014
  60.5542912  27.9422068  44.6758288  59.7898794  27.7748250  44.7196694
  56.0070805  26.8844354  38.9602847  55.7184054  26.2581825  39.4948574
  56.8754153  26.8264642  39.0267527  56.0931057  26.7831898  39.0493801
  66.7948703  22.0279138  39.2784828  66.4513469  21.3069473  39.6292078
  66.8941745  21.8192989  38.4363187  66.7590746  21.8903341  39.2056508
  59.2621813  36.1700428  35.4777837  59.9145871  35.6376870  35.7068863
  58.5647422  35.8169080  35.8645711  59.2552531  36.0389951  35.5690005
  56.2103078  28.5239605  34.8845212  56.9649046  28.9052644  35.0980674
  55.6173691  28.9750749  35.3391908  56.2339792  28.6468433  34.9828090
  67.2561732  28.4904842  34.8208817  67.8219764  29.1498052  34.7367360
  66.6089635  28.8354540  35.2925219  67.2440488  28.6386783  34.8781573
  58.6709745  20.4802446  50.0102424  57.8609521  20.7860225  49.8992266
  59.1484432  21.2008028  50.1255008  58.6213224  20.6317047  50.0109495
  57.5301305  29.6948167  40.2585327  57.0082058  29.8348458  40.9437192
  57.9175325  28.9358831  40.4487444  57.5105006  29.6033690  40.3886404
  54.5192489  19.7453975  34.3280282  54.2317285  19.3755246  33.5912229
  55.2062957  20.2148831  34.0663987  54.5781386  19.7600945  34.1795357
  63.7268310  31.4343626  34.2445896  63.4854986  30.7011487  33.8372961
  63.9069643  31.9830483  33.5912229  63.7175934  31.4066017  34.0876119
  58.9567630  26.7252186  35.6566818  58.7610413  27.3326920  35.0627121
  59.1801976  26.0320130  35.1758492  58.9602272  26.7129711  35.4982899
  57.3546160  23.6106924  35.7747686  58.0768812  23.7748082  35.3151492
  56.8754153  24.3316588  35.6687026  57.3909891  23.7405153  35.6913300
  65.3139668  19.9470722  41.1544371  64.4750769  19.9732001  40.9182635
  65.3844035  20.5941458  41.7349718  65.2008062  20.0466848  41.2053488
  55.0053777  26.0164996  44.8801826  55.5174874  26.2949249  44.2310586
  54.7190120  26.7554290  45.2464639  55.0388640  26.1667350  44.8391704
  63.7608946  16.8456099  35.8871987  64.4635299  16.6463848  35.4091946
  63.4953135  16.0732042  36.1940831  63.8255579  16.7019065  35.8617429
  69.1897192  25.1538709  38.4405613  69.1031166  25.3094135  39.2940392
  68.7347672  25.7976785  38.0665018  69.1100449  25.2714464  38.5112720
  52.0920684  20.5235188  35.1765563  52.1936820  21.3261349  35.5046538
  52.8876570  20.3222524  34.8788643  52.2248589  20.6121087  35.1800918
  58.5237503  18.1091385  44.9402868  58.3320700  18.1246519  45.7902291
  59.3736099  18.3055059  44.9169523  58.6213225  18.1405736  45.0626163
  52.9084416  20.6382366  42.9186684  52.7669907  19.7866307  43.0431192
  53.1924979  20.6811027  42.0948890  52.9292262  20.5182116  42.8154308
  63.0623008  22.4749456  37.0631173  62.8157722  22.3945207  37.8967962
  63.3908131  21.6902924  36.8693700  63.0744252  22.3475722  37.1578696
  66.9571057  29.1832816  40.8517954  66.8185416  29.8813861  41.3566696
  66.1771055  29.0281472  40.4954136  66.8214284  29.2632982  40.8744228
  65.2949142  25.4829191  47.1040336  65.2897180  24.6109007  47.1082762
  66.0010136  25.6817360  46.6309791  65.3994146  25.3833065  47.0347371
  59.0220035  25.2106175  46.4754156  59.1663411  25.7907383  45.8397266
  59.3695684  25.5882472  47.1804010  59.0947497  25.3526879  46.4853151
  61.1939953  24.4096343  44.2579287  60.4463267  24.6027358  43.8527565
  61.3481478  23.5841563  44.0203409  61.1062380  24.3161455  44.1624693
  58.0947790  33.4008947  43.3415183  58.2437354  32.8411863  42.6888587
  58.8747792  33.4800948  43.7247701  58.2321884  33.3294512  43.3012132
  68.4524430  28.5411069  31.6134453  68.0731238  27.7548207  31.6063742
  67.7890675  29.0897926  31.4706097  68.2982904  28.5055893  31.5915250
  60.6201091  33.5723590  44.6199673  60.5444762  32.9032400  45.1750462
  60.5490950  34.2741378  45.1340340  60.5981698  33.5768497  44.7776521
  61.4341730  18.3046894  45.1474691  61.8914344  19.0370868  45.2747483
  61.5098058  17.8813359  45.9061947  61.5132699  18.3504132  45.2775768
  53.6774721  18.5512714  46.2364135  53.1416910  17.9393072  46.5524902
  53.7392486  19.1260850  46.8897801  53.6070354  18.5459641  46.3799561
  65.9069056  11.4836769  39.0168534  66.0252624  11.9413232  38.2835837
  65.7331231  10.6782030  38.7304752  65.8988227  11.4330541  38.8669468
  61.2771338  32.0924588  35.4523279  62.0421229  31.8234232  35.1305944
  61.1749428  31.6074599  36.1693342  61.3752833  31.9814153  35.5103107
  59.3124108  20.2948998  41.9916515  58.5220182  20.1140458  42.3133851
  59.7084730  19.5175950  41.9746810  59.2540984  20.1536459  42.0369063
  63.7989998  29.1236772  27.4323229  64.5662983  29.1836897  27.0229080
  63.3521307  28.5517214  26.9479547  63.8463426  29.0473348  27.3000939
  64.6967794  27.9291428  39.7175961  64.0212796  27.6976660  40.2189348
  64.7060170  27.3212611  39.0918066  64.5986298  27.8050353  39.6992113
  61.8261938  22.7709257  46.4740014  61.7621079  23.6319213  46.3460151
  61.9659126  22.4541250  45.6735565  61.8377408  22.8509424  46.3368227
  66.6984528  30.7856560  31.9486139  66.7804366  31.5923547  31.6247590
  67.1834271  30.8052520  32.6726912  66.7821686  30.9077223  32.0073038
  60.5081032  25.4641396  40.6156217  60.0843281  25.6645895  39.8795235
  60.3325887  24.6170244  40.7280517  60.4191912  25.3690178  40.5229907
  55.7963477  25.9593448  36.0484189  55.9528096  25.8940251  36.9040181
  56.1364070  26.7342000  35.8362869  55.8696712  26.0642646  36.1438784
  62.3342621  25.3351331  34.9177553  62.8758167  24.8321712  35.3816173
  62.6489180  25.2816526  34.1067038  62.4607018  25.2530752  34.8661365
  66.2059729  29.5453979  52.0304465  67.0194594  29.2739128  52.1909597
  66.0454695  29.2461519  51.2264661  66.3029677  29.4608905  51.9349871
  60.5029071  30.7268683  32.2017581  60.5721891  29.8683221  32.3410581
  61.2817526  30.9440564  31.8736605  60.6281921  30.6321547  32.1734738
  63.4831891  20.2287636  44.9699853  63.6973860  19.5898550  44.4163207
  62.8665790  20.6733460  44.5407715  63.4237220  20.1997780  44.8250284
  64.8936559  33.1506384  36.4154074  64.5016350  32.8473099  35.6976940
  65.0489631  33.9875474  36.2259028  64.8590148  33.2290221  36.2810571
  52.3697738  23.1428398  36.3644957  52.7496703  23.5612943  35.7005224
  51.7953103  23.7241854  36.6713800  52.3409063  23.2906257  36.3121698
  65.6470979  21.8376701  45.9083160  64.8347660  21.5302591  45.9896333
  66.1060913  21.3575701  46.4725872  65.5951363  21.7213193  46.0037754
  65.0576233  29.7156373  36.3560105  64.6990888  29.8871016  37.1324137
  64.5714944  30.1769579  35.7988103  64.9334930  29.8095344  36.3885374
  62.8746619  13.3387571  39.9587196  62.0040177  13.3126293  39.9120505
  63.1286961  13.1664764  39.1413042  62.7840179  13.3097715  39.8307333
  59.8464599  25.3955538  28.8960339  60.1357124  26.1720421  29.1703913
  59.9336398  24.8844270  29.5974838  59.9018855  25.4347457  29.0402837
  62.7424486  23.2436772  50.6911862  63.2124117  23.8678889  51.0779737
  62.7886366  22.5753748  51.2505077  62.8192362  23.2371453  50.8311934
  59.8995760  15.3493800  41.4160666  59.3834248  14.6573991  41.5412245
  59.3389689  16.0164577  41.3623265  59.7402273  15.3457058  41.4266732
  61.9687993  15.8886760  43.2453519  61.5819746  15.9135791  44.0267049
  61.4820931  15.3228439  42.7928035  61.8400502  15.8082511  43.2941423
  66.2180973  30.6060269  47.3027305  66.8560693  30.1120465  46.9689761
  65.5755064  30.5337669  46.7179532  66.2175199  30.5219277  47.1669660
  67.9437973  22.4549415  41.8693221  67.5165581  22.3675763  41.1141321
  67.3064026  22.5627190  42.4548065  67.7867580  22.4582075  41.8438663
  61.6345135  12.7753745  45.5363779  62.2638253  13.3114045  45.2584849
  61.8030998  12.6831104  46.3877344  61.7522930  12.8415108  45.6212307
  61.4359050  17.5624940  47.8090190  62.2632479  17.2910089  47.8648805
  61.4566896  18.3585782  48.1654008  61.5611900  17.6404694  47.8705373
  66.2735229  31.2980077  43.9432662  67.0627607  30.9469142  44.0634744
  66.4478827  32.1116466  43.6809296  66.4155511  31.3665934  43.9220530
  56.0128540  24.7088803  40.9960451  55.1716546  24.6092677  41.2039345
  56.2218548  25.4784283  41.3474772  55.9193232  24.8080846  41.0787766
  53.4904107  22.3308340  38.8245202  53.0960804  22.4051352  38.0495311
  52.9344224  22.7166286  39.3753563  53.3506919  22.3990115  38.7912861
  65.1269053  15.3089634  38.5049081  65.3318647  15.2411942  39.3506078
  64.7995477  16.1148455  38.4370258  65.1084301  15.4175574  38.6208736
  59.8245205  22.6370202  40.2458049  59.5208342  22.0826190  40.8468456
  59.1224625  22.8162412  39.7586083  59.6761414  22.5814984  40.2627754
  58.8811302  19.9470722  34.8102750  59.1571036  19.2289634  34.3980318
  59.4809971  20.5455642  34.6023856  59.0104566  19.9291093  34.7183512
  57.8863556  29.8519923  44.9530146  57.7783911  29.8621985  45.8192204
  58.0959337  30.6774703  44.7635100  57.9013667  29.9760998  45.0534238
  68.3802741  15.8621398  37.9851846  67.7677055  16.3491800  38.3705578
  68.4766916  15.1864889  38.5289497  68.3040639  15.8339707  38.1230704
  62.3821822  17.6184239  33.0849345  62.8365569  17.7894800  33.8097190
  62.8561868  17.0052350  32.6847121  62.5190142  17.5535125  33.1323107
  55.9037348  27.1032565  42.4152084  55.3125281  27.7442063  42.3855099
  56.6658371  27.5270183  42.3883383  55.9285608  27.2608404  42.4067231
  56.2997970  18.2634563  43.0820101  56.7599452  18.3373492  43.8195225
  56.3454077  19.0615817  42.7319923  56.3748526  18.3928710  43.1392858
  57.9481320  18.9301258  47.6492129  57.5566885  18.2834605  48.0847906
  58.1167183  19.5212693  48.2686384  57.9152230  18.9215526  47.8054835
  72.0227769  26.9338335  43.4129362  72.0810893  27.3824984  44.1589339
  71.3894237  27.3437148  42.9759442  71.9379064  27.0612070  43.4581910
  65.6626864  32.5541877  39.8484108  65.4646552  33.0432691  39.1540320
  65.0414575  32.7583118  40.4268242  65.5414428  32.6558415  39.8307332
  59.7234842  24.3226774  34.1894353  60.4676887  24.7101050  34.4277303
  59.8695538  23.4784199  34.3534840  59.8545427  24.2557246  34.2488322
  61.6414418  16.1177033  39.2226214  60.7950463  16.2899840  39.0967564
  61.6385550  15.3126376  39.5592042  61.5161568  16.0238062  39.2537341
  62.7112718  19.8952247  40.0888272  62.2372672  19.3694009  40.5993583
  63.0830854  19.3481720  39.5203133  62.6962607  19.7368244  40.0803419
  53.0885748  21.8923754  45.4571818  53.9511361  21.7919463  45.3709148
  52.7577531  21.3118463  44.8957390  53.1670945  21.7915380  45.3617224
  68.9749449  24.9554623  41.4995052  68.7347672  24.1161038  41.5037479
  69.4541456  25.0354789  42.2235826  69.0101632  24.8436022  41.6069855
  64.6396218  20.7888802  33.1514026  64.1119236  20.8717546  32.4619735
  65.0991926  21.5306673  33.1478670  64.6298068  20.9109464  33.0488721
  70.9754636  21.7356080  39.4524312  70.7364406  21.6951914  38.6145096
  71.1388537  22.5827232  39.5790033  70.9644939  21.8548165  39.3477794
  67.5800666  26.1206029  45.3829357  68.3034865  25.6678556  45.2040377
  67.3150628  26.4010695  44.6001685  67.6481939  26.0956998  45.2408072
  56.4487534  20.7166203  42.1182236  55.8240604  20.7284595  41.5108189
  56.1133129  21.1926378  42.7673476  56.3073026  20.7884720  42.1238804
  56.6329283  19.0591321  28.1754921  56.2842087  19.7111046  28.6386470
  56.1525729  19.0448434  27.4478792  56.5099527  19.1534375  28.1366012
  53.1613210  28.7766663  43.5586000  52.6313134  28.0859102  43.6080975
  53.4338303  28.7676848  42.7298709  53.1237932  28.6733795  43.4433416
  64.1933300  29.3592365  32.2823683  64.9167499  29.8250478  32.1388256
  63.7533891  29.4265975  31.5321280  64.2348992  29.4376202  32.1508464
  63.3619455  26.2189907  43.5324372  62.7476448  25.6747958  43.8273007
  63.8786740  25.7054144  43.0530188  63.3475118  26.0626316  43.5048600
  62.6015752  27.2894177  41.2668670  62.1743360  26.6643896  40.8334106
  62.5940697  27.0069099  42.0927678  62.5374894  27.1546958  41.3248498
  55.7178280  22.3259350  44.3357104  55.8771766  21.5702675  44.7408826
  55.5371173  22.8750290  44.9897842  55.7143639  22.2953164  44.4919810
  63.6598583  14.4920586  44.8907894  63.1639144  14.6884260  44.1999461
  64.4167645  14.8913254  44.7196696  63.6985407  14.5798320  44.7628031
  60.9301462  18.1662932  41.4811204  60.9543949  17.6323044  40.7923984
  61.1812936  17.6580241  42.1436795  60.9711381  18.0123836  41.4775849
  57.2102784  16.8933750  40.8616949  57.2501156  17.3942957  41.5751656
  56.3852449  16.9844144  40.5922872  57.0942310  16.9815567  40.9267487
  59.3932397  26.4594490  48.9637243  58.5428028  26.5966204  49.0994888
  59.5560525  25.7258268  49.4084945  59.2916261  26.3708591  49.0492842
  58.6317148  23.4094260  43.1590848  57.8009077  23.5768078  42.9526096
  58.5768665  23.0330211  43.9439733  58.5006563  23.3783991  43.2439376
  56.4400931  16.9003153  48.7947258  57.0653634  16.3565286  49.0676691
  55.9851411  16.4198071  48.2255049  56.4649192  16.7492634  48.7508852
  57.0053192  21.6849852  33.6880965  57.1456153  22.1822316  34.3909607
  57.5035724  20.9836146  33.8295179  57.0994272  21.6551830  33.8132544
  57.0353414  22.5516963  31.0173542  57.6698493  23.1477388  30.9523004
  57.1179025  22.2520420  31.8319412  57.1409965  22.5957871  31.1276629
  70.0135980  25.0832440  43.8859906  70.6053820  25.7229691  43.9178104
  70.4494974  24.3855477  44.1751973  70.1654411  25.0750790  43.9340739
  58.6132397  18.4830938  30.9918984  58.9348238  18.0034021  30.3378247
  58.8759341  19.2930584  30.8009796  58.6998422  18.5320836  30.8674476
  61.8429370  29.5049812  44.5117800  61.3354461  30.0585659  44.9558431
  61.5456016  29.5658102  43.6936575  61.7234255  29.5956124  44.4566257
  64.0091552  17.8703132  43.3542463  64.4346623  17.4175658  42.7425990
  63.3948545  17.3163203  43.6307251  63.9820197  17.7217108  43.3047489
  53.5406402  24.7484803  34.2863088  54.0498631  25.3449311  34.6674394
  54.0140674  24.4810777  33.6039508  53.6849778  24.7970619  34.2417611
  64.4537150  33.4213070  32.4421744  63.7366460  33.2473932  31.9768981
  65.1043887  33.1865642  31.9097230  64.4439000  33.3608863  32.2950962
  62.4485775  14.3418232  36.7633040  61.8054093  14.1915878  37.3318179
  62.1085182  14.0960577  35.9982145  62.3030852  14.2830354  36.7336056
  67.0385121  22.2977659  36.1863049  66.3676311  22.8407361  36.0576114
  67.7324871  22.7672514  35.9444744  67.0413989  22.4475930  36.1318577
  61.0871855  34.4374371  41.4174807  60.8637509  33.6793200  41.7858834
  60.5981698  34.4672392  40.6955247  60.9815304  34.3296595  41.3651548
  67.2013249  18.7533542  39.0953422  67.5540859  18.3263265  39.7699221
  66.3428050  18.6684386  39.2254499  67.1262693  18.6778283  39.2148433
  55.8996934  21.3841062  37.1536269  55.1808923  21.8005194  37.4209132
  56.2709296  21.9495301  36.6027907  55.8488865  21.5290343  37.1119076
  65.1996514  22.0168911  43.0438264  65.1794442  21.8352206  43.8973043
  65.2475715  22.8880929  43.0197848  65.2031155  22.1185449  43.1661559
  63.1442844  28.6056103  48.9686741  63.1038699  27.9605780  48.3831897
  63.9566162  28.5492720  49.2812153  63.2585998  28.5015070  48.9283690
  59.7350312  34.6574829  38.8711892  59.3210710  33.9948959  38.4815734
  60.4197686  34.8052687  38.3507586  59.7748683  34.5815487  38.7368389
  63.1015606  33.8164914  39.6235508  62.7031889  33.9267184  38.8556329
  62.4866826  34.0246980  40.2062068  62.9514495  33.8638482  39.5966808
  61.6743508  20.4239062  32.4909648  61.0808347  20.7456058  31.9394215
  61.7118786  19.5780157  32.2830754  61.5917897  20.3463390  32.3792419
  68.6337309  13.8751954  40.0237735  68.1268173  13.1681094  39.9558912
  69.4304742  13.5445143  40.1538811  68.6764548  13.7225105  40.0336730
  64.5501325  20.3818566  35.9211398  64.3215018  20.4051268  35.0789757
  64.8099401  19.5576033  36.0406409  64.5547513  20.2634646  35.8136596
  58.8320553  22.2353039  45.5236499  58.3199456  21.6274222  45.8821530
  58.6600049  22.9509632  45.9910474  58.7310190  22.2516339  45.6452722
  53.6786268  20.6790615  48.1738860  53.5088858  21.3391989  47.6287067
  53.2352218  20.8897176  48.8951350  53.5885601  20.8076597  48.2000490
  57.6046087  18.9195113  37.2165594  58.0803453  19.2812192  36.5815775
  57.1034687  19.5751580  37.4965737  57.6011446  19.0689301  37.1642335
  70.8357449  28.3916881  33.0078599  71.2191054  29.1408237  33.2376696
  70.0401562  28.6382700  32.7490588  70.7751231  28.5386575  33.0036173
  62.7089623  20.1577284  47.9638754  63.2661053  19.9291094  47.3317220
  62.3850688  20.9182950  47.6873967  62.7436033  20.2361121  47.8295251
  60.4272741  23.2444937  48.9290761  61.1784068  23.5596614  49.2430315
  60.6195317  23.0424108  48.1024683  60.5664155  23.2612319  48.8534157
  67.2758031  19.3718504  36.1714557  67.2752257  19.2167160  37.0298833
  67.0714211  20.2181491  36.1155942  67.2457809  19.4739124  36.2902496
  64.9998883  24.0516005  39.8250764  65.4952548  23.3339000  39.7854784
  64.1898658  23.7486803  39.7105251  64.9542776  23.9013652  39.8024489
  60.4457494  27.9013819  31.9747768  59.6368817  27.5780492  31.9281078
  60.9532403  27.1947041  31.9076017  60.4007161  27.7495135  31.9578062
  67.0650702  26.8019693  42.5127892  67.4905773  26.2794115  41.9598317
  66.7007621  27.4000530  41.9916515  67.0737304  26.8129920  42.3536902
  63.6529301  30.5153957  38.8429050  64.1240479  31.2294220  39.0119035
  63.9889480  29.9152707  39.3788919  63.7724416  30.5325421  38.9461426
  65.7406286  32.1255271  51.0221122  65.8503251  31.3363831  51.3777869
  66.0697182  32.0361207  50.2195460  65.8058691  31.9961123  50.9563513
  60.5698796  15.2881428  45.7987145  60.7026702  14.4912421  46.1268120
  60.9543949  15.8147831  46.3785420  60.6455125  15.2481344  45.9330648
  64.2903247  30.3071891  45.6056742  63.7424193  29.6829775  45.3376808
  64.7516276  30.4966163  44.8900822  64.2770457  30.2430941  45.4607174
  63.6431151  12.2111754  42.3968238  62.8377115  12.1009484  42.7136076
  63.5137887  12.3124210  41.5398104  63.5051284  12.2095424  42.3176278
  67.0997112  18.3757246  42.9907935  66.5160101  18.8766452  42.5785502
  67.4201406  17.8686802  42.3572258  67.0610287  18.3749081  42.8366442
  59.6391911  17.2897841  33.2666610  60.4607605  17.4596153  33.0248304
  59.1761562  17.4445102  32.5432907  59.6923073  17.3379574  33.1238254
  58.2287243  15.2840603  44.0465038  58.7731656  14.9431730  44.6369380
  58.2824179  16.1426064  44.1886323  58.3176362  15.3595862  44.1546912
  54.0417802  29.0457019  40.9203846  54.6462659  29.0052853  40.2917667
  53.8345114  29.8928171  40.9507902  54.1006699  29.1645021  40.8319963
  63.8561574  31.3122964  42.1366084  64.6759948  31.1685930  42.3982379
  63.5755651  31.9369163  42.6782522  63.9358317  31.3833316  42.2554023
  73.5274909  38.0563467  39.8561890  72.6712804  38.2171965  39.9071007
  73.5742563  37.1855531  39.8766951  73.4074020  37.9514269  39.8667956
  67.9116049  47.5926185  35.6199122  67.1598948  47.2141723  35.3915167
  68.3602060  47.6244618  34.8717932  67.8665715  47.5411792  35.4756624
  76.8368625  44.3249992  49.4622347  77.5435393  43.8302023  49.5909281
  77.0256561  44.7659074  48.7325005  76.9696531  44.3168343  49.3731392
  73.3641008  48.0151554  31.0484669  73.0292377  48.6928476  30.6128891
  73.8767879  47.6256865  30.4601541  73.3906590  48.0576132  30.8971461
  72.9045300  49.9665823  36.9895781  73.2884679  50.5352721  36.4500556
  72.8404441  49.2415333  36.5101597  72.9518727  49.9441286  36.8389643
  76.3726730  40.1155511  42.4993542  76.9182690  40.7940597  42.5587512
  76.3143606  39.9742972  41.6395124  76.4442644  40.1947512  42.3805603
  69.4900805  47.6044577  37.8861894  69.5911168  46.7944931  38.1959022
  68.8942550  47.5101523  37.2561573  69.4173343  47.4709605  37.8388133
  69.3301544  52.5222166  39.2876751  69.9739000  52.9635330  39.6772909
  69.6557800  51.7175592  39.2007009  69.4733373  52.4687361  39.3322228
  64.9855937  35.7950594  40.4098536  64.3660968  35.2043241  40.2408551
  64.8839800  36.3862029  39.7762859  64.8793612  35.7954676  40.2903525
  70.0322124  45.5334141  34.6596612  70.3537965  46.0739348  34.0557920
  70.6794221  44.9630912  34.7918902  70.1748179  45.5293316  34.5903648
  72.0823832  37.5350136  34.7430999  72.7803997  37.7138263  35.2352462
  72.3976165  37.0120475  34.1201388  72.2319169  37.4843908  34.7233009
  72.2711768  43.9220581  34.7310790  72.7105403  43.3137681  35.1765563
  72.1216430  43.5427954  33.9596255  72.3133233  43.7759052  34.6829958
  69.7383411  42.5164593  41.9329616  70.3832413  42.0237036  41.6140564
  69.9785188  42.6589379  42.7595694  69.8693996  42.4642035  42.0079149
  72.2769502  45.3619498  41.5836508  72.5592745  44.5670904  41.3623264
  73.0055662  45.8400086  41.6041569  72.4259066  45.3154095  41.5539524
  70.2550696  32.9042532  38.8252274  69.9254026  33.3553676  38.1555972
  69.5795698  32.8258696  39.3725280  70.1061132  32.9593668  38.8075497
  75.8721104  42.2747762  31.6841560  75.7872399  43.1308729  31.8291129
  76.3605487  41.9992086  32.3523719  75.9310001  42.3605083  31.8043641
  77.4627104  28.8928055  37.0701884  77.1480545  29.5831534  37.5022307
  76.9454045  28.8372838  36.3687385  77.3391574  28.9862944  37.0298833
  76.8039537  38.8932556  33.1839295  76.2751009  39.1092190  33.8436601
  77.3264557  39.5868695  33.1040264  76.8027990  39.0275693  33.2694894
  68.6939145  42.7895773  31.9846763  68.1096360  43.2945804  32.3912627
  68.2909240  42.5638160  31.2443355  68.5478449  42.8304021  31.9351788
  64.2483174  48.5050534  38.7870434  63.7650752  49.2301024  38.7630018
  65.0606492  48.8026664  38.8980592  64.2973921  48.6552888  38.7997714
  70.3197328  47.2982715  41.3920249  69.8024269  46.9390130  40.7881557
  71.0171719  46.7744889  41.4026315  70.3462909  47.1680403  41.3050507
  73.9760920  47.7477529  47.3536422  74.0644266  47.5603669  48.2014632
  74.4050632  47.1014958  46.9541269  74.0523022  47.6240537  47.4208173
  71.5431380  47.0308689  46.3354084  70.9802214  46.6181299  46.8593745
  72.3052403  46.9561594  46.7547227  71.5725828  46.9586089  46.4747084
  73.1516360  39.0361425  30.4615683  73.3912363  39.2439409  29.6491026
  73.4732201  38.2318934  30.5704628  73.2353517  38.9475526  30.3576236
  68.4606650  30.9654821  34.3075221  69.2152618  31.3333138  34.0692272
  68.2834184  31.3394375  35.0754401  68.5461128  31.0753009  34.3860110
  67.1027371  49.0206710  38.9390714  67.8047950  48.5058699  38.9963471
  67.0224854  49.3480861  39.7437589  67.1951131  48.9920936  39.0663506
  68.1506278  39.2582297  48.0671129  68.3226781  39.1488192  48.9156411
  68.6875635  39.9036702  47.8302322  68.2551282  39.3374299  48.1576226
  66.8163714  33.3725140  31.0053334  66.6339288  33.5897021  30.1794327
  67.6789327  33.4864152  31.0611949  66.9168304  33.4215038  30.8907821
  67.0530849  45.6313937  42.7489628  67.5929074  45.4885068  43.4193000
  66.3700796  46.0310688  43.1173654  67.0323003  45.6693608  42.9024049
  72.4963434  30.3751550  34.0402358  73.2249594  30.1967505  33.5940514
  72.5858327  31.2169630  34.2509536  72.6170096  30.4735429  34.0055876
  76.4771734  41.3104938  37.9434652  77.2329249  41.7436452  37.9823561
  76.5834059  40.6609708  38.5169288  76.6041905  41.2782422  38.0332678
  74.0880979  47.1786548  50.0180205  74.8721396  47.2917396  50.3835948
  73.8877574  46.3527685  50.2138891  74.1747004  47.0733267  50.1014591
  66.3625741  36.6499312  29.5175807  65.6483919  36.3637492  29.9298240
  66.8469710  36.9895938  30.1582195  66.3285105  36.6580962  29.6731442
  67.2066601  35.3892606  45.5491057  66.5138398  34.9189586  45.7951789
  67.8226928  35.1630911  46.1232764  67.1951131  35.2859738  45.6700210
  74.2451372  49.0896650  43.6646661  73.4466618  48.8496150  43.9220530
  74.6937384  49.1411043  44.4113709  74.1925984  49.0619041  43.8131585
  73.5373059  45.1529266  29.8937616  73.9524208  44.8214290  29.2022111
  72.7064989  44.9198169  29.7657752  73.4761068  45.0700522  29.7728463
  65.9307160  39.3558010  46.6917902  66.6547132  39.3411041  47.1782797
  66.0323296  40.0653366  46.1939870  66.0525369  39.4582713  46.6896689
  73.3052109  42.8357095  51.5566849  72.5125090  43.1500607  51.7419469
  73.4201036  43.0508563  50.7187634  73.2047520  42.9140932  51.4605184
  75.9783428  39.5591086  35.8461865  76.0730283  40.2980380  36.3001491
  75.3542272  39.1308561  36.2796430  75.8992458  39.6052407  35.9770013
  74.2335902  42.7377299  46.4952146  74.8074764  42.1004543  46.6500710
  74.1550706  42.7381381  45.6261804  74.3069137  42.6442410  46.3898557
  76.2306450  41.4039826  29.0798817  76.1486612  41.4742013  29.9453804
  76.8686170  41.9669570  28.8882558  76.3126287  41.4978797  29.1788767
  69.5899621  41.1700564  38.5473343  69.3318865  40.3372299  38.5204643
  69.6448104  41.3958177  37.7065844  69.5599399  41.0798335  38.4193480
  74.6700671  33.2729014  38.6477436  73.9656998  32.7838200  38.8061355
  74.7185645  33.2851489  37.7765880  74.5730722  33.2018662  38.5416776
  68.5634333  38.7238326  39.0338238  67.9883924  38.8830495  39.6702199
  68.1870009  38.0873735  38.5706689  68.4237145  38.6536139  39.0592796
  72.2307621  37.1961675  43.8930617  71.8422054  36.7715893  43.2382808
  71.5662320  37.4443825  44.4007643  72.0754549  37.1700397  43.8718484
  76.0533983  30.8936304  41.4054601  76.4344495  30.2114475  41.7922475
  75.2497267  30.6045906  41.2230265  75.9910445  30.7503353  41.4358657
  73.3346560  41.4260280  32.0907423  74.1487199  41.7175173  31.9790195
  73.2705701  40.7720142  31.5165716  73.4449299  41.3725475  31.9896261
  69.2054468  44.8981798  37.2179736  69.8428415  44.6593545  37.7631529
  69.6309540  45.1018956  36.4832896  69.3630634  44.8932808  37.1896893
  69.8457283  40.1184087  31.5554625  70.2302436  39.8991794  32.3071170
  69.5968903  40.9447033  31.6855701  69.8659356  40.2082234  31.6855701
  70.0125823  33.3990502  51.2717209  69.6979265  34.1690065  51.0086772
  69.6915756  32.8360759  50.6869436  69.9184743  33.4300771  51.1458559
  71.5875940  45.3754220  38.8973522  71.6614948  45.2129392  39.7515372
  72.4045446  45.5644410  38.6534003  71.7192299  45.3790963  38.9871547
  67.5657720  31.7881024  36.8863405  66.6980146  31.8603623  36.9521015
  67.8532925  32.5903103  37.0751381  67.4797469  31.9175171  36.9238172
  76.6890609  31.9358883  45.2174727  77.4344201  31.7468694  44.8038153
  76.2727914  32.4617121  44.6588584  76.7375583  31.9861029  45.0739301
  70.1280526  48.3388963  33.6286995  70.4178824  47.9477945  32.9046222
  70.8584007  48.5205668  34.0692271  70.2787410  48.3082777  33.5869802
  70.7175271  43.1406709  44.7140126  70.2186965  43.8522477  44.7925014
  71.5275495  43.4607376  44.6758288  70.7631378  43.2933558  44.7196694
  68.0686441  50.3156346  36.6947145  67.8486737  50.0253700  37.4873812
  67.8480963  49.6571301  36.1665057  68.0034035  50.1756054  36.7336054
  77.7681286  37.5464446  39.2784828  77.4246052  36.8254781  39.6292078
  77.8674329  37.3378297  38.4363187  77.7323329  37.4088649  39.2056508
  70.2354397  51.6885736  35.4777837  70.8878455  51.1562178  35.7068863
  69.5380006  51.3354388  35.8645711  70.2285115  51.5575259  35.5690005
  69.6442329  35.9987754  50.0102424  68.8342105  36.3045533  49.8992266
  70.1217016  36.7193336  50.1255008  69.5945808  36.1502355  50.0109495
  68.5033888  45.2133475  40.2585327  67.9814642  45.3533766  40.9437192
  68.8907909  44.4544139  40.4487444  68.4837589  45.1218998  40.3886404
  65.4925072  35.2639283  34.3280282  65.2049868  34.8940554  33.5912229
  66.1795541  35.7334139  34.0663987  65.5513970  35.2786253  34.1795357
  74.7000893  46.9528934  34.2445896  74.4587569  46.2196794  33.8372961
  74.8802226  47.5015791  33.5912229  74.6908517  46.9251325  34.0876119
  69.9300214  42.2437494  35.6566818  69.7342997  42.8512228  35.0627121
  70.1534560  41.5505438  35.1758492  69.9334855  42.2315019  35.4982899
  68.3278744  39.1292232  35.7747686  69.0501396  39.2933390  35.3151492
  67.8486737  39.8501896  35.6687026  68.3642475  39.2590461  35.6913300
  76.2872252  35.4656030  41.1544371  75.4483352  35.4917309  40.9182635
  76.3576619  36.1126766  41.7349718  76.1740645  35.5652156  41.2053488
  65.9786361  41.5350304  44.8801826  66.4907458  41.8134557  44.2310586
  65.6922703  42.2739598  45.2464639  66.0121224  41.6852658  44.8391704
  74.7341530  32.3641407  35.8871987  75.4367883  32.1649156  35.4091946
  74.4685719  31.5917350  36.1940831  74.7988162  32.2204373  35.8617429
  63.0653267  36.0420496  35.1765563  63.1669404  36.8446657  35.5046538
  63.8609154  35.8407832  34.8788643  63.1981173  36.1306395  35.1800918
  69.4970086  33.6276692  44.9402868  69.3053283  33.6431827  45.7902291
  70.3468682  33.8240367  44.9169523  69.5945808  33.6591044  45.0626163
  63.8816999  36.1567674  42.9186684  63.7402491  35.3051615  43.0431192
  64.1657563  36.1996335  42.0948890  63.9024845  36.0367424  42.8154308
  74.0355592  37.9934764  37.0631173  73.7890306  37.9130515  37.8967962
  74.3640715  37.2088232  36.8693700  74.0476835  37.8661029  37.1578696
  77.9303640  44.7018123  40.8517954  77.7918000  45.3999169  41.3566696
  77.1503638  44.5466780  40.4954136  77.7946867  44.7818290  40.8744228
  76.2681726  41.0014499  47.1040336  76.2629764  40.1294315  47.1082762
  76.9742719  41.2002668  46.6309791  76.3726730  40.9018373  47.0347371
  69.9952619  40.7291483  46.4754156  70.1395995  41.3092691  45.8397266
  70.3428267  41.1067779  47.1804010  70.0680080  40.8712187  46.4853151
  72.1672536  39.9281651  44.2579287  71.4195850  40.1212666  43.8527565
  72.3214061  39.1026871  44.0203409  72.0794964  39.8346763  44.1624693
  69.0680374  48.9194255  43.3415183  69.2169938  48.3597170  42.6888587
  69.8480376  48.9986256  43.7247701  69.2054467  48.8479820  43.3012132
  71.5933674  49.0908897  44.6199673  71.5177346  48.4217708  45.1750462
  71.5223534  49.7926686  45.1340340  71.5714281  49.0953805  44.7776521
  72.4074313  33.8232202  45.1474691  72.8646927  34.5556176  45.2747483
  72.4830642  33.3998667  45.9061947  72.4865283  33.8689440  45.2775768
  64.6507304  34.0698022  46.2364135  64.1149494  33.4578380  46.5524902
  64.7125069  34.6446158  46.8897801  64.5802937  34.0644949  46.3799561
  76.8801639  27.0022077  39.0168534  76.9985207  27.4598540  38.2835837
  76.7063815  26.1967338  38.7304752  76.8720810  26.9515849  38.8669468
  72.2503921  47.6109896  35.4523279  73.0153812  47.3419540  35.1305944
  72.1482011  47.1259907  36.1693342  72.3485417  47.4999461  35.5103107
  70.2856691  35.8134306  41.9916515  69.4952766  35.6325766  42.3133851
  70.6817314  35.0361258  41.9746810  70.2273567  35.6721767  42.0369063
  74.7722582  44.6422080  27.4323229  75.5395567  44.7022205  27.0229080
  74.3253891  44.0702522  26.9479547  74.8196009  44.5658656  27.3000939
  75.6700377  43.4476736  39.7175961  74.9945379  43.2161968  40.2189348
  75.6792754  42.8397919  39.0918066  75.5718882  43.3235661  39.6992113
  72.7994521  38.2894565  46.4740014  72.7353663  39.1504521  46.3460151
  72.9391709  37.9726558  45.6735565  72.8109991  38.3694732  46.3368227
  77.6717112  46.3041868  31.9486139  77.7536949  47.1108854  31.6247590
  78.1566854  46.3237828  32.6726912  77.7554270  46.4262531  32.0073038
  71.4813615  40.9826704  40.6156217  71.0575864  41.1831203  39.8795235
  71.3058470  40.1355552  40.7280517  71.3924496  40.8875486  40.5229907
  70.9825309  52.4977217  43.0777674  71.4721239  51.7988006  42.8953339
  70.4109541  52.2001087  43.6653731  70.9709839  52.3503441  43.1378715
  66.7696060  41.4778756  36.0484189  66.9260679  41.4125558  36.9040181
  67.1096653  42.2527308  35.8362869  66.8429295  41.5827954  36.1438784
  73.3075205  40.8536639  34.9177553  73.8490750  40.3507020  35.3816173
  73.6221764  40.8001834  34.1067038  73.4339602  40.7716060  34.8661365
  77.1792312  45.0639287  52.0304465  77.9927178  44.7924435  52.1909597
  77.0187279  44.7646827  51.2264661  77.2762261  44.9794213  51.9349871
  71.4761655  46.2453991  32.2017581  71.5454475  45.3868529  32.3410581
  72.2550110  46.4625872  31.8736605  71.6014505  46.1506855  32.1734738
  74.4564474  35.7472944  44.9699853  74.6706444  35.1083858  44.4163207
  73.8398373  36.1918768  44.5407715  74.3969804  35.7183087  44.8250284
  75.8669142  48.6691692  36.4154074  75.4748934  48.3658407  35.6976940
  76.0222214  49.5060782  36.2259028  75.8322732  48.7475529  36.2810571
  63.3430322  38.6613706  36.3644957  63.7229287  39.0798251  35.7005224
  62.7685687  39.2427162  36.6713800  63.3141647  38.8091565  36.3121698
  76.6203562  37.3562009  45.9083160  75.8080244  37.0487899  45.9896333
  77.0793497  36.8761009  46.4725872  76.5683947  37.2398501  46.0037754
  76.0308817  45.2341681  36.3560105  75.6723472  45.4056324  37.1324137
  75.5447528  45.6954887  35.7988103  75.9067514  45.3280652  36.3885374
  73.8479203  28.8572879  39.9587196  72.9772761  28.8311601  39.9120505
  74.1019544  28.6850072  39.1413042  73.7572763  28.8283023  39.8307333
  70.8197182  40.9140846  28.8960339  71.1089707  41.6905729  29.1703913
  70.9068981  40.4029578  29.5974838  70.8751439  40.9532765  29.0402837
  73.7157070  38.7622080  50.6911862  74.1856701  39.3864197  51.0779737
  73.7618950  38.0939056  51.2505077  73.7924946  38.7556761  50.8311934
  70.8728343  30.8679108  41.4160666  70.3566832  30.1759299  41.5412245
  70.3122272  31.5349885  41.3623265  70.7134857  30.8642365  41.4266732
  72.9420577  31.4072068  43.2453519  72.5552330  31.4321099  44.0267049
  72.4553514  30.8413747  42.7928035  72.8133086  31.3267819  43.2941423
  77.1913556  46.1245577  47.3027305  77.8293277  45.6305773  46.9689761
  76.5487648  46.0522977  46.7179532  77.1907783  46.0404585  47.1669660
  72.6077719  28.2939053  45.5363779  73.2370837  28.8299353  45.2584849
  72.7763581  28.2016412  46.3877344  72.7255513  28.3600416  45.6212307
  72.4091633  33.0810248  47.8090190  73.2365063  32.8095397  47.8648805
  72.4299480  33.8771090  48.1654008  72.5344484  33.1590002  47.8705373
  77.2467813  46.8165385  43.9432662  78.0360191  46.4654450  44.0634744
  77.4211411  47.6301774  43.6809296  77.3888095  46.8851242  43.9220530
  66.9861123  40.2274111  40.9960451  66.1449130  40.1277985  41.2039345
  67.1951131  40.9969591  41.3474772  66.8925816  40.3266154  41.0787766
  64.4636690  37.8493648  38.8245202  64.0693388  37.9236660  38.0495311
  63.9076807  38.2351594  39.3753563  64.3239503  37.9175422  38.7912861
  76.1001637  30.8274942  38.5049081  76.3051230  30.7597250  39.3506078
  75.7728061  31.6333763  38.4370258  76.0816885  30.9360882  38.6208736
  70.7977788  38.1555510  40.2458049  70.4940926  37.6011498  40.8468456
  70.0957209  38.3347720  39.7586083  70.6493998  38.1000292  40.2627754
  69.8543885  35.4656030  34.8102750  70.1303620  34.7474942  34.3980318
  70.4542555  36.0640950  34.6023856  69.9837150  35.4476401  34.7183512
  68.8596139  45.3705231  44.9530146  68.7516494  45.3807293  45.8192204
  69.0691921  46.1960011  44.7635100  68.8746250  45.4946306  45.0534238
  73.3554406  33.1369547  33.0849345  73.8098152  33.3080108  33.8097190
  73.8294452  32.5237658  32.6847121  73.4922726  33.0720432  33.1323107
  67.2730554  33.7819871  43.0820101  67.7332036  33.8558800  43.8195225
  67.3186661  34.5801125  42.7319923  67.3481109  33.9114018  43.1392858
  68.9213904  34.4486566  47.6492129  68.5299469  33.8019913  48.0847906
  69.0899766  35.0398001  48.2686384  68.8884814  34.4400834  47.8054835
  76.6359447  48.0727185  39.8484108  76.4379136  48.5617999  39.1540320
  76.0147158  48.2768426  40.4268242  76.5147012  48.1743723  39.8307332
  70.6967426  39.8412082  34.1894353  71.4409471  40.2286358  34.4277303
  70.8428122  38.9969507  34.3534840  70.8278011  39.7742554  34.2488322
  72.6147001  31.6362341  39.2226214  71.7683046  31.8085148  39.0967564
  72.6118134  30.8311684  39.5592042  72.4894151  31.5423369  39.2537341
  73.6845302  35.4137555  40.0888272  73.2105256  34.8879317  40.5993583
  74.0563437  34.8667028  39.5203133  73.6695191  35.2553552  40.0803419
  64.0618332  37.4109062  45.4571818  64.9243945  37.3104771  45.3709148
  63.7310115  36.8303771  44.8957390  64.1403528  37.3100688  45.3617224
  75.6128801  36.3074109  33.1514026  75.0851820  36.3902853  32.4619735
  76.0724509  37.0491981  33.1478670  75.6030652  36.4294772  33.0488721
  67.4220118  36.2351511  42.1182236  66.7973188  36.2469903  41.5108189
  67.0865713  36.7111686  42.7673476  67.2805610  36.3070028  42.1238804
  67.6061866  34.5776629  28.1754921  67.2574671  35.2296354  28.6386470
  67.1258312  34.5633742  27.4478792  67.4832110  34.6719683  28.1366012
  75.1665884  44.8777673  32.2823683  75.8900083  45.3435786  32.1388256
  74.7266475  44.9451283  31.5321280  75.2081576  44.9561510  32.1508464
  74.3352039  41.7375215  43.5324372  73.7209032  41.1933266  43.8273007
  74.8519324  41.2239452  43.0530188  74.3207701  41.5811624  43.5048600
  73.5748336  42.8079485  41.2668670  73.1475944  42.1829204  40.8334106
  73.5673280  42.5254407  42.0927678  73.5107477  42.6732266  41.3248498
  66.6910863  37.8444658  44.3357104  66.8504350  37.0887983  44.7408826
  66.5103757  38.3935598  44.9897842  66.6876222  37.8138472  44.4919810
  74.6331166  30.0105894  44.8907894  74.1371727  30.2069568  44.1999461
  75.3900228  30.4098562  44.7196696  74.6717991  30.0983628  44.7628031
  71.9034046  33.6848240  41.4811204  71.9276533  33.1508352  40.7923984
  72.1545519  33.1765549  42.1436795  71.9443964  33.5309144  41.4775849
  68.1835368  32.4119058  40.8616949  68.2233740  32.9128265  41.5751656
  67.3585033  32.5029452  40.5922872  68.0674894  32.5000874  40.9267487
  70.3664981  41.9779798  48.9637243  69.5160611  42.1151512  49.0994888
  70.5293109  41.2443576  49.4084945  70.2648844  41.8893899  49.0492842
  69.6049731  38.9279568  43.1590848  68.7741661  39.0953386  42.9526096
  69.5501248  38.5515519  43.9439733  69.4739146  38.8969299  43.2439376
  67.4133515  32.4188461  48.7947258  68.0386218  31.8750594  49.0676691
  66.9583995  31.9383378  48.2255049  67.4381775  32.2677942  48.7508852
  67.9785775  37.2035160  33.6880965  68.1188736  37.7007624  34.3909607
  68.4768308  36.5021454  33.8295179  68.0726856  37.1737138  33.8132544
  68.0085998  38.0702271  31.0173542  68.6431077  38.6662696  30.9523004
  68.0911608  37.7705728  31.8319412  68.1142549  38.1143179  31.1276629
  69.5864980  34.0016246  30.9918984  69.9080821  33.5219328  30.3378247
  69.8491924  34.8115892  30.8009796  69.6731006  34.0506144  30.8674476
  72.8161953  45.0235120  44.5117800  72.3087044  45.5770967  44.9558431
  72.5188599  45.0843410  43.6936575  72.6966838  45.1141431  44.4566257
  74.9824135  33.3888440  43.3542463  75.4079207  32.9360966  42.7425990
  74.3681128  32.8348511  43.6307251  74.9552781  33.2402416  43.3047489
  75.4269733  48.9398378  32.4421744  74.7099043  48.7659240  31.9768981
  76.0776471  48.7050950  31.9097230  75.4171584  48.8794170  32.2950962
  73.4218358  29.8603540  36.7633040  72.7786676  29.7101186  37.3318179
  73.0817765  29.6145885  35.9982145  73.2763436  29.8015662  36.7336056
  78.0117705  37.8162967  36.1863049  77.3408895  38.3592669  36.0576114
  78.7057455  38.2857822  35.9444744  78.0146572  37.9661238  36.1318577
  72.0604438  49.9559679  41.4174807  71.8370093  49.1978508  41.7858834
  71.5714282  49.9857700  40.6955247  71.9547887  49.8481903  41.3651548
  78.1745832  34.2718850  39.0953422  78.5273442  33.8448573  39.7699221
  77.3160634  34.1869694  39.2254499  78.0995277  34.1963591  39.2148433
  66.8729517  36.9026370  37.1536269  66.1541506  37.3190502  37.4209132
  67.2441879  37.4680609  36.6027907  66.8221449  37.0475651  37.1119076
  76.1729098  37.5354219  43.0438264  76.1527025  37.3537514  43.8973043
  76.2208299  38.4066237  43.0197848  76.1763739  37.6370757  43.1661559
  74.1175428  44.1241411  48.9686741  74.0771283  43.4791088  48.3831897
  74.9298746  44.0678028  49.2812153  74.2318581  44.0200378  48.9283690
  70.7082895  50.1760137  38.8711892  70.2943294  49.5134267  38.4815734
  71.3930270  50.3237995  38.3507586  70.7481267  50.1000795  38.7368389
  74.0748189  49.3350222  39.6235508  73.6764473  49.4452492  38.8556329
  73.4599409  49.5432288  40.2062068  73.9247079  49.3823790  39.5966808
  72.6476092  35.9424370  32.4909648  72.0540931  36.2641366  31.9394215
  72.6851369  35.0965465  32.2830754  72.5650481  35.8648698  32.3792419
  75.5233908  35.9003874  35.9211398  75.2947601  35.9236576  35.0789757
  75.7831984  35.0761341  36.0406409  75.5280096  35.7819954  35.8136596
  69.8053137  37.7538347  45.5236499  69.2932040  37.1459530  45.8821530
  69.6332633  38.4694940  45.9910474  69.7042774  37.7701647  45.6452722
  64.6518851  36.1975923  48.1738860  64.4821442  36.8577297  47.6287067
  64.2084801  36.4082484  48.8951350  64.5618185  36.3261905  48.2000490
  68.5778671  34.4380421  37.2165594  69.0536037  34.7997500  36.5815775
  68.0767270  35.0936888  37.4965737  68.5744030  34.5874609  37.1642335
  73.6822207  35.6762592  47.9638754  74.2393637  35.4476401  47.3317220
  73.3583272  36.4368258  47.6873967  73.7168617  35.7546429  47.8295251
  71.4005324  38.7630245  48.9290761  72.1516651  39.0781922  49.2430315
  71.5927901  38.5609416  48.1024683  71.5396738  38.7797627  48.8534157
  70.6205324  36.5821620  30.5838978  71.0004289  36.6001250  29.7990093
  69.8797920  37.0275609  30.4629825  70.5674162  36.6503395  30.4502546
  78.2490614  34.8903812  36.1714557  78.2484841  34.7352468  37.0298833
  78.0446794  35.7366799  36.1155942  78.2190392  34.9924432  36.2902496
  75.9731466  39.5701313  39.8250764  76.4685132  38.8524308  39.7854784
  75.1631242  39.2672111  39.7105251  75.9275360  39.4198960  39.8024489
  71.4190078  43.4199127  31.9747768  70.6101401  43.0965800  31.9281078
  71.9264987  42.7132349  31.9076017  71.3739745  43.2680443  31.9578062
  78.0383285  42.3205001  42.5127892  78.4638357  41.7979423  41.9598317
  77.6740205  42.9185838  41.9916515  78.0469888  42.3315228  42.3536902
  67.6737365  50.6169218  41.2725238  67.9883924  51.4305607  41.2803020
  68.0830778  50.2319437  41.9407397  67.7805463  50.6797921  41.3729330
  74.6261885  46.0339265  38.8429050  75.0973063  46.7479528  39.0119035
  74.9622063  45.4338015  39.3788919  74.7457000  46.0510729  38.9461426
  76.7138869  47.6440578  51.0221122  76.8235835  46.8549139  51.3777869
  77.0429766  47.5546515  50.2195460  76.7791275  47.5146431  50.9563513
  71.5431380  30.8066736  45.7987145  71.6759285  30.0097729  46.1268120
  71.9276532  31.3333139  46.3785420  71.6187708  30.7666652  45.9330648
  75.2635831  45.8257199  45.6056742  74.7156777  45.2015083  45.3376808
  75.7248860  46.0151471  44.8900822  75.2503040  45.7616249  45.4607174
  74.6163735  27.7297062  42.3968238  73.8109698  27.6194791  42.7136076
  74.4870470  27.8309518  41.5398104  74.4783868  27.7280732  42.3176278
  78.0729695  33.8942554  42.9907935  77.4892684  34.3951760  42.5785502
  78.3933989  33.3872110  42.3572258  78.0342871  33.8934389  42.8366442
  70.6124494  32.8083149  33.2666610  71.4340189  32.9781461  33.0248304
  70.1494145  32.9630409  32.5432907  70.6655657  32.8564881  33.1238254
  69.2019826  30.8025911  44.0465038  69.7464239  30.4617038  44.6369380
  69.2556762  31.6611372  44.1886323  69.2908946  30.8781170  44.1546912
  74.8294157  46.8308272  42.1366084  75.6492531  46.6871238  42.3982379
  74.5488235  47.4554471  42.6782522  74.9090901  46.9018624  42.2554023
  73.6598433  59.1450171  37.5114228  73.4248617  58.3117824  37.4046497
  73.7984073  59.4254837  36.6975429  73.6454095  59.0633675  37.3756583
  75.9588520  51.3135902  40.4098536  75.3393552  50.7228549  40.2408551
  75.8572384  51.9047337  39.7762859  75.8526196  51.3139984  40.2903525
  75.6857653  54.8588184  42.6542105  75.5616350  55.4450629  43.2891924
  76.3375938  54.3648379  42.9554380  75.7631302  54.8726988  42.7928034
  75.2215757  64.0235842  38.7870434  74.7383336  64.7486332  38.7630018
  76.0339076  64.3211972  38.8980592  75.2706505  64.1738196  38.7997714
  77.7896298  48.8910448  31.0053334  77.6071871  49.1082329  30.1794327
  78.6521911  49.0049460  31.0611949  77.8900888  48.9400346  30.8907821
  77.4010730  60.7298370  38.4476322  78.2399629  60.9621303  38.4950084
  77.4322499  59.8602681  38.3783358  77.5292448  60.6355316  38.4440967
  78.0263433  61.1499245  42.7489628  78.5661658  61.0070376  43.4193000
  77.3433379  61.5495996  43.1173654  78.0055587  61.1878916  42.9024049
  73.4300578  57.3699536  42.9024049  73.1638993  56.5538653  43.0615040
  73.4439142  57.4152691  42.0319565  73.3925300  57.2556441  42.7977531
  77.3358325  52.1684620  29.5175807  76.6216502  51.8822800  29.9298240
  77.8202294  52.5081246  30.1582195  77.3017688  52.1766270  29.6731442
  73.8393992  58.1558315  40.1835794  73.6569565  58.1305201  39.3308086
  74.5743661  58.6257253  40.2224702  73.9208056  58.2219678  40.0633712
  76.9039743  54.8743318  46.6917902  77.6279716  54.8596349  47.1782797
  77.0055880  55.5838673  46.1939870  77.0257953  54.9768021  46.6896689
  73.8064902  55.0351816  40.3334860  74.3838405  54.8988267  40.9727105
  73.1078964  54.5787600  40.5880444  73.7885923  54.9474082  40.4657150
  69.2823735  53.8863709  37.0482679  69.3683987  53.5095577  37.8296209
  69.9099533  53.5124155  36.5702637  69.3880286  53.7749191  37.0928156
  74.8699694  62.6555442  41.1014039  74.9103839  62.9270293  40.2733819
  75.4294218  63.1797350  41.5171827  74.9583040  62.7731197  41.0405928
  76.3214280  61.2397391  35.9267965  75.4952398  61.4859128  35.8002244
  76.3826271  61.1609472  36.7930023  76.2088447  61.2642340  36.0356910
  76.4657656  50.7824591  34.3280282  76.1782452  50.4125862  33.5912229
  77.1528124  51.2519447  34.0663987  76.5246553  50.7971561  34.1795357
  76.9518944  57.0535612  44.8801826  77.4640041  57.3319865  44.2310586
  76.6655287  57.7924906  45.2464639  76.9853807  57.2037966  44.8391704
  74.0385851  51.5605804  35.1765563  74.1401987  52.3631965  35.5046538
  74.8341737  51.3593140  34.8788643  74.1713756  51.6491702  35.1800918
  74.8549583  51.6752982  42.9186684  74.7135075  50.8236923  43.0431192
  75.1390146  51.7181643  42.0948890  74.8757429  51.5552732  42.8154308
  75.6239888  49.5883329  46.2364135  75.0882077  48.9763688  46.5524902
  75.6857653  50.1631465  46.8897801  75.5535521  49.5830257  46.3799561
  77.7428644  56.9964064  36.0484189  77.8993263  56.9310866  36.9040181
  78.0829237  57.7712616  35.8362869  77.8161879  57.1013262  36.1438784
  74.3162905  54.1799014  36.3644957  74.6961870  54.5983559  35.7005224
  73.7418270  54.7612470  36.6713800  74.2874230  54.3276873  36.3121698
  77.9593707  55.7459419  40.9960451  77.1181713  55.6463293  41.2039345
  78.1683715  56.5154899  41.3474772  77.8658399  55.8451462  41.0787766
  75.4369274  53.3678956  38.8245202  75.0425972  53.4421968  38.0495311
  74.8809391  53.7536902  39.3753563  75.2972086  53.4360730  38.7912861
  77.8502515  58.1403181  42.4152084  77.2590448  58.7812679  42.3855099
  78.6123538  58.5640798  42.3883383  77.8750775  58.2979020  42.4067231
  78.2463138  49.3005179  43.0820101  78.7064619  49.3744108  43.8195225
  78.2919244  50.0986433  42.7319923  78.3213693  49.4299326  43.1392858
  75.0350915  52.9294370  45.4571818  75.8976528  52.8290079  45.3709148
  74.7042698  52.3489079  44.8957390  75.1136112  52.8285996  45.3617224
  78.3952701  51.7536819  42.1182236  77.7705771  51.7655211  41.5108189
  78.0598296  52.2296994  42.7673476  78.2538193  51.8255336  42.1238804
  78.5794450  50.0961937  28.1754921  78.2307254  50.7481662  28.6386470
  78.0990896  50.0819050  27.4478792  78.4564694  50.1904991  28.1366012
  75.1078377  59.8137279  43.5586000  74.5778301  59.1229718  43.6080975
  75.3803470  59.8047464  42.7298709  75.0703099  59.7104410  43.4433416
  70.3874219  56.4865043  40.9154348  70.2817668  56.4411887  40.0506433
  69.6374439  56.8318823  41.1968633  70.2609822  56.5305951  40.8291678
  75.4871569  55.7855419  34.2863088  75.9963798  56.3819927  34.6674394
  75.9605841  55.5181393  33.6039508  75.6314945  55.8341235  34.2417611
  77.8462101  52.4211678  37.1536269  77.1274090  52.8375810  37.4209132
  78.2174463  52.9865917  36.6027907  77.7954032  52.5660959  37.1119076
  75.6251435  51.7161231  48.1738860  75.4554025  52.3762605  47.6287067
  75.1817385  51.9267792  48.8951350  75.5350768  51.8447213  48.2000490
  72.5253499  54.6208096  43.4327350  71.9780219  53.9508742  43.5508219
  73.3145878  54.2537944  43.4970817  72.5605683  54.4673083  43.4596051
  71.2840469  53.8328904  40.5873373  71.1062230  53.3805513  41.3128289
  70.9959491  54.6355065  40.7711851  71.2153422  53.8851462  40.7216876
  73.0212939  56.3656628  37.6995132  72.1558458  56.3542318  37.5877904
  73.1211755  56.1786851  38.5466272  72.9087106  56.3362689  37.8084077
  75.9882969  60.0827635  40.9203846  76.5927826  60.0423469  40.2917667
  75.7810281  60.9298787  40.9507902  76.0471866  60.2015637  40.8319963
  71.2234251  59.0662252  40.7902769  71.1258529  58.2558524  41.0992826
  72.0063121  59.0454046  40.4049038  71.3250387  58.9429342  40.7789632
  56.6334289   9.0119008  22.5539169  55.8817189   8.6334546  22.3255214
  57.0820301   9.0437441  21.8057979  56.5883956   8.9604615  22.4096671
  62.0859249   9.4344377  17.9824716  61.7510617  10.1121299  17.5468938
  62.5986119   9.0449689  17.3941588  62.1124830   9.4768956  17.8311507
  61.6263540  11.3858646  23.9235827  62.0102919  11.9545545  23.3840603
  61.5622681  10.6608156  23.4441644  61.6736967  11.3634109  23.7729690
  58.2119045   9.0237400  24.8201941  58.3129408   8.2137754  25.1299069
  57.6160790   8.9294346  24.1901620  58.1391584   8.8902428  24.7728180
  58.0519785  13.9414989  26.2216797  58.6957240  14.3828153  26.6112956
  58.3776040  13.1368415  26.1347056  58.1951613  13.8880184  26.2662275
  51.4084089   5.0457687  24.4454275  51.1734274   4.2125339  24.3386544
  51.5469730   5.3262352  23.6315476  51.3939752   4.9641190  24.3096630
  58.7540364   6.9526964  21.5936659  59.0756206   7.4932171  20.9897967
  59.4012461   6.3823735  21.7258949  58.8966420   6.9486139  21.5243694
  52.9701414   9.9243357  25.7210481  52.4868992  10.6493847  25.6970065
  53.7824732  10.2219487  25.8320639  53.0192162  10.0745711  25.7337760
  59.0415568   8.7175538  28.3260296  58.5242510   8.3582953  27.7221604
  59.7389959   8.1937712  28.3366362  59.0681149   8.5873226  28.2390554
  62.6979160   9.1670352  34.2876469  62.7862506   8.9796493  35.1354679
  63.1268873   8.5207782  33.8881315  62.7741263   9.0433360  34.3548220
  60.2649620   8.4501512  33.2694131  59.7020455   8.0374122  33.7933792
  61.0270643   8.3754418  33.6887274  60.2944069   8.3778913  33.4087131
  55.8245611  10.4399533  25.8730761  56.5266191   9.9251522  25.9303518
  55.7443094  10.7673685  26.6777636  55.9169372  10.4113759  26.0003553
  55.1496387   6.6305885  25.3816369  55.9885286   6.8628818  25.4290131
  55.1808156   5.7610197  25.3123404  55.2778104   6.5362832  25.3781014
  55.7749090   7.0506760  29.6829675  56.3147315   6.9077891  30.3533047
  55.0919036   7.4503511  30.0513701  55.7541244   7.0886431  29.8364096
  62.8099219   8.5979371  36.9520252  63.5939636   8.7110219  37.3175994
  62.6095814   7.7720508  37.1478938  62.8965245   8.4926091  37.0354638
  51.1786235   3.2707051  29.8364096  50.9124650   2.4546168  29.9955086
  51.1924799   3.3160207  28.9659612  51.1410957   3.1563956  29.7317578
  62.9669613  10.5089473  30.5986708  62.1684859  10.2688973  30.8560576
  63.4155624  10.5603866  31.3453755  62.9144224  10.4811864  30.7471632
  51.5879649   4.0565831  27.1175840  51.4055222   4.0312717  26.2648133
  52.3229317   4.5264768  27.1564749  51.6693712   4.1227193  26.9973759
  57.9272708   6.3174621  24.1519782  58.5646655   6.0786368  24.6971576
  58.3527780   6.5211780  23.4172943  58.0848875   6.3125631  24.1236940
  52.6185351   8.5562957  28.0354086  52.6589496   8.8277808  27.2073866
  53.1779875   9.0804865  28.4511874  52.7068697   8.6738712  27.9745974
  60.3094180   6.7947043  25.8313569  60.3833189   6.6322215  26.6855419
  61.1263687   6.9837233  25.5874050  60.4410539   6.7983786  25.9211594
  54.0699937   7.1404906  22.8608012  53.2438055   7.3866643  22.7342291
  54.1311928   7.0616987  23.7270070  53.9574104   7.1649855  22.9696957
  58.8498766   9.7581786  20.5627042  59.1397064   9.3670768  19.8386269
  59.5802247   9.9398491  21.0032317  59.0005650   9.7275600  20.5209849
  56.7904682  11.7349169  23.6287192  56.5704977  11.4446524  24.4213859
  56.5699204  11.0764124  23.1005104  56.7252276  11.5948877  23.6676100
  55.9053902   5.4617736  21.8185258  56.6599870   5.8430775  22.0320721
  55.3124515   5.9128880  22.2731955  55.9290616   5.5846564  21.9168137
  57.2252129   6.6326298  27.1925374  56.7032882   6.7726589  27.8777239
  57.6126149   5.8736962  27.3827491  57.2055830   6.5411822  27.3226450
  63.4219134   8.3721757  21.1785943  63.1805810   7.6389618  20.7713008
  63.6020467   8.9208614  20.5252276  63.4126758   8.3444148  21.0216166
  57.7898614  10.3387078  30.2755229  57.9388178   9.7789994  29.6228634
  58.5698616  10.4179080  30.6587748  57.9272708  10.2672643  30.2352178
  60.3151915  10.5101721  31.5539720  60.2395586   9.8410531  32.1090508
  60.2441774  11.2119509  32.0680386  60.2932522  10.5146628  31.7116568
  60.9722162   9.0302720  22.3863326  61.7372053   8.7612363  22.0645990
  60.8700252   8.5452730  23.1033389  61.0703657   8.9192284  22.4443154
  59.7043549  13.9170040  30.0117721  60.1939479  13.2180830  29.8293386
  59.1327781  13.6193910  30.5993778  59.6928079  13.7696264  30.0718762
  60.1979895   7.6646814  19.1357627  60.2672715   6.8061352  19.2750628
  60.9768350   7.8818695  18.8076652  60.3232745   7.5699678  19.1074785
  64.5887383  10.0884515  23.3494121  64.1967174   9.7851230  22.6316987
  64.7440455  10.9253605  23.1599075  64.5540972  10.1668352  23.2150618
  65.9686053   8.2358208  30.8772709  66.7578431   7.8847273  30.9974791
  66.1429651   9.0494597  30.6149343  66.1106335   8.3044066  30.8560577
  57.5814380   6.7898054  31.8870193  57.4734734   6.8000116  32.7532251
  57.7910161   7.6152834  31.6975147  57.5964491   6.9139129  31.9874285
  55.5988172   4.0410696  29.3492131  55.0076105   4.6820195  29.3195146
  56.3609195   4.4648314  29.3223430  55.6236432   4.1986535  29.3407278
  65.3577688   9.4920008  26.7824155  65.1597376   9.9810822  26.0880366
  64.7365399   9.6961250  27.3608289  65.2365252   9.5936546  26.7647378
  52.8564034   5.7144794  30.4926047  52.3263958   5.0237233  30.5421022
  53.1289127   5.7054979  29.6638756  52.8188756   5.6111926  30.3773463
  48.1359876   2.3872558  27.8494395  48.0303325   2.3419402  26.9846479
  47.3860096   2.7326339  28.1308680  48.0095479   2.4313466  27.7631725
  61.5380194   6.4427944  31.4457847  61.0305285   6.9963790  31.8898478
  61.2406840   6.5036233  30.6276622  61.4185078   6.5334255  31.3906304
  64.1487974  10.3591201  19.3761791  63.4317284  10.1852063  18.9109028
  64.7994711  10.1243774  18.8437277  64.1389824  10.2986994  19.2291009
  60.7822679  11.3752502  28.3514854  60.5588333  10.6171331  28.7198880
  60.2932522  11.4050523  27.6295294  60.6766128  11.2674726  28.2991595
  59.4301136  11.5952960  25.8051939  59.0161534  10.9327090  25.4155780
  60.1148510  11.7430819  25.2847633  59.4699507  11.5193618  25.6708436
  62.7966430  10.7543045  26.5575555  62.3982713  10.8645315  25.7896376
  62.1817649  10.9625111  27.1402115  62.6465319  10.8016613  26.5306855
  56.3955605  12.0362042  28.2065285  56.7102164  12.8498430  28.2143066
  56.8049019  11.6512260  28.8747444  56.5023703  12.0990744  28.3069376
  63.3480125   7.4532088  25.7769097  63.8191303   8.1672351  25.9459082
  63.6840304   6.8530838  26.3128966  63.4675240   7.4703553  25.8801473
  65.4357110   9.0633402  37.9561169  65.5454075   8.2741962  38.3117916
  65.7648006   8.9739338  37.1535507  65.5009515   8.9339255  37.8903559
  53.7368625   5.9835150  27.8543893  54.3413483   5.9430984  27.2257714
  53.5295938   6.8306302  27.8847949  53.7957523   6.1023153  27.7660010
  63.5512398   8.2501095  29.0706130  64.3710771   8.1064061  29.3322426
  63.2706475   8.8747294  29.6122568  63.6309141   8.3211447  29.1894070
  48.9719908   4.9669768  27.7242816  48.8744186   4.1566039  28.0332873
  49.7548777   4.9461561  27.3389084  49.0736044   4.8436858  27.7129679
  73.2225733  14.9941598  26.7901937  72.3663628  15.1550096  26.8411054
  73.2693387  14.1233662  26.8106998  73.1024844  14.8892400  26.8008003
  67.6066873  24.5304316  22.5539169  66.8549772  24.1519854  22.3255214
  68.0552884  24.5622749  21.8057979  67.5616539  24.4789923  22.4096671
  76.5319449  21.2628124  36.3962393  77.2386217  20.7680154  36.5249328
  76.7207385  21.7037205  35.6665051  76.6647355  21.2546474  36.3071439
  73.0591832  24.9529685  17.9824716  72.7243201  25.6306607  17.5468938
  73.5718703  24.5634997  17.3941588  73.0857414  24.9954263  17.8311507
  72.5996124  26.9043954  23.9235827  72.9835503  27.4730853  23.3840603
  72.5355265  26.1793464  23.4441644  72.6469551  26.8819417  23.7729690
  76.0677554  17.0533642  29.4333589  76.6133514  17.7318728  29.4927559
  76.0094430  16.9121103  28.5735170  76.1393468  17.1325644  29.3145649
  69.1851629  24.5422708  24.8201941  69.2861992  23.7323062  25.1299069
  68.5893374  24.4479654  24.1901620  69.1124167  24.4087736  24.7728180
  77.8442623  18.4818249  20.3067317  77.7282148  19.2325935  20.7359455
  78.6398509  18.2242202  20.5563404  77.9447212  18.5553096  20.4071408
  69.0252368  29.4600297  26.2216797  69.6689824  29.9013461  26.6112956
  69.3508624  28.6553723  26.1347056  69.1684197  29.4065492  26.2662275
  62.3816673  20.5642994  24.4454275  62.1466857  19.7310647  24.3386544
  62.5202314  20.8447660  23.6315476  62.3672335  20.4826498  24.3096630
  64.6806760  12.7328725  27.3438583  64.0611792  12.1421372  27.1748597
  64.5790624  13.3240160  26.7102906  64.5744436  12.7332808  27.2243572
  69.7272948  22.4712272  21.5936659  70.0488789  23.0117479  20.9897967
  70.3745045  21.9009043  21.7258949  69.8699003  22.4671447  21.5243694
  71.7774656  14.4728267  21.6771046  72.4754821  14.6516394  22.1692509
  72.0926989  13.9498606  21.0541435  71.9269993  14.4222039  21.6573056
  64.4075894  16.2781007  29.5882152  64.2834590  16.8643452  30.2231971
  65.0594178  15.7841203  29.8894427  64.4849543  16.2919811  29.7268081
  71.9662591  20.8598712  21.6650837  72.4056227  20.2515812  22.1105610
  71.8167254  20.4806085  20.8936302  72.0084057  20.7137183  21.6170005
  69.4334235  19.4542724  28.8669663  70.0783237  18.9615167  28.5480611
  69.6736012  19.5967510  29.6935741  69.5644820  19.4020166  28.9419196
  71.9720326  22.2997630  28.5176555  72.2543569  21.5049035  28.2963311
  72.7006486  22.7778217  28.5381616  72.1209890  22.2532227  28.4879570
  69.9501520   9.8420664  25.7592320  69.6204850  10.2931807  25.0896019
  69.2746522   9.7636827  26.3065327  69.8011956   9.8971799  25.7415544
  75.5671928  19.2125893  18.6181606  75.4823223  20.0686860  18.7631175
  76.0556311  18.9370217  19.2863766  75.6260825  19.2983215  18.7383688
  76.4990361  15.8310687  20.1179342  75.9701833  16.0470321  20.7776648
  77.0215381  16.5246826  20.0380311  76.4978814  15.9653824  20.2034941
  68.3889969  19.7273904  18.9186810  67.8047184  20.2323936  19.3252673
  67.9860064  19.5016291  18.1783402  68.2429273  19.7682152  18.8691835
  63.9433998  25.4428665  25.7210481  63.4601576  26.1679155  25.6970065
  64.7557316  25.7404795  25.8320639  63.9924745  25.5931019  25.7337760
  70.0148152  24.2360846  28.3260296  69.4975093  23.8768261  27.7221604
  70.7122543  23.7123020  28.3366362  70.0413733  24.1058534  28.2390554
  73.6711744  24.6855660  34.2876469  73.7595090  24.4981800  35.1354679
  74.1001456  24.0393090  33.8881315  73.7473846  24.5618668  34.3548220
  71.2382203  23.9686820  33.2694131  70.6753038  23.5559430  33.7933792
  72.0003227  23.8939726  33.6887274  71.2676652  23.8964221  33.4087131
  66.7978195  25.9584841  25.8730761  67.4998774  25.4436830  25.9303518
  66.7175678  26.2858993  26.6777636  66.8901955  25.9299067  26.0003553
  67.8457102  16.1960428  35.0011176  68.0177605  16.0866323  35.8496457
  68.3826459  16.8414834  34.7642368  67.9502105  16.2752430  35.0916273
  66.5114538  10.3103271  17.9393381  66.3290112  10.5275152  17.1134374
  67.3740151  10.4242284  17.9951996  66.6119128  10.3593169  17.8247868
  66.1228970  22.1491193  25.3816369  66.9617870  22.3814126  25.4290131
  66.1540740  21.2795505  25.3123404  66.2510688  22.0548140  25.3781014
  66.7481673  22.5692068  29.6829675  67.2879898  22.4263199  30.3533047
  66.0651620  22.9688819  30.0513701  66.7273827  22.6071739  29.8364096
  76.1722558  18.2483069  24.8774699  76.9280073  18.6814583  24.9163608
  76.2784883  17.5987839  25.4509335  76.2992729  18.2160553  24.9672725
  73.7831803  24.1164679  36.9520252  74.5672220  24.2295527  37.3175994
  73.5828398  23.2905816  37.1478938  73.8697828  24.0111398  37.0354638
  62.1518818  18.7892359  29.8364096  61.8857234  17.9731476  29.9955086
  62.1657383  18.8345515  28.9659612  62.1143541  18.6749264  29.7317578
  66.0576565  13.5877444  16.4515854  65.3434743  13.3015623  16.8638287
  66.5420534  13.9274069  17.0922242  66.0235929  13.5959093  16.6071489
  66.9017425  12.3270737  32.4831104  66.2089222  11.8567717  32.7291835
  67.5177752  12.1009042  33.0572811  66.8901955  12.2237869  32.6040256
  73.9402196  26.0274781  30.5986708  73.1417442  25.7874281  30.8560576
  74.3888208  26.0789174  31.3453755  73.8876808  25.9997172  30.7471632
  73.2323883  22.0907398  16.8277662  73.6475032  21.7592421  16.1362158
  72.4015813  21.8576300  16.6997799  73.1711892  22.0078654  16.7068510
  62.5612232  19.5751139  27.1175840  62.3787805  19.5498025  26.2648133
  63.2961901  20.0450076  27.1564749  62.6426296  19.6412501  26.9973759
  65.6257984  16.2936141  33.6257949  66.3497956  16.2789172  34.1122844
  65.7274120  17.0031497  33.1279917  65.7476193  16.3960845  33.6236736
  73.0002933  19.7735226  38.4906896  72.2075914  20.0878738  38.6759516
  73.1151860  19.9886694  37.6527681  72.8998344  19.8519063  38.3945231
  75.6734252  16.4969217  22.7801912  75.7681107  17.2358511  23.2341537
  75.0493096  16.0686693  23.2136476  75.5943282  16.5430538  22.9110059
  73.9286726  19.6755430  33.4292193  74.5025588  19.0382674  33.5840757
  73.8501530  19.6759512  32.5601850  74.0019961  19.5820541  33.3238604
  62.5283142  16.4544639  27.2674907  63.1056645  16.3181090  27.9067152
  61.8297204  15.9980423  27.5220491  62.5104164  16.3666905  27.3997197
  69.2850445  18.1078695  25.4813390  69.0269689  17.2750430  25.4544690
  69.3398927  18.3336308  24.6405891  69.2550223  18.0176466  25.3533527
  68.2585157  15.6616457  25.9678285  67.6834748  15.8208626  26.6042246
  67.8820833  15.0251866  25.5046735  68.1187969  15.5914270  25.9932843
  71.9258445  14.1339807  30.8270663  71.5372878  13.7094024  30.1722855
  71.2613144  14.3821956  31.3347690  71.7705373  14.1078528  30.8058531
  58.0041976  15.3056532  23.9822726  58.0902228  14.9288400  24.7636255
  58.6317773  14.9316978  23.5042684  58.1098527  15.1942014  24.0268203
  73.0297384  18.3638411  19.0247470  73.8438023  18.6553304  18.9130242
  72.9656525  17.7098274  18.4505763  73.1400123  18.3103606  18.9236308
  68.9005292  21.8359929  24.1519782  69.5379239  21.5971676  24.6971576
  69.3260364  22.0397088  23.4172943  69.0581458  21.8310939  24.1236940
  63.5917934  24.0748265  28.0354086  63.6322080  24.3463116  27.2073866
  64.1512458  24.5990173  28.4511874  63.6801280  24.1924020  27.9745974
  69.7076647  10.3368634  38.2057256  69.3930088  11.1068196  37.9426819
  69.3866580   9.7738890  37.6209483  69.6135566  10.3678902  38.0798606
  71.2826764  22.3132351  25.8313569  71.3565772  22.1507523  26.6855419
  72.0996270  22.5022541  25.5874050  71.4143123  22.3169094  25.9211594
  65.0432521  22.6590214  22.8608012  64.2170638  22.9051951  22.7342291
  65.1044512  22.5802295  23.7270070  64.9306688  22.6835163  22.9696957
  67.2608544   8.7259155  23.8203452  66.3930970   8.7981755  23.8861062
  67.5483749   9.5281234  24.0091427  67.1748292   8.8553302  23.8578219
  69.8231350  25.2767094  20.5627042  70.1129648  24.8856076  19.8386269
  70.5534830  25.4583799  21.0032317  69.9738234  25.2460908  20.5209849
  70.4126095  20.0784840  31.6480173  69.9137788  20.7900608  31.7265061
  71.2226319  20.3985507  31.6098335  70.4582202  20.2311689  31.6536741
  67.7637265  27.2534477  23.6287192  67.5437561  26.9631832  24.4213859
  67.5431787  26.5949432  23.1005104  67.6984859  27.1134185  23.6676100
  66.6754212  19.3407793  25.8942893  66.3867461  18.7145265  26.4288621
  67.5437560  19.2828081  25.9607574  66.7614464  19.2395338  25.9833848
  77.4632110  14.4842577  26.2124875  77.1196876  13.7632912  26.5632125
  77.5625153  14.2756428  25.3703234  77.4274153  14.3466780  26.1396555
  69.9305221  28.6263867  22.4117884  70.5829279  28.0940309  22.6408910
  69.2330830  28.2732519  22.7985758  69.9235939  28.4953390  22.5030052
  66.8786486  20.9803044  21.8185258  67.6332454  21.3616083  22.0320721
  66.2857098  21.4314188  22.2731955  66.9023199  21.1031872  21.9168137
  77.9245139  20.9468281  21.7548863  78.4903172  21.6061491  21.6707406
  77.2773043  21.2917979  22.2265266  77.9123896  21.0950222  21.8121620
  69.3393153  12.9365885  36.9442471  68.5292929  13.2423664  36.8332313
  69.8167840  13.6571467  37.0595055  69.2896632  13.0880486  36.9449542
  68.1984712  22.1511606  27.1925374  67.6765466  22.2911897  27.8777239
  68.5858733  21.3922270  27.3827491  68.1788413  22.0597130  27.3226450
  65.1875896  12.2017414  21.2620329  64.9000692  11.8318685  20.5252276
  65.8746365  12.6712270  21.0004033  65.2464794  12.2164384  21.1135404
  74.3951717  23.8907065  21.1785943  74.1538393  23.1574926  20.7713008
  74.5753050  24.4393922  20.5252276  74.3859341  23.8629456  21.0216166
  69.6251038  19.1815625  22.5906865  69.4293821  19.7890359  21.9967168
  69.8485384  18.4883569  22.1098539  69.6285679  19.1693150  22.4322946
  68.0229568  16.0670363  22.7087733  68.7452220  16.2311521  22.2491539
  67.5437561  16.7880027  22.6027073  68.0593299  16.1968592  22.6253347
  75.9823076  12.4034161  28.0884418  75.1434176  12.4295440  27.8522681
  76.0527443  13.0504897  28.6689765  75.8691469  12.5030287  28.1393535
  65.6737185  18.4728435  31.8141873  66.1858282  18.7512688  31.1650633
  65.3873527  19.2117729  32.1804686  65.7072048  18.6230789  31.7731751
  62.7604091  12.9798627  22.1105610  62.8620227  13.7824788  22.4386585
  63.5559978  12.7785963  21.8128690  62.8931997  13.0684526  22.1140965
  69.1920910  10.5654824  31.8742915  69.0004107  10.5809958  32.7242338
  70.0419506  10.7618498  31.8509570  69.2896632  10.5969175  31.9966209
  63.5767823  13.0945805  29.8526731  63.4353315  12.2429746  29.9771239
  63.8608387  13.1374466  29.0288937  63.5975669  12.9745555  29.7494355
  73.7306415  14.9312895  23.9971219  73.4841130  14.8508646  24.8308008
  74.0591539  14.1466363  23.8033747  73.7427659  14.8039161  24.0918743
  77.6254464  21.6396255  27.7858001  77.4868824  22.3377300  28.2906743
  76.8454462  21.4844911  27.4294182  77.4897691  21.7196421  27.8084275
  75.9632549  17.9392630  34.0380382  75.9580588  17.0672447  34.0422809
  76.6693543  18.1380799  33.5649838  76.0677553  17.8396504  33.9687418
  69.6903443  17.6669614  33.4094203  69.8346819  18.2470822  32.7737313
  70.0379091  18.0445911  34.1144057  69.7630904  17.8090318  33.4193197
  71.8623360  16.8659782  31.1919334  71.1146674  17.0590797  30.7867612
  72.0164885  16.0405002  30.9543455  71.7745788  16.7724894  31.0964740
  68.7631198  25.8572386  30.2755229  68.9120761  25.2975302  29.6228634
  69.5431200  25.9364387  30.6587748  68.9005291  25.7857951  30.2352178
  71.2884498  26.0287029  31.5539720  71.2128169  25.3595839  32.1090508
  71.2174358  26.7304817  32.0680386  71.2665105  26.0331936  31.7116568
  72.1025137  10.7610333  32.0814738  72.5597751  11.4934307  32.2087530
  72.1781466  10.3376798  32.8401994  72.1816107  10.8067571  32.2115814
  64.3458128  11.0076153  33.1704182  63.8100318  10.3956511  33.4864949
  64.4075893  11.5824289  33.8237848  64.2753761  11.0023080  33.3139608
  71.9454745  24.5488027  22.3863326  72.7104636  24.2797671  22.0645990
  71.8432835  24.0638038  23.1033389  72.0436241  24.4377592  22.4443154
  69.9807515  12.7512437  28.9256562  69.1903590  12.5703897  29.2473898
  70.3768138  11.9739389  28.9086856  69.9224391  12.6099898  28.9709110
  75.3651201  20.3854867  26.6516008  74.6896203  20.1540099  27.1529395
  75.3743577  19.7776050  26.0258113  75.2669706  20.2613792  26.6332160
  72.4945345  15.2272696  33.4080061  72.4304487  16.0882653  33.2800197
  72.6342533  14.9104689  32.6075612  72.5060815  15.3072863  33.2708274
  77.3667936  23.2419999  18.8826186  77.4487773  24.0486986  18.5587637
  77.8517678  23.2615959  19.6066959  77.4505094  23.3640662  18.9413084
  71.1764439  17.9204835  27.5496264  70.7526688  18.1209334  26.8135282
  71.0009294  17.0733683  27.6620564  71.0875320  17.8253617  27.4569954
  70.6776133  29.4355348  30.0117721  71.1672063  28.7366138  29.8293386
  70.1060365  29.1379218  30.5993778  70.6660663  29.2881572  30.0718762
  66.4646884  18.4156887  22.9824236  66.6211503  18.3503690  23.8380228
  66.8047477  19.1905439  22.7702916  66.5380119  18.5206085  23.0778830
  73.0026029  17.7914770  21.8517599  73.5441574  17.2885152  22.3156220
  73.3172588  17.7379965  21.0407085  73.1290426  17.7094191  21.8001412
  76.8743136  22.0017418  38.9644512  77.6878002  21.7302567  39.1249644
  76.7138103  21.7024958  38.1604708  76.9713085  21.9172344  38.8689918
  71.1712479  23.1832122  19.1357627  71.2405299  22.3246660  19.2750628
  71.9500934  23.4004003  18.8076652  71.2965329  23.0884986  19.1074785
  74.1515298  12.6851075  31.9039900  74.3657268  12.0461989  31.3503254
  73.5349197  13.1296899  31.4747762  74.0920627  12.6561219  31.7590331
  75.5619966  25.6069823  23.3494121  75.1699758  25.3036538  22.6316987
  75.7173038  26.4438913  23.1599075  75.5273556  25.6853660  23.2150618
  63.0381146  15.5991837  23.2985003  63.4180111  16.0176382  22.6345271
  62.4636511  16.1805293  23.6053847  63.0092471  15.7469696  23.2461744
  76.3154386  14.2940140  32.8423207  75.5031068  13.9866030  32.9236380
  76.7744321  13.8139140  33.4065919  76.2634771  14.1776632  32.9377801
  75.7259641  22.1719812  23.2900151  75.3674296  22.3434455  24.0664184
  75.2398352  22.6333018  22.7328150  75.6018338  22.2658783  23.3225420
  70.5148006  17.8518977  15.8300386  70.8040531  18.6283860  16.1043960
  70.6019805  17.3407709  16.5314885  70.5702263  17.8910896  15.9742884
  73.4107894  15.7000212  37.6251909  73.8807525  16.3242328  38.0119783
  73.4569774  15.0317187  38.1845124  73.4875770  15.6934892  37.7651981
  76.8864380  23.0623708  34.2367352  77.5244101  22.5683904  33.9029808
  76.2438472  22.9901109  33.6519579  76.8858607  22.9782717  34.1009707
  78.6121380  14.9112854  28.8033268  78.1848988  14.8239203  28.0481367
  77.9747433  15.0190630  29.3888112  78.4550988  14.9145514  28.7778709
  76.9418637  23.7543516  30.8772709  77.7311015  23.4032581  30.9974791
  77.1162235  24.5679905  30.6149343  77.0838918  23.8229373  30.8560577
  66.6811947  17.1652242  27.9300498  65.8399954  17.0656116  28.1379392
  66.8901955  17.9347722  28.2814818  66.5876640  17.2644285  28.0127813
  64.1587514  14.7871779  25.7585248  63.7644212  14.8614791  24.9835358
  63.6027631  15.1729725  26.3093610  64.0190327  14.8553554  25.7252908
  70.4928612  15.0933641  27.1798095  70.1891750  14.5389630  27.7808503
  69.7908033  15.2725851  26.6926130  70.3444822  15.0378424  27.1967801
  69.5494709  12.4034161  21.7442797  69.8254444  11.6853074  21.3320365
  70.1493379  13.0019081  21.5363903  69.6787974  12.3854532  21.6523558
  68.5546963  22.3083362  31.8870193  68.4467318  22.3185424  32.7532251
  68.7642745  23.1338142  31.6975147  68.5697074  22.4324437  31.9874285
  66.5720755  19.5596004  29.3492131  65.9808688  20.2005503  29.3195146
  67.3341779  19.9833622  29.3223430  66.5969016  19.7171843  29.3407278
  66.9681378  10.7198002  30.0160148  67.4282859  10.7936932  30.7535272
  67.0137485  11.5179256  29.6659970  67.0431933  10.8492149  30.0732905
  68.6164728  11.3864697  34.5832175  68.2250293  10.7398044  35.0187953
  68.7850590  11.9776132  35.2026431  68.5835638  11.3778965  34.7394881
  76.3310271  25.0105316  26.7824155  76.1329960  25.4996130  26.0880366
  75.7097982  25.2146557  27.3608289  76.2097836  25.1121854  26.7647378
  70.3918250  16.7790213  21.1234399  71.1360295  17.1664489  21.3617349
  70.5378946  15.9347638  21.2874887  70.5228835  16.7120686  21.1828369
  73.3796126  12.3515686  27.0228319  72.9056080  11.8257448  27.5333630
  73.7514261  11.8045159  26.4543180  73.3646015  12.1931683  27.0143466
  63.7569156  14.3487193  32.3911865  64.6194769  14.2482902  32.3049194
  63.4260939  13.7681902  31.8297437  63.8354352  14.2478820  32.2957270
  67.1170942  13.1729642  29.0522283  66.4924012  13.1848034  28.4448235
  66.7816537  13.6489817  29.7013523  66.9756434  13.2448159  29.0578851
  67.3012690  11.5154760  15.1094968  66.9525495  12.1674485  15.5726517
  66.8209136  11.5011873  14.3818839  67.1782934  11.6097814  15.0706059
  63.8296617  21.2330102  30.4926047  63.2996542  20.5422541  30.5421022
  64.1021711  21.2240287  29.6638756  63.7921340  21.1297234  30.3773463
  74.8616708  21.8155804  19.2163730  75.5850907  22.2813917  19.0728303
  74.4217299  21.8829414  18.4661327  74.9032400  21.8939641  19.0848511
  74.0302863  18.6753346  30.4664419  73.4159856  18.1311397  30.7613054
  74.5470148  18.1617583  29.9870235  74.0158525  18.5189756  30.4388647
  73.2699160  19.7457617  28.2008717  72.8426768  19.1207335  27.7674153
  73.2624104  19.4632538  29.0267724  73.2058301  19.6110397  28.2588545
  66.3861687  14.7822790  31.2697151  66.5455174  14.0266114  31.6748873
  66.2054581  15.3313729  31.9237889  66.3827046  14.7516603  31.4259857
  71.5984870  10.6226371  28.4151251  71.6227357  10.0886483  27.7264031
  71.8496343  10.1143680  29.0776842  71.6394788  10.4687275  28.4115896
  59.1092459  17.9057866  27.8494395  59.0035909  17.8604710  26.9846479
  58.3592679  18.2511647  28.1308680  58.9828062  17.9498774  27.7631725
  67.8786192   9.3497189  27.7956996  67.9184563   9.8506396  28.5091703
  67.0535857   9.4407583  27.5262919  67.7625718   9.4379006  27.8607534
  70.0615805  18.9157929  35.8977290  69.2111435  19.0529644  36.0334935
  70.2243932  18.1821708  36.3424992  69.9599668  18.8272030  35.9832889
  69.3000555  15.8657699  30.0930895  68.4692485  16.0331517  29.8866143
  69.2452072  15.4893650  30.8779780  69.1689970  15.8347430  30.1779423
  67.1084339   9.3566592  35.7287305  67.7337042   8.8128725  36.0016738
  66.6534818   8.8761510  35.1595096  67.1332599   9.2056073  35.6848899
  67.6736599  14.1413291  20.6221012  67.8139560  14.6385755  21.3249654
  68.1719132  13.4399585  20.7635226  67.7677680  14.1115269  20.7472591
  67.7036821  15.0080402  17.9513589  68.3381901  15.6040827  17.8863051
  67.7862432  14.7083859  18.7659459  67.8093372  15.0521310  18.0616676
  69.2815804  10.9394377  17.9259031  69.6031645  10.4597460  17.2718293
  69.5442748  11.7494023  17.7349843  69.3681830  10.9884275  17.8014523
  72.5112777  21.9613251  31.4457847  72.0037868  22.5149098  31.8898478
  72.2139423  22.0221541  30.6276622  72.3917662  22.0519563  31.3906304
  64.2089809  17.2048242  21.2203135  64.7182039  17.8012750  21.6014441
  64.6824082  16.9374216  20.5379555  64.3533185  17.2534058  21.1757658
  75.1220557  25.8776509  19.3761791  74.4049867  25.7037371  18.9109028
  75.7727295  25.6429081  18.8437277  75.1122408  25.8172302  19.2291009
  77.7068529  14.7541098  23.1203096  77.0359719  15.2970800  22.9916161
  78.4008279  15.2235953  22.8784791  77.7097396  14.9039369  23.0658624
  71.7555262  26.8937810  28.3514854  71.5320917  26.1356639  28.7198880
  71.2665106  26.9235831  27.6295294  71.6498711  26.7860034  28.2991595
  66.5680341  13.8404501  24.0876316  65.8492330  14.2568634  24.3549179
  66.9392703  14.4058740  23.5367954  66.5172273  13.9853782  24.0459123
  75.8679922  14.4732350  29.9778311  75.8477849  14.2915645  30.8313090
  75.9159123  15.3444368  29.9537895  75.8714563  14.5748888  30.1001606
  73.8126252  21.0619542  35.9026788  73.7722107  20.4169219  35.3171944
  74.6249570  21.0056159  36.2152200  73.9269405  20.9578509  35.8623737
  70.4033719  27.1138268  25.8051939  69.9894118  26.4512398  25.4155780
  71.0881094  27.2616127  25.2847633  70.4432091  27.0378926  25.6708436
  73.7699013  26.2728353  26.5575555  73.3715297  26.3830623  25.7896376
  73.1550233  26.4810419  27.1402115  73.6197903  26.3201921  26.5306855
  72.3426915  12.8802501  19.4249695  71.7491755  13.2019497  18.8734262
  72.3802193  12.0343596  19.2170801  72.2601305  12.8026829  19.3132466
  75.2184732  12.8382005  22.8551445  74.9898425  12.8614707  22.0129803
  75.4782808  12.0139472  22.9746456  75.2230920  12.7198085  22.7476643
  69.5003960  14.6916478  32.4576545  68.9882864  14.0837661  32.8161577
  69.3283457  15.4073071  32.9250521  69.3993597  14.7079778  32.5792769
  64.3469675  13.1354054  35.1078907  64.1772265  13.7955429  34.5627114
  63.9035625  13.3460615  35.8291396  64.2569009  13.2640036  35.1340537
  68.2729495  11.3758552  24.1505641  68.7486861  11.7375632  23.5155822
  67.7718094  12.0315019  24.4305784  68.2694854  11.5252740  24.0982382
  73.3773031  12.6140723  34.8978801  73.9344461  12.3854533  34.2657266
  73.0534096  13.3746389  34.6214013  73.4119441  12.6924560  34.7635298
  61.2471740  16.0400919  30.3667397  60.6998459  15.3701565  30.4848265
  62.0364118  15.6730767  30.4310864  61.2823923  15.8865906  30.3936098
  71.0956148  15.7008376  35.8630808  71.8467475  16.0160053  36.1770362
  71.2878725  15.4987547  35.0364730  71.2347562  15.7175758  35.7874204
  70.3156148  13.5199751  17.5179025  70.6955113  13.5379381  16.7330140
  69.5748744  13.9653740  17.3969872  70.2624985  13.5881526  17.3842593
  60.0058709  15.2521727  27.5213420  59.8280470  14.7998336  28.2468336
  59.7177731  16.0547889  27.7051898  59.9371662  15.3044285  27.6556923
  75.6682290  16.5079444  26.7590810  76.1635956  15.7902440  26.7194831
  74.8582066  16.2050242  26.6445297  75.6226184  16.3577091  26.7364536
  71.1140902  20.3577258  18.9087815  70.3052225  20.0343931  18.8621124
  71.6215811  19.6510480  18.8416064  71.0690569  20.2058574  18.8918109
  61.7431179  17.7849451  24.6335179  60.8776699  17.7735141  24.5217950
  61.8429995  17.5979674  25.4806318  61.6305346  17.7555512  24.7424124
  77.7334109  19.2583132  29.4467939  78.1589181  18.7357554  28.8938364
  77.3691029  19.8563969  28.9256562  77.7420712  19.2693359  29.2876949
  67.3688189  27.5547350  28.2065285  67.6834748  28.3683738  28.2143066
  67.7781602  27.1697568  28.8747444  67.4756287  27.6176052  28.3069376
  74.3212709  22.9717396  25.7769097  74.7923887  23.6857659  25.9459082
  74.6572887  22.3716146  26.3128966  74.4407824  22.9888861  25.8801473
  76.4089693  24.5818710  37.9561169  76.5186659  23.7927270  38.3117916
  76.7380590  24.4924646  37.1535507  76.4742099  24.4524563  37.8903559
  74.9586655  22.7635330  32.5396789  74.4107601  22.1393214  32.2716855
  75.4199684  22.9529602  31.8240869  74.9453864  22.6994381  32.3947220
  70.3075318   9.7461280  20.2006656  71.1291013   9.9159593  19.9588351
  69.8444969   9.9008541  19.4772954  70.3606481   9.7943013  20.0578301
  64.7101209  21.5020458  27.8543893  65.3146066  21.4616292  27.2257714
  64.5028522  22.3491610  27.8847949  64.7690106  21.6208460  27.7660010
  74.5244981  23.7686403  29.0706130  75.3443355  23.6249369  29.3322426
  74.2439059  24.3932602  29.6122568  74.6041725  23.8396755  29.1894070
  59.9452491  20.4855075  27.7242816  59.8476769  19.6751347  28.0332873
  60.7281361  20.4646869  27.3389084  60.0468628  20.3622166  27.7129679
  73.3549257  36.0828302  24.4454275  73.1199441  35.2495955  24.3386544
  73.4934897  36.3632968  23.6315476  73.3404919  36.0011806  24.3096630
  75.6539344  28.2514033  27.3438583  75.0344376  27.6606680  27.1748597
  75.5523208  28.8425468  26.7102906  75.5477020  28.2518116  27.2243572
  75.3808477  31.7966315  29.5882152  75.2567174  32.3828760  30.2231971
  76.0326762  31.3026510  29.8894427  75.4582126  31.8105119  29.7268081
  74.9166581  40.9613973  25.7210481  74.4334160  41.6864463  25.6970065
  75.7289900  41.2590103  25.8320639  74.9657329  41.1116327  25.7337760
  77.7710779  41.4770149  25.8730761  78.4731358  40.9622138  25.9303518
  77.6908262  41.8044300  26.6777636  77.8634539  41.4484375  26.0003553
  77.4847122  25.8288579  17.9393381  77.3022695  26.0460460  17.1134374
  78.3472735  25.9427592  17.9951996  77.5851711  25.8778477  17.8247868
  77.0961554  37.6676501  25.3816369  77.9350453  37.8999434  25.4290131
  77.1273323  36.7980813  25.3123404  77.2243272  37.5733448  25.3781014
  77.7214257  38.0877376  29.6829675  78.2612482  37.9448507  30.3533047
  77.0384203  38.4874127  30.0513701  77.7006411  38.1257047  29.8364096
  73.1251402  34.3077667  29.8364096  72.8589817  33.4916784  29.9955086
  73.1389966  34.3530823  28.9659612  73.0876124  34.1934572  29.7317578
  77.0309149  29.1062752  16.4515854  76.3167326  28.8200931  16.8638287
  77.5153118  29.4459377  17.0922242  76.9968512  29.1144401  16.6071489
  77.8750008  27.8456045  32.4831104  77.1821805  27.3753025  32.7291835
  78.4910336  27.6194350  33.0572811  77.8634538  27.7423177  32.6040256
  76.5990567  31.8121449  33.6257949  77.3230540  31.7974480  34.1122844
  76.7006704  32.5216805  33.1279917  76.7208776  31.9146153  33.6236736
  73.5015726  31.9729947  27.2674907  74.0789229  31.8366398  27.9067152
  72.8029788  31.5165731  27.5220491  73.4836747  31.8852213  27.3997197
  68.9774559  30.8241840  23.9822726  69.0634811  30.4473708  24.7636255
  69.6050357  30.4502286  23.5042684  69.0831110  30.7127322  24.0268203
  74.5650518  39.5933573  28.0354086  74.6054663  39.8648424  27.2073866
  75.1245042  40.1175481  28.4511874  74.6533864  39.7109328  27.9745974
  76.0165104  38.1775522  22.8608012  75.1903222  38.4237259  22.7342291
  76.0777095  38.0987603  23.7270070  75.9039271  38.2020471  22.9696957
  78.2341128  24.2444463  23.8203452  77.3663553  24.3167063  23.8861062
  78.5216332  25.0466542  24.0091427  78.1480876  24.3738610  23.8578219
  78.7369849  42.7719785  23.6287192  78.5170144  42.4817139  24.4213859
  78.5164371  42.1134740  23.1005104  78.6717443  42.6319493  23.6676100
  77.6486796  34.8593101  25.8942893  77.3600045  34.2330572  26.4288621
  78.5170144  34.8013389  25.9607574  77.7347048  34.7580645  25.9833848
  77.8519069  36.4988352  21.8185258  78.6065037  36.8801391  22.0320721
  77.2589682  36.9499496  22.2731955  77.8755783  36.6217180  21.9168137
  76.1608480  27.7202722  21.2620329  75.8733276  27.3503993  20.5252276
  76.8478948  28.1897578  21.0004033  76.2197377  27.7349692  21.1135404
  76.6469768  33.9913743  31.8141873  77.1590865  34.2697996  31.1650633
  76.3606111  34.7303037  32.1804686  76.6804631  34.1416097  31.7731751
  73.7336675  28.4983935  22.1105610  73.8352811  29.3010096  22.4386585
  74.5292561  28.2971271  21.8128690  73.8664580  28.5869834  22.1140965
  74.5500407  28.6131113  29.8526731  74.4085899  27.7615054  29.9771239
  74.8340970  28.6559774  29.0288937  74.5708253  28.4930863  29.7494355
  75.3190712  26.5261461  33.1704182  74.7832901  25.9141819  33.4864949
  75.3808477  27.1009597  33.8237848  75.2486345  26.5208388  33.3139608
  77.4379468  33.9342195  22.9824236  77.5944087  33.8688998  23.8380228
  77.7780061  34.7090747  22.7702916  77.5112703  34.0391393  23.0778830
  74.0113729  31.1177145  23.2985003  74.3912694  31.5361690  22.6345271
  73.4369094  31.6990601  23.6053847  73.9825054  31.2655004  23.2461744
  77.6544531  32.6837550  27.9300498  76.8132537  32.5841424  28.1379392
  77.8634539  33.4533030  28.2814818  77.5609223  32.7829593  28.0127813
  75.1320098  30.3057087  25.7585248  74.7376796  30.3800099  24.9835358
  74.5760215  30.6915033  26.3093610  74.9922910  30.3738862  25.7252908
  77.5453339  35.0781312  29.3492131  76.9541272  35.7190810  29.3195146
  78.3074362  35.5018930  29.3223430  77.5701599  35.2357151  29.3407278
  77.9413961  26.2383310  30.0160148  78.4015443  26.3122239  30.7535272
  77.9870068  27.0364564  29.6659970  78.0164517  26.3677457  30.0732905
  74.7301739  29.8672501  32.3911865  75.5927352  29.7668210  32.3049194
  74.3993522  29.2867210  31.8297437  74.8086936  29.7664127  32.2957270
  78.0903525  28.6914950  29.0522283  77.4656595  28.7033342  28.4448235
  77.7549120  29.1675125  29.7013523  77.9489017  28.7633467  29.0578851
  78.2745274  27.0340068  15.1094968  77.9258078  27.6859793  15.5726517
  77.7941720  27.0197181  14.3818839  78.1515518  27.1283122  15.0706059
  74.8029201  36.7515410  30.4926047  74.2729125  36.0607849  30.5421022
  75.0754294  36.7425595  29.6638756  74.7653923  36.6482542  30.3773463
  77.3594271  30.3008097  31.2697151  77.5187757  29.5451422  31.6748873
  77.1787164  30.8499037  31.9237889  77.3559630  30.2701911  31.4259857
  70.0825043  33.4243174  27.8494395  69.9768492  33.3790018  26.9846479
  69.3325263  33.7696955  28.1308680  69.9560646  33.4684082  27.7631725
  78.0816922  24.8751900  35.7287305  78.7069625  24.3314033  36.0016738
  77.6267402  24.3946818  35.1595096  78.1065183  24.7241381  35.6848899
  75.1822393  32.7233550  21.2203135  75.6914622  33.3198058  21.6014441
  75.6556665  32.4559524  20.5379555  75.3265769  32.7719366  21.1757658
  77.5412925  29.3589809  24.0876316  76.8224914  29.7753942  24.3549179
  77.9125287  29.9244048  23.5367954  77.4904856  29.5039090  24.0459123
  75.3202259  28.6539362  35.1078907  75.1504849  29.3140737  34.5627114
  74.8768209  28.8645923  35.8291396  75.2301592  28.7825344  35.1340537
  72.2204323  31.5586227  30.3667397  71.6731043  30.8886873  30.4848265
  73.0096701  31.1916075  30.4310864  72.2556507  31.4051214  30.3936098
  70.9791293  30.7707035  27.5213420  70.8013054  30.3183644  28.2468336
  70.6910315  31.5733196  27.7051898  70.9104246  30.8229593  27.6556923
  72.7163763  33.3034759  24.6335179  71.8509282  33.2920449  24.5217950
  72.8162579  33.1164982  25.4806318  72.6037930  33.2740820  24.7424124
  78.3420773  43.0732657  28.2065285  78.6567331  43.8869046  28.2143066
  78.7514186  42.6882876  28.8747444  78.4488871  43.1361360  28.3069376
  75.6833793  37.0205766  27.8543893  76.2878650  36.9801600  27.2257714
  75.4761105  37.8676918  27.8847949  75.7422690  37.1393768  27.7660010
  70.9185075  36.0040383  27.7242816  70.8209353  35.1936655  28.0332873
  71.7013945  35.9832177  27.3389084  71.0201211  35.8807474  27.7129679
   4.5111024  22.7456977  60.9594227   4.4805029  23.6001614  61.1312496
   5.1092373  22.4452269  61.5180370   4.5948182  22.8273473  61.0669029
   2.3327599  25.3209279  59.2312537   2.2167125  26.0716965  59.6604675
   3.1283486  25.0633232  59.4808624   2.4332188  25.3944126  59.3316628
   0.9875338  22.6701717  59.0424562   0.4586809  22.8861351  59.7021868
   1.5100358  23.3637856  58.9625531   0.9863791  22.8044854  59.1280161
   6.4423391  28.2448022  64.4157606   5.6121094  28.4558665  64.5791023
   6.3932643  27.4185076  64.1399890   6.3130126  28.1537628  64.3994972
   3.6987706  28.9147376  64.5522322   3.2622938  28.9184119  65.3081293
   3.3650621  29.5952875  64.1201899   3.5850326  29.0159832  64.6003154
   6.8332052  25.6328296  63.4441959   7.4948486  25.0718965  63.3437868
   6.1923464  25.1380327  63.7694650   6.8360920  25.4764705  63.4774299
   3.1196883  26.6493678  63.1853948   3.3552472  26.7938877  62.3580799
   3.2686446  27.4136087  63.5785462   3.1762686  26.7832733  63.1217552
   4.9487339  25.4895344  61.0223552   5.2795557  26.0222985  60.4163647
   5.5220428  25.5434232  61.6785503   5.0821019  25.5764913  61.0301333
   2.4130116  27.7859311  60.6794083   2.9788148  28.4452521  60.5952626
   1.7658019  28.1309009  61.1510486   2.4008872  27.9341252  60.7366840
   3.6092814  27.8365538  57.4719720   3.2299622  27.0502676  57.4649009
   2.9459059  28.3852395  57.3291364   3.4551288  27.8010362  57.4500517
   1.8552912  30.0811029  57.8071406   1.9372750  30.8878016  57.4832857
   2.3402655  30.1006989  58.5312179   1.9390070  30.2031692  57.8658304
   5.9925833  27.6871350  58.8663866   6.3759438  28.4362706  59.0961963
   5.1969946  27.9337169  58.6075855   5.9319615  27.8341044  58.8621439
  15.4843608  38.2642285  60.9594227  15.4537612  39.1186921  61.1312496
  16.0824957  37.9637577  61.5180370  15.5680766  38.3458781  61.0669029
   8.6843293  37.3517936  65.7147157   7.8281188  37.5126434  65.7656274
   8.7310947  36.4810000  65.7352218   8.5642404  37.2468738  65.7253223
   3.0684433  46.8880654  61.4784389   2.3167332  46.5096192  61.2500434
   3.5170444  46.9199087  60.7303199   3.0234099  46.8366261  61.3341891
  11.9937009  43.6204461  75.3207613  12.7003777  43.1256492  75.4494548
  12.1824945  44.0613543  74.5910271  12.1264915  43.6122812  75.2316659
   8.5209392  47.3106023  56.9069936   8.1860761  47.9882945  56.4714158
   9.0336263  46.9211334  56.3186808   8.5474974  47.3530601  56.7556727
   8.0613684  49.2620292  62.8481047   8.4453063  49.8307190  62.3085823
   7.9972825  48.5369802  62.3686864   8.1087111  49.2395755  62.6974910
  11.5295114  39.4109980  68.3578809  12.0751074  40.0895066  68.4172779
  11.4711990  39.2697441  67.4980390  11.6011028  39.4901981  68.2390869
   4.6469189  46.8999046  63.7447161   4.7479552  46.0899400  64.0544289
   4.0510934  46.8055992  63.1146840   4.5741727  46.7664074  63.6973400
  13.3060183  40.8394587  59.2312537  13.1899708  41.5902273  59.6604675
  14.1016069  40.5818540  59.4808624  13.4064772  40.9129434  59.3316628
   4.4869928  51.8176635  65.1462017   5.1307384  52.2589799  65.5358176
   4.8126184  51.0130061  65.0592276   4.6301757  51.7641830  65.1907495
   5.1890508  44.8288610  60.5181879   5.5106349  45.3693817  59.9143187
   5.8362605  44.2585381  60.6504169   5.3316563  44.8247785  60.4488914
   7.2392216  36.8304605  60.6016266   7.9372381  37.0092732  61.0937729
   7.5544549  36.3074944  59.9786655   7.3887553  36.7798377  60.5818276
   7.4280151  43.2175050  60.5896057   7.8673787  42.6092150  61.0350830
   7.2784814  42.8382423  59.8181522   7.4701617  43.0713521  60.5415225
   4.8951795  41.8119062  67.7914883   5.5400797  41.3191505  67.4725831
   5.1353572  41.9543848  68.6180961   5.0262380  41.7596504  67.8664416
   7.4337886  44.6573967  67.4421775   7.7161129  43.8625373  67.2208531
   8.1624046  45.1354555  67.4626836   7.5827450  44.6108564  67.4124790
   5.4119080  32.1997001  64.6837540   5.0822410  32.6508145  64.0141239
   4.7364082  32.1213165  65.2310547   5.2629516  32.2548137  64.6660764
  11.0289488  41.5702231  57.5426827  10.9440783  42.4263198  57.6876395
  11.5173871  41.2946555  58.2108986  11.0878385  41.6559552  57.6628908
  12.6195487  28.1882524  62.9287151  12.3048928  28.8786003  63.3607573
  12.1022429  28.1327307  62.2272652  12.4959958  28.2817413  62.8884100
  11.9607921  38.1887025  59.0424562  11.4319393  38.4046659  59.7021868
  12.4832941  38.8823164  58.9625531  11.9596374  38.3230162  59.1280161
  17.4155974  43.7633330  64.4157606  16.5853677  43.9743973  64.5791023
  17.3665226  42.9370384  64.1399890  17.2862710  43.6722936  64.3994972
   3.8507529  42.0850242  57.8432030   3.2664744  42.5900273  58.2497894
   3.4477624  41.8592629  57.1028622   3.7046833  42.1258490  57.7937055
   5.4765712  46.5937184  67.2505516   4.9592653  46.2344599  66.6466824
   6.1740103  46.0699358  67.2611582   5.5031293  46.4634872  67.1635774
   9.1329304  47.0431998  73.2121689   9.2212650  46.8558138  74.0599899
   9.5619016  46.3969427  72.8126535   9.2091406  46.9195006  73.2793440
   8.3084744  38.3315894  56.3200950   8.5480747  38.5393878  55.5076293
   8.6300584  37.5273403  56.4289895   8.3921901  38.2429995  56.2161503
   3.6175034  30.2609290  60.1660488   4.3721002  30.6287607  59.9277538
   3.4402568  30.6348844  60.9339668   3.7029512  30.3707478  60.2445377
   2.2595755  48.3161179  64.7975981   2.9616334  47.8013168  64.8548738
   2.1793238  48.6435330  65.6022856   2.3519515  48.2875405  64.9248773
  16.9109932  36.4103730  68.2108027  16.0738354  36.4805917  68.4455622
  16.8798163  36.4128225  67.3382330  16.7828215  36.4213957  68.1167575
   1.9732098  32.6679609  56.8638601   1.7907672  32.8851490  56.0379594
   2.8357711  32.7818622  56.9197216   2.0736688  32.7169507  56.7493088
   1.5846530  44.5067531  64.3061589   2.4235430  44.7390464  64.3535351
   1.6158300  43.6371842  64.2368624   1.7128248  44.4124478  64.3026234
   2.2099233  44.9268406  68.6074895   2.7497458  44.7839537  69.2778267
   1.5269180  45.3265157  68.9758921   2.1891387  44.9648077  68.7609316
   7.6531818  29.6706020  59.8987625   8.3817978  29.4921974  59.4525781
   7.7426711  30.5124099  60.1094803   7.7738480  29.7689898  59.8641143
  11.6340118  40.6059407  63.8019919  12.3897633  41.0390921  63.8408828
  11.7402443  39.9564177  64.3754555  11.7610289  40.5736891  63.8917945
  14.6720289  44.4332684  64.5522322  14.2355521  44.4369427  65.3081293
  14.3383205  45.1138183  64.1201899  14.5582909  44.5345140  64.6003154
  14.5917772  31.4746512  66.7951750  15.2343681  31.5444617  67.3813665
  14.8440793  30.8075735  66.2931292  14.7239904  31.3872861  66.8079029
   1.5194125  35.9453781  55.3761074   0.8052303  35.6591961  55.7883507
   2.0038094  36.2850407  56.0167462   1.4853489  35.9535431  55.5316709
   9.4019756  48.3851119  69.5231928   8.6035002  48.1450619  69.7805796
   9.8505768  48.4365512  70.2698975   9.3494368  48.3573510  69.6716852
  17.8064636  41.1513604  63.4441959  18.4681070  40.5904272  63.3437868
  17.1656048  40.6565635  63.7694650  17.8093503  40.9950013  63.4774299
   8.6941443  44.4483735  55.7522882   9.1092592  44.1168759  55.0607378
   7.8633373  44.2152638  55.6243019   8.6329452  44.3654991  55.6313730
  14.0929466  42.1678986  63.1853948  14.3285056  42.3124185  62.3580799
  14.2419030  42.9321394  63.5785462  14.1495270  42.3018041  63.1217552
  15.9219923  41.0080652  61.0223552  16.2528140  41.5408293  60.4163647
  16.4953011  41.0619540  61.6785503  16.0553602  41.0950221  61.0301333
  11.1351812  38.8545555  61.7047132  11.2298667  39.5934849  62.1586757
  10.5110656  38.4263031  62.1381696  11.0560842  38.9006876  61.8355279
   9.3904286  42.0331768  72.3537413   9.9643148  41.3959012  72.5085977
   9.3119090  42.0335850  71.4847070   9.4637521  41.9396879  72.2483824
  11.3874833  40.6994295  54.9384084  11.3054996  40.7696482  55.8039071
  12.0254554  41.2624039  54.7467824  11.4694671  40.7933266  55.0374033
   4.7468005  40.4655033  64.4058610   4.4887249  39.6326768  64.3789910
   4.8016487  40.6912646  63.5651111   4.7167783  40.3752804  64.2778747
   9.8269055  32.5683483  64.5062703   9.1225382  32.0792669  64.6646622
   9.8754029  32.5805958  63.6351147   9.7299106  32.4973131  64.4002043
   3.7202717  38.0192795  64.8923505   3.1452308  38.1784964  65.5287466
   3.3438393  37.3828204  64.4291955   3.5805529  37.9490608  64.9178063
   7.3876005  36.4916145  69.7515883   6.9990438  36.0670362  69.0968075
   6.7230704  36.7398294  70.2592910   7.2322933  36.4654866  69.7303751
  17.0299275  36.2491149  62.5263713  16.7735839  35.4371091  62.3361596
  17.8728589  36.2568716  62.2993901  17.1165300  36.1303147  62.4648530
  11.2102367  30.1890773  67.2639868  11.5912879  29.5068944  67.6507742
  10.4065651  29.9000375  67.0815532  11.1478829  30.0457822  67.2943923
   8.4914944  40.7214749  57.9492690   9.3055583  41.0129642  57.8375462
   8.4274085  40.0674611  57.3750983   8.6017683  40.6679944  57.8481528
  14.7124434  43.4040745  72.3622266  14.4763071  42.5728810  72.2434327
  15.3567663  43.3526352  72.9477110  14.7719105  43.2738433  72.4308160
   4.3622852  44.1936267  63.0765002   4.9996799  43.9548014  63.6216796
   4.7877924  44.3973426  62.3418163   4.5199018  44.1887277  63.0482160
   5.0025667  39.4138556  57.4139892   5.3870820  39.1946263  58.1656437
   4.7537287  40.2401502  57.5440968   5.0227740  39.5036703  57.5440968
  15.7360854  43.1885194  68.4250560  15.4306672  43.9213251  68.7863876
  15.0167070  42.7823124  68.1443347  15.5848197  43.2366927  68.4363698
   6.7444324  44.6708689  64.7558789   6.8183332  44.5083861  65.6100639
   7.5613830  44.8598879  64.5119270   6.8760683  44.6745432  64.8456814
  21.4362647  39.8278195  67.7518905  21.3687147  39.8474154  66.8821491
  21.4218309  40.6708522  67.9774575  21.4241403  39.9551929  67.6571382
   2.7226104  31.0835493  62.7448672   1.8548530  31.1558093  62.8106282
   3.0101309  31.8857572  62.9336647   2.6365852  31.2129640  62.7823439
  11.8458993  31.2313352  71.0759994  12.5912585  31.0423163  70.6623420
  11.4296298  31.7571590  70.5173850  11.8943967  31.2815498  70.9324567
   5.2848910  47.6343432  59.4872262   5.5747208  47.2432414  58.7631489
   6.0152390  47.8160137  59.9277537   5.4355794  47.6037246  59.4455069
  19.2221264  38.6022581  66.0265499  19.7729186  37.9690650  66.2662591
  19.2065379  39.1337974  66.7181003  19.3006460  38.5871529  66.1644357
   5.8743655  42.4361178  70.5725393   5.3755348  43.1476946  70.6510281
   6.6843879  42.7561845  70.5343555   5.9199762  42.5888027  70.5781961
   3.2254825  49.6110815  62.5532412   3.0055121  49.3208169  63.3459079
   3.0049347  48.9525770  62.0250324   3.1602419  49.4710523  62.5921320
   2.1371772  41.6984131  64.8188113   1.8485021  41.0721602  65.3533841
   3.0055120  41.6404419  64.8852794   2.2232024  41.5971675  64.9079068
  12.9249670  36.8418915  65.1370095  12.5814436  36.1209250  65.4877345
  13.0242713  36.6332766  64.2948454  12.8891713  36.7043118  65.0641775
   5.3922781  50.9840205  61.3363104   6.0446839  50.4516647  61.5654130
   4.6948390  50.6308857  61.7230978   5.3853499  50.8529728  61.4275272
   2.3404046  43.3379382  60.7430478   3.0950014  43.7192421  60.9565941
   1.7474658  43.7890526  61.1977175   2.3640759  43.4608210  60.8413357
  13.3862699  43.3044619  60.6794083  13.9520732  43.9637829  60.5952626
  12.7390603  43.6494317  61.1510486  13.3741456  43.4526560  60.7366840
   3.6602272  44.5087944  66.1170594   3.1383026  44.6488235  66.8022459
   4.0476293  43.7498608  66.3072711   3.6405973  44.4173467  66.2471670
   9.8569277  46.2483403  60.1031163   9.6155953  45.5151264  59.6958228
  10.0370610  46.7970260  59.4497496   9.8476901  46.2205794  59.9461386
   5.0868598  41.5391963  61.5152085   4.8911381  42.1466697  60.9212388
   5.3102944  40.8459907  61.0343759   5.0903239  41.5269488  61.3568166
   3.4847128  38.4246701  61.6332953   4.2069780  38.5887859  61.1736759
   3.0055121  39.1456365  61.5272293   3.5210859  38.5544930  61.5498567
  11.4440636  34.7610499  67.0129638  10.6051736  34.7871778  66.7767901
  11.5145003  35.4081235  67.5934985  11.3309029  34.8606625  67.0638755
   9.8909914  31.6595876  61.7457254  10.5936267  31.4603625  61.2677212
   9.6254103  30.8871819  62.0526098   9.9556546  31.5158842  61.7202696
  15.3198159  39.9678486  64.2990880  15.2332134  40.1233912  65.1525659
  14.8648639  40.6116562  63.9250285  15.2401416  40.0854241  64.3697987
   9.1923976  37.2889233  62.9216439   8.9458690  37.2084984  63.7553228
   9.5209099  36.5042701  62.7278967   9.2045219  37.1615499  63.0163963
  13.0872024  43.9972593  66.7103221  12.9486384  44.6953638  67.2151963
  12.3072022  43.8421249  66.3539402  12.9515251  44.0772759  66.7329495
  11.4250109  40.2968968  72.9625602  11.4198148  39.4248784  72.9668029
  12.1311103  40.4957137  72.4895058  11.5295113  40.1972842  72.8932638
   5.1521003  40.0245952  72.3339423   5.2964379  40.6047160  71.6982533
   5.4996651  40.4022249  73.0389277   5.2248464  40.1666656  72.3438417
   7.3240920  39.2236120  70.1164554   6.5764234  39.4167135  69.7112832
   7.4782445  38.3981340  69.8788675   7.2363348  39.1301232  70.0209960
   4.2248758  48.2148724  69.2000449   4.3738322  47.6551640  68.5473854
   5.0048760  48.2940725  69.5832968   4.3622851  48.1434289  69.1597399
  14.5825397  43.3550846  57.4719720  14.2032206  42.5687984  57.4649009
  13.9191643  43.9037703  57.3291364  14.4283872  43.3195670  57.4500517
   6.7502058  48.3863367  70.4784940   6.6745729  47.7172177  71.0335728
   6.6791918  49.0881155  70.9925606   6.7282665  48.3908274  70.6361788
  12.0370023  26.2976546  64.8753801  12.1553591  26.7553009  64.1421103
  11.8632199  25.4921807  64.5890018  12.0289194  26.2470318  64.7254734
   7.4072305  46.9064365  61.3108546   8.1722196  46.6374009  60.9891210
   7.3050395  46.4214376  62.0278609   7.5053801  46.7953930  61.3688374
   5.4425075  35.1088775  67.8501782   4.6521150  34.9280235  68.1719118
   5.8385698  34.3315727  67.8332076   5.3841951  34.9676236  67.8954330
   9.9290966  43.9376549  53.2908495  10.6963951  43.9976674  52.8814347
   9.4822275  43.3656991  52.8064814   9.9764393  43.8613125  53.1586206
  10.8268761  42.7431205  65.5761228  10.1513763  42.5116437  66.0774615
  10.8361137  42.1352388  64.9503333  10.7287266  42.6190130  65.5577380
   7.9562905  37.5849034  72.3325281   7.8922047  38.4458990  72.2045417
   8.0960093  37.2681027  71.5320832   7.9678375  37.6649201  72.1953494
  12.8285496  45.5996337  57.8071406  12.9105333  46.4063324  57.4832857
  13.3135238  45.6192297  58.5312179  12.9122654  45.7217000  57.8658304
   6.6381999  40.2781173  66.4741484   6.2144248  40.4785672  65.7380502
   6.4626854  39.4310021  66.5865784   6.5492880  40.1829955  66.3815174
   1.9264444  40.7733225  61.9069456   2.0829063  40.7080028  62.7625448
   2.2665037  41.5481777  61.6948136   1.9997679  40.8782423  62.0024050
   8.4643589  40.1491108  60.7762819   9.0059134  39.6461489  61.2401440
   8.7790148  40.0956303  59.9652305   8.5907986  40.0670529  60.7246632
  12.3360696  44.3593756  77.8889732  13.1495562  44.0878905  78.0494864
  12.1755663  44.0601296  77.0849928  12.4330645  44.2748682  77.7935138
   6.6330039  45.5408460  58.0602847   6.7022859  44.6822998  58.1995848
   7.4118494  45.7580341  57.7321872   6.7582889  45.4461324  58.0320005
   9.6132858  35.0427413  70.8285120   9.8274828  34.4038327  70.2748474
   8.9966757  35.4873237  70.3992982   9.5538187  35.0137557  70.6835551
  11.0237526  47.9646161  62.2739341  10.6317318  47.6612876  61.5562207
  11.1790598  48.8015251  62.0844295  10.9891116  48.0429998  62.1395838
  11.7771946  36.6516478  71.7668427  10.9648628  36.3442368  71.8481600
  12.2361881  36.1715478  72.3311139  11.7252331  36.5352970  71.8623021
  11.1877201  44.5296150  62.2145371  10.8291856  44.7010793  62.9909404
  10.7015912  44.9909356  61.6573370  11.0635898  44.6235121  62.2470640
   9.0047587  28.1527348  65.8172463   8.1341145  28.1266070  65.7705772
   9.2587928  27.9804541  64.9998308   8.9141147  28.1237492  65.6892599
   5.9765566  40.2095315  54.7545606   6.2658091  40.9860198  55.0289180
   6.0637365  39.6984047  55.4560105   6.0319823  40.2487234  54.8988104
   6.0296727  30.1633577  67.2745933   5.5135216  29.4713768  67.3997512
   5.4690656  30.8304354  67.2208532   5.8703241  30.1596835  67.2851999
  12.3481940  45.4200046  73.1612572  12.9861661  44.9260242  72.8275028
  11.7056032  45.3477446  72.5764799  12.3476167  45.3359054  73.0254927
  14.0738940  37.2689192  67.7278488  13.6466548  37.1815540  66.9726587
  13.4364993  37.3766967  68.3133332  13.9168548  37.2721852  67.7023929
  12.4036197  46.1119854  69.8017929  13.1928575  45.7608919  69.9220011
  12.5779795  46.9256243  69.5394563  12.5456478  46.1805711  69.7805797
   2.1429507  39.5228580  66.8545718   1.3017514  39.4232454  67.0624612
   2.3519515  40.2924060  67.2060038   2.0494200  39.6220623  66.9373033
  11.2570021  30.1229411  64.3634347  11.4619614  30.0551719  65.2091345
  10.9296445  30.9288232  64.2955525  11.2385269  30.2315351  64.4794003
   5.9546172  37.4509979  66.1043315   5.6509310  36.8965967  66.7053723
   5.2525593  37.6302189  65.6171350   5.8062382  37.3954761  66.1213021
   5.0112269  34.7610499  60.6688017   5.2872004  34.0429411  60.2565585
   5.6110939  35.3595419  60.4609123   5.1405534  34.7430870  60.5768778
  14.5103709  30.6761175  63.8437113  13.8978022  31.1631577  64.2290845
  14.6067884  30.0004666  64.3874764  14.4341606  30.6479484  63.9815971
   8.5122790  32.4324016  58.9434612   8.9666536  32.6034577  59.6682457
   8.9862835  31.8192127  58.5432388   8.6491110  32.3674902  58.9908374
   2.0338315  41.9172342  68.2737351   1.4426248  42.5581840  68.2440366
   2.7959339  42.3409960  68.2468650   2.0586576  42.0748181  68.2652498
  18.1528737  41.7478112  69.2714629  18.2111860  42.1964761  70.0174605
  17.5195204  42.1576925  68.8344709  18.0680032  41.8751847  69.3167177
  11.7927831  47.3681654  65.7069375  11.5947520  47.8572468  65.0125586
  11.1715542  47.5722895  66.2853509  11.6715396  47.4698192  65.6892598
   5.8535810  39.1366551  60.0479619   6.5977855  39.5240827  60.2862569
   5.9996506  38.2923976  60.2120107   5.9846395  39.0697023  60.1073589
   7.7715385  30.9316810  65.0811481   6.9251430  31.1039617  64.9552831
   7.7686518  30.1266153  65.4177309   7.6462535  30.8377839  65.1122608
   8.8413686  34.7092024  65.9473539   8.3673640  34.1833786  66.4578850
   9.2131821  34.1621497  65.3788400   8.8263575  34.5508021  65.9388686
  15.1050416  39.7694400  67.3580319  14.8648639  38.9300815  67.3622746
  15.5842423  39.8494566  68.0821093  15.1402600  39.6575799  67.4655122
  10.7697185  35.6028579  59.0099293  10.2420204  35.6857323  58.3205001
  11.2292893  36.3446450  59.0063937  10.7599036  35.7249241  58.9073988
  17.1055603  36.5495857  65.3109578  16.8665373  36.5091691  64.4730363
  17.2689504  37.3967009  65.4375299  17.0945907  36.6687942  65.2063060
  13.7101633  40.9345806  71.2414624  14.4335832  40.4818333  71.0625643
  13.4451596  41.2150472  70.4586951  13.7782907  40.9096775  71.0993339
   2.5788502  35.5305980  67.9767503   1.9541572  35.5424372  67.3693455
   2.2434097  36.0066155  68.6258743   2.4373994  35.6024497  67.9824071
   2.7630250  33.8731098  54.0340188   2.4143055  34.5250823  54.4971737
   2.2826696  33.8588211  53.3064059   2.6400494  33.9674152  53.9951279
  10.3234268  44.1732142  58.1408950  11.0468467  44.6390255  57.9973523
   9.8834859  44.2405752  57.3906547  10.3649960  44.2515979  58.0093731
   9.4920423  41.0329684  69.3909639   8.8777416  40.4887735  69.6858274
  10.0087708  40.5193921  68.9115455   9.4776085  40.8766093  69.3633867
   8.7316720  42.1033954  67.1253937   8.3044328  41.4783673  66.6919373
   8.7241664  41.8208876  67.9512944   8.6675861  41.9686735  67.1833765
   7.0602430  32.9802709  67.3396471   7.0844917  32.4462821  66.6509251
   7.3113903  32.4720018  68.0022062   7.1012348  32.8263613  67.3361116
   3.3403752  31.7073527  66.7202216   3.3802123  32.2082734  67.4336923
   2.5153417  31.7983921  66.4508139   3.2243278  31.7955344  66.7852754
   4.7618115  38.2234037  69.0176115   3.9310045  38.3907855  68.8111363
   4.7069632  37.8469988  69.8025000   4.6307530  38.1923768  69.1024643
   3.1354159  36.4989629  59.5466232   3.2757120  36.9962093  60.2494874
   3.6336692  35.7975923  59.6880446   3.2295240  36.4691607  59.6717811
   3.1654381  37.3656740  56.8758809   3.7999461  37.9617165  56.8108271
   3.2479992  37.0660197  57.6904679   3.2710932  37.4097648  56.9861896
  16.1436947  39.8972217  69.7445173  16.7354788  40.5369468  69.7763371
  16.5795942  39.1995254  70.0337240  16.2955378  39.8890567  69.7926006
   4.7433364  33.2970715  56.8504251   5.0649205  32.8173798  56.1963513
   5.0060308  34.1070361  56.6595063   4.8299390  33.3460613  56.7259743
   7.9730337  44.3189589  70.3703067   7.4655428  44.8725436  70.8143698
   7.6756983  44.3797879  69.5521842   7.8535222  44.4095901  70.3151524
  10.1392519  32.6842909  69.2127730  10.5647591  32.2315435  68.6011257
   9.5249512  32.1302980  69.4892518  10.1121165  32.5356885  69.1632755
  10.5838117  48.2352847  58.3007011   9.8667427  48.0613709  57.8354248
  11.2344855  48.0005419  57.7682497  10.5739968  48.1748640  58.1536229
   8.5786742  29.1558009  62.6218307   7.9355060  29.0055655  63.1903446
   8.2386149  28.9100354  61.8567412   8.4331819  29.0970131  62.5921322
  13.1686089  37.1117436  62.0448316  12.4977279  37.6547138  61.9161381
  13.8625839  37.5812291  61.8030011  13.1714956  37.2615707  61.9903844
   7.2172822  49.2514148  67.2760074   6.9938477  48.4932977  67.6444100
   6.7282666  49.2812169  66.5540514   7.1116271  49.1436372  67.2236815
  13.3314216  33.5673319  64.9538689  13.6841826  33.1403042  65.6284488
  12.4729018  33.4824163  65.0839765  13.2563661  33.4918060  65.0733699
   2.0297901  36.1980839  63.0121536   1.3109890  36.6144971  63.2794399
   2.4010263  36.7635078  62.4613174   1.9789833  36.3430120  62.9704343
  11.3297482  36.8308688  68.9023531  11.3095409  36.6491983  69.7558310
  11.3776683  37.7020706  68.8783115  11.3332123  36.9325226  69.0246826
   9.2743812  43.4195880  74.8272008   9.2339667  42.7745557  74.2417164
  10.0867130  43.3632497  75.1397420   9.3886965  43.3154847  74.7868957
   5.8651279  49.4714606  64.7297159   5.4511678  48.8088736  64.3401000
   6.5498654  49.6192464  64.2092853   5.9049651  49.3955264  64.5953656
   9.2316573  48.6304691  65.4820775   8.8332857  48.7406961  64.7141596
   8.6167793  48.8386757  66.0647335   9.0815463  48.6778259  65.4552075
   7.8044475  35.2378839  58.3494915   7.2109315  35.5595835  57.7979482
   7.8419753  34.3919934  58.1416021   7.7218865  35.1603167  58.2377686
  14.7638276  28.6891731  65.8823001  14.2569141  27.9820871  65.8144179
  15.5605710  28.3584920  66.0124078  14.8065515  28.5364882  65.8921996
  10.6802292  35.1958343  61.7796665  10.4515985  35.2191045  60.9375023
  10.9400368  34.3715810  61.8991676  10.6848480  35.0774423  61.6721863
   3.7347055  33.7334890  63.0750861   4.2104421  34.0951969  62.4401042
   3.2335654  34.3891357  63.3551004   3.7312414  33.8829078  63.0227602
  16.9658416  43.2056658  58.8663866  17.3492022  43.9548014  59.0961963
  16.1702529  43.4522477  58.6075855  16.9052198  43.3526352  58.8621439
   5.7773708  35.8776089  56.4424245   6.1572673  35.8955719  55.6575360
   5.0366304  36.3230078  56.3215092   5.7242545  35.9457864  56.3087813
  13.4058998  34.1858281  62.0299824  13.4053225  34.0306937  62.8884100
  13.2015178  35.0321268  61.9741209  13.3758776  34.2878901  62.1487763
  11.1299850  38.8655782  65.6836030  11.6253516  38.1478777  65.6440051
  10.3199626  38.5626580  65.5690517  11.0843744  38.7153429  65.6609756
   6.5758462  42.7153596  57.8333035   5.7669785  42.3920269  57.7866344
   7.0833371  42.0086818  57.7661284   6.5308129  42.5634912  57.8163329
  13.1951669  41.6159470  68.3713159  13.6206741  41.0933892  67.8183584
  12.8308589  42.2140307  67.8501782  13.2038272  41.6269697  68.2122169
   2.8305749  49.9123687  67.1310505   3.1452308  50.7260076  67.1388286
   3.2399162  49.5273906  67.7992664   2.9373847  49.9752390  67.2314596
   9.7830269  45.3293734  64.7014317  10.2541447  46.0433997  64.8704302
  10.1190447  44.7292484  65.2374186   9.9025384  45.3465198  64.8046693
  10.4204215  45.1211668  71.4642009   9.8725161  44.4969552  71.1962075
  10.8817244  45.3105940  70.7486089  10.4071424  45.0570718  71.3192440
  13.2298079  33.1897023  68.8493202  12.6461068  33.6906229  68.4370769
  13.5502373  32.6826579  68.2157525  13.1911255  33.1888858  68.6951709
   5.7692878  32.1037618  59.1251876   6.5908573  32.2735930  58.8833571
   5.3062529  32.2584879  58.4018174   5.8224041  32.1519351  58.9823521
   9.9862541  46.1262741  67.9951350  10.8060915  45.9825707  68.2567646
   9.7056619  46.7508940  68.5367788  10.0659285  46.1973093  68.1139290
  26.4576192  53.7827593  60.9594227  26.4270196  54.6372229  61.1312496
  27.0557540  53.4822885  61.5180370  26.5413349  53.8644089  61.0669029
  19.6575876  52.8703244  65.7147157  18.8013772  53.0311742  65.7656274
  19.7043530  51.9995308  65.7352218  19.5374988  52.7654046  65.7253223
  14.0417016  62.4065962  61.4784389  13.2899916  62.0281500  61.2500434
  14.4903028  62.4384395  60.7303199  13.9966683  62.3551569  61.3341891
  22.9669593  59.1389769  75.3207613  23.6736360  58.6441800  75.4494548
  23.1557528  59.5798851  74.5910271  23.0997499  59.1308120  75.2316659
  19.4941976  62.8291331  56.9069936  19.1593344  63.5068253  56.4714158
  20.0068846  62.4396642  56.3186808  19.5207557  62.8715909  56.7556727
  19.0346267  64.7805600  62.8481047  19.4185647  65.3492498  62.3085823
  18.9705409  64.0555110  62.3686864  19.0819695  64.7581063  62.6974910
  22.5027697  54.9295288  68.3578809  23.0483657  55.6080374  68.4172779
  22.4444574  54.7882749  67.4980390  22.5743612  55.0087289  68.2390869
  15.6201772  62.4184354  63.7447161  15.7212135  61.6084708  64.0544289
  15.0243518  62.3241300  63.1146840  15.5474311  62.2849382  63.6973400
  24.2792766  56.3579895  59.2312537  24.1632292  57.1087581  59.6604675
  25.0748653  56.1003848  59.4808624  24.3797356  56.4314742  59.3316628
  15.4602512  67.3361943  65.1462017  16.1039967  67.7775107  65.5358176
  15.7858767  66.5315369  65.0592276  15.6034341  67.2827138  65.1907495
   8.8166817  58.4404640  63.3699495   8.5817001  57.6072293  63.2631764
   8.9552457  58.7209306  62.5560696   8.8022479  58.3588144  63.2341850
  11.1156904  50.6090371  66.2683803  10.4961936  50.0183018  66.0993817
  11.0140768  51.2001806  65.6348126  11.0094580  50.6094453  66.1488792
  16.1623092  60.3473918  60.5181879  16.4838933  60.8879125  59.9143187
  16.8095188  59.7770689  60.6504169  16.3049147  60.3433093  60.4488914
  18.2124800  52.3489913  60.6016266  18.9104964  52.5278040  61.0937729
  18.5277132  51.8260252  59.9786655  18.3620137  52.2983685  60.5818276
  10.8426037  54.1542653  68.5127372  10.7184734  54.7405098  69.1477191
  11.4944322  53.6602848  68.8139647  10.9199686  54.1681457  68.6513301
  18.4012735  58.7360358  60.5896057  18.8406371  58.1277458  61.0350830
  18.2517398  58.3567731  59.8181522  18.4434201  58.5898829  60.5415225
  15.8684378  57.3304370  67.7914883  16.5133381  56.8376813  67.4725831
  16.1086155  57.4729156  68.6180961  15.9994963  57.2781812  67.8664416
  18.4070469  60.1759275  67.4421775  18.6893712  59.3810681  67.2208531
  19.1356630  60.6539863  67.4626836  18.5560033  60.1293872  67.4124790
  16.3851663  47.7182309  64.6837540  16.0554993  48.1693453  64.0141239
  15.7096665  47.6398473  65.2310547  16.2362100  47.7733445  64.6660764
  22.0022072  57.0887539  57.5426827  21.9173367  57.9448506  57.6876395
  22.4906455  56.8131863  58.2108986  22.0610969  57.1744860  57.6628908
  23.5928071  43.7067832  62.9287151  23.2781512  44.3971311  63.3607573
  23.0755013  43.6512615  62.2272652  23.4692541  43.8002721  62.8884100
  22.9340505  53.7072333  59.0424562  22.4051976  53.9231967  59.7021868
  23.4565525  54.4008472  58.9625531  22.9328958  53.8415470  59.1280161
  28.3888558  59.2818638  64.4157606  27.5586261  59.4929281  64.5791023
  28.3397810  58.4555692  64.1399890  28.2595293  59.1908244  64.3994972
  14.8240113  57.6035550  57.8432030  14.2397328  58.1085581  58.2497894
  14.4210208  57.3777937  57.1028622  14.6779416  57.6443798  57.7937055
  10.3784141  63.3190311  64.6455701   9.8951720  64.0440801  64.6215285
  11.1907460  63.6166441  64.7565859  10.4274889  63.4692665  64.6582980
  16.4498295  62.1122492  67.2505516  15.9325237  61.7529907  66.6466824
  17.1472687  61.5884666  67.2611582  16.4763876  61.9820180  67.1635774
  20.1061887  62.5617306  73.2121689  20.1945233  62.3743446  74.0599899
  20.5351600  61.9154735  72.8126535  20.1823990  62.4380314  73.2793440
  19.2817327  53.8501202  56.3200950  19.5213331  54.0579186  55.5076293
  19.6033168  53.0458711  56.4289895  19.3654485  53.7615303  56.2161503
  14.5907617  45.7794598  60.1660488  15.3453585  46.1472915  59.9277538
  14.4135152  46.1534152  60.9339668  14.6762096  45.8892786  60.2445377
  13.2328339  63.8346487  64.7975981  13.9348918  63.3198476  64.8548738
  13.1525822  64.1620638  65.6022856  13.3252099  63.8060713  64.9248773
  27.8842516  51.9289038  68.2108027  27.0470937  51.9991225  68.4455622
  27.8530747  51.9313533  67.3382330  27.7560798  51.9399265  68.1167575
  14.2807245  54.0722074  73.9256396  14.4527749  53.9627969  74.7741678
  14.8176603  54.7176479  73.6887588  14.3852249  54.1514076  74.0161493
  12.9464682  48.1864917  56.8638601  12.7640255  48.4036798  56.0379594
  13.8090295  48.3003929  56.9197216  13.0469271  48.2354815  56.7493088
  12.5579114  60.0252839  64.3061589  13.3968013  60.2575772  64.3535351
  12.5890883  59.1557150  64.2368624  12.6860832  59.9309785  64.3026234
  13.1831817  60.4453714  68.6074895  13.7230042  60.3024845  69.2778267
  12.5001763  60.8450465  68.9758921  13.1623971  60.4833385  68.7609316
  18.6264401  45.1891327  59.8987625  19.3550562  45.0107282  59.4525781
  18.7159294  46.0309407  60.1094803  18.7471063  45.2875206  59.8641143
  22.6072702  56.1244715  63.8019919  23.3630217  56.5576229  63.8408828
  22.7135026  55.4749485  64.3754555  22.7342872  56.0922199  63.8917945
  25.6452873  59.9517992  64.5522322  25.2088105  59.9554734  65.3081293
  25.3115788  60.6323491  64.1201899  25.5315493  60.0530448  64.6003154
  25.5650356  46.9931820  66.7951750  26.2076264  47.0629924  67.3813665
  25.8173377  46.3261043  66.2931292  25.6972488  46.9058169  66.8079029
  12.4926709  51.4639089  55.3761074  11.7784886  51.1777269  55.7883507
  12.9770678  51.8035715  56.0167462  12.4586072  51.4720739  55.5316709
  13.3367568  50.2032383  71.4076324  12.6439365  49.7329363  71.6537055
  13.9527896  49.9770688  71.9818031  13.3252098  50.0999515  71.5285476
  20.3752340  63.9036427  69.5231928  19.5767586  63.6635927  69.7805796
  20.8238351  63.9550820  70.2698975  20.3226951  63.8758818  69.6716852
  28.7797219  56.6698912  63.4441959  29.4413653  56.1089580  63.3437868
  28.1388631  56.1750943  63.7694650  28.7826087  56.5135321  63.4774299
  19.6674027  59.9669043  55.7522882  20.0825175  59.6354067  55.0607378
  18.8365957  59.7337946  55.6243019  19.6062036  59.8840299  55.6313730
   8.9962376  57.4512784  66.0421060   8.8137949  57.4259670  65.1893353
   9.7312045  57.9211722  66.0809969   9.0776440  57.5174147  65.9218979
  25.0662050  57.6864294  63.1853948  25.3017639  57.8309493  62.3580799
  25.2151614  58.4506702  63.5785462  25.1227853  57.8203349  63.1217552
  12.0608127  54.1697787  72.5503169  12.7848100  54.1550818  73.0368064
  12.1624264  54.8793142  72.0525137  12.1826336  54.2722490  72.5481956
  26.8952507  56.5265960  61.0223552  27.2260724  57.0593600  60.4163647
  27.4685595  56.5804848  61.6785503  27.0286186  56.6135529  61.0301333
  22.1084396  54.3730863  61.7047132  22.2031250  55.1120157  62.1586757
  21.4843239  53.9448338  62.1381696  22.0293426  54.4192184  61.8355279
  20.3636870  57.5517076  72.3537413  20.9375731  56.9144320  72.5085977
  20.2851673  57.5521158  71.4847070  20.4370104  57.4582187  72.2483824
   8.9633286  54.3306285  66.1920127   9.5406789  54.1942736  66.8312372
   8.2647348  53.8742069  66.4465711   8.9454307  54.2428551  66.3242417
  22.3607417  56.2179603  54.9384084  22.2787580  56.2881790  55.8039071
  22.9987138  56.7809347  54.7467824  22.4427254  56.3118574  55.0374033
  15.7200588  55.9840341  64.4058610  15.4619833  55.1512076  64.3789910
  15.7749071  56.2097954  63.5651111  15.6900366  55.8938112  64.2778747
  20.8001638  48.0868791  64.5062703  20.0957965  47.5977977  64.6646622
  20.8486613  48.0991266  63.6351147  20.7031690  48.0158439  64.4002043
  14.6935300  53.5378103  64.8923505  14.1184892  53.6970272  65.5287466
  14.3170977  52.9013512  64.4291955  14.5538113  53.4675916  64.9178063
  18.3608589  52.0101452  69.7515883  17.9723022  51.5855670  69.0968075
  17.6963287  52.2583602  70.2592910  18.2055517  51.9840174  69.7303751
  28.0031858  51.7676457  62.5263713  27.7468423  50.9556399  62.3361596
  28.8461172  51.7754024  62.2993901  28.0897884  51.6488455  62.4648530
   4.4392119  53.1818178  62.9067946   4.5252371  52.8050046  63.6881475
   5.0667917  52.8078624  62.4287904   4.5448670  53.0703660  62.9513423
  22.1834951  45.7076081  67.2639868  22.5645462  45.0254252  67.6507742
  21.3798235  45.4185683  67.0815532  22.1211412  45.5643130  67.2943923
  19.4647527  56.2400057  57.9492690  20.2788166  56.5314950  57.8375462
  19.4006669  55.5859919  57.3750983  19.5750266  56.1865252  57.8481528
  25.6857017  58.9226053  72.3622266  25.4495655  58.0914118  72.2434327
  26.3300246  58.8711660  72.9477110  25.7451688  58.7923741  72.4308160
  15.3355436  59.7121575  63.0765002  15.9729382  59.4733322  63.6216796
  15.7610507  59.9158733  62.3418163  15.4931602  59.7072585  63.0482160
  15.9758251  54.9323864  57.4139892  16.3603403  54.7131571  58.1656437
  15.7269871  55.7586810  57.5440968  15.9960323  55.0222011  57.5440968
  16.1426791  48.2130279  77.1302476  15.8280232  48.9829842  76.8672039
  15.8216724  47.6500536  76.5454703  16.0485710  48.2440548  77.0043826
  26.7093438  58.7070502  68.4250560  26.4039255  59.4398559  68.7863876
  25.9899654  58.3008431  68.1443347  26.5580780  58.7552235  68.4363698
  17.7176907  60.1893997  64.7558789  17.7915916  60.0269169  65.6100639
  18.5346414  60.3784187  64.5119270  17.8493266  60.1930740  64.8456814
  32.4095230  55.3463503  67.7518905  32.3419730  55.3659462  66.8821491
  32.3950893  56.1893830  67.9774575  32.3973987  55.4737237  67.6571382
  11.4782664  60.5351860  61.7853232  10.6520782  60.7813597  61.6587511
  11.5394655  60.4563941  62.6515290  11.3656831  60.5596809  61.8942177
  13.6958688  46.6020801  62.7448672  12.8281113  46.6743400  62.8106282
  13.9833892  47.4042880  62.9336647  13.6098436  46.7314948  62.7823439
  22.8191577  46.7498660  71.0759994  23.5645169  46.5608471  70.6623420
  22.4028881  47.2756898  70.5173850  22.8676551  46.8000806  70.9324567
  16.2581493  63.1528740  59.4872262  16.5479792  62.7617722  58.7631489
  16.9884974  63.3345445  59.9277537  16.4088377  63.1222554  59.4455069
  30.1953848  54.1207889  66.0265499  30.7461769  53.4875958  66.2662591
  30.1797963  54.6523282  66.7181003  30.2739044  54.1056837  66.1644357
  16.8476238  57.9546486  70.5725393  16.3487932  58.6662254  70.6510281
  17.6576463  58.2747153  70.5343555  16.8932345  58.1073335  70.5781961
  14.1987409  65.1296123  62.5532412  13.9787704  64.8393477  63.3459079
  13.9781931  64.4711078  62.0250324  14.1335003  64.9895831  62.5921320
  13.1104356  57.2169439  64.8188113  12.8217605  56.5906910  65.3533841
  13.9787704  57.1589727  64.8852794  13.1964608  57.1156983  64.9079068
  23.8982254  52.3604223  65.1370095  23.5547020  51.6394558  65.4877345
  23.9975296  52.1518074  64.2948454  23.8624297  52.2228426  65.0641775
  16.3655365  66.5025513  61.3363104  17.0179423  65.9701955  61.5654130
  15.6680973  66.1494165  61.7230978  16.3586082  66.3715036  61.4275272
  13.3136629  58.8564690  60.7430478  14.0682597  59.2377729  60.9565941
  12.7207242  59.3075834  61.1977175  13.3373343  58.9793518  60.8413357
  24.3595283  58.8229927  60.6794083  24.9253315  59.4823136  60.5952626
  23.7123186  59.1679625  61.1510486  24.3474039  58.9711868  60.7366840
  15.7743296  50.8127531  75.8687691  14.9643072  51.1185310  75.7577533
  16.2517983  51.5333113  75.9840275  15.7246775  50.9642132  75.8694762
  14.6334856  60.0273252  66.1170594  14.1115609  60.1673543  66.8022459
  15.0208876  59.2683916  66.3072711  14.6138557  59.9358775  66.2471670
  11.6226040  50.0779060  60.1865549  11.3350836  49.7080331  59.4497496
  12.3096508  50.5473916  59.9249253  11.6814937  50.0926030  60.0380624
  20.8301861  61.7668711  60.1031163  20.5888537  61.0336571  59.6958228
  21.0103194  62.3155568  59.4497496  20.8209485  61.7391102  59.9461386
  16.0601182  57.0577271  61.5152085  15.8643964  57.6652005  60.9212388
  16.2835527  56.3645215  61.0343759  16.0635823  57.0454796  61.3568166
  14.4579712  53.9432008  61.6332953  15.1802363  54.1073167  61.1736759
  13.9787704  54.6641673  61.5272293  14.4943442  54.0730238  61.5498567
  22.4173219  50.2795807  67.0129638  21.5784320  50.3057086  66.7767901
  22.4877586  50.9266543  67.5934985  22.3041613  50.3791933  67.0638755
  20.8642497  47.1781184  61.7457254  21.5668850  46.9788933  61.2677212
  20.5986686  46.4057127  62.0526098  20.9289130  47.0344150  61.7202696
  26.2930743  55.4863794  64.2990880  26.2064718  55.6419220  65.1525659
  25.8381223  56.1301870  63.9250285  26.2134000  55.6039549  64.3697987
   9.1954235  50.8560273  61.0350830   9.2970371  51.6586434  61.3631805
   9.9910121  50.6547609  60.7373910   9.3282140  50.9446172  61.0386185
  15.6271054  48.4416469  70.7988135  15.4354251  48.4571604  71.6487558
  16.4769650  48.6380144  70.7754790  15.7246776  48.4730821  70.9211429
  10.0117967  50.9707451  68.7771951   9.8703459  50.1191392  68.9016459
  10.2958530  51.0136112  67.9534157  10.0325813  50.8507201  68.6739575
  20.1656559  52.8074541  62.9216439  19.9191273  52.7270292  63.7553228
  20.4941682  52.0228009  62.7278967  20.1777803  52.6800806  63.0163963
  24.0604608  59.5157900  66.7103221  23.9218967  60.2138946  67.2151963
  23.2804606  59.3606557  66.3539402  23.9247835  59.5958067  66.7329495
  22.3982693  55.8154276  72.9625602  22.3930732  54.9434092  72.9668029
  23.1043687  56.0142445  72.4895058  22.5027697  55.7158150  72.8932638
  16.1253586  55.5431260  72.3339423  16.2696962  56.1232468  71.6982533
  16.4729235  55.9207556  73.0389277  16.1981048  55.6851964  72.3438417
  18.2973504  54.7421428  70.1164554  17.5496818  54.9352442  69.7112832
  18.4515029  53.9166648  69.8788675  18.2095931  54.6486540  70.0209960
  15.1981341  63.7334032  69.2000449  15.3470905  63.1736947  68.5473854
  15.9781343  63.8126033  69.5832968  15.3355435  63.6619597  69.1597399
  25.5557981  58.8736154  57.4719720  25.1764789  58.0873292  57.4649009
  24.8924226  59.4223011  57.3291364  25.4016456  58.8380978  57.4500517
  17.7234642  63.9048674  70.4784940  17.6478313  63.2357485  71.0335728
  17.6524501  64.6066463  70.9925606  17.7015249  63.9093582  70.6361788
  18.5375281  48.6371979  71.0059958  18.9947895  49.3695953  71.1332750
  18.6131610  48.2138444  71.7647214  18.6166251  48.6829217  71.1361034
  10.7808272  48.8837799  72.0949402  10.2450461  48.2718157  72.4110169
  10.8426037  49.4585935  72.7483068  10.7103905  48.8784726  72.2384828
  23.0102607  41.8161854  64.8753801  23.1286175  42.2738317  64.1421103
  22.8364782  41.0107115  64.5890018  23.0021778  41.7655626  64.7254734
  18.3804889  62.4249673  61.3108546  19.1454780  62.1559317  60.9891210
  18.2782979  61.9399684  62.0278609  18.4786384  62.3139238  61.3688374
  16.4157659  50.6274083  67.8501782  15.6253733  50.4465543  68.1719118
  16.8118281  49.8501035  67.8332076  16.3574535  50.4861544  67.8954330
  20.9023549  59.4561857  53.2908495  21.6696535  59.5161982  52.8814347
  20.4554858  58.8842299  52.8064814  20.9496977  59.3798433  53.1586206
  21.8001345  58.2616513  65.5761228  21.1246347  58.0301745  66.0774615
  21.8093721  57.6537696  64.9503333  21.7019849  58.1375438  65.5577380
  18.9295489  53.1034342  72.3325281  18.8654630  53.9644298  72.2045417
  19.0692677  52.7866335  71.5320832  18.9410959  53.1834509  72.1953494
  23.8018080  61.1181645  57.8071406  23.8837917  61.9248631  57.4832857
  24.2867822  61.1377605  58.5312179  23.8855237  61.2402308  57.8658304
  17.6114583  55.7966481  66.4741484  17.1876832  55.9970980  65.7380502
  17.4359438  54.9495329  66.5865784  17.5225463  55.7015263  66.3815174
  12.8997028  56.2918533  61.9069456  13.0561647  56.2265335  62.7625448
  13.2397621  57.0667085  61.6948136  12.9730263  56.3967731  62.0024050
  19.4376172  55.6676416  60.7762819  19.9791718  55.1646797  61.2401440
  19.7522731  55.6141611  59.9652305  19.5640569  55.5855837  60.7246632
  23.3093280  59.8779064  77.8889732  24.1228145  59.6064212  78.0494864
  23.1488246  59.5786604  77.0849928  23.4063228  59.7933990  77.7935138
  17.6062622  61.0593768  58.0602847  17.6755442  60.2008306  58.1995848
  18.3851077  61.2765649  57.7321872  17.7315472  60.9646632  58.0320005
  20.5865442  50.5612721  70.8285120  20.8007411  49.9223635  70.2748474
  19.9699341  51.0058545  70.3992982  20.5270771  50.5322864  70.6835551
  21.9970110  63.4831469  62.2739341  21.6049901  63.1798184  61.5562207
  22.1523182  64.3200559  62.0844295  21.9623700  63.5615306  62.1395838
   9.4731289  53.4753483  62.2230223   9.8530254  53.8938028  61.5590491
   8.8986654  54.0566939  62.5299067   9.4442614  53.6231342  62.1706964
  22.7504530  52.1701786  71.7668427  21.9381211  51.8627676  71.8481600
  23.2094464  51.6900786  72.3311139  22.6984915  52.0538278  71.8623021
  22.1609784  60.0481458  62.2145371  21.8024439  60.2196101  62.9909404
  21.6748495  60.5094664  61.6573370  22.0368481  60.1420429  62.2470640
  19.9780170  43.6712656  65.8172463  19.1073728  43.6451378  65.7705772
  20.2320512  43.4989849  64.9998308  19.8873731  43.6422800  65.6892599
  16.9498150  55.7280623  54.7545606  17.2390675  56.5045506  55.0289180
  17.0369949  55.2169355  55.4560105  17.0052406  55.7672542  54.8988104
  19.8458037  53.5761857  76.5497129  20.3157668  54.2003974  76.9365003
  19.8919917  52.9078833  77.1090344  19.9225913  53.5696538  76.6897201
  17.0029311  45.6818885  67.2745933  16.4867800  44.9899076  67.3997512
  16.4423240  46.3489662  67.2208532  16.8435824  45.6782142  67.2851999
  19.0721544  46.2211845  69.1038786  18.6853298  46.2460876  69.8852316
  18.5854482  45.6553524  68.6513302  18.9434053  46.1407596  69.1526689
  23.3214524  60.9385354  73.1612572  23.9594244  60.4445550  72.8275028
  22.6788615  60.8662754  72.5764799  23.3208750  60.8544362  73.0254927
  25.0471524  52.7874500  67.7278488  24.6199132  52.7000848  66.9726587
  24.4097577  52.8952275  68.3133332  24.8901131  52.7907160  67.7023929
  18.7378686  43.1078830  71.3949046  19.3671804  43.6439130  71.1170116
  18.9064549  43.0156189  72.2462611  18.8556481  43.1740193  71.4797574
  18.5392601  47.8950025  73.6675457  19.3666030  47.6235174  73.7234072
  18.5600447  48.6910867  74.0239275  18.6645451  47.9729779  73.7290640
  23.3768780  61.6305162  69.8017929  24.1661159  61.2794227  69.9220011
  23.5512378  62.4441551  69.5394563  23.5189062  61.6991019  69.7805797
  13.1162091  55.0413888  66.8545718  12.2750097  54.9417762  67.0624612
  13.3252099  55.8109368  67.2060038  13.0226783  55.1405931  66.9373033
  10.5937658  52.6633425  64.6830468  10.1994356  52.7376437  63.9080578
  10.0377775  53.0491371  65.2338830  10.4540470  52.7315199  64.6498128
  22.2302605  45.6414719  64.3634347  22.4352198  45.5737027  65.2091345
  21.9029029  46.4473540  64.2955525  22.2117852  45.7500659  64.4794003
  16.9278756  52.9695287  66.1043315  16.6241893  52.4151275  66.7053723
  16.2258176  53.1487497  65.6171350  16.7794965  52.9140069  66.1213021
  15.9844853  50.2795807  60.6688017  16.2604587  49.5614719  60.2565585
  16.5843522  50.8780727  60.4609123  16.1138117  50.2616178  60.5768778
  25.4836292  46.1946483  63.8437113  24.8710606  46.6816885  64.2290845
  25.5800467  45.5189974  64.3874764  25.4074190  46.1664792  63.9815971
  19.4855373  47.9509324  58.9434612  19.9399120  48.1219885  59.6682457
  19.9595419  47.3377435  58.5432388  19.6223693  47.8860209  58.9908374
  13.0070899  57.4357650  68.2737351  12.4158832  58.0767148  68.2440366
  13.7691922  57.8595267  68.2468650  13.0319159  57.5933489  68.2652498
  13.4031521  48.5959648  68.9405368  13.8633003  48.6698577  69.6780492
  13.4487628  49.3940902  68.5905190  13.4782077  48.7253795  68.9978125
  15.0514871  49.2626343  73.5077395  14.6600436  48.6159690  73.9433173
  15.2200734  49.8537778  74.1271651  15.0185782  49.2540611  73.6640101
  29.1261320  57.2663420  69.2714629  29.1844444  57.7150069  70.0174605
  28.4927788  57.6762233  68.8344709  29.0412615  57.3937155  69.3167177
  22.7660415  62.8866962  65.7069375  22.5680104  63.3757776  65.0125586
  22.1448126  63.0908203  66.2853509  22.6447979  62.9883500  65.6892598
  16.8268393  54.6551859  60.0479619  17.5710438  55.0426135  60.2862569
  16.9729089  53.8109284  60.2120107  16.9578978  54.5882331  60.1073589
  18.7447969  46.4502117  65.0811481  17.8984014  46.6224925  64.9552831
  18.7419101  45.6451461  65.4177309  18.6195119  46.3563146  65.1122608
  19.8146269  50.2277332  65.9473539  19.3406223  49.7019094  66.4578850
  20.1864405  49.6806805  65.3788400  19.7996158  50.0693329  65.9388686
  10.1919299  52.2248839  71.3157085  11.0544912  52.1244548  71.2294414
   9.8611082  51.6443548  70.7542657  10.2704496  52.1240465  71.2202490
  26.0783000  55.2879708  67.3580319  25.8381223  54.4486123  67.3622746
  26.5575007  55.3679874  68.0821093  26.1135183  55.1761107  67.4655122
  21.7429769  51.1213886  59.0099293  21.2152787  51.2042630  58.3205001
  22.2025477  51.8631758  59.0063937  21.7331619  51.2434549  58.9073988
  28.0788187  52.0681165  65.3109578  27.8397957  52.0276999  64.4730363
  28.2422088  52.9152317  65.4375299  28.0678490  52.1873250  65.2063060
  24.6834217  56.4531114  71.2414624  25.4068416  56.0003640  71.0625643
  24.4184179  56.7335780  70.4586951  24.7515490  56.4282083  71.0993339
  13.5521085  51.0491288  67.9767503  12.9274155  51.0609680  67.3693455
  13.2166680  51.5251463  68.6258743  13.4106577  51.1209805  67.9824071
  13.7362834  49.3916406  54.0340188  13.3875638  50.0436131  54.4971737
  13.2559280  49.3773519  53.3064059  13.6133078  49.4859460  53.9951279
  21.2966851  59.6917450  58.1408950  22.0201050  60.1575563  57.9973523
  20.8567442  59.7591060  57.3906547  21.3382544  59.7701287  58.0093731
  20.4653006  56.5514992  69.3909639  19.8509999  56.0073043  69.6858274
  20.9820291  56.0379229  68.9115455  20.4508669  56.3951401  69.3633867
  19.7049304  57.6219262  67.1253937  19.2776912  56.9968981  66.6919373
  19.6974248  57.3394184  67.9512944  19.6408445  57.4872043  67.1833765
  12.8211831  52.6584435  70.1942371  12.9805317  51.9027760  70.5994093
  12.6404724  53.2075375  70.8483109  12.8177190  52.6278249  70.3505077
  20.7632134  44.8245671  70.7493161  20.2672695  45.0209345  70.0584727
  21.5201196  45.2238339  70.5781962  20.8018958  44.9123405  70.6213297
  18.0335013  48.4988017  67.3396471  18.0577500  47.9648129  66.6509251
  18.2846487  47.9905326  68.0022062  18.0744932  48.3448921  67.3361116
  14.3136335  47.2258835  66.7202216  14.3534707  47.7268042  67.4336923
  13.4886000  47.3169229  66.4508139  14.1975861  47.3140651  66.7852754
  15.7350699  53.7419345  69.0176115  14.9042628  53.9093163  68.8111363
  15.6802216  53.3655296  69.8025000  15.6040114  53.7109076  69.1024643
  13.5434482  47.2328238  74.6532525  14.1687185  46.6890371  74.9261958
  13.0884962  46.7523155  74.0840316  13.5682743  47.0817719  74.6094119
  14.1086743  52.0174936  59.5466232  14.2489704  52.5147401  60.2494874
  14.6069275  51.3161231  59.6880446  14.2027824  51.9876915  59.6717811
  14.1386965  52.8842048  56.8758809  14.7732045  53.4802473  56.8108271
  14.2212576  52.5845505  57.6904679  14.2443516  52.9282956  56.9861896
  27.1169531  55.4157525  69.7445173  27.7087371  56.0554776  69.7763371
  27.5528525  54.7180562  70.0337240  27.2687962  55.4075875  69.7926006
  15.7165948  48.8156023  56.8504251  16.0381789  48.3359105  56.1963513
  15.9792892  49.6255669  56.6595063  15.8031973  48.8645921  56.7259743
  18.9462921  59.8374897  70.3703067  18.4388012  60.3910744  70.8143698
  18.6489567  59.8983187  69.5521842  18.8267806  59.9281208  70.3151524
  21.1125103  48.2028217  69.2127730  21.5380174  47.7500743  68.6011257
  20.4982096  47.6488288  69.4892518  21.0853748  48.0542193  69.1632755
  10.6439953  55.0809888  60.1448355  11.1532182  55.6774396  60.5259661
  11.1174225  54.8135862  59.4624775  10.7883329  55.1295704  60.1002878
  21.5570701  63.7538155  58.3007011  20.8400011  63.5799017  57.8354248
  22.2077439  63.5190727  57.7682497  21.5472551  63.6933947  58.1536229
  19.5519326  44.6743317  62.6218307  18.9087644  44.5240963  63.1903446
  19.2118733  44.4285662  61.8567412  19.4064403  44.6155439  62.5921322
  24.1418672  52.6302744  62.0448316  23.4709862  53.1732446  61.9161381
  24.8358422  53.0997599  61.8030011  24.1447540  52.7801015  61.9903844
  18.1905406  64.7699456  67.2760074  17.9671060  64.0118285  67.6444100
  17.7015249  64.7997477  66.5540514  18.0848855  64.6621680  67.2236815
  24.3046800  49.0858627  64.9538689  24.6574410  48.6588350  65.6284488
  23.4461601  49.0009471  65.0839765  24.2296244  49.0103368  65.0733699
  13.0030485  51.7166147  63.0121536  12.2842474  52.1330279  63.2794399
  13.3742847  52.2820386  62.4613174  12.9522416  51.8615428  62.9704343
  22.3030065  52.3493996  68.9023531  22.2827993  52.1677291  69.7558310
  22.3509266  53.2206014  68.8783115  22.3064706  52.4510534  69.0246826
  20.2476395  58.9381188  74.8272008  20.2072250  58.2930865  74.2417164
  21.0599714  58.8817805  75.1397420  20.3619549  58.8340155  74.7868957
  16.8383863  64.9899914  64.7297159  16.4244262  64.3274044  64.3401000
  17.5231237  65.1377772  64.2092853  16.8782235  64.9140572  64.5953656
  20.2049157  64.1489999  65.4820775  19.8065440  64.2592269  64.7141596
  19.5900377  64.3572065  66.0647335  20.0548046  64.1963567  65.4552075
  18.7777059  50.7564147  58.3494915  18.1841898  51.0781143  57.7979482
  18.8152337  49.9105242  58.1416021  18.6951448  50.6788475  58.2377686
  25.7370860  44.2077039  65.8823001  25.2301724  43.5006179  65.8144179
  26.5338293  43.8770228  66.0124078  25.7798099  44.0550190  65.8921996
  21.6534876  50.7143651  61.7796665  21.4248569  50.7376353  60.9375023
  21.9132952  49.8901118  61.8991676  21.6581064  50.5959731  61.6721863
  15.9354104  52.5678124  71.3821765  15.4233007  51.9599307  71.7406797
  15.7633600  53.2834717  71.8495741  15.8343741  52.5841424  71.5037989
  14.7079638  49.2520198  63.0750861  15.1837004  49.6137277  62.4401042
  14.2068238  49.9076665  63.3551004  14.7044997  49.4014386  63.0227602
  27.9391000  58.7241966  58.8663866  28.3224605  59.4733322  59.0961963
  27.1435113  58.9707785  58.6075855  27.8784782  58.8711659  58.8621439
  19.8123174  50.4902369  73.8224021  20.3694605  50.2616178  73.1902486
  19.4884239  51.2508035  73.5459233  19.8469585  50.5686206  73.6880518
  17.5306292  53.5770022  74.7876028  18.2817619  53.8921699  75.1015582
  17.7228868  53.3749193  73.9609950  17.6697706  53.5937404  74.7119424
  16.7506291  51.3961397  56.4424245  17.1305256  51.4141027  55.6575360
  16.0098887  51.8415386  56.3215092  16.6975129  51.4643172  56.3087813
  24.3791582  49.7043589  62.0299824  24.3785808  49.5492245  62.8884100
  24.1747762  50.5506576  61.9741209  24.3491360  49.8064209  62.1487763
   6.4408853  53.1283373  66.4458640   6.2630614  52.6759982  67.1713556
   6.1527875  53.9309534  66.6297118   6.3721806  53.1805931  66.5802143
  22.1032434  54.3841090  65.6836030  22.5986099  53.6664085  65.6440051
  21.2932210  54.0811888  65.5690517  22.0576327  54.2338737  65.6609756
  17.5491045  58.2338904  57.8333035  16.7402368  57.9105577  57.7866344
  18.0565954  57.5272126  57.7661284  17.5040712  58.0820220  57.8163329
   8.1781323  55.6611097  63.5580399   7.3126842  55.6496787  63.4463170
   8.2780139  55.4741320  64.4051538   8.0655490  55.6317158  63.6669344
  24.1684253  57.1344778  68.3713159  24.5939324  56.6119200  67.8183584
  23.8041173  57.7325615  67.8501782  24.1770855  57.1455005  68.2122169
  13.8038333  65.4308995  67.1310505  14.1184891  66.2445384  67.1388286
  14.2131746  65.0459214  67.7992664  13.9106431  65.4937698  67.2314596
  20.7562852  60.8479042  64.7014317  21.2274030  61.5619305  64.8704302
  21.0923031  60.2477792  65.2374186  20.8757967  60.8650506  64.8046693
  17.6732347  45.6206513  71.6572411  17.8060253  44.8237506  71.9853387
  18.0577500  46.1472916  72.2370687  17.7488676  45.5806429  71.7915914
  21.3936798  60.6396976  71.4642009  20.8457744  60.0154860  71.1962075
  21.8549827  60.8291248  70.7486089  21.3804008  60.5756026  71.3192440
  20.7464702  42.5436839  68.2553505  19.9410666  42.4334568  68.5721343
  20.6171438  42.6449294  67.3983371  20.6084835  42.5420509  68.1761545
  24.2030663  48.7082331  68.8493202  23.6193652  49.2091537  68.4370769
  24.5234957  48.2011887  68.2157525  24.1643838  48.7074166  68.6951709
  16.7425462  47.6222926  59.1251876  17.5641156  47.7921238  58.8833571
  16.2795113  47.7770186  58.4018174  16.7956624  47.6704658  58.9823521
  15.3320794  45.6165688  69.9050305  15.8765207  45.2756815  70.4954647
  15.3857730  46.4751149  70.0471590  15.4209913  45.6920947  70.0132179
  11.1451353  59.3782104  66.7789113  11.7496210  59.3377938  66.1502934
  10.9378665  60.2253256  66.8093169  11.2040250  59.4970106  66.6905230
  20.9595125  61.6448049  67.9951350  21.7793499  61.5011015  68.2567646
  20.6789202  62.2694248  68.5367788  21.0391868  61.7158401  68.1139290
  37.4308775  69.3012901  60.9594227  37.4002780  70.1557537  61.1312496
  38.0290124  69.0008193  61.5180370  37.5145933  69.3829397  61.0669029
  30.6308460  68.3888552  65.7147157  29.7746356  68.5497050  65.7656274
  30.6776114  67.5180616  65.7352218  30.5107571  68.2839354  65.7253223
  33.4760281  70.4480596  68.3578809  34.0216241  71.1265682  68.4172779
  33.4177157  70.3068056  67.4980390  33.5476195  70.5272597  68.2390869
  35.2525350  71.8765203  59.2312537  35.1364876  72.6272889  59.6604675
  36.0481236  71.6189156  59.4808624  35.3529939  71.9500050  59.3316628
  19.7899400  73.9589948  63.3699495  19.5549585  73.1257601  63.2631764
  19.9285041  74.2394614  62.5560696  19.7755063  73.8773452  63.2341850
  22.0889488  66.1275679  66.2683803  21.4694519  65.5368326  66.0993817
  21.9873351  66.7187114  65.6348126  21.9827163  66.1279761  66.1488792
  27.1355675  75.8659226  60.5181879  27.4571516  76.4064433  59.9143187
  27.7827772  75.2955997  60.6504169  27.2781730  75.8618401  60.4488914
  29.1857383  67.8675221  60.6016266  29.8837548  68.0463348  61.0937729
  29.5009716  67.3445560  59.9786655  29.3352720  67.8168993  60.5818276
  21.8158621  69.6727961  68.5127372  21.6917318  70.2590406  69.1477191
  22.4676905  69.1788156  68.8139647  21.8932270  69.6866765  68.6513301
  29.3745319  74.2545666  60.5896057  29.8138954  73.6462766  61.0350830
  29.2249982  73.8753039  59.8181522  29.4166784  74.1084137  60.5415225
  26.8416962  72.8489677  67.7914883  27.4865964  72.3562121  67.4725831
  27.0818739  72.9914464  68.6180961  26.9727547  72.7967120  67.8664416
  29.3803053  75.6944583  67.4421775  29.6626296  74.8995989  67.2208531
  30.1089213  76.1725171  67.4626836  29.5292617  75.6479180  67.4124790
  27.3584247  63.2367617  64.6837540  27.0287577  63.6878761  64.0141239
  26.6829249  63.1583781  65.2310547  27.2094683  63.2918752  64.6660764
  32.9754655  72.6072847  57.5426827  32.8905950  73.4633814  57.6876395
  33.4639038  72.3317171  58.2108986  33.0343552  72.6930168  57.6628908
  34.5660655  59.2253140  62.9287151  34.2514096  59.9156619  63.3607573
  34.0487596  59.1697922  62.2272652  34.4425125  59.3188029  62.8884100
  33.9073088  69.2257641  59.0424562  33.3784560  69.4417275  59.7021868
  34.4298108  69.9193780  58.9625531  33.9061541  69.3600778  59.1280161
  39.3621141  74.8003946  64.4157606  38.5318844  75.0114589  64.5791023
  39.3130394  73.9741000  64.1399890  39.2327877  74.7093552  64.3994972
  25.7972696  73.1220858  57.8432030  25.2129911  73.6270889  58.2497894
  25.3942791  72.8963245  57.1028622  25.6512000  73.1629106  57.7937055
  30.2549911  69.3686510  56.3200950  30.4945914  69.5764494  55.5076293
  30.5765752  68.5644019  56.4289895  30.3387069  69.2800611  56.2161503
  25.5640201  61.2979906  60.1660488  26.3186169  61.6658223  59.9277538
  25.3867736  61.6719460  60.9339668  25.6494679  61.4078094  60.2445377
  38.8575100  67.4474346  68.2108027  38.0203521  67.5176533  68.4455622
  38.8263331  67.4498841  67.3382330  38.7293382  67.4584573  68.1167575
  25.2539829  69.5907382  73.9256396  25.4260332  69.4813276  74.7741678
  25.7909186  70.2361787  73.6887588  25.3584833  69.6699384  74.0161493
  23.9197266  63.7050225  56.8638601  23.7372839  63.9222106  56.0379594
  24.7822879  63.8189237  56.9197216  24.0201855  63.7540123  56.7493088
  23.5311698  75.5438147  64.3061589  24.3700597  75.7761080  64.3535351
  23.5623467  74.6742458  64.2368624  23.6593415  75.4495093  64.3026234
  29.5996985  60.7076635  59.8987625  30.3283145  60.5292590  59.4525781
  29.6891878  61.5494715  60.1094803  29.7203647  60.8060514  59.8641143
  33.5805285  71.6430023  63.8019919  34.3362800  72.0761537  63.8408828
  33.6867610  70.9934792  64.3754555  33.7075456  71.6107507  63.8917945
  36.6185457  75.4703300  64.5522322  36.1820688  75.4740042  65.3081293
  36.2848372  76.1508799  64.1201899  36.5048077  75.5715756  64.6003154
  36.5382939  62.5117128  66.7951750  37.1808848  62.5815232  67.3813665
  36.7905960  61.8446351  66.2931292  36.6705072  62.4243476  66.8079029
  23.4659293  66.9824397  55.3761074  22.7517470  66.6962577  55.7883507
  23.9503261  67.3221023  56.0167462  23.4318656  66.9906047  55.5316709
  24.3100152  65.7217691  71.4076324  23.6171949  65.2514671  71.6537055
  24.9260479  65.4955996  71.9818031  24.2984682  65.6184823  71.5285476
  39.7529803  72.1884220  63.4441959  40.4146237  71.6274888  63.3437868
  39.1121215  71.6936251  63.7694650  39.7558670  72.0320629  63.4774299
  30.6406611  75.4854351  55.7522882  31.0557759  75.1539375  55.0607378
  29.8098540  75.2523254  55.6243019  30.5794619  75.4025607  55.6313730
  19.9694959  72.9698092  66.0421060  19.7870533  72.9444978  65.1893353
  20.7044628  73.4397030  66.0809969  20.0509023  73.0359455  65.9218979
  36.0394633  73.2049602  63.1853948  36.2750223  73.3494801  62.3580799
  36.1884197  73.9692010  63.5785462  36.0960437  73.3388657  63.1217552
  23.0340711  69.6883095  72.5503169  23.7580683  69.6736126  73.0368064
  23.1356847  70.3978450  72.0525137  23.1558920  69.7907798  72.5481956
  37.8685090  72.0451268  61.0223552  38.1993307  72.5778908  60.4163647
  38.4418178  72.0990156  61.6785503  38.0018769  72.1320837  61.0301333
  33.0816979  69.8916171  61.7047132  33.1763834  70.6305465  62.1586757
  32.4575823  69.4633646  62.1381696  33.0026009  69.9377492  61.8355279
  19.9365870  69.8491593  66.1920127  20.5139372  69.7128044  66.8312372
  19.2379931  69.3927377  66.4465711  19.9186891  69.7613859  66.3242417
  33.3340001  71.7364911  54.9384084  33.2520163  71.8067098  55.8039071
  33.9719721  72.2994655  54.7467824  33.4159838  71.8303882  55.0374033
  26.6933172  71.5025649  64.4058610  26.4352416  70.6697384  64.3789910
  26.7481655  71.7283262  63.5651111  26.6632950  71.4123420  64.2778747
  31.7734222  63.6054099  64.5062703  31.0690549  63.1163285  64.6646622
  31.8219196  63.6176574  63.6351147  31.6764274  63.5343747  64.4002043
  25.6667884  69.0563411  64.8923505  25.0917475  69.2155579  65.5287466
  25.2903560  68.4198820  64.4291955  25.5270696  68.9861224  64.9178063
  29.3341173  67.5286760  69.7515883  28.9455605  67.1040978  69.0968075
  28.6695871  67.7768910  70.2592910  29.1788100  67.5025482  69.7303751
  38.9764442  67.2861765  62.5263713  38.7201007  66.4741707  62.3361596
  39.8193756  67.2939332  62.2993901  39.0630467  67.1673763  62.4648530
  15.4124703  68.7003486  62.9067946  15.4984955  68.3235354  63.6881475
  16.0400500  68.3263932  62.4287904  15.5181254  68.5888968  62.9513423
  33.1567534  61.2261389  67.2639868  33.5378046  60.5439560  67.6507742
  32.3530818  60.9370991  67.0815532  33.0943996  61.0828438  67.2943923
  30.4380111  71.7585365  57.9492690  31.2520750  72.0500258  57.8375462
  30.3739252  71.1045227  57.3750983  30.5482850  71.7050560  57.8481528
  26.3088019  75.2306882  63.0765002  26.9461966  74.9918630  63.6216796
  26.7343091  75.4344041  62.3418163  26.4664185  75.2257893  63.0482160
  26.9490834  70.4509172  57.4139892  27.3335987  70.2316879  58.1656437
  26.7002454  71.2772118  57.5440968  26.9692907  70.5407318  57.5440968
  27.1159375  63.7315587  77.1302476  26.8012816  64.5015150  76.8672039
  26.7949307  63.1685843  76.5454703  27.0218294  63.7625856  77.0043826
  28.6909491  75.7079305  64.7558789  28.7648499  75.5454477  65.6100639
  29.5078997  75.8969495  64.5119270  28.8225850  75.7116047  64.8456814
  24.6691272  62.1206109  62.7448672  23.8013697  62.1928708  62.8106282
  24.9566476  62.9228188  62.9336647  24.5831020  62.2500256  62.7823439
  33.7924160  62.2683968  71.0759994  34.5377752  62.0793779  70.6623420
  33.3761465  62.7942206  70.5173850  33.8409134  62.3186114  70.9324567
  41.1686431  69.6393197  66.0265499  41.7194353  69.0061266  66.2662591
  41.1530546  70.1708590  66.7181003  41.2471627  69.6242145  66.1644357
  27.8208822  73.4731794  70.5725393  27.3220516  74.1847562  70.6510281
  28.6309046  73.7932461  70.5343555  27.8664929  73.6258643  70.5781961
  24.0836940  72.7354747  64.8188113  23.7950188  72.1092218  65.3533841
  24.9520288  72.6775034  64.8852794  24.1697191  72.6342291  64.9079068
  34.8714837  67.8789530  65.1370095  34.5279603  67.1579866  65.4877345
  34.9707880  67.6703382  64.2948454  34.8356880  67.7413734  65.0641775
  24.2869213  74.3749998  60.7430478  25.0415181  74.7563037  60.9565941
  23.6939826  74.8261142  61.1977175  24.3105927  74.4978825  60.8413357
  35.3327866  74.3415235  60.6794083  35.8985899  75.0008444  60.5952626
  34.6855770  74.6864933  61.1510486  35.3206623  74.4897176  60.7366840
  26.7475880  66.3312838  75.8687691  25.9375656  66.6370618  75.7577533
  27.2250567  67.0518421  75.9840275  26.6979359  66.4827440  75.8694762
  25.6067440  75.5458559  66.1170594  25.0848193  75.6858851  66.8022459
  25.9941460  74.7869224  66.3072711  25.5871140  75.4544083  66.2471670
  22.5958624  65.5964368  60.1865549  22.3083419  65.2265639  59.4497496
  23.2829092  66.0659224  59.9249253  22.6547521  65.6111338  60.0380624
  31.8034445  77.2854019  60.1031163  31.5621120  76.5521879  59.6958228
  31.9835777  77.8340876  59.4497496  31.7942068  77.2576410  59.9461386
  27.0333765  72.5762578  61.5152085  26.8376548  73.1837313  60.9212388
  27.2568111  71.8830522  61.0343759  27.0368406  72.5640104  61.3568166
  25.4312295  69.4617316  61.6332953  26.1534947  69.6258475  61.1736759
  24.9520288  70.1826981  61.5272293  25.4676026  69.5915546  61.5498567
  33.3905803  65.7981115  67.0129638  32.5516903  65.8242394  66.7767901
  33.4610170  66.4451851  67.5934985  33.2774196  65.8977241  67.0638755
  31.8375081  62.6966492  61.7457254  32.5401434  62.4974241  61.2677212
  31.5719270  61.9242435  62.0526098  31.9021713  62.5529458  61.7202696
  37.2663327  71.0049102  64.2990880  37.1797301  71.1604528  65.1525659
  36.8113807  71.6487178  63.9250285  37.1866583  71.1224857  64.3697987
  20.1686818  66.3745581  61.0350830  20.2702955  67.1771742  61.3631805
  20.9642705  66.1732917  60.7373910  20.3014724  66.4631479  61.0386185
  26.6003637  63.9601777  70.7988135  26.4086834  63.9756912  71.6487558
  27.4502233  64.1565452  70.7754790  26.6979359  63.9916129  70.9211429
  20.9850550  66.4892759  68.7771951  20.8436042  65.6376700  68.9016459
  21.2691114  66.5321420  67.9534157  21.0058396  66.3692509  68.6739575
  31.1389143  68.3259849  62.9216439  30.8923857  68.2455600  63.7553228
  31.4674266  67.5413317  62.7278967  31.1510386  68.1986114  63.0163963
  35.0337191  75.0343208  66.7103221  34.8951551  75.7324254  67.2151963
  34.2537189  74.8791865  66.3539402  34.8980418  75.1143375  66.7329495
  27.0986170  71.0616568  72.3339423  27.2429546  71.6417776  71.6982533
  27.4461818  71.4392864  73.0389277  27.1713631  71.2037272  72.3438417
  29.2706087  70.2606736  70.1164554  28.5229401  70.4537750  69.7112832
  29.4247613  69.4351956  69.8788675  29.1828515  70.1671847  70.0209960
  36.5290564  74.3921462  57.4719720  36.1497373  73.6058600  57.4649009
  35.8656810  74.9408319  57.3291364  36.3749039  74.3566286  57.4500517
  29.5107864  64.1557287  71.0059958  29.9680478  64.8881261  71.1332750
  29.5864193  63.7323752  71.7647214  29.5898834  64.2014525  71.1361034
  21.7540856  64.4023106  72.0949402  21.2183045  63.7903465  72.4110169
  21.8158620  64.9771242  72.7483068  21.6836488  64.3970034  72.2384828
  33.9835190  57.3347162  64.8753801  34.1018758  57.7923625  64.1421103
  33.8097366  56.5292423  64.5890018  33.9754361  57.2840934  64.7254734
  27.3890242  66.1459391  67.8501782  26.5986317  65.9650851  68.1719118
  27.7850865  65.3686343  67.8332076  27.3307118  66.0046852  67.8954330
  31.8756133  74.9747165  53.2908495  32.6429118  75.0347290  52.8814347
  31.4287442  74.4027606  52.8064814  31.9229560  74.8983741  53.1586206
  32.7733929  73.7801821  65.5761228  32.0978930  73.5487053  66.0774615
  32.7826305  73.1723004  64.9503333  32.6752433  73.6560746  65.5577380
  29.9028072  68.6219650  72.3325281  29.8387214  69.4829606  72.2045417
  30.0425260  68.3051643  71.5320832  29.9143543  68.7019816  72.1953494
  34.7750663  76.6366953  57.8071406  34.8570501  77.4433939  57.4832857
  35.2600405  76.6562912  58.5312179  34.8587821  76.7587616  57.8658304
  28.5847166  71.3151789  66.4741484  28.1609416  71.5156288  65.7380502
  28.4092022  70.4680637  66.5865784  28.4958047  71.2200571  66.3815174
  23.8729611  71.8103841  61.9069456  24.0294231  71.7450643  62.7625448
  24.2130204  72.5852393  61.6948136  23.9462846  71.9153039  62.0024050
  30.4108756  71.1861724  60.7762819  30.9524301  70.6832105  61.2401440
  30.7255315  71.1326919  59.9652305  30.5373153  71.1041145  60.7246632
  28.5795206  76.5779076  58.0602847  28.6488026  75.7193614  58.1995848
  29.3583661  76.7950957  57.7321872  28.7048056  76.4831940  58.0320005
  31.5598025  66.0798029  70.8285120  31.7739995  65.4408943  70.2748474
  30.9431925  66.5243853  70.3992982  31.5003355  66.0508172  70.6835551
  20.4463873  68.9938791  62.2230223  20.8262838  69.4123336  61.5590491
  19.8719238  69.5752247  62.5299067  20.4175198  69.1416650  62.1706964
  33.7237113  67.6887094  71.7668427  32.9113795  67.3812984  71.8481600
  34.1827048  67.2086094  72.3311139  33.6717498  67.5723586  71.8623021
  33.1342368  75.5666766  62.2145371  32.7757023  75.7381409  62.9909404
  32.6481079  76.0279971  61.6573370  33.0101065  75.6605737  62.2470640
  30.9512754  59.1897964  65.8172463  30.0806312  59.1636685  65.7705772
  31.2053095  59.0175157  64.9998308  30.8606314  59.1608108  65.6892599
  27.9230733  71.2465931  54.7545606  28.2123258  72.0230814  55.0289180
  28.0102532  70.7354663  55.4560105  27.9784990  71.2857850  54.8988104
  27.9761894  61.2004193  67.2745933  27.4600383  60.5084384  67.3997512
  27.4155823  61.8674970  67.2208532  27.8168408  61.1967450  67.2851999
  30.0454128  61.7397153  69.1038786  29.6585881  61.7646184  69.8852316
  29.5587065  61.1738831  68.6513302  29.9166637  61.6592904  69.1526689
  36.0204107  68.3059808  67.7278488  35.5931716  68.2186156  66.9726587
  35.3830160  68.4137583  68.3133332  35.8633715  68.3092468  67.7023929
  29.7111270  58.6264138  71.3949046  30.3404388  59.1624438  71.1170116
  29.8797132  58.5341497  72.2462611  29.8289064  58.6925501  71.4797574
  29.5125185  63.4135333  73.6675457  30.3398614  63.1420482  73.7234072
  29.5333031  64.2096175  74.0239275  29.6378035  63.4915087  73.7290640
  24.0894674  70.5599196  66.8545718  23.2482681  70.4603070  67.0624612
  24.2984682  71.3294676  67.2060038  23.9959367  70.6591239  66.9373033
  21.5670241  68.1818733  64.6830468  21.1726939  68.2561745  63.9080578
  21.0110358  68.5676679  65.2338830  21.4273054  68.2500507  64.6498128
  33.2035188  61.1600027  64.3634347  33.4084782  61.0922335  65.2091345
  32.8761612  61.9658848  64.2955525  33.1850436  61.2685967  64.4794003
  27.9011339  68.4880595  66.1043315  27.5974477  67.9336583  66.7053723
  27.1990760  68.6672805  65.6171350  27.7527549  68.4325377  66.1213021
  26.9577436  65.7981115  60.6688017  27.2337171  65.0800027  60.2565585
  27.5576106  66.3966035  60.4609123  27.0870701  65.7801486  60.5768778
  36.4568876  61.7131791  63.8437113  35.8443189  62.2002193  64.2290845
  36.5533051  61.0375282  64.3874764  36.3806773  61.6850100  63.9815971
  30.4587957  63.4694632  58.9434612  30.9131703  63.6405193  59.6682457
  30.9328003  62.8562743  58.5432388  30.5956277  63.4045517  58.9908374
  23.9803482  72.9542958  68.2737351  23.3891416  73.5952456  68.2440366
  24.7424506  73.3780575  68.2468650  24.0051743  73.1118797  68.2652498
  24.3764105  64.1144956  68.9405368  24.8365587  64.1883885  69.6780492
  24.4220212  64.9126210  68.5905190  24.4514660  64.2439103  68.9978125
  26.0247455  64.7811651  73.5077395  25.6333020  64.1344998  73.9433173
  26.1933318  65.3723086  74.1271651  25.9918365  64.7725919  73.6640101
  33.7392999  78.4052270  65.7069375  33.5412687  78.8943084  65.0125586
  33.1180710  78.6093511  66.2853509  33.6180563  78.5068808  65.6892598
  27.8000977  70.1737167  60.0479619  28.5443022  70.5611443  60.2862569
  27.9461673  69.3294592  60.2120107  27.9311562  70.1067639  60.1073589
  29.7180552  61.9687425  65.0811481  28.8716597  62.1410233  64.9552831
  29.7151685  61.1636769  65.4177309  29.5927702  61.8748454  65.1122608
  30.7878853  65.7462640  65.9473539  30.3138807  65.2204402  66.4578850
  31.1596989  65.1992113  65.3788400  30.7728742  65.5878636  65.9388686
  21.1651883  67.7434147  71.3157085  22.0277496  67.6429856  71.2294414
  20.8343666  67.1628856  70.7542657  21.2437079  67.6425773  71.2202490
  37.0515583  70.8065015  67.3580319  36.8113806  69.9671431  67.3622746
  37.5307590  70.8865182  68.0821093  37.0867767  70.6946415  67.4655122
  32.7162352  66.6399194  59.0099293  32.1885371  66.7227938  58.3205001
  33.1758061  67.3817066  59.0063937  32.7064203  66.7619857  58.9073988
  39.0520770  67.5866473  65.3109578  38.8130540  67.5462307  64.4730363
  39.2154672  68.4337625  65.4375299  39.0411074  67.7058558  65.2063060
  24.5253669  66.5676596  67.9767503  23.9006739  66.5794988  67.3693455
  24.1899264  67.0436771  68.6258743  24.3839161  66.6395113  67.9824071
  24.7095418  64.9101714  54.0340188  24.3608222  65.5621439  54.4971737
  24.2291863  64.8958827  53.3064059  24.5865661  65.0044768  53.9951279
  32.2699435  75.2102758  58.1408950  32.9933634  75.6760871  57.9973523
  31.8300026  75.2776368  57.3906547  32.3115127  75.2886595  58.0093731
  31.4385590  72.0700300  69.3909639  30.8242583  71.5258351  69.6858274
  31.9552875  71.5564537  68.9115455  31.4241252  71.9136709  69.3633867
  30.6781887  73.1404570  67.1253937  30.2509495  72.5154289  66.6919373
  30.6706831  72.8579492  67.9512944  30.6141028  73.0057351  67.1833765
  23.7944414  68.1769743  70.1942371  23.9537901  67.4213067  70.5994093
  23.6137308  68.7260683  70.8483109  23.7909773  68.1463557  70.3505077
  31.7364717  60.3430979  70.7493161  31.2405278  60.5394653  70.0584727
  32.4933779  60.7423647  70.5781962  31.7751542  60.4308713  70.6213297
  29.0067597  64.0173325  67.3396471  29.0310084  63.4833437  66.6509251
  29.2579070  63.5090634  68.0022062  29.0477515  63.8634229  67.3361116
  25.2868919  62.7444143  66.7202216  25.3267291  63.2453350  67.4336923
  24.4618584  62.8354537  66.4508139  25.1708445  62.8325959  66.7852754
  26.7083282  69.2604653  69.0176115  25.8775212  69.4278471  68.8111363
  26.6534800  68.8840604  69.8025000  26.5772697  69.2294384  69.1024643
  24.5167066  62.7513546  74.6532525  25.1419769  62.2075679  74.9261958
  24.0617546  62.2708463  74.0840316  24.5415326  62.6003027  74.6094119
  25.0819326  67.5360244  59.5466232  25.2222287  68.0332709  60.2494874
  25.5801859  66.8346539  59.6880446  25.1760407  67.5062223  59.6717811
  25.1119549  68.4027355  56.8758809  25.7464628  68.9987780  56.8108271
  25.1945159  68.1030813  57.6904679  25.2176100  68.4468264  56.9861896
  26.6898531  64.3341331  56.8504251  27.0114373  63.8544413  56.1963513
  26.9525475  65.1440977  56.6595063  26.7764557  64.3831229  56.7259743
  29.9195504  75.3560205  70.3703067  29.4120595  75.9096052  70.8143698
  29.6222150  75.4168495  69.5521842  29.8000389  75.4466516  70.3151524
  32.0857686  63.7213525  69.2127730  32.5112758  63.2686051  68.6011257
  31.4714680  63.1673596  69.4892518  32.0586332  63.5727501  69.1632755
  21.6172537  70.5995196  60.1448355  22.1264766  71.1959704  60.5259661
  22.0906809  70.3321170  59.4624775  21.7615912  70.6481012  60.1002878
  30.5251909  60.1928625  62.6218307  29.8820227  60.0426271  63.1903446
  30.1851316  59.9470970  61.8567412  30.3796987  60.1340747  62.5921322
  35.1151256  68.1488051  62.0448316  34.4442446  68.6917754  61.9161381
  35.8091006  68.6182907  61.8030011  35.1180123  68.2986323  61.9903844
  35.2779383  64.6043935  64.9538689  35.6306993  64.1773658  65.6284488
  34.4194185  64.5194779  65.0839765  35.2028828  64.5288676  65.0733699
  23.9763068  67.2351455  63.0121536  23.2575057  67.6515587  63.2794399
  24.3475431  67.8005694  62.4613174  23.9255000  67.3800736  62.9704343
  33.2762649  67.8679304  68.9023531  33.2560576  67.6862599  69.7558310
  33.3241850  68.7391322  68.8783115  33.2797290  67.9695842  69.0246826
  29.7509643  66.2749455  58.3494915  29.1574482  66.5966451  57.7979482
  29.7884920  65.4290550  58.1416021  29.6684032  66.1973783  58.2377686
  36.7103443  59.7262347  65.8823001  36.2034308  59.0191486  65.8144179
  37.5070877  59.3955536  66.0124078  36.7530683  59.5735498  65.8921996
  32.6267459  66.2328959  61.7796665  32.3981152  66.2561661  60.9375023
  32.8865535  65.4086426  61.8991676  32.6313647  66.1145039  61.6721863
  26.9086688  68.0863432  71.3821765  26.3965591  67.4784615  71.7406797
  26.7366184  68.8020025  71.8495741  26.8076325  68.1026731  71.5037989
  25.6812222  64.7705505  63.0750861  26.1569588  65.1322585  62.4401042
  25.1800821  65.4261973  63.3551004  25.6777581  64.9199694  63.0227602
  38.9123583  74.2427274  58.8663866  39.2957189  74.9918630  59.0961963
  38.1167697  74.4893093  58.6075855  38.8517366  74.3896967  58.8621439
  30.7855758  66.0087677  73.8224021  31.3427188  65.7801486  73.1902486
  30.4616823  66.7693342  73.5459233  30.8202168  66.0871514  73.6880518
  27.7238875  66.9146705  56.4424245  28.1037840  66.9326334  55.6575360
  26.9831471  67.3600694  56.3215092  27.6707713  66.9828480  56.3087813
  35.3524165  65.2228896  62.0299824  35.3518392  65.0677553  62.8884100
  35.1480345  66.0691884  61.9741209  35.3223943  65.3249517  62.1487763
  17.4141436  68.6468681  66.4458640  17.2363197  68.1945290  67.1713556
  17.1260458  69.4494842  66.6297118  17.3454389  68.6991239  66.5802143
  33.0765017  69.9026398  65.6836030  33.5718683  69.1849393  65.6440051
  32.2664793  69.5997196  65.5690517  33.0308911  69.7524045  65.6609756
  28.5223629  73.7524211  57.8333035  27.7134952  73.4290885  57.7866344
  29.0298538  73.0457434  57.7661284  28.4773296  73.6005528  57.8163329
  19.1513906  71.1796405  63.5580399  18.2859426  71.1682095  63.4463170
  19.2512722  70.9926628  64.4051538  19.0388073  71.1502466  63.6669344
  35.1416836  72.6530086  68.3713159  35.5671908  72.1304508  67.8183584
  34.7773756  73.2510923  67.8501782  35.1503439  72.6640313  68.2122169
  31.7295436  76.3664350  64.7014317  32.2006614  77.0804613  64.8704302
  32.0655614  75.7663100  65.2374186  31.8490551  76.3835814  64.8046693
  28.6464931  61.1391821  71.6572411  28.7792836  60.3422814  71.9853387
  29.0310083  61.6658224  72.2370687  28.7221260  61.0991737  71.7915914
  31.7197286  58.0622147  68.2553505  30.9143250  57.9519876  68.5721343
  31.5904021  58.1634602  67.3983371  31.5817419  58.0605817  68.1761545
  35.1763246  64.2267639  68.8493202  34.5926235  64.7276845  68.4370769
  35.4967540  63.7197195  68.2157525  35.1376422  64.2259474  68.6951709
  27.7158046  63.1408233  59.1251876  28.5373740  63.3106546  58.8833571
  27.2527696  63.2955494  58.4018174  27.7689208  63.1889966  58.9823521
  26.3053377  61.1350996  69.9050305  26.8497790  60.7942122  70.4954647
  26.3590313  61.9936457  70.0471590  26.3942497  61.2106255  70.0132179
  31.9327708  77.1633357  67.9951350  32.7526082  77.0196323  68.2567646
  31.6521786  77.7879556  68.5367788  32.0124452  77.2343709  68.1139290
  38.3316830  78.7552925  64.6837540  38.0020160  79.2064069  64.0141239
  37.6561832  78.6769089  65.2310547  38.1827267  78.8104060  64.6660764
  45.5393238  74.7438448  62.9287151  45.2246679  75.4341927  63.3607573
  45.0220180  74.6883230  62.2272652  45.4157709  74.8373337  62.8884100
  36.5372784  76.8165214  60.1660488  37.2918753  77.1843531  59.9277538
  36.3600319  77.1904768  60.9339668  36.6227263  76.9263402  60.2445377
  34.8929849  79.2235533  56.8638601  34.7105422  79.4407413  56.0379594
  35.7555462  79.3374545  56.9197216  34.9934439  79.2725431  56.7493088
  40.5729568  76.2261943  59.8987625  41.3015729  76.0477898  59.4525781
  40.6624461  77.0680023  60.1094803  40.6936230  76.3245822  59.8641143
  35.6423855  77.6391417  62.7448672  34.7746281  77.7114016  62.8106282
  35.9299059  78.4413496  62.9336647  35.5563603  77.7685564  62.7823439
  42.8107665  78.2151800  61.7457254  43.5134017  78.0159548  61.2677212
  42.5451853  77.4427743  62.0526098  42.8754297  78.0714766  61.7202696
  44.9567774  72.8532470  64.8753801  45.0751342  73.3108933  64.1421103
  44.7829950  72.0477731  64.5890018  44.9486945  72.8026242  64.7254734
  41.9245338  74.7083272  65.8172463  41.0538896  74.6821993  65.7705772
  42.1785679  74.5360464  64.9998308  41.8338898  74.6793416  65.6892599
  41.4320540  78.9879940  58.9434612  41.8864287  79.1590500  59.6682457
  41.9060586  78.3748051  58.5432388  41.5688861  78.9230825  58.9908374
  40.6913136  77.4872733  65.0811481  39.8449181  77.6595541  64.9552831
  40.6884268  76.6822077  65.4177309  40.5660286  77.3933762  65.1122608
  43.6894936  82.1584502  59.0099293  43.1617955  82.2413246  58.3205001
  44.1490644  82.9002374  59.0063937  43.6796786  82.2805165  58.9073988
  37.6631115  79.8526639  56.8504251  37.9846956  79.3729721  56.1963513
  37.9258059  80.6626285  56.6595063  37.7497140  79.9016537  56.7259743
  41.4984493  75.7113933  62.6218307  40.8552811  75.5611579  63.1903446
  41.1583900  75.4656278  61.8567412  41.3529570  75.6526055  62.5921322
  38.6890629  78.6593541  59.1251876  39.5106323  78.8291854  58.8833571
  38.2260280  78.8140802  58.4018174  38.7421791  78.7075274  58.9823521
  15.1794432  15.2020416  47.8934274  15.1488436  16.0565053  48.0652543
  15.7775781  14.9015709  48.4520417  15.2631590  15.2836913  48.0009076
   8.3794117  14.2896067  52.6487204   7.5232012  14.4504565  52.6996321
   8.4261771  13.4188131  52.6692265   8.2593228  14.1846869  52.6593270
   2.7635257  23.8258785  48.4124436   2.0118156  23.4474323  48.1840481
   3.2121268  23.8577218  47.6643246   2.7184923  23.7744392  48.2681938
  11.6887833  20.5582593  62.2547660  12.3954601  20.0634623  62.3834595
  11.8775769  20.9991674  61.5250318  11.8215739  20.5500943  62.1656706
   8.2160216  24.2484154  43.8409983   7.8811585  24.9261076  43.4054205
   8.7287087  23.8589466  43.2526854   8.2425798  24.2908733  43.6896774
   7.7564508  26.1998423  49.7821094   8.1403887  26.7685322  49.2425870
   7.6923649  25.4747933  49.3026910   7.8037935  26.1773886  49.6314957
  11.2245938  16.3488111  55.2918856  11.7701898  17.0273197  55.3512825
  11.1662814  16.2075572  54.4320437  11.2961852  16.4280113  55.1730916
   4.3420013  23.8377177  50.6787208   4.4430376  23.0277531  50.9884336
   3.7461758  23.7434123  50.0486887   4.2692551  23.7042205  50.6313447
  13.0011006  17.7772718  46.1652584  12.8850532  18.5280404  46.5944722
  13.7966893  17.5196671  46.4148671  13.1015596  17.8507565  46.2656675
   4.1820752  28.7554766  52.0802064   4.8258208  29.1967930  52.4698223
   4.5077008  27.9508192  51.9932323   4.3252581  28.7019961  52.1247541
   4.8841332  21.7666741  47.4521926   5.2057173  22.3071948  46.8483234
   5.5313429  21.1963512  47.5844216   5.0267387  21.7625916  47.3828961
   6.9343040  13.7682736  47.5356313   7.6323205  13.9470863  48.0277776
   7.2495373  13.2453075  46.9126702   7.0838377  13.7176508  47.5158323
   7.1230975  20.1553181  47.5236104   7.5624611  19.5470281  47.9690877
   6.9735638  19.7760554  46.7521569   7.1652441  20.0091652  47.4755271
   4.5902618  18.7497193  54.7254930   5.2351621  18.2569636  54.4065878
   4.8304395  18.8921979  55.5521008   4.7213204  18.6974635  54.8004463
   7.1288710  21.5952099  54.3761822   7.4111953  20.8003504  54.1548578
   7.8574870  22.0732686  54.3966883   7.2778274  21.5486696  54.3464837
  10.7240312  18.5080362  44.4766873  10.6391607  19.3641329  44.6216442
  11.2124695  18.2324686  45.1449032  10.7829209  18.5937684  44.5968955
  12.3146311   5.1260655  49.8627198  11.9999752   5.8164134  50.2947620
  11.7973253   5.0705438  49.1612699  12.1910782   5.2195544  49.8224147
  11.6558745  15.1265156  45.9764608  11.1270217  15.3424790  46.6361915
  12.1783765  15.8201295  45.8965578  11.6547198  15.2608293  46.0620208
  17.1106798  20.7011461  51.3497653  16.2804501  20.9122105  51.5131069
  17.0616050  19.8748515  51.0739937  16.9813534  20.6101067  51.3335018
   3.5458353  19.0228373  44.7772076   2.9615568  19.5278405  45.1837940
   3.1428448  18.7970760  44.0368668   3.3997657  19.0636622  44.7277102
   5.1716536  23.5315315  54.1845562   4.6543477  23.1722730  53.5806871
   5.8690927  23.0077489  54.1951629   5.1982117  23.4013003  54.0975821
   8.8280128  23.9810129  60.1461735   8.9163474  23.7936270  60.9939946
   9.2569840  23.3347559  59.7466582   8.9042230  23.8573137  60.2133487
   6.3950587  23.2641289  59.1279398   5.8321422  22.8513899  59.6519059
   7.1571611  23.1894195  59.5472541   6.4245036  23.1918690  59.2672398
   8.0035567  15.2694025  43.2540997   8.2431571  15.4772009  42.4416340
   8.3251408  14.4651534  43.3629942   8.0872725  15.1808126  43.1501550
   1.9546579  25.2539310  51.7316028   2.6567158  24.7391299  51.7888784
   1.8744062  25.5813462  52.5362903   2.0470339  25.2253536  51.8588820
  16.6060756  13.3481862  55.1448074  15.7689178  13.4184049  55.3795669
  16.5748987  13.3506356  54.2722377  16.4779039  13.3592089  55.0507622
   1.2797354  21.4445662  51.2401636   2.1186254  21.6768595  51.2875397
   1.3109123  20.5749974  51.1708671   1.4079072  21.3502609  51.2366281
   1.9050057  21.8646537  55.5414941   2.4448282  21.7217668  56.2118314
   1.2220004  22.2643288  55.9098968   1.8842211  21.9026208  55.6949363
  11.3290942  17.5437538  50.7359966  12.0848457  17.9769052  50.7748874
  11.4353267  16.8942308  51.3094602  11.4561113  17.5115022  50.8257991
  14.3671113  21.3710815  51.4862369  13.9306345  21.3747558  52.2421340
  14.0334029  22.0516314  51.0541946  14.2533733  21.4723271  51.5343201
   8.9400187  23.4119148  62.8105519   9.7240604  23.5249996  63.1761261
   8.7396782  22.5860285  63.0064205   9.0266212  23.3065868  62.8939905
  14.2868596   8.4124643  53.7291797  14.9294505   8.4822748  54.3153712
  14.5391617   7.7453866  53.2271339  14.4190728   8.3250992  53.7419076
   1.2144949  12.8831913  42.3101121   0.5003127  12.5970092  42.7223554
   1.6988918  13.2228538  42.9507508   1.1804313  12.8913562  42.4656756
   9.0970580  25.3229250  56.4571975   8.2985826  25.0828750  56.7145843
   9.5456592  25.3743643  57.2039022   9.0445192  25.2951641  56.6056899
  17.5015460  18.0891735  50.3782006  18.1631894  17.5282404  50.2777914
  16.8606872  17.5943766  50.7034697  17.5044327  17.9328144  50.4114346
   8.3892267  21.3861867  42.6862929   8.8043416  21.0546890  41.9947425
   7.5584197  21.1530769  42.5583066   8.3280276  21.3033123  42.5653777
  13.7880290  19.1057118  50.1193995  14.0235879  19.2502316  49.2920845
  13.9369854  19.8699526  50.5125508  13.8446094  19.2396172  50.0557599
  15.6170747  17.9458784  47.9563599  15.9478964  18.4786424  47.3503693
  16.1903835  17.9997671  48.6125549  15.7504426  18.0328352  47.9641380
  10.8302636  15.7923686  48.6387179  10.9249491  16.5312980  49.0926804
  10.2061480  15.3641162  49.0721743  10.7511666  15.8385007  48.7695326
   9.0855110  18.9709899  59.2877460   9.6593972  18.3337143  59.4426023
   9.0069914  18.9713981  58.4187117   9.1588345  18.8775010  59.1823870
  11.0825657  17.6372426  41.8724131  11.0005820  17.7074613  42.7379118
  11.7205378  18.2002170  41.6807871  11.1645495  17.7311397  41.9714080
   4.4418829  17.4033164  51.3398657   4.1838073  16.5704899  51.3129956
   4.4967311  17.6290777  50.4991157   4.4118606  17.3130935  51.2118794
   9.5219879   9.5061615  51.4402750   8.8176205   9.0170800  51.5986669
   9.5704853   9.5184089  50.5691194   9.4249930   9.4351263  51.3342089
   3.4153541  14.9570926  51.8263552   2.8403132  15.1163095  52.4627513
   3.0389217  14.3206336  51.3632002   3.2756353  14.8868739  51.8518110
   7.0826829  13.4294276  56.6855930   6.6941262  13.0048493  56.0308121
   6.4181528  13.6776425  57.1932957   6.9273757  13.4032997  56.6643798
  16.7250099  13.1869280  49.4603760  16.4686663  12.3749222  49.2701643
  17.5679412  13.1946848  49.2333947  16.8116124  13.0681278  49.3988577
  10.9053191   7.1268904  54.1979914  11.2863703   6.4447076  54.5847789
  10.1016475   6.8378507  54.0155579  10.8429653   6.9835953  54.2283970
   8.1865768  17.6592880  44.8832737   9.0006406  17.9507773  44.7715508
   8.1224909  17.0052743  44.3091030   8.2968507  17.6058075  44.7821574
  14.4075258  20.3418876  59.2962313  14.1713895  19.5106941  59.1774373
  15.0518487  20.2904484  59.8817157  14.4669929  20.2116564  59.3648206
   4.0573676  21.1314398  50.0105049   4.6947623  20.8926145  50.5556843
   4.4828747  21.3351557  49.2758210   4.2149842  21.1265408  49.9822207
   4.6976491  16.3516688  44.3479939   5.0821644  16.1324394  45.0996484
   4.4488111  17.1779633  44.4781015   4.7178564  16.4414834  44.4781015
  15.4311678  20.1263325  55.3590607  15.1257495  20.8591382  55.7203923
  14.7117894  19.7201255  55.0783393  15.2799021  20.1745058  55.3703744
   6.4395148  21.6086820  51.6898835   6.5134156  21.4461992  52.5440685
   7.2564654  21.7977010  51.4459317   6.5711506  21.6123563  51.7796861
  21.1313471  16.7656326  54.6858951  21.0637971  16.7852285  53.8161538
  21.1169133  17.6086653  54.9114622  21.1192227  16.8930061  54.5911428
   4.9799734  24.5721563  46.4212309   5.2698032  24.1810545  45.6971535
   5.7103214  24.7538268  46.8617584   5.1306618  24.5415377  46.3795116
  18.9172088  15.5400712  52.9605546  19.4680009  14.9068781  53.2002638
  18.9016203  16.0716105  53.6521050  18.9957284  15.5249660  53.0984404
   5.5694479  19.3739309  57.5065439   5.0706172  20.0855077  57.5850328
   6.3794703  19.6939976  57.4683602   5.6150585  19.5266158  57.5122008
   2.9205649  26.5488946  49.4872459   2.7005945  26.2586301  50.2799126
   2.7000171  25.8903901  48.9590371   2.8553243  26.4088654  49.5261367
   1.8322596  18.6362262  51.7528160   1.5435845  18.0099734  52.2873888
   2.7005944  18.5782550  51.8192841   1.9182848  18.5349807  51.8419115
  12.6200494  13.7797046  52.0710142  12.2765260  13.0587381  52.4217392
  12.7193537  13.5710897  51.2288500  12.5842537  13.6421249  51.9981822
   5.0873605  27.9218336  48.2703151   5.7397663  27.3894778  48.4994177
   4.3899214  27.5686988  48.6571025   5.0804323  27.7907859  48.3615319
   2.0354870  20.2757513  47.6770525   2.7900838  20.6570552  47.8905988
   1.4425482  20.7268657  48.1317222   2.0591583  20.3986341  47.7753404
  13.0813523  20.2422750  47.6134130  13.6471556  20.9015960  47.5292673
  12.4341427  20.5872448  48.0850532  13.0692280  20.3904691  47.6706887
   3.3553096  21.4466075  53.0510641   2.8333850  21.5866366  53.7362505
   3.7427117  20.6876739  53.2412758   3.3356797  21.3551599  53.1811717
   9.5520101  23.1861534  47.0371209   9.3106777  22.4529395  46.6298274
   9.7321434  23.7348391  46.3837543   9.5427725  23.1583925  46.8801432
   4.7819422  18.4770094  48.4492132   4.5862205  19.0844828  47.8552435
   5.0053768  17.7838038  47.9683806   4.7854063  18.4647619  48.2908213
   3.1797952  15.3624832  48.5673000   3.9020604  15.5265990  48.1076806
   2.7005945  16.0834497  48.4612340   3.2161683  15.4923061  48.4838614
  11.1391460  11.6988631  53.9469685  10.3002560  11.7249909  53.7107948
  11.2095827  12.3459366  54.5275032  11.0259853  11.7984756  53.9978802
   0.8305569  17.7682904  57.6727140   1.3426666  18.0467157  57.0235900
   0.5441911  18.5072198  58.0389953   0.8640432  17.9185258  57.6317018
   9.5860738   8.5974008  48.6797301  10.2887091   8.3981756  48.2017259
   9.3204927   7.8249950  48.9866144   9.6507370   8.4536974  48.6542743
  15.0148983  16.9056617  51.2330927  14.9282958  17.0612043  52.0865706
  14.5599463  17.5494693  50.8590332  14.9352240  17.0232372  51.3038034
   8.8874799  14.2267364  49.8556486   8.6409514  14.1463115  50.6893275
   9.2159922  13.4420832  49.6619014   8.8996043  14.0993630  49.9504009
  12.7822848  20.9350724  53.6443268  12.6437208  21.6331770  54.1492010
  12.0022846  20.7799380  53.2879449  12.6466075  21.0150890  53.6669542
  11.1200933  17.2347099  59.8965649  11.1148972  16.3626916  59.9008076
  11.8261927  17.4335268  59.4235105  11.2245937  17.1350973  59.8272685
   4.8471827  16.9624083  59.2679469   4.9915202  17.5425291  58.6322579
   5.1947475  17.3400380  59.9729324   4.9199288  17.1044787  59.2778464
   7.0191744  16.1614251  57.0504601   6.2715058  16.3545266  56.6452879
   7.1733269  15.3359471  56.8128722   6.9314172  16.0679363  56.9550007
   3.9199582  25.1526855  56.1340496   4.0689145  24.5929771  55.4813901
   4.6999584  25.2318856  56.5173015   4.0573675  25.0812420  56.0937445
  14.2776221  20.2928978  44.4059767  13.8983030  19.5066115  44.3989056
  13.6142467  20.8415835  44.2631411  14.1234696  20.2573801  44.3840564
   6.4452882  25.3241498  57.4124987   6.3696553  24.6550308  57.9675775
   6.3742741  26.0259286  57.9265653   6.4233489  25.3286405  57.5701835
   7.1023129  23.8442497  48.2448593   7.8673020  23.5752140  47.9231257
   7.0001219  23.3592507  48.9618656   7.2004625  23.7332061  48.3028421
   5.1375899  12.0466906  54.7841829   4.3471974  11.8658366  55.1059165
   5.5336522  11.2693859  54.7672123   5.0792775  11.9054367  54.8294377
   9.6241790  20.8754680  40.2248542  10.3914775  20.9354805  39.8154394
   9.1773099  20.3035122  39.7404861   9.6715217  20.7991256  40.0926253
  10.5219585  19.6809336  52.5101275   9.8464587  19.4494568  53.0114662
  10.5311961  19.0730519  51.8843380  10.4238090  19.5568261  52.4917427
   7.6513729  14.5227165  59.2665328   7.5872871  15.3837122  59.1385464
   7.7910917  14.2059158  58.4660879   7.6629199  14.6027332  59.1293540
  12.5236320  22.5374469  44.7411453  12.6056157  23.3441455  44.4172903
  13.0086062  22.5570428  45.4652226  12.6073478  22.6595131  44.7998351
   6.3332823  17.2159304  53.4081531   5.9095072  17.4163804  52.6720549
   6.1577678  16.3688152  53.5205830   6.2443704  17.1208086  53.3155221
   5.8344517  28.7309817  55.8702988   6.3240447  28.0320607  55.6878652
   5.2628749  28.4333687  56.4579045   5.8229047  28.5836041  55.9304029
   1.6215268  17.7111356  48.8409503   1.7779887  17.6458159  49.6965495
   1.9615861  18.4859908  48.6288183   1.6948503  17.8160554  48.9364097
   8.1594413  17.0869239  47.7102866   8.7009958  16.5839621  48.1741487
   8.4740972  17.0334434  46.8992352   8.2858810  17.0048660  47.6586678
  12.0311520  21.2971887  64.8229778  12.8446385  21.0257036  64.9834911
  11.8706487  20.9979427  64.0189974  12.1281469  21.2126813  64.7275184
   6.3280862  22.4786591  44.9942894   6.3973683  21.6201129  45.1335895
   7.1069318  22.6958472  44.6661919   6.4533713  22.3839455  44.9660052
   9.3083682  11.9805544  57.7625167   9.5225652  11.3416458  57.2088521
   8.6917581  12.4251368  57.3333028   9.2489011  11.9515688  57.6175598
  10.7188350  24.9024292  49.2079388  10.3268142  24.5991007  48.4902254
  10.8741422  25.7393382  49.0184341  10.6841940  24.9808129  49.0735885
  11.4722770  13.5894609  58.7008474  10.6599452  13.2820500  58.7821647
  11.9312705  13.1093609  59.2651186  11.4203155  13.4731102  58.7963068
  10.8828025  21.4674281  49.1485418  10.5242680  21.6388924  49.9249451
  10.3966736  21.9287487  48.5913417  10.7586722  21.5613252  49.1810687
   5.6716390  17.1473447  41.6885653   5.9608915  17.9238329  41.9629227
   5.7588189  16.6362178  42.3900152   5.7270646  17.1865365  41.8328150
  12.0432764  22.3578177  60.0952619  12.6812485  21.8638373  59.7615075
  11.4006856  22.2855578  59.5104846  12.0426991  22.2737186  59.9594974
  13.7689764  14.2067323  54.6618535  13.3417372  14.1193672  53.9066634
  13.1315817  14.3145099  55.2473379  13.6119372  14.2099983  54.6363976
  12.0987021  23.0497985  56.7357976  12.8879399  22.6987050  56.8560057
  12.2730619  23.8634374  56.4734610  12.2407302  23.1183843  56.7145844
   1.8380331  16.4606711  53.7885765   0.9968338  16.3610585  53.9964658
   2.0470339  17.2302191  54.1400085   1.7445024  16.5598754  53.8713080
  10.9520845   7.0607542  51.2974394  11.1570438   6.9929850  52.1431391
  10.6247269   7.8666363  51.2295572  10.9336093   7.1693483  51.4134049
   5.6496996  14.3888110  53.0383362   5.3460134  13.8344099  53.6393770
   4.9476417  14.5680320  52.5511396   5.5013206  14.3332893  53.0553068
   4.7063093  11.6988630  47.6028064   4.9822827  10.9807543  47.1905632
   5.3061762  12.2973550  47.3949170   4.8356358  11.6809001  47.5108825
   3.7115347  21.6037831  57.7455460   3.6035702  21.6139893  58.6117518
   3.9211129  22.4292611  57.5560414   3.7265458  21.7278906  57.8459552
  14.2054533   7.6139306  50.7777160  13.5928846   8.1009708  51.1630892
  14.3018708   6.9382797  51.3214811  14.1292430   7.5857615  50.9156018
   8.2073614   9.3702147  45.8774659   8.6617360   9.5412708  46.6022504
   8.6813659   8.7570258  45.4772435   8.3441934   9.3053033  45.9248421
   1.7289139  18.8550473  55.2077398   1.1377072  19.4959972  55.1780413
   2.4910163  19.2788091  55.1808697   1.7537400  19.0126312  55.1992545
  17.8479561  18.6856243  56.2054676  17.9062684  19.1342892  56.9514652
  17.2146028  19.0955056  55.7684756  17.7630856  18.8129978  56.2507224
  11.4878655  24.3059785  52.6409422  11.2898344  24.7950599  51.9465633
  10.8666366  24.5101027  53.2193555  11.3666220  24.4076323  52.6232645
   5.5486634  16.0744682  46.9819666   6.2928679  16.4618958  47.2202616
   5.6947330  15.2302107  47.1460154   5.6797219  16.0075155  47.0413636
   8.5364510  11.6470155  52.8813586   8.0624464  11.1211917  53.3918897
   8.9082645  11.0999628  52.3128447   8.5214398  11.4886152  52.8728733
  14.8001240  16.7072531  54.2920366  14.5599463  15.8678946  54.2962793
  15.2793247  16.7872698  55.0161140  14.8353424  16.5953931  54.3995168
  10.4648009  12.5406710  45.9439339   9.9371028  12.6235454  45.2545048
  10.9243717  13.2824581  45.9403984  10.4549860  12.6627372  45.8414035
  16.8006427  13.4873988  52.2449625  16.5616197  13.4469822  51.4070410
  16.9640328  14.3345140  52.3715346  16.7896731  13.6066073  52.1403107
  13.4052457  17.8723937  58.1754670  14.1286656  17.4196464  57.9965690
  13.1402420  18.1528603  57.3926998  13.4733731  17.8474906  58.0333386
   2.2739326  12.4684111  54.9107550   1.6492396  12.4802503  54.3033502
   1.9384921  12.9444286  55.5598790   2.1324817  12.5402628  54.9164118
  10.0185092  21.1110273  45.0748996  10.7419291  21.5768386  44.9313570
   9.5785683  21.1783883  44.3246593  10.0600784  21.1894110  44.9433778
   9.1871247  17.9707816  56.3249685   8.5728240  17.4265866  56.6198321
   9.7038532  17.4572052  55.8455502   9.1726909  17.8144225  56.2973914
   8.4267544  19.0412086  54.0593984   7.9995152  18.4161804  53.6259419
   8.4192488  18.7587007  54.8852991   8.3626685  18.9064866  54.1173812
   6.7553254   9.9180840  54.2736518   6.7795741   9.3840952  53.5849298
   7.0064727   9.4098149  54.9362109   6.7963172   9.7641744  54.2701163
   4.4568939  15.1612168  55.9516161   3.6260869  15.3285986  55.7451410
   4.4020456  14.7848119  56.7365047   4.3258354  15.1301899  56.0364690
   2.8304983  13.4367760  46.4806279   2.9707944  13.9340224  47.1834920
   3.3287516  12.7354054  46.6220493   2.9246064  13.4069739  46.6057858
   2.8605205  14.3034871  43.8098856   3.4950285  14.8995296  43.7448318
   2.9430816  14.0038328  44.6244726   2.9661756  14.3475779  43.9201942
  15.8387771  16.8350348  56.6785220  16.4305611  17.4747599  56.7103418
  16.2746766  16.1373385  56.9677287  15.9906202  16.8268698  56.7266053
   4.4384188  10.2348846  43.7844298   4.7600029   9.7551929  43.1303560
   4.7011132  11.0448492  43.5935110   4.5250214  10.2838744  43.6599790
   7.6681161  21.2567721  57.3043114   7.1606252  21.8103567  57.7483745
   7.3707807  21.3176010  56.4861889   7.5486046  21.3474032  57.2491571
   9.8343343   9.6221040  56.1467777  10.2598415   9.1693567  55.5351303
   9.2200336   9.0681111  56.4232564   9.8071989   9.4735016  56.0972802
  10.2788941  25.1730978  45.2347058   9.5618251  24.9991840  44.7694295
  10.9295679  24.9383550  44.7022544  10.2690792  25.1126771  45.0876275
  12.8636913  14.0495567  48.9788363  12.1928102  14.5925269  48.8501428
  13.5576663  14.5190422  48.7370057  12.8665780  14.1993838  48.9243890
  13.0265040  10.5051450  51.8878736  13.3792650  10.0781173  52.5624535
  12.1679842  10.4202294  52.0179812  12.9514485  10.4296191  52.0073746
   1.7248725  13.1358970  49.9461582   1.0060714  13.5523103  50.2134446
   2.0961087  13.7013209  49.3953221   1.6740657  13.2808252  49.9044389
  11.0248306  13.7686819  55.8363578  11.0046233  13.5870114  56.6898357
  11.0727507  14.6398837  55.8123162  11.0282947  13.8703357  55.9586873
   8.9694636  20.3574011  61.7612055   8.9290491  19.7123688  61.1757211
   9.7817954  20.3010628  62.0737467   9.0837789  20.2532978  61.7209004
   5.5602103  26.4092737  51.6637206   5.1462502  25.7466867  51.2741047
   6.2449477  26.5570596  51.1432900   5.6000475  26.3333395  51.5293703
   8.9267397  25.5682822  52.4160822   8.5283681  25.6785092  51.6481642
   8.3118617  25.7764888  52.9987382   8.7766287  25.6156390  52.3892121
   7.4995299  12.1756970  45.2834962   6.9060139  12.4973966  44.7319529
   7.5370577  11.3298065  45.0756068   7.4169689  12.0981298  45.1717733
  14.4589100   5.6269862  52.8163048  13.9519965   4.9199002  52.7484226
  15.2556534   5.2963051  52.9464125  14.5016339   5.4743014  52.8262043
  10.3753116  12.1336474  48.7136712  10.1466809  12.1569176  47.8715070
  10.6351192  11.3093941  48.8331723  10.3799304  12.0152554  48.6061910
   3.4297878  10.6713021  50.0090908   3.9055245  11.0330101  49.3741089
   2.9286478  11.3269488  50.2891050   3.4263237  10.8207210  49.9567649
  16.6609240  20.1434789  45.8003913  17.0442846  20.8926145  46.0302010
  15.8653353  20.3900609  45.5415902  16.6003022  20.2904483  45.7961486
   5.4724532  12.8154221  43.3764292   5.8523496  12.8333850  42.5915406
   4.7317128  13.2608209  43.2555139   5.4193369  12.8835995  43.2427860
  13.1009822  11.1236412  48.9639870  13.1004049  10.9685068  49.8224147
  12.8966002  11.9699399  48.9081256  13.0709600  11.2257033  49.0827810
  10.8250674  15.8033914  52.6176077  11.3204340  15.0856909  52.5780098
  10.0150450  15.5004711  52.5030564  10.7794568  15.6531560  52.5949803
   6.2709286  19.6531727  44.7673082   5.4620608  19.3298400  44.7206391
   6.7784195  18.9464949  44.7001330   6.2258953  19.5013043  44.7503376
  12.8902493  18.5537601  55.3053206  13.3157565  18.0312023  54.7523631
  12.5259413  19.1518438  54.7841829  12.8989096  18.5647828  55.1462216
   2.5256573  26.8501819  54.0650552   2.8403132  27.6638207  54.0728333
   2.9349986  26.4652037  54.7332711   2.6324671  26.9130521  54.1654643
   9.4781093  22.2671865  51.6354363   9.9492271  22.9812128  51.8044349
   9.8141271  21.6670615  52.1714233   9.5976208  22.2843330  51.7386739
  11.5658077  23.8773179  63.8146436  11.6755043  23.0881739  64.1703183
  11.8948974  23.7879115  63.0120774  11.6310483  23.7479032  63.7488826
  10.1155039  22.0589799  58.3982056   9.5675985  21.4347683  58.1302121
  10.5768068  22.2484072  57.6826136  10.1022248  21.9948850  58.2532487
  12.9248903  10.1275154  55.7833248  12.3411892  10.6284360  55.3710816
  13.2453197   9.6204710  55.1497572  12.8862079  10.1266989  55.6291756
   5.4643702   9.0415749  46.0591923   6.2859397   9.2114062  45.8173618
   5.0013353   9.1963010  45.3358221   5.5174865   9.0897482  45.9163568
   9.6813365  23.0640872  54.9291397  10.5011739  22.9203838  55.1907692
   9.4007443  23.6887071  55.4707835   9.7610109  23.1351224  55.0479337
  26.1527016  30.7205724  47.8934274  26.1221020  31.5750361  48.0652543
  26.7508364  30.4201016  48.4520417  26.2364173  30.8022220  48.0009076
  19.3526700  29.8081375  52.6487204  18.4964596  29.9689873  52.6996321
  19.3994354  28.9373439  52.6692265  19.2325812  29.7032177  52.6593270
  13.7367840  39.3444093  48.4124436  12.9850740  38.9659631  48.1840481
  14.1853852  39.3762526  47.6643246  13.6917507  39.2929700  48.2681938
  22.6620417  36.0767901  62.2547660  23.3687184  35.5819931  62.3834595
  22.8508352  36.5176982  61.5250318  22.7948323  36.0686251  62.1656706
  19.1892800  39.7669462  43.8409983  18.8544168  40.4446384  43.4054205
  19.7019670  39.3774774  43.2526854  19.2158381  39.8094040  43.6896774
  18.7297091  41.7183731  49.7821094  19.1136471  42.2870630  49.2425870
  18.6656232  40.9933241  49.3026910  18.7770518  41.6959194  49.6314957
  22.1978521  31.8673419  55.2918856  22.7434481  32.5458505  55.3512825
  22.1395398  31.7260880  54.4320437  22.2694436  31.9465420  55.1730916
  15.3152596  39.3562485  50.6787208  15.4162959  38.5462839  50.9884336
  14.7194342  39.2619431  50.0486887  15.2425135  39.2227513  50.6313447
  23.9743590  33.2958026  46.1652584  23.8583116  34.0465712  46.5944722
  24.7699477  33.0381979  46.4148671  24.0748180  33.3692873  46.2656675
  15.1553336  44.2740074  52.0802064  15.7990791  44.7153238  52.4698223
  15.4809591  43.4693500  51.9932323  15.2985165  44.2205269  52.1247541
   8.5117641  35.3782771  50.3039542   8.2767825  34.5450424  50.1971811
   8.6503281  35.6587437  49.4900743   8.4973303  35.2966275  50.1681897
  10.8107728  27.5468502  53.2023850  10.1912760  26.9561149  53.0333864
  10.7091592  28.1379937  52.5688173  10.7045404  27.5472585  53.0828839
  15.8573916  37.2852049  47.4521926  16.1789757  37.8257256  46.8483234
  16.5046012  36.7148820  47.5844216  15.9999971  37.2811224  47.3828961
  17.9075624  29.2868044  47.5356313  18.6055788  29.4656171  48.0277776
  18.2227956  28.7638383  46.9126702  18.0570961  29.2361816  47.5158323
  10.5376861  31.0920784  55.4467418  10.4135558  31.6783229  56.0817237
  11.1895146  30.5980980  55.7479693  10.6150510  31.1059588  55.5853348
  18.0963559  35.6738489  47.5236104  18.5357195  35.0655589  47.9690877
  17.9468222  35.2945862  46.7521569  18.1385025  35.5276960  47.4755271
  15.5635202  34.2682501  54.7254930  16.2084205  33.7754944  54.4065878
  15.8036979  34.4107287  55.5521008  15.6945787  34.2159943  54.8004463
  18.1021293  37.1137407  54.3761822  18.3844536  36.3188812  54.1548578
  18.8307454  37.5917994  54.3966883  18.2510857  37.0672004  54.3464837
  16.0802487  24.6560441  51.6177587  15.7505817  25.1071584  50.9481286
  15.4047489  24.5776604  52.1650594  15.9312924  24.7111576  51.6000811
  21.6972896  34.0265670  44.4766873  21.6124191  34.8826637  44.6216442
  22.1857279  33.7509994  45.1449032  21.7561793  34.1122992  44.5968955
  23.2878895  20.6445963  49.8627198  22.9732336  21.3349442  50.2947620
  22.7705837  20.5890746  49.1612699  23.1643365  20.7380852  49.8224147
  22.6291329  30.6450464  45.9764608  22.1002800  30.8610098  46.6361915
  23.1516349  31.3386603  45.8965578  22.6279782  30.7793601  46.0620208
  14.5190937  34.5413681  44.7772076  13.9348152  35.0463713  45.1837940
  14.1161032  34.3156068  44.0368668  14.3730240  34.5821929  44.7277102
  10.0734965  40.2568442  51.5795748   9.5902543  40.9818932  51.5555332
  10.8858283  40.5544572  51.6905906  10.1225713  40.4070796  51.5923027
  16.1449119  39.0500623  54.1845562  15.6276061  38.6908038  53.5806871
  16.8423511  38.5262797  54.1951629  16.1714700  38.9198311  54.0975821
  19.8012711  39.4995437  60.1461735  19.8896057  39.3121577  60.9939946
  20.2302424  38.8532867  59.7466582  19.8774814  39.3758445  60.2133487
  17.3683171  38.7826597  59.1279398  16.8054006  38.3699207  59.6519059
  18.1304195  38.7079503  59.5472541  17.3977620  38.7103998  59.2672398
  18.9768151  30.7879333  43.2540997  19.2164155  30.9957317  42.4416340
  19.2983992  29.9836842  43.3629942  19.0605309  30.6993434  43.1501550
  14.2858441  22.7172729  47.1000535  15.0404409  23.0851046  46.8617585
  14.1085976  23.0912283  47.8679715  14.3712920  22.8270917  47.1785423
  12.9279163  40.7724618  51.7316028  13.6299742  40.2576607  51.7888784
  12.8476646  41.0998770  52.5362903  13.0202923  40.7438844  51.8588820
  13.9758069  31.0100205  60.8596443  14.1478573  30.9006100  61.7081724
  14.5127427  31.6554611  60.6227635  14.0803073  31.0892207  60.9501540
  12.6415506  25.1243048  43.7978648  12.4591079  25.3414929  42.9719641
  13.5041119  25.2382061  43.8537262  12.7420095  25.1732946  43.6833135
  12.2529938  36.9630970  51.2401636  13.0918837  37.1953903  51.2875397
  12.2841707  36.0935282  51.1708671  12.3811656  36.8687917  51.2366281
  12.8782641  37.3831845  55.5414941  13.4180866  37.2402976  56.2118314
  12.1952587  37.7828596  55.9098968  12.8574795  37.4211516  55.6949363
  18.3215225  22.1269459  46.8327672  19.0501386  21.9485414  46.3865828
  18.4110118  22.9687538  47.0434850  18.4421887  22.2253337  46.7981189
  22.3023526  33.0622846  50.7359966  23.0581041  33.4954360  50.7748874
  22.4085850  32.4127616  51.3094602  22.4293696  33.0300330  50.8257991
  25.3403697  36.8896123  51.4862369  24.9038929  36.8932866  52.2421340
  25.0066612  37.5701622  51.0541946  25.2266317  36.9908579  51.5343201
  19.9132771  38.9304456  62.8105519  20.6973187  39.0435304  63.1761261
  19.7129365  38.1045593  63.0064205  19.9998796  38.8251175  62.8939905
   8.2819786  33.6032136  55.6949363   8.0158201  32.7871253  55.8540353
   8.2958350  33.6485292  54.8244878   8.2444508  33.4889041  55.5902845
  25.2601180  23.9309951  53.7291797  25.9027088  24.0008056  54.3153712
  25.5124201  23.2639174  53.2271339  25.3923312  23.8436300  53.7419076
  12.1877533  28.4017221  42.3101121  11.4735710  28.1155400  42.7223554
  12.6721502  28.7413846  42.9507508  12.1536896  28.4098870  42.4656756
  13.0318392  27.1410514  58.3416371  12.3390189  26.6707494  58.5877102
  13.6478720  26.9148819  58.9158078  13.0202922  27.0377646  58.4625523
  20.0703164  40.8414558  56.4571975  19.2718410  40.6014058  56.7145843
  20.5189175  40.8928951  57.2039022  20.0177775  40.8136949  56.6056899
  19.3624851  36.9047175  42.6862929  19.7775999  36.5732198  41.9947425
  18.5316781  36.6716077  42.5583066  19.3012860  36.8218431  42.5653777
   8.6913200  34.3890916  52.9761107   8.5088773  34.3637802  52.1233399
   9.4262869  34.8589853  53.0150016   8.7727264  34.4552278  52.8559026
  24.7612874  34.6242426  50.1193995  24.9968463  34.7687624  49.2920845
  24.9102438  35.3884834  50.5125508  24.8178677  34.7581480  50.0557599
  11.7558951  31.1075918  59.4843216  12.4798924  31.0928949  59.9708111
  11.8575088  31.8171274  58.9865184  11.8777160  31.2100622  59.4822003
  26.5903331  33.4644091  47.9563599  26.9211548  33.9971732  47.3503693
  27.1636419  33.5182979  48.6125549  26.7237010  33.5513660  47.9641380
  19.1303901  34.5875003  64.3492163  18.3376882  34.9018515  64.5344782
  19.2452828  34.8026471  63.5112947  19.0299311  34.6658840  64.2530498
  21.8035220  31.3108994  48.6387179  21.8982074  32.0498288  49.0926804
  21.1794063  30.8826470  49.0721743  21.7244250  31.3570315  48.7695326
  20.0587694  34.4895207  59.2877460  20.6326555  33.8522451  59.4426023
  19.9802497  34.4899289  58.4187117  20.1320928  34.3960318  59.1823870
   8.6584110  31.2684416  53.1260174   9.2357613  31.1320867  53.7652419
   7.9598172  30.8120200  53.3805758   8.6405131  31.1806682  53.2582463
  22.0558241  33.1557734  41.8724131  21.9738404  33.2259921  42.7379118
  22.6937962  33.7187478  41.6807871  22.1378078  33.2496705  41.9714080
  15.4151412  32.9218472  51.3398657  15.1570656  32.0890207  51.3129956
  15.4699895  33.1476085  50.4991157  15.3851190  32.8316243  51.2118794
  20.4952462  25.0246923  51.4402750  19.7908789  24.5356108  51.5986669
  20.5437437  25.0369397  50.5691194  20.3982514  24.9536571  51.3342089
  14.3886124  30.4756234  51.8263552  13.8135716  30.6348403  52.4627513
  14.0121801  29.8391643  51.3632002  14.2488937  30.4054047  51.8518110
  18.0559413  28.9479584  56.6855930  17.6673846  28.5233801  56.0308121
  17.3914111  29.1961733  57.1932957  17.9006341  28.9218305  56.6643798
  27.6982682  28.7054588  49.4603760  27.4419247  27.8934530  49.2701643
  28.5411996  28.7132155  49.2333947  27.7848708  28.5866586  49.3988577
   4.1342943  30.1196309  49.8407992   4.2203195  29.7428177  50.6221522
   4.7618741  29.7456755  49.3627951   4.2399494  30.0081791  49.8853470
  21.8785775  22.6454212  54.1979914  22.2596286  21.9632384  54.5847789
  21.0749059  22.3563815  54.0155579  21.8162236  22.5021261  54.2283970
  19.1598351  33.1778188  44.8832737  19.9738990  33.4693081  44.7715508
  19.0957492  32.5238051  44.3091030  19.2701090  33.1243383  44.7821574
  25.3807841  35.8604184  59.2962313  25.1446479  35.0292249  59.1774373
  26.0251070  35.8089792  59.8817157  25.4402512  35.7301872  59.3648206
  15.0306259  36.6499706  50.0105049  15.6680206  36.4111453  50.5556843
  15.4561331  36.8536865  49.2758210  15.1882426  36.6450716  49.9822207
   9.7218902  38.8888042  53.8939353   9.7623047  39.1602893  53.0659133
  10.2813426  39.4129950  54.3097141   9.8102248  39.0063797  53.8331241
  15.6709075  31.8701995  44.3479939  16.0554227  31.6509702  45.0996484
  15.4220695  32.6964941  44.4781015  15.6911147  31.9600142  44.4781015
  15.8377615  25.1508411  64.0642523  15.5231056  25.9207973  63.8012086
  15.5167547  24.5878667  63.4794750  15.7436534  25.1818679  63.9383873
  17.4127731  37.1272128  51.6898835  17.4866740  36.9647300  52.5440685
  18.2297238  37.3162318  51.4459317  17.5444090  37.1308871  51.7796861
  11.1733488  37.4729991  48.7193279  10.3471606  37.7191728  48.5927558
  11.2345479  37.3942072  49.5855337  11.0607655  37.4974940  48.8282223
  13.3909512  23.5398932  49.6788719  12.5231937  23.6121532  49.7446328
  13.6784716  24.3421011  49.8676694  13.3049260  23.6693079  49.7163486
  22.5142401  23.6876792  58.0100041  23.2595993  23.4986602  57.5963466
  22.0979705  24.2135029  57.4513897  22.5627375  23.7378937  57.8664614
  15.9532317  40.0906871  46.4212309  16.2430616  39.6995853  45.6971535
  16.6835798  40.2723576  46.8617584  16.1039201  40.0600685  46.3795116
  16.5427062  34.8924617  57.5065439  16.0438756  35.6040385  57.5850328
  17.3527287  35.2125284  57.4683602  16.5883169  35.0451466  57.5122008
  13.8938233  42.0674254  49.4872459  13.6738528  41.7771609  50.2799126
  13.6732755  41.4089209  48.9590371  13.8285827  41.9273962  49.5261367
  12.8055180  34.1547570  51.7528160  12.5168429  33.5285042  52.2873888
  13.6738528  34.0967858  51.8192841  12.8915432  34.0535115  51.8419115
  23.5933078  29.2982354  52.0710142  23.2497844  28.5772689  52.4217392
  23.6926120  29.0896205  51.2288500  23.5575121  29.1606557  51.9981822
  16.0606188  43.4403644  48.2703151  16.7130246  42.9080086  48.4994177
  15.3631797  43.0872296  48.6571025  16.0536906  43.3093167  48.3615319
  13.0087453  35.7942821  47.6770525  13.7633421  36.1755860  47.8905988
  12.4158066  36.2453965  48.1317222  13.0324167  35.9171649  47.7753404
  24.0546107  35.7608058  47.6134130  24.6204139  36.4201268  47.5292673
  23.4074010  36.1057756  48.0850532  24.0424863  35.9089999  47.6706887
  15.4694120  27.7505662  62.8027738  14.6593896  28.0563441  62.6917580
  15.9468807  28.4711244  62.9180322  15.4197599  27.9020263  62.8034809
  14.3285680  36.9651383  53.0510641  13.8066433  37.1051674  53.7362505
  14.7159700  36.2062047  53.2412758  14.3089381  36.8736907  53.1811717
  11.3176864  27.0157191  47.1205595  11.0301660  26.6458462  46.3837543
  12.0047332  27.4852047  46.8589300  11.3765761  27.0304161  46.9720671
  20.5252685  38.7046842  47.0371209  20.2839361  37.9714703  46.6298274
  20.7054018  39.2533699  46.3837543  20.5160309  38.6769233  46.8801432
  15.7552006  33.9955402  48.4492132  15.5594788  34.6030136  47.8552435
  15.9786351  33.3023346  47.9683806  15.7586647  33.9832927  48.2908213
  14.1530536  30.8810140  48.5673000  14.8753187  31.0451298  48.1076806
  13.6738528  31.6019804  48.4612340  14.1894266  31.0108369  48.4838614
  22.1124043  27.2173938  53.9469685  21.2735144  27.2435217  53.7107948
  22.1828410  27.8644674  54.5275032  21.9992437  27.3170064  53.9978802
  11.8038152  33.2868212  57.6727140  12.3159249  33.5652465  57.0235900
  11.5174495  34.0257506  58.0389953  11.8373015  33.4370566  57.6317018
  20.5593321  24.1159315  48.6797301  21.2619674  23.9167064  48.2017259
  20.2937510  23.3435258  48.9866144  20.6239954  23.9722281  48.6542743
   8.8905059  27.7938404  47.9690876   8.9921195  28.5964565  48.2971852
   9.6860945  27.5925740  47.6713957   9.0232964  27.8824303  47.9726232
  15.3221878  25.3794601  57.7328182  15.1305075  25.3949735  58.5827605
  16.1720474  25.5758275  57.7094836  15.4197600  25.4108952  57.8551476
   9.7068791  27.9085582  55.7111998   9.5654282  27.0569523  55.8356506
   9.9909354  27.9514243  54.8874204   9.7276637  27.7885332  55.6079622
  19.8607383  29.7452672  49.8556486  19.6142097  29.6648423  50.6893275
  20.1892506  28.9606140  49.6619014  19.8728627  29.6178938  49.9504009
  23.7555432  36.4536032  53.6443268  23.6169791  37.1517077  54.1492010
  22.9755430  36.2984688  53.2879449  23.6198659  36.5336198  53.6669542
  22.0933517  32.7532407  59.8965649  22.0881555  31.8812224  59.9008076
  22.7994511  32.9520576  59.4235105  22.1978521  32.6536281  59.8272685
  15.8204410  32.4809391  59.2679469  15.9647786  33.0610599  58.6322579
  16.1680059  32.8585688  59.9729324  15.8931872  32.6230095  59.2778464
  17.9924328  31.6799559  57.0504601  17.2447642  31.8730574  56.6452879
  18.1465853  30.8544779  56.8128722  17.9046755  31.5864671  56.9550007
  14.8932165  40.6712163  56.1340496  15.0421729  40.1115079  55.4813901
  15.6732167  40.7504164  56.5173015  15.0306259  40.5997728  56.0937445
  25.2508805  35.8114285  44.4059767  24.8715613  35.0251423  44.3989056
  24.5875050  36.3601142  44.2631411  25.0967279  35.7759109  44.3840564
  17.4185466  40.8426806  57.4124987  17.3429137  40.1735616  57.9675775
  17.3475325  41.5444594  57.9265653  17.3966073  40.8471713  57.5701835
  18.2326105  25.5750110  57.9400005  18.6898719  26.3074084  58.0672797
  18.3082433  25.1516575  58.6987260  18.3117075  25.6207348  58.0701081
  10.4759096  25.8215930  59.0289448   9.9401285  25.2096288  59.3450216
  10.5376861  26.3964066  59.6823115  10.4054729  25.8162857  59.1724875
  22.7053431  18.7539985  51.8093848  22.8236999  19.2116448  51.0761150
  22.5315606  17.9485246  51.5230065  22.6972602  18.7033757  51.6594781
  18.0755713  39.3627804  48.2448593  18.8405604  39.0937448  47.9231257
  17.9733803  38.8777815  48.9618656  18.1737208  39.2517369  48.3028421
  16.1108483  27.5652214  54.7841829  15.3204557  27.3843674  55.1059165
  16.5069105  26.7879166  54.7672123  16.0525359  27.4239675  54.8294377
  21.4952169  35.1994644  52.5101275  20.8197171  34.9679876  53.0114662
  21.5044545  34.5915827  51.8843380  21.3970673  35.0753569  52.4917427
  18.6246313  30.0412473  59.2665328  18.5605454  30.9022429  59.1385464
  18.7643501  29.7244466  58.4660879  18.6361783  30.1212640  59.1293540
  17.3065407  32.7344612  53.4081531  16.8827656  32.9349111  52.6720549
  17.1310262  31.8873460  53.5205830  17.2176287  32.6393394  53.3155221
  16.8077100  44.2495125  55.8702988  17.2973031  43.5505915  55.6878652
  16.2361332  43.9518995  56.4579045  16.7961630  44.1021349  55.9304029
  12.5947852  33.2296664  48.8409503  12.7512471  33.1643467  49.6965495
  12.9348445  34.0045216  48.6288183  12.6681087  33.3345862  48.9364097
  19.1326996  32.6054547  47.7102866  19.6742542  32.1024928  48.1741487
  19.4473555  32.5519742  46.8992352  19.2591393  32.5233968  47.6586678
  23.0044104  36.8157195  64.8229778  23.8178969  36.5442344  64.9834911
  22.8439070  36.5164735  64.0189974  23.1014052  36.7312121  64.7275184
  17.3013446  37.9971899  44.9942894  17.3706266  37.1386437  45.1335895
  18.0801901  38.2143780  44.6661919  17.4266296  37.9024763  44.9660052
  20.2816266  27.4990852  57.7625167  20.4958235  26.8601766  57.2088521
  19.6650165  27.9436676  57.3333028  20.2221595  27.4700996  57.6175598
  21.6920934  40.4209600  49.2079388  21.3000725  40.1176315  48.4902254
  21.8474006  41.2578690  49.0184341  21.6574523  40.4993437  49.0735885
   9.1682113  30.4131614  49.1570270   9.5481078  30.8316159  48.4930538
   8.5937478  30.9945070  49.4639114   9.1393438  30.5609473  49.1047011
  22.4455354  29.1079917  58.7008474  21.6332035  28.8005807  58.7821647
  22.9045288  28.6278917  59.2651186  22.3935738  28.9916409  58.7963068
  21.8560608  36.9859589  49.1485418  21.4975263  37.1574232  49.9249451
  21.3699319  37.4472795  48.5913417  21.7319305  37.0798560  49.1810687
  19.6730994  20.6090788  52.7512510  18.8024552  20.5829509  52.7045819
  19.9271336  20.4367980  51.9338355  19.5824554  20.5800931  52.6232646
  16.6448974  32.6658754  41.6885653  16.9341499  33.4423637  41.9629227
  16.7320773  32.1547486  42.3900152  16.7003230  32.7050673  41.8328150
  19.5408861  30.5139989  63.4837176  20.0108492  31.1382105  63.8705050
  19.5870741  29.8456964  64.0430391  19.6176737  30.5074669  63.6237248
  16.6980135  22.6197016  54.2085980  16.1818623  21.9277207  54.3337559
  16.1374064  23.2867793  54.1548579  16.5386648  22.6160274  54.2192046
  18.7672368  23.1589976  56.0378832  18.3804121  23.1839008  56.8192362
  18.2805306  22.5931655  55.5853349  18.6384877  23.0785727  56.0866736
  23.0165348  37.8763485  60.0952619  23.6545068  37.3823681  59.7615075
  22.3739439  37.8040886  59.5104846  23.0159574  37.7922494  59.9594974
  24.7422348  29.7252631  54.6618535  24.3149956  29.6378980  53.9066634
  24.1048401  29.8330407  55.2473379  24.5851955  29.7285291  54.6363976
  18.4329510  20.0456962  58.3289092  19.0622628  20.5817262  58.0510163
  18.6015373  19.9534320  59.1802658  18.5507305  20.1118324  58.4137621
  18.2343425  24.8328156  60.6015504  19.0616854  24.5613305  60.6574118
  18.2551271  25.6288998  60.9579322  18.3596275  24.9107910  60.6630687
  23.0719604  38.5683293  56.7357976  23.8611983  38.2172358  56.8560057
  23.2463202  39.3819682  56.4734610  23.2139886  38.6369150  56.7145844
  12.8112915  31.9792019  53.7885765  11.9700921  31.8795893  53.9964658
  13.0202923  32.7487499  54.1400085  12.7177607  32.0784062  53.8713080
  10.2888482  29.6011556  51.6170515   9.8945179  29.6754568  50.8420625
   9.7328599  29.9869502  52.1678877  10.1491294  29.6693331  51.5838175
  21.9253429  22.5792850  51.2974394  22.1303022  22.5115158  52.1431391
  21.5979852  23.3851671  51.2295572  21.9068676  22.6878790  51.4134049
  16.6229580  29.9073418  53.0383362  16.3192717  29.3529407  53.6393770
  15.9209000  30.0865628  52.5511396  16.4745789  29.8518201  53.0553068
  15.6795677  27.2173938  47.6028064  15.9555411  26.4992851  47.1905632
  16.2794346  27.8158858  47.3949170  15.8088941  27.1994309  47.5108825
  14.6847931  37.1223139  57.7455460  14.5768286  37.1325201  58.6117518
  14.8943712  37.9477919  57.5560414  14.6998042  37.2464214  57.8459552
  25.1787116  23.1324614  50.7777160  24.5661430  23.6195016  51.1630892
  25.2751291  22.4568105  51.3214811  25.1025014  23.1042923  50.9156018
  19.1806197  24.8887455  45.8774659  19.6349944  25.0598016  46.6022504
  19.6546243  24.2755566  45.4772435  19.3174517  24.8238341  45.9248421
  12.7021723  34.3735781  55.2077398  12.1109656  35.0145280  55.1780413
  13.4642746  34.7973399  55.1808697  12.7269983  34.5311620  55.1992545
  13.0982345  25.5337779  55.8745415  13.5583827  25.6076709  56.6120539
  13.1438452  26.3319033  55.5245237  13.1732901  25.6631926  55.9318172
  14.7465695  26.2004474  60.4417442  14.3551260  25.5537821  60.8773220
  14.9151558  26.7915909  61.0611698  14.7136606  26.1918742  60.5980148
  22.4611239  39.8245093  52.6409422  22.2630928  40.3135907  51.9465633
  21.8398950  40.0286334  53.2193555  22.3398803  39.9261631  52.6232645
  16.5219217  31.5929990  46.9819666  17.2661262  31.9804266  47.2202616
  16.6679913  30.7487415  47.1460154  16.6529802  31.5260463  47.0413636
  18.4398793  23.3880249  52.0151528  17.5934838  23.5603056  51.8892877
  18.4369925  22.5829592  52.3517356  18.3145943  23.2941278  52.0462655
  19.5097093  27.1655463  52.8813586  19.0357047  26.6397225  53.3918897
  19.8815229  26.6184936  52.3128447  19.4946982  27.0071460  52.8728733
   9.8870123  29.1626970  58.2497131  10.7495736  29.0622679  58.1634461
   9.5561906  28.5821679  57.6882704   9.9655320  29.0618596  58.1542537
  21.4380593  28.0592018  45.9439339  20.9103611  28.1420762  45.2545048
  21.8976301  28.8009889  45.9403984  21.4282443  28.1812680  45.8414035
  27.7739011  29.0059296  52.2449625  27.5348781  28.9655130  51.4070410
  27.9372912  29.8530448  52.3715346  27.7629314  29.1251381  52.1403107
  24.3785041  33.3909245  58.1754670  25.1019240  32.9381772  57.9965690
  24.1135003  33.6713911  57.3926998  24.4466314  33.3660214  58.0333386
  13.2471909  27.9869419  54.9107550  12.6224979  27.9987811  54.3033502
  12.9117504  28.4629594  55.5598790  13.1057401  28.0587936  54.9164118
  13.4313658  26.3294537  40.9680235  13.0826462  26.9814262  41.4311784
  12.9510104  26.3151650  40.2404106  13.3083902  26.4237591  40.9291326
   9.9597585  36.0469879  56.3511314   9.4297509  35.3562318  56.4006289
  10.2322678  36.0380064  55.5224022   9.9222307  35.9437011  56.2358730
  20.9917675  36.6295581  45.0748996  21.7151874  37.0953694  44.9313570
  20.5518266  36.6969191  44.3246593  21.0333367  36.7079418  44.9433778
  20.1603830  33.4893123  56.3249685  19.5460823  32.9451174  56.6198321
  20.6771115  32.9757360  55.8455502  20.1459493  33.3329533  56.2973914
  19.4000127  34.5597393  54.0593984  18.9727736  33.9347112  53.6259419
  19.3925072  34.2772315  54.8852991  19.3359269  34.4250174  54.1173812
  12.5162655  29.5962567  57.1282418  12.6756141  28.8405891  57.5334140
  12.3355548  30.1453506  57.7823156  12.5128014  29.5656380  57.2845124
  20.4582958  21.7623802  57.6833208  19.9623519  21.9587476  56.9924774
  21.2152020  22.1616470  57.5122009  20.4969782  21.8501536  57.5553344
  17.7285837  25.4366148  54.2736518  17.7528324  24.9026260  53.5849298
  17.9797311  24.9283457  54.9362109  17.7695756  25.2827052  54.2701163
   5.2393427  32.7197643  53.7079662   5.1336876  32.6744487  52.8431746
   4.4893647  33.0651424  53.9893947   5.1129030  32.7638551  53.6216992
  14.0087159  24.1636966  53.6542262  14.0485531  24.6646173  54.3676970
  13.1836824  24.2547360  53.3848185  13.8926685  24.2518783  53.7192801
  16.1916772  33.7297706  61.7562557  15.3412403  33.8669421  61.8920202
  16.3544900  32.9961485  62.2010259  16.0900636  33.6411807  61.8418156
  15.4301523  30.6797476  55.9516161  14.5993452  30.8471294  55.7451410
  15.3753040  30.3033427  56.7365047  15.2990938  30.6487207  56.0364690
  13.2385306  24.1706369  61.5872572  13.8638009  23.6268502  61.8602004
  12.7835786  23.6901287  61.0180362  13.2633567  24.0195850  61.5434166
  13.8037567  28.9553068  46.4806279  13.9440528  29.4525532  47.1834920
  14.3020099  28.2539362  46.6220493  13.8978648  28.9255046  46.6057858
  13.8337789  29.8220179  43.8098856  14.4682868  30.4180604  43.7448318
  13.9163400  29.5223636  44.6244726  13.9394340  29.8661087  43.9201942
  26.8120355  32.3535656  56.6785220  27.4038195  32.9932907  56.7103418
  27.2479349  31.6558693  56.9677287  26.9638786  32.3454006  56.7266053
  15.4116772  25.7534154  43.7844298  15.7332613  25.2737237  43.1303560
  15.6743716  26.5633800  43.5935110  15.4982797  25.8024052  43.6599790
  18.6413745  36.7753028  57.3043114  18.1338836  37.3288875  57.7483745
  18.3440391  36.8361318  56.4861889  18.5218630  36.8659340  57.2491571
  20.8075927  25.1406348  56.1467777  21.2330998  24.6878874  55.5351303
  20.1932920  24.5866419  56.4232564  20.7804572  24.9920324  56.0972802
  10.3390777  32.0188019  47.0788402  10.8483006  32.6152527  47.4599707
  10.8125049  31.7513993  46.3964822  10.4834153  32.0673835  47.0342925
  21.2521525  40.6916286  45.2347058  20.5350835  40.5177148  44.7694295
  21.9028263  40.4568858  44.7022544  21.2423375  40.6312079  45.0876275
  19.2470150  21.6121448  49.5558354  18.6038468  21.4619094  50.1243492
  18.9069557  21.3663793  48.7907459  19.1015227  21.5533570  49.5261369
  23.8369496  29.5680875  48.9788363  23.1660686  30.1110577  48.8501428
  24.5309246  30.0375730  48.7370057  23.8398364  29.7179146  48.9243890
  17.8856230  41.7077587  54.2100121  17.6621884  40.9496416  54.5784147
  17.3966073  41.7375608  53.4880561  17.7799679  41.5999811  54.1576862
  23.9997624  26.0236758  51.8878736  24.3525234  25.5966481  52.5624535
  23.1412425  25.9387602  52.0179812  23.9247068  25.9481499  52.0073746
  12.6981309  28.6544278  49.9461582  11.9793298  29.0708411  50.2134446
  13.0693671  29.2198517  49.3953221  12.6473240  28.7993559  49.9044389
  21.9980889  29.2872127  55.8363578  21.9778817  29.1055422  56.6898357
  22.0460090  30.1584145  55.8123162  22.0015530  29.3888665  55.9586873
  19.9427219  35.8759319  61.7612055  19.9023074  35.2308996  61.1757211
  20.7550538  35.8195936  62.0737467  20.0570373  35.7718286  61.7209004
  16.5334687  41.9278045  51.6637206  16.1195085  41.2652175  51.2741047
  17.2182061  42.0755904  51.1432900  16.5733059  41.8518703  51.5293703
  19.8999981  41.0868130  52.4160822  19.5016264  41.1970400  51.6481642
  19.2851201  41.2950196  52.9987382  19.7498870  41.1341698  52.3892121
  18.4727883  27.6942278  45.2834962  17.8792722  28.0159274  44.7319529
  18.5103161  26.8483373  45.0756068  18.3902272  27.6166606  45.1717733
  25.4321684  21.1455170  52.8163048  24.9252548  20.4384310  52.7484226
  26.2289117  20.8148359  52.9464125  25.4748923  20.9928322  52.8262043
  21.3485700  27.6521782  48.7136712  21.1199393  27.6754484  47.8715070
  21.6083776  26.8279249  48.8331723  21.3531888  27.5337862  48.6061910
  15.6304928  29.5056255  58.3161812  15.1183831  28.8977438  58.6746844
  15.4584424  30.2212848  58.7835788  15.5294565  29.5219555  58.4378036
  10.4770643  27.9493831  60.9664174  10.3073233  28.6095206  60.4212381
  10.0336593  28.1600392  61.6876663  10.3869976  28.0779813  60.9925804
  14.4030462  26.1898329  50.0090908  14.8787828  26.5515409  49.3741089
  13.9019062  26.8454796  50.2891050  14.3995821  26.3392517  49.9567649
  27.6341824  35.6620097  45.8003913  28.0175429  36.4111453  46.0302010
  26.8385937  35.9085916  45.5415902  27.5735606  35.8089791  45.7961486
  19.5073998  27.4280500  60.7564068  20.0645428  27.1994310  60.1242533
  19.1835063  28.1886166  60.4799280  19.5420409  27.5064337  60.6220565
   7.3772707  30.8540696  56.2252664   6.8299427  30.1841342  56.3433532
   8.1665085  30.4870544  56.2896131   7.4124891  30.7005683  56.2521364
  17.2257116  30.5148153  61.7216075  17.9768443  30.8299830  62.0355629
  17.4179692  30.3127324  60.8949997  17.3648530  30.5315535  61.6459471
  16.4457115  28.3339528  43.3764292  16.8256080  28.3519158  42.5915406
  15.7049711  28.7793517  43.2555139  16.3925953  28.4021303  43.2427860
  24.0742406  26.6421720  48.9639870  24.0736632  26.4870376  49.8224147
  23.8698586  27.4884707  48.9081256  24.0442184  26.7442340  49.0827810
   6.1359677  30.0661504  53.3798687   5.9581438  29.6138113  54.1053603
   5.8478699  30.8687666  53.5637164   6.0672630  30.1184062  53.5142190
  21.7983258  31.3219221  52.6176077  22.2936923  30.6042217  52.5780098
  20.9883034  31.0190019  52.5030564  21.7527151  31.1716868  52.5949803
  17.2441869  35.1717035  44.7673082  16.4353192  34.8483708  44.7206391
  17.7516778  34.4650257  44.7001330  17.1991536  35.0198351  44.7503376
   7.8732147  32.5989228  50.4920446   7.0077666  32.5874918  50.3803217
   7.9730962  32.4119451  51.3391585   7.7606314  32.5695289  50.6009390
  23.8635077  34.0722909  55.3053206  24.2890148  33.5497331  54.7523631
  23.4991997  34.6703746  54.7841829  23.8721679  34.0833136  55.1462216
  13.4989156  42.3687126  54.0650552  13.8135715  43.1823515  54.0728333
  13.9082570  41.9837345  54.7332711  13.6057254  42.4315829  54.1654643
  20.4513676  37.7857173  51.6354363  20.9224854  38.4997436  51.8044349
  20.7873855  37.1855923  52.1714233  20.5708791  37.8028638  51.7386739
  22.5390661  39.3958487  63.8146436  22.6487626  38.6067047  64.1703183
  22.8681557  39.3064423  63.0120774  22.6043066  39.2664340  63.7488826
  17.3683171  22.5584644  58.5912458  17.5011077  21.7615637  58.9193434
  17.7528324  23.0851047  59.1710734  17.4439500  22.5184561  58.7255961
  21.0887622  37.5775107  58.3982056  20.5408568  36.9532991  58.1302121
  21.5500651  37.7669379  57.6826136  21.0754832  37.5134158  58.2532487
  20.4415526  19.4814970  55.1893552  19.6361490  19.3712700  55.5061390
  20.3122262  19.5827426  54.3323417  20.3035659  19.4798640  55.1101592
  23.8981487  25.6460462  55.7833248  23.3144476  26.1469668  55.3710816
  24.2185781  25.1390018  55.1497572  23.8594662  25.6452297  55.6291756
  16.4376286  24.5601057  46.0591923  17.2591980  24.7299370  45.8173618
  15.9745937  24.7148318  45.3358221  16.4907448  24.6082790  45.9163568
  15.0271618  22.5543819  56.8390352  15.5716031  22.2134946  57.4294694
  15.0808554  23.4129280  56.9811637  15.1160737  22.6299078  56.9472225
  10.8402177  36.3160235  53.7129160  11.4447034  36.2756069  53.0842981
  10.6329489  37.1631387  53.7433216  10.8991074  36.4348237  53.6245276
  20.6545949  38.5826180  54.9291397  21.4744323  38.4389146  55.1907692
  20.3740026  39.2072379  55.4707835  20.7342692  38.6536532  55.0479337
   6.0753459  35.2994852  53.5828083   5.9777737  34.4891124  53.8918140
   6.8582329  35.2786646  53.1974351   6.1769595  35.1761943  53.5714946
  30.3259284  45.3266683  52.6487204  29.4697179  45.4875181  52.6996321
  30.3726938  44.4558747  52.6692265  30.2058395  45.2217485  52.6593270
  24.7100424  54.8629401  48.4124436  23.9583323  54.4844939  48.1840481
  25.1586435  54.8947834  47.6643246  24.6650090  54.8115008  48.2681938
  33.6353000  51.5953208  62.2547660  34.3419768  51.1005239  62.3834595
  33.8240936  52.0362290  61.5250318  33.7680906  51.5871559  62.1656706
  30.1625384  55.2854770  43.8409983  29.8276752  55.9631692  43.4054205
  30.6752254  54.8960081  43.2526854  30.1890965  55.3279348  43.6896774
  29.7029675  57.2369039  49.7821094  30.0869054  57.8055938  49.2425870
  29.6388816  56.5118549  49.3026910  29.7503102  57.2144502  49.6314957
  33.1711105  47.3858727  55.2918856  33.7167065  48.0643813  55.3512825
  33.1127981  47.2446188  54.4320437  33.2427019  47.4650728  55.1730916
  26.2885180  54.8747793  50.6787208  26.3895543  54.0648147  50.9884336
  25.6926925  54.7804739  50.0486887  26.2157718  54.7412821  50.6313447
  26.1285919  59.7925382  52.0802064  26.7723375  60.2338546  52.4698223
  26.4542175  58.9878808  51.9932323  26.2717748  59.7390577  52.1247541
  19.4850224  50.8968079  50.3039542  19.2500409  50.0635732  50.1971811
  19.6235865  51.1772745  49.4900743  19.4705887  50.8151583  50.1681897
  21.7840312  43.0653810  53.2023850  21.1645343  42.4746457  53.0333864
  21.6824175  43.6565245  52.5688173  21.6777987  43.0657893  53.0828839
  26.8306499  52.8037357  47.4521926  27.1522340  53.3442564  46.8483234
  27.4778596  52.2334128  47.5844216  26.9732554  52.7996532  47.3828961
  21.5109445  46.6106092  55.4467418  21.3868141  47.1968537  56.0817237
  22.1627729  46.1166287  55.7479693  21.5883094  46.6244896  55.5853348
  29.0696143  51.1923797  47.5236104  29.5089778  50.5840897  47.9690877
  28.9200805  50.8131170  46.7521569  29.1117608  51.0462268  47.4755271
  26.5367786  49.7867809  54.7254930  27.1816788  49.2940252  54.4065878
  26.7769563  49.9292595  55.5521008  26.6678371  49.7345251  54.8004463
  29.0753877  52.6322714  54.3761822  29.3577120  51.8374120  54.1548578
  29.8040037  53.1103302  54.3966883  29.2243441  52.5857311  54.3464837
  32.6705479  49.5450978  44.4766873  32.5856774  50.4011945  44.6216442
  33.1589862  49.2695302  45.1449032  32.7294376  49.6308300  44.5968955
  25.4923520  50.0598989  44.7772076  24.9080735  50.5649020  45.1837940
  25.0893615  49.8341376  44.0368668  25.3462824  50.1007237  44.7277102
  21.0467549  55.7753750  51.5795748  20.5635127  56.5004240  51.5555332
  21.8590867  56.0729880  51.6905906  21.0958297  55.9256104  51.5923027
  27.1181703  54.5685931  54.1845562  26.6008645  54.2093346  53.5806871
  27.8156094  54.0448105  54.1951629  27.1447284  54.4383619  54.0975821
  30.7745295  55.0180745  60.1461735  30.8628641  54.8306885  60.9939946
  31.2035007  54.3718175  59.7466582  30.8507397  54.8943753  60.2133487
  28.3415755  54.3011905  59.1279398  27.7786589  53.8884515  59.6519059
  29.1036778  54.2264811  59.5472541  28.3710203  54.2289305  59.2672398
  23.9011746  56.2909926  51.7316028  24.6032325  55.7761915  51.7888784
  23.8209229  56.6184077  52.5362903  23.9935507  56.2624152  51.8588820
  24.9490653  46.5285513  60.8596443  25.1211156  46.4191408  61.7081724
  25.4860010  47.1739918  60.6227635  25.0535657  46.6077515  60.9501540
  23.2262521  52.4816278  51.2401636  24.0651421  52.7139211  51.2875397
  23.2574291  51.6120590  51.1708671  23.3544239  52.3873225  51.2366281
  23.8515225  52.9017153  55.5414941  24.3913449  52.7588284  56.2118314
  23.1685171  53.3013904  55.9098968  23.8307378  52.9396824  55.6949363
  33.2756109  48.5808154  50.7359966  34.0313624  49.0139668  50.7748874
  33.3818434  47.9312924  51.3094602  33.4026280  48.5485638  50.8257991
  36.3136280  52.4081431  51.4862369  35.8771512  52.4118174  52.2421340
  35.9799196  53.0886930  51.0541946  36.1998900  52.5093887  51.5343201
  30.8865354  54.4489764  62.8105519  31.6705771  54.5620612  63.1761261
  30.6861949  53.6230901  63.0064205  30.9731380  54.3436483  62.8939905
  19.2552370  49.1217444  55.6949363  18.9890785  48.3056561  55.8540353
  19.2690934  49.1670600  54.8244878  19.2177092  49.0074349  55.5902845
  31.0435747  56.3599866  56.4571975  30.2450993  56.1199366  56.7145843
  31.4921759  56.4114259  57.2039022  30.9910359  56.3322257  56.6056899
  30.3357434  52.4232482  42.6862929  30.7508583  52.0917506  41.9947425
  29.5049364  52.1901385  42.5583066  30.2745443  52.3403738  42.5653777
  19.6645783  49.9076223  52.9761107  19.4821356  49.8823110  52.1233399
  20.3995452  50.3775161  53.0150016  19.7459847  49.9737586  52.8559026
  22.7291535  46.6261226  59.4843216  23.4531507  46.6114257  59.9708111
  22.8307671  47.3356582  58.9865184  22.8509744  46.7285930  59.4822003
  30.1036484  50.1060311  64.3492163  29.3109465  50.4203823  64.5344782
  30.2185411  50.3211779  63.5112947  30.0031895  50.1844148  64.2530498
  31.0320277  50.0080515  59.2877460  31.6059139  49.3707759  59.4426023
  30.9535081  50.0084597  58.4187117  31.1053512  49.9145626  59.1823870
  19.6316694  46.7869724  53.1260174  20.2090196  46.6506175  53.7652419
  18.9330755  46.3305508  53.3805758  19.6137715  46.6991990  53.2582463
  26.3883996  48.4403780  51.3398657  26.1303240  47.6075515  51.3129956
  26.4432479  48.6661393  50.4991157  26.3583774  48.3501551  51.2118794
  25.3618708  45.9941542  51.8263552  24.7868299  46.1533711  52.4627513
  24.9854384  45.3576951  51.3632002  25.2221520  45.9239355  51.8518110
  29.0291997  44.4664892  56.6855930  28.6406429  44.0419109  56.0308121
  28.3646695  44.7147041  57.1932957  28.8738924  44.4403613  56.6643798
  15.1075527  45.6381617  49.8407992  15.1935779  45.2613485  50.6221522
  15.7351324  45.2642063  49.3627951  15.2132078  45.5267099  49.8853470
  30.1330935  48.6963496  44.8832737  30.9471574  48.9878389  44.7715508
  30.0690076  48.0423359  44.3091030  30.2433674  48.6428691  44.7821574
  36.3540425  51.3789492  59.2962313  36.1179062  50.5477557  59.1774373
  36.9983654  51.3275100  59.8817157  36.4135096  51.2487180  59.3648206
  26.0038843  52.1685014  50.0105049  26.6412790  51.9296761  50.5556843
  26.4293915  52.3722173  49.2758210  26.1615009  52.1636024  49.9822207
  20.6951485  54.4073350  53.8939353  20.7355631  54.6788201  53.0659133
  21.2546010  54.9315258  54.3097141  20.7834831  54.5249105  53.8331241
  26.8110198  40.6693719  64.0642523  26.4963640  41.4393281  63.8012086
  26.4900131  40.1063975  63.4794750  26.7169118  40.7003987  63.9383873
  37.3776846  51.1633941  55.3590607  37.0722663  51.8961998  55.7203923
  36.6583061  50.7571871  55.0783393  37.2264188  51.2115674  55.3703744
  28.3860315  52.6457436  51.6898835  28.4599323  52.4832608  52.5440685
  29.2029821  52.8347626  51.4459317  28.5176674  52.6494179  51.7796861
  22.1466072  52.9915299  48.7193279  21.3204189  53.2377036  48.5927558
  22.2078063  52.9127380  49.5855337  22.0340239  53.0160248  48.8282223
  24.3642095  39.0584240  49.6788719  23.4964521  39.1306840  49.7446328
  24.6517300  39.8606319  49.8676694  24.2781844  39.1878387  49.7163486
  33.4874984  39.2062099  58.0100041  34.2328576  39.0171910  57.5963466
  33.0712289  39.7320337  57.4513897  33.5359958  39.2564245  57.8664614
  26.9264901  55.6092179  46.4212309  27.2163199  55.2181161  45.6971535
  27.6568382  55.7908884  46.8617584  27.0771785  55.5785993  46.3795116
  27.5159646  50.4109925  57.5065439  27.0171340  51.1225693  57.5850328
  28.3259870  50.7310592  57.4683602  27.5615753  50.5636774  57.5122008
  24.8670816  57.5859562  49.4872459  24.6471112  57.2956916  50.2799126
  24.6465338  56.9274517  48.9590371  24.8018411  57.4459270  49.5261367
  23.7787764  49.6732878  51.7528160  23.4901012  49.0470349  52.2873888
  24.6471112  49.6153166  51.8192841  23.8648015  49.5720422  51.8419115
  27.0338772  58.9588952  48.2703151  27.6862830  58.4265394  48.4994177
  26.3364381  58.6057604  48.6571025  27.0269490  58.8278475  48.3615319
  23.9820037  51.3128129  47.6770525  24.7366005  51.6941168  47.8905988
  23.3890650  51.7639273  48.1317222  24.0056750  51.4356957  47.7753404
  35.0278690  51.2793366  47.6134130  35.5936723  51.9386576  47.5292673
  34.3806594  51.6243064  48.0850532  35.0157447  51.4275307  47.6706887
  26.4426704  43.2690970  62.8027738  25.6326480  43.5748749  62.6917580
  26.9201391  43.9896552  62.9180322  26.3930183  43.4205571  62.8034809
  25.3018263  52.4836691  53.0510641  24.7799017  52.6236982  53.7362505
  25.6892284  51.7247355  53.2412758  25.2821964  52.3922214  53.1811717
  22.2909448  42.5342499  47.1205595  22.0034243  42.1643770  46.3837543
  22.9779916  43.0037355  46.8589300  22.3498345  42.5489469  46.9720671
  31.4985268  54.2232150  47.0371209  31.2571944  53.4900011  46.6298274
  31.6786601  54.7719007  46.3837543  31.4892892  54.1954541  46.8801432
  26.7284589  49.5140710  48.4492132  26.5327372  50.1215444  47.8552435
  26.9518935  48.8208654  47.9683806  26.7319230  49.5018235  48.2908213
  25.1263119  46.3995448  48.5673000  25.8485771  46.5636606  48.1076806
  24.6471112  47.1205112  48.4612340  25.1626850  46.5293677  48.4838614
  33.0856627  42.7359246  53.9469685  32.2467727  42.7620525  53.7107948
  33.1560994  43.3829982  54.5275032  32.9725020  42.8355372  53.9978802
  22.7770736  48.8053520  57.6727140  23.2891833  49.0837773  57.0235900
  22.4907078  49.5442814  58.0389953  22.8105599  48.9555874  57.6317018
  19.8637642  43.3123712  47.9690876  19.9653779  44.1149873  48.2971852
  20.6593529  43.1111048  47.6713957  19.9965548  43.4009611  47.9726232
  26.2954461  40.8979909  57.7328182  26.1037658  40.9135043  58.5827605
  27.1453057  41.0943583  57.7094836  26.3930183  40.9294260  57.8551476
  20.6801374  43.4270890  55.7111998  20.5386866  42.5754831  55.8356506
  20.9641938  43.4699551  54.8874204  20.7009220  43.3070640  55.6079622
  34.7288015  51.9721340  53.6443268  34.5902375  52.6702385  54.1492010
  33.9488013  51.8169996  53.2879449  34.5931242  52.0521506  53.6669542
  33.0666101  48.2717715  59.8965649  33.0614139  47.3997531  59.9008076
  33.7727094  48.4705884  59.4235105  33.1711105  48.1721589  59.8272685
  26.7936994  47.9994699  59.2679469  26.9380370  48.5795907  58.6322579
  27.1412642  48.3770996  59.9729324  26.8664455  48.1415403  59.2778464
  28.9656911  47.1984867  57.0504601  28.2180225  47.3915882  56.6452879
  29.1198436  46.3730087  56.8128722  28.8779339  47.1049979  56.9550007
  25.8664749  56.1897471  56.1340496  26.0154313  55.6300387  55.4813901
  26.6464751  56.2689472  56.5173015  26.0038842  56.1183036  56.0937445
  28.3918049  56.3612114  57.4124987  28.3161721  55.6920924  57.9675775
  28.3207909  57.0629902  57.9265653  28.3698656  56.3657021  57.5701835
  29.2058688  41.0935418  57.9400005  29.6631302  41.8259392  58.0672797
  29.2815017  40.6701883  58.6987260  29.2849658  41.1392656  58.0701081
  21.4491679  41.3401238  59.0289448  20.9133869  40.7281596  59.3450216
  21.5109444  41.9149374  59.6823115  21.3787312  41.3348165  59.1724875
  29.0488296  54.8813112  48.2448593  29.8138188  54.6122756  47.9231257
  28.9466386  54.3963123  48.9618656  29.1469792  54.7702677  48.3028421
  27.0841066  43.0837522  54.7841829  26.2937141  42.9028982  55.1059165
  27.4801689  42.3064474  54.7672123  27.0257942  42.9424983  54.8294377
  32.4684752  50.7179952  52.5101275  31.7929754  50.4865184  53.0114662
  32.4777129  50.1101135  51.8843380  32.3703257  50.5938877  52.4917427
  29.5978896  45.5597781  59.2665328  29.5338038  46.4207737  59.1385464
  29.7376084  45.2429774  58.4660879  29.6094367  45.6397948  59.1293540
  34.4701487  53.5745084  44.7411453  34.5521324  54.3812071  44.4172903
  34.9551229  53.5941044  45.4652226  34.5538645  53.6965747  44.7998351
  28.2797990  48.2529920  53.4081531  27.8560239  48.4534419  52.6720549
  28.1042846  47.4058768  53.5205830  28.1908871  48.1578702  53.3155221
  27.7809684  59.7680433  55.8702988  28.2705614  59.0691223  55.6878652
  27.2093916  59.4704303  56.4579045  27.7694214  59.6206657  55.9304029
  23.5680435  48.7481972  48.8409503  23.7245054  48.6828775  49.6965495
  23.9081028  49.5230524  48.6288183  23.6413670  48.8531170  48.9364097
  30.1059580  48.1239855  47.7102866  30.6475125  47.6210236  48.1741487
  30.4206139  48.0705050  46.8992352  30.2323977  48.0419276  47.6586678
  33.9776687  52.3342503  64.8229778  34.7911553  52.0627652  64.9834911
  33.8171654  52.0350043  64.0189974  34.0746636  52.2497429  64.7275184
  28.2746030  53.5157207  44.9942894  28.3438850  52.6571745  45.1335895
  29.0534485  53.7329088  44.6661919  28.3998880  53.4210071  44.9660052
  31.2548849  43.0176160  57.7625167  31.4690819  42.3787074  57.2088521
  30.6382748  43.4621984  57.3333028  31.1954179  42.9886304  57.6175598
  32.6653517  55.9394908  49.2079388  32.2733309  55.6361623  48.4902254
  32.8206589  56.7763998  49.0184341  32.6307107  56.0178745  49.0735885
  20.1414697  45.9316922  49.1570270  20.5213662  46.3501467  48.4930538
  19.5670062  46.5130378  49.4639114  20.1126022  46.0794781  49.1047011
  33.4187937  44.6265225  58.7008474  32.6064619  44.3191115  58.7821647
  33.8777872  44.1464225  59.2651186  33.3668322  44.5101717  58.7963068
  32.8293192  52.5044897  49.1485418  32.4707847  52.6759540  49.9249451
  32.3431903  52.9658103  48.5913417  32.7051889  52.5983868  49.1810687
  30.5141445  46.0325296  63.4837176  30.9841076  46.6567413  63.8705050
  30.5603325  45.3642272  64.0430391  30.5909321  46.0259977  63.6237248
  29.7404952  38.6775284  56.0378832  29.3536705  38.7024315  56.8192362
  29.2537889  38.1116963  55.5853349  29.6117461  38.5971035  56.0866736
  33.9897931  53.3948793  60.0952619  34.6277652  52.9008989  59.7615075
  33.3472023  53.3226193  59.5104846  33.9892158  53.3107801  59.9594974
  29.4062094  35.5642269  58.3289092  30.0355212  36.1002570  58.0510163
  29.5747956  35.4719628  59.1802658  29.5239888  35.6303632  58.4137621
  29.2076008  40.3513464  60.6015504  30.0349438  40.0798613  60.6574118
  29.2283855  41.1474306  60.9579322  29.3328859  40.4293218  60.6630687
  34.0452188  54.0868601  56.7357976  34.8344566  53.7357666  56.8560057
  34.2195786  54.9004990  56.4734610  34.1872470  54.1554458  56.7145844
  23.7845498  47.4977327  53.7885765  22.9433505  47.3981201  53.9964658
  23.9935506  48.2672807  54.1400085  23.6910191  47.5969370  53.8713080
  21.2621065  45.1196864  51.6170515  20.8677763  45.1939876  50.8420625
  20.7061182  45.5054810  52.1678877  21.1223878  45.1878639  51.5838175
  27.5962163  45.4258726  53.0383362  27.2925301  44.8714714  53.6393770
  26.8941584  45.6050936  52.5511396  27.4478373  45.3703509  53.0553068
  25.6580514  52.6408447  57.7455460  25.5500869  52.6510509  58.6117518
  25.8676296  53.4663227  57.5560414  25.6730625  52.7649522  57.8459552
  23.6754306  49.8921089  55.2077398  23.0842239  50.5330587  55.1780413
  24.4375330  50.3158707  55.1808697  23.7002567  50.0496928  55.1992545
  24.0714929  41.0523087  55.8745415  24.5316411  41.1262016  56.6120539
  24.1171036  41.8504341  55.5245237  24.1465484  41.1817234  55.9318172
  25.7198279  41.7189782  60.4417442  25.3283844  41.0723129  60.8773220
  25.8884141  42.3101217  61.0611698  25.6869189  41.7104050  60.5980148
  33.4343822  55.3430401  52.6409422  33.2363511  55.8321215  51.9465633
  32.8131534  55.5471642  53.2193555  33.3131387  55.4446939  52.6232645
  27.4951801  47.1115298  46.9819666  28.2393846  47.4989574  47.2202616
  27.6412497  46.2672723  47.1460154  27.6262386  47.0445770  47.0413636
  20.8602707  44.6812278  58.2497131  21.7228320  44.5807987  58.1634461
  20.5294490  44.1006987  57.6882704  20.9387903  44.5803904  58.1542537
  24.2204493  43.5054727  54.9107550  23.5957563  43.5173119  54.3033502
  23.8850088  43.9814902  55.5598790  24.0789985  43.5773244  54.9164118
  20.9330168  51.5655187  56.3511314  20.4030093  50.8747626  56.4006289
  21.2055262  51.5565372  55.5224022  20.8954891  51.4622319  56.2358730
  31.9650259  52.1480889  45.0748996  32.6884458  52.6139002  44.9313570
  31.5250850  52.2154499  44.3246593  32.0065951  52.2264726  44.9433778
  31.1336414  49.0078431  56.3249685  30.5193407  48.4636482  56.6198321
  31.6503699  48.4942668  55.8455502  31.1192076  48.8514840  56.2973914
  30.3732711  50.0782701  54.0593984  29.9460319  49.4532420  53.6259419
  30.3657655  49.7957623  54.8852991  30.3091852  49.9435482  54.1173812
  23.4895238  45.1147874  57.1282418  23.6488725  44.3591199  57.5334140
  23.3088132  45.6638814  57.7823156  23.4860597  45.0841688  57.2845124
  31.4315541  37.2809110  57.6833208  30.9356102  37.4772784  56.9924774
  32.1884603  37.6801778  57.5122009  31.4702366  37.3686844  57.5553344
  28.7018421  40.9551456  54.2736518  28.7260908  40.4211568  53.5849298
  28.9529894  40.4468765  54.9362109  28.7428339  40.8012360  54.2701163
  16.2126011  48.2382951  53.7079662  16.1069460  48.1929795  52.8431746
  15.4626231  48.5836732  53.9893947  16.0861613  48.2823859  53.6216992
  24.9819743  39.6822274  53.6542262  25.0218115  40.1831481  54.3676970
  24.1569408  39.7732668  53.3848185  24.8659269  39.7704091  53.7192801
  27.1649356  49.2483014  61.7562557  26.3144986  49.3854728  61.8920202
  27.3277484  48.5146792  62.2010259  27.0633219  49.1597115  61.8418156
  26.4034106  46.1982784  55.9516161  25.5726036  46.3656602  55.7451410
  26.3485624  45.8218735  56.7365047  26.2723521  46.1672515  56.0364690
  24.2117890  39.6891677  61.5872572  24.8370593  39.1453810  61.8602004
  23.7568370  39.2086595  61.0180362  24.2366150  39.5381158  61.5434166
  29.6146328  52.2938336  57.3043114  29.1071419  52.8474183  57.7483745
  29.3172974  52.3546626  56.4861889  29.4951213  52.3844648  57.2491571
  31.7808510  40.6591656  56.1467777  32.2063582  40.2064182  55.5351303
  31.1665504  40.1051727  56.4232564  31.7537156  40.5105632  56.0972802
  21.3123360  47.5373327  47.0788402  21.8215590  48.1337835  47.4599707
  21.7857633  47.2699301  46.3964822  21.4566736  47.5859143  47.0342925
  32.2254109  56.2101594  45.2347058  31.5083418  56.0362456  44.7694295
  32.8760846  55.9754166  44.7022544  32.2155959  56.1497387  45.0876275
  28.8588813  57.2262895  54.2100121  28.6354468  56.4681724  54.5784147
  28.3698657  57.2560916  53.4880561  28.7532262  57.1185119  54.1576862
  23.6713892  44.1729586  49.9461582  22.9525881  44.5893719  50.2134446
  24.0426254  44.7383825  49.3953221  23.6205824  44.3178867  49.9044389
  32.9713473  44.8057435  55.8363578  32.9511400  44.6240730  56.6898357
  33.0192674  45.6769453  55.8123162  32.9748114  44.9073973  55.9586873
  30.9159803  51.3944627  61.7612055  30.8755658  50.7494304  61.1757211
  31.7283121  51.3381244  62.0737467  31.0302956  51.2903594  61.7209004
  27.5067270  57.4463353  51.6637206  27.0927669  56.7837483  51.2741047
  28.1914645  57.5941212  51.1432900  27.5465642  57.3704011  51.5293703
  30.8732565  56.6053438  52.4160822  30.4748848  56.7155708  51.6481642
  30.2583784  56.8135504  52.9987382  30.7231454  56.6527006  52.3892121
  26.6037512  45.0241563  58.3161812  26.0916415  44.4162746  58.6746844
  26.4317008  45.7398156  58.7835788  26.5027149  45.0404863  58.4378036
  21.4503226  43.4679139  60.9664174  21.2805817  44.1280514  60.4212381
  21.0069176  43.6785700  61.6876663  21.3602560  43.5965121  60.9925804
  30.4806582  42.9465808  60.7564068  31.0378012  42.7179618  60.1242533
  30.1567647  43.7071474  60.4799280  30.5152992  43.0249645  60.6220565
  18.3505291  46.3726004  56.2252664  17.8032010  45.7026650  56.3433532
  19.1397669  46.0055852  56.2896131  18.3857474  46.2190991  56.2521364
  28.1989699  46.0333461  61.7216075  28.9501026  46.3485138  62.0355629
  28.3912276  45.8312632  60.8949997  28.3381113  46.0500843  61.6459471
  17.1092260  45.5846812  53.3798687  16.9314021  45.1323421  54.1053603
  16.8211282  46.3872973  53.5637164  17.0405213  45.6369370  53.5142190
  32.7715841  46.8404529  52.6176077  33.2669507  46.1227524  52.5780098
  31.9615617  46.5375327  52.5030564  32.7259735  46.6902176  52.5949803
  28.2174453  50.6902343  44.7673082  27.4085776  50.3669016  44.7206391
  28.7249362  49.9835565  44.7001330  28.1724120  50.5383659  44.7503376
  18.8464730  48.1174536  50.4920446  17.9810250  48.1060226  50.3803217
  18.9463546  47.9304759  51.3391585  18.7338897  48.0880597  50.6009390
  34.8367660  49.5908217  55.3053206  35.2622732  49.0682639  54.7523631
  34.4724580  50.1889054  54.7841829  34.8454263  49.6018444  55.1462216
  24.4721740  57.8872434  54.0650552  24.7868299  58.7008823  54.0728333
  24.8815153  57.5022653  54.7332711  24.5789838  57.9501137  54.1654643
  31.4246260  53.3042481  51.6354363  31.8957438  54.0182744  51.8044349
  31.7606438  52.7041231  52.1714233  31.5441375  53.3213945  51.7386739
  33.5123244  54.9143795  63.8146436  33.6220210  54.1252355  64.1703183
  33.8414141  54.8249731  63.0120774  33.5775650  54.7849647  63.7488826
  28.3415755  38.0769952  58.5912458  28.4743660  37.2800945  58.9193434
  28.7260907  38.6036355  59.1710734  28.4172083  38.0369868  58.7255961
  32.0620206  53.0960415  58.3982056  31.5141152  52.4718299  58.1302121
  32.5233235  53.2854687  57.6826136  32.0487415  53.0319466  58.2532487
  34.8714070  41.1645770  55.7833248  34.2877059  41.6654976  55.3710816
  35.1918364  40.6575326  55.1497572  34.8327246  41.1637605  55.6291756
  26.0004201  38.0729127  56.8390352  26.5448614  37.7320254  57.4294694
  26.0541137  38.9314588  56.9811637  26.0893321  38.1484386  56.9472225
  21.8134760  51.8345543  53.7129160  22.4179618  51.7941377  53.0842981
  21.6062073  52.6816695  53.7433216  21.8723657  51.9533545  53.6245276
  31.6278532  54.1011488  54.9291397  32.4476906  53.9574454  55.1907692
  31.3472610  54.7257687  55.4707835  31.7075276  54.1721840  55.0479337
  17.0486042  50.8180160  53.5828083  16.9510320  50.0076432  53.8918140
  17.8314912  50.7971954  53.1974351  17.1502179  50.6947251  53.5714946
  48.0992183  61.7576340  47.8934274  48.0686187  62.6120976  48.0652543
  48.6973531  61.4571632  48.4520417  48.1829341  61.8392836  48.0009076
  41.2991868  60.8451991  52.6487204  40.4429763  61.0060489  52.6996321
  41.3459521  59.9744055  52.6692265  41.1790979  60.7402793  52.6593270
  35.6833007  70.3814709  48.4124436  34.9315907  70.0030247  48.1840481
  36.1319019  70.4133142  47.6643246  35.6382674  70.3300316  48.2681938
  44.6085584  67.1138516  62.2547660  45.3152351  66.6190547  62.3834595
  44.7973520  67.5547598  61.5250318  44.7413490  67.1056867  62.1656706
  41.1357967  70.8040078  43.8409983  40.8009336  71.4817000  43.4054205
  41.6484838  70.4145389  43.2526854  41.1623548  70.8464656  43.6896774
  40.6762258  72.7554347  49.7821094  41.0601638  73.3241245  49.2425870
  40.6121400  72.0303857  49.3026910  40.7235686  72.7329810  49.6314957
  44.1443689  62.9044035  55.2918856  44.6899649  63.5829121  55.3512825
  44.0860565  62.7631496  54.4320437  44.2159603  62.9836036  55.1730916
  37.2617763  70.3933101  50.6787208  37.3628126  69.5833455  50.9884336
  36.6659509  70.2990047  50.0486887  37.1890302  70.2598129  50.6313447
  45.9208757  64.3328642  46.1652584  45.8048283  65.0836328  46.5944722
  46.7164644  64.0752595  46.4148671  46.0213347  64.4063489  46.2656675
  37.1018503  75.3110690  52.0802064  37.7455958  75.7523854  52.4698223
  37.4274759  74.5064116  51.9932323  37.2450332  75.2575885  52.1247541
  30.4582808  66.4153387  50.3039542  30.2232992  65.5821040  50.1971811
  30.5968448  66.6958053  49.4900743  30.4438470  66.3336891  50.1681897
  32.7572895  58.5839118  53.2023850  32.1377927  57.9931765  53.0333864
  32.6556759  59.1750553  52.5688173  32.6510571  58.5843200  53.0828839
  37.8039083  68.3222665  47.4521926  38.1254924  68.8627872  46.8483234
  38.4511179  67.7519436  47.5844216  37.9465138  68.3181840  47.3828961
  39.8540791  60.3238660  47.5356313  40.5520955  60.5026787  48.0277776
  40.1693123  59.8008999  46.9126702  40.0036128  60.2732432  47.5158323
  32.4842028  62.1291400  55.4467418  32.3600725  62.7153845  56.0817237
  33.1360313  61.6351595  55.7479693  32.5615678  62.1430204  55.5853348
  40.0428726  66.7109105  47.5236104  40.4822362  66.1026205  47.9690877
  39.8933389  66.3316478  46.7521569  40.0850192  66.5647576  47.4755271
  37.5100369  65.3053117  54.7254930  38.1549372  64.8125560  54.4065878
  37.7502146  65.4477903  55.5521008  37.6410954  65.2530559  54.8004463
  40.0486461  68.1508022  54.3761822  40.3309703  67.3559428  54.1548578
  40.7772621  68.6288610  54.3966883  40.1976024  68.1042619  54.3464837
  38.0267654  55.6931056  51.6177587  37.6970984  56.1442200  50.9481286
  37.3512656  55.6147220  52.1650594  37.8778091  55.7482192  51.6000811
  43.6438063  65.0636286  44.4766873  43.5589358  65.9197253  44.6216442
  44.1322446  64.7880610  45.1449032  43.7026960  65.1493607  44.5968955
  44.5756496  61.6821080  45.9764608  44.0467967  61.8980714  46.6361915
  45.0981516  62.3757219  45.8965578  44.5744949  61.8164217  46.0620208
  50.0304549  67.2567385  51.3497653  49.2002252  67.4678028  51.5131069
  49.9813801  66.4304439  51.0739937  49.9011284  67.1656991  51.3335018
  36.4656104  65.5784297  44.7772076  35.8813319  66.0834328  45.1837940
  36.0626199  65.3526684  44.0368668  36.3195408  65.6192545  44.7277102
  32.0200132  71.2939058  51.5795748  31.5367711  72.0189548  51.5555332
  32.8323451  71.5915188  51.6905906  32.0690880  71.4441412  51.5923027
  38.0914286  70.0871239  54.1845562  37.5741228  69.7278654  53.5806871
  38.7888678  69.5633413  54.1951629  38.1179868  69.9568927  54.0975821
  41.7477878  70.5366053  60.1461735  41.8361224  70.3492193  60.9939946
  42.1767591  69.8903482  59.7466582  41.8239981  70.4129061  60.2133487
  39.3148338  69.8197213  59.1279398  38.7519173  69.4069823  59.6519059
  40.0769362  69.7450119  59.5472541  39.3442787  69.7474613  59.2672398
  40.9233318  61.8249949  43.2540997  41.1629322  62.0327933  42.4416340
  41.2449159  61.0207458  43.3629942  41.0070476  61.7364050  43.1501550
  36.2323608  53.7543345  47.1000535  36.9869576  54.1221662  46.8617585
  36.0551143  54.1282899  47.8679715  36.3178087  53.8641533  47.1785423
  34.8744330  71.8095234  51.7316028  35.5764909  71.2947223  51.7888784
  34.7941813  72.1369385  52.5362903  34.9668090  71.7809460  51.8588820
  49.5258507  59.9037785  55.1448074  48.6886928  59.9739972  55.3795669
  49.4946738  59.9062280  54.2722377  49.3976790  59.9148012  55.0507622
  35.9223236  62.0470821  60.8596443  36.0943740  61.9376716  61.7081724
  36.4592594  62.6925226  60.6227635  36.0268240  62.1262823  60.9501540
  34.5880673  56.1613664  43.7978648  34.4056246  56.3785545  42.9719641
  35.4506286  56.2752677  43.8537262  34.6885263  56.2103562  43.6833135
  34.1995105  68.0001586  51.2401636  35.0384004  68.2324519  51.2875397
  34.2306874  67.1305897  51.1708671  34.3276823  67.9058532  51.2366281
  34.8247808  68.4202461  55.5414941  35.3646033  68.2773592  56.2118314
  34.1417754  68.8199212  55.9098968  34.8039962  68.4582132  55.6949363
  44.2488693  64.0993462  50.7359966  45.0046208  64.5324976  50.7748874
  44.3551017  63.4498232  51.3094602  44.3758864  64.0670946  50.8257991
  47.2868864  67.9266739  51.4862369  46.8504096  67.9303482  52.2421340
  46.9531780  68.6072238  51.0541946  47.1731484  68.0279195  51.5343201
  41.8597938  69.9675072  62.8105519  42.6438354  70.0805920  63.1761261
  41.6594532  69.1416209  63.0064205  41.9463963  69.8621791  62.8939905
  30.2284953  64.6402752  55.6949363  29.9623368  63.8241869  55.8540353
  30.2423517  64.6855908  54.8244878  30.1909675  64.5259657  55.5902845
  47.2066347  54.9680567  53.7291797  47.8492255  55.0378672  54.3153712
  47.4589368  54.3009790  53.2271339  47.3388479  54.8806916  53.7419076
  34.1342700  59.4387836  42.3101121  33.4200877  59.1526016  42.7223554
  34.6186669  59.7784462  42.9507508  34.1002063  59.4469486  42.4656756
  34.9783560  58.1781130  58.3416371  34.2855356  57.7078110  58.5877102
  35.5943887  57.9519435  58.9158078  34.9668089  58.0748262  58.4625523
  42.0168331  71.8785174  56.4571975  41.2183577  71.6384674  56.7145843
  42.4654343  71.9299567  57.2039022  41.9642942  71.8507565  56.6056899
  50.4213210  64.6447659  50.3782006  51.0829644  64.0838327  50.2777914
  49.7804622  64.1499690  50.7034697  50.4242078  64.4884068  50.4114346
  41.3090018  67.9417790  42.6862929  41.7241167  67.6102814  41.9947425
  40.4781948  67.7086693  42.5583066  41.2478027  67.8589046  42.5653777
  30.6378367  65.4261531  52.9761107  30.4553940  65.4008417  52.1233399
  31.3728036  65.8960469  53.0150016  30.7192431  65.4922894  52.8559026
  46.7078041  65.6613041  50.1193995  46.9433630  65.8058240  49.2920845
  46.8567605  66.4255449  50.5125508  46.7643844  65.7952096  50.0557599
  33.7024118  62.1446534  59.4843216  34.4264091  62.1299565  59.9708111
  33.8040255  62.8541890  58.9865184  33.8242328  62.2471237  59.4822003
  48.5368498  64.5014707  47.9563599  48.8676715  65.0342347  47.3503693
  49.1101586  64.5553595  48.6125549  48.6702177  64.5884276  47.9641380
  41.0769068  65.6245619  64.3492163  40.2842049  65.9389131  64.5344782
  41.1917995  65.8397087  63.5112947  40.9764478  65.7029456  64.2530498
  43.7500387  62.3479610  48.6387179  43.8447241  63.0868904  49.0926804
  43.1259230  61.9197085  49.0721743  43.6709417  62.3940931  48.7695326
  42.0052861  65.5265823  59.2877460  42.5791722  64.8893067  59.4426023
  41.9267664  65.5269905  58.4187117  42.0786096  65.4330934  59.1823870
  30.6049277  62.3055032  53.1260174  31.1822780  62.1691483  53.7652419
  29.9063339  61.8490816  53.3805758  30.5870299  62.2177298  53.2582463
  44.0023408  64.1928350  41.8724131  43.9203571  64.2630537  42.7379118
  44.6403129  64.7558094  41.6807871  44.0843246  64.2867321  41.9714080
  37.3616579  63.9589088  51.3398657  37.1035824  63.1260823  51.3129956
  37.4165062  64.1846701  50.4991157  37.3316357  63.8686859  51.2118794
  42.4417629  56.0617538  51.4402750  41.7373956  55.5726724  51.5986669
  42.4902604  56.0740013  50.5691194  42.3447681  55.9907186  51.3342089
  36.3351291  61.5126850  51.8263552  35.7600883  61.6719019  52.4627513
  35.9586968  60.8762259  51.3632002  36.1954104  61.4424663  51.8518110
  40.0024580  59.9850200  56.6855930  39.6139013  59.5604417  56.0308121
  39.3379278  60.2332349  57.1932957  39.8471508  59.9588921  56.6643798
  49.6447849  59.7425204  49.4603760  49.3884414  58.9305146  49.2701643
  50.4877163  59.7502771  49.2333947  49.7313875  59.6237202  49.3988577
  26.0808110  61.1566925  49.8407992  26.1668362  60.7798793  50.6221522
  26.7083908  60.7827371  49.3627951  26.1864661  61.0452407  49.8853470
  43.8250942  53.6824828  54.1979914  44.2061453  53.0002999  54.5847789
  43.0214226  53.3934430  54.0155579  43.7627403  53.5391877  54.2283970
  41.1063518  64.2148804  44.8832737  41.9204157  64.5063697  44.7715508
  41.0422660  63.5608666  44.3091030  41.2166257  64.1613999  44.7821574
  47.3273009  66.8974800  59.2962313  47.0911646  66.0662865  59.1774373
  47.9716237  66.8460407  59.8817157  47.3867679  66.7672488  59.3648206
  36.9771427  67.6870322  50.0105049  37.6145374  67.4482069  50.5556843
  37.4026498  67.8907480  49.2758210  37.1347593  67.6821332  49.9822207
  31.6684069  69.9258658  53.8939353  31.7088214  70.1973509  53.0659133
  32.2278593  70.4500566  54.3097141  31.7567415  70.0434413  53.8331241
  37.6174242  62.9072611  44.3479939  38.0019394  62.6880318  45.0996484
  37.3685862  63.7335557  44.4781015  37.6376314  62.9970758  44.4781015
  37.7842782  56.1879027  64.0642523  37.4696223  56.9578589  63.8012086
  37.4632715  55.6249283  63.4794750  37.6901701  56.2189295  63.9383873
  48.3509429  66.6819249  55.3590607  48.0455246  67.4147306  55.7203923
  47.6315645  66.2757178  55.0783393  48.1996771  66.7300982  55.3703744
  39.3592899  68.1642744  51.6898835  39.4331907  68.0017916  52.5440685
  40.1762405  68.3532934  51.4459317  39.4909257  68.1679487  51.7796861
  54.0511221  63.3212250  54.6858951  53.9835722  63.3408209  53.8161538
  54.0366884  64.1642577  54.9114622  54.0389978  63.4485984  54.5911428
  33.1198655  68.5100607  48.7193279  32.2936773  68.7562344  48.5927558
  33.1810646  68.4312688  49.5855337  33.0072822  68.5345556  48.8282223
  35.3374679  54.5769548  49.6788719  34.4697104  54.6492147  49.7446328
  35.6249883  55.3791627  49.8676694  35.2514427  54.7063695  49.7163486
  44.4607568  54.7247407  58.0100041  45.2061160  54.5357218  57.5963466
  44.0444872  55.2505645  57.4513897  44.5092542  54.7749553  57.8664614
  37.8997484  71.1277487  46.4212309  38.1895783  70.7366469  45.6971535
  38.6300965  71.3094192  46.8617584  38.0504368  71.0971301  46.3795116
  51.8369839  62.0956636  52.9605546  52.3877760  61.4624705  53.2002638
  51.8213954  62.6272029  53.6521050  51.9155035  62.0805584  53.0984404
  38.4892229  65.9295233  57.5065439  37.9903923  66.6411001  57.5850328
  39.2992454  66.2495900  57.4683602  38.5348336  66.0822082  57.5122008
  35.8403400  73.1044870  49.4872459  35.6203695  72.8142224  50.2799126
  35.6197922  72.4459825  48.9590371  35.7750994  72.9644578  49.5261367
  34.7520347  65.1918186  51.7528160  34.4633596  64.5655657  52.2873888
  35.6203695  65.1338474  51.8192841  34.8380599  65.0905730  51.8419115
  45.5398245  60.3352970  52.0710142  45.1963011  59.6143305  52.4217392
  45.6391287  60.1266821  51.2288500  45.5040288  60.1977173  51.9981822
  38.0071356  74.4774260  48.2703151  38.6595414  73.9450702  48.4994177
  37.3096964  74.1242912  48.6571025  38.0002074  74.3463783  48.3615319
  34.9552620  66.8313437  47.6770525  35.7098588  67.2126476  47.8905988
  34.3623233  67.2824581  48.1317222  34.9789334  66.9542265  47.7753404
  46.0011274  66.7978674  47.6134130  46.5669307  67.4571884  47.5292673
  45.3539177  67.1428372  48.0850532  45.9890030  66.9460615  47.6706887
  37.4159287  58.7876278  62.8027738  36.6059063  59.0934057  62.6917580
  37.8933974  59.5081860  62.9180322  37.3662766  58.9390879  62.8034809
  36.2750847  68.0021999  53.0510641  35.7531601  68.1422290  53.7362505
  36.6624867  67.2432663  53.2412758  36.2554548  67.9107522  53.1811717
  33.2642031  58.0527807  47.1205595  32.9766827  57.6829078  46.3837543
  33.9512499  58.5222663  46.8589300  33.3230928  58.0674777  46.9720671
  42.4717852  69.7417458  47.0371209  42.2304528  69.0085318  46.6298274
  42.6519185  70.2904315  46.3837543  42.4625476  69.7139849  46.8801432
  37.7017173  65.0326018  48.4492132  37.5059955  65.6400752  47.8552435
  37.9251518  64.3393962  47.9683806  37.7051814  65.0203543  48.2908213
  36.0995703  61.9180756  48.5673000  36.8218355  62.0821914  48.1076806
  35.6203695  62.6390420  48.4612340  36.1359433  62.0478985  48.4838614
  44.0589210  58.2544554  53.9469685  43.2200311  58.2805833  53.7107948
  44.1293578  58.9015290  54.5275032  43.9457604  58.3540680  53.9978802
  33.7503319  64.3238828  57.6727140  34.2624416  64.6023081  57.0235900
  33.4639662  65.0628122  58.0389953  33.7838183  64.4741182  57.6317018
  47.9346734  63.4612541  51.2330927  47.8480709  63.6167967  52.0865706
  47.4797214  64.1050617  50.8590332  47.8549991  63.5788296  51.3038034
  30.8370226  58.8309020  47.9690876  30.9386362  59.6335181  48.2971852
  31.6326112  58.6296356  47.6713957  30.9698131  58.9194919  47.9726232
  37.2687045  56.4165217  57.7328182  37.0770242  56.4320351  58.5827605
  38.1185641  56.6128891  57.7094836  37.3662767  56.4479568  57.8551476
  31.6533958  58.9456198  55.7111998  31.5119450  58.0940139  55.8356506
  31.9374521  58.9884859  54.8874204  31.6741804  58.8255948  55.6079622
  41.8072550  60.7823288  49.8556486  41.5607264  60.7019039  50.6893275
  42.1357673  59.9976756  49.6619014  41.8193794  60.6549554  49.9504009
  45.7020599  67.4906648  53.6443268  45.5634958  68.1887693  54.1492010
  44.9220597  67.3355304  53.2879449  45.5663826  67.5706814  53.6669542
  44.0398684  63.7903023  59.8965649  44.0346723  62.9182839  59.9008076
  44.7459678  63.9891192  59.4235105  44.1443688  63.6906897  59.8272685
  37.7669577  63.5180007  59.2679469  37.9112953  64.0981215  58.6322579
  38.1145226  63.8956303  59.9729324  37.8397039  63.6600711  59.2778464
  39.9389495  62.7170175  57.0504601  39.1912809  62.9101190  56.6452879
  40.0931020  61.8915395  56.8128722  39.8511922  62.6235287  56.9550007
  36.8397332  71.7082779  56.1340496  36.9886896  71.1485694  55.4813901
  37.6197335  71.7874780  56.5173015  36.9771426  71.6368344  56.0937445
  47.1973972  66.8484901  44.4059767  46.8180781  66.0622039  44.3989056
  46.5340217  67.3971758  44.2631411  47.0432447  66.8129725  44.3840564
  39.3650633  71.8797421  57.4124987  39.2894304  71.2106232  57.9675775
  39.2940492  72.5815210  57.9265653  39.3431240  71.8842329  57.5701835
  40.1791272  56.6120726  57.9400005  40.6363886  57.3444700  58.0672797
  40.2547601  56.1887191  58.6987260  40.2582242  56.6577964  58.0701081
  32.4224263  56.8586546  59.0289448  31.8866453  56.2466904  59.3450216
  32.4842028  57.4334682  59.6823115  32.3519896  56.8533473  59.1724875
  40.0220880  70.3998420  48.2448593  40.7870771  70.1308064  47.9231257
  39.9198970  69.9148431  48.9618656  40.1202375  70.2887985  48.3028421
  38.0573650  58.6022830  54.7841829  37.2669725  58.4214290  55.1059165
  38.4534273  57.8249782  54.7672123  37.9990526  58.4610291  54.8294377
  42.5439541  67.4310604  40.2248542  43.3112526  67.4910729  39.8154394
  42.0970849  66.8591046  39.7404861  42.5912968  67.3547180  40.0926253
  43.4417336  66.2365260  52.5101275  42.7662338  66.0050492  53.0114662
  43.4509712  65.6286443  51.8843380  43.3435841  66.1124185  52.4917427
  40.5711480  61.0783089  59.2665328  40.5070621  61.9393045  59.1385464
  40.7108668  60.7615082  58.4660879  40.5826950  61.1583256  59.1293540
  45.4434071  69.0930392  44.7411453  45.5253908  69.8997379  44.4172903
  45.9283813  69.1126352  45.4652226  45.5271228  69.2151055  44.7998351
  39.2530574  63.7715228  53.4081531  38.8292823  63.9719727  52.6720549
  39.0775429  62.9244076  53.5205830  39.1641455  63.6764010  53.3155221
  38.7542267  75.2865741  55.8702988  39.2438198  74.5876530  55.6878652
  38.1826500  74.9889611  56.4579045  38.7426797  75.1391965  55.9304029
  34.5413019  64.2667280  48.8409503  34.6977638  64.2014082  49.6965495
  34.8813612  65.0415832  48.6288183  34.6146254  64.3716478  48.9364097
  41.0792163  63.6425163  47.7102866  41.6207709  63.1395544  48.1741487
  41.3938723  63.5890358  46.8992352  41.2056561  63.5604584  47.6586678
  44.9509271  67.8527811  64.8229778  45.7644136  67.5812959  64.9834911
  44.7904237  67.5535351  64.0189974  45.0479219  67.7682737  64.7275184
  39.2478613  69.0342515  44.9942894  39.3171434  68.1757053  45.1335895
  40.0267068  69.2514396  44.6661919  39.3731463  68.9395379  44.9660052
  42.2281433  58.5361468  57.7625167  42.4423402  57.8972382  57.2088521
  41.6115332  58.9807292  57.3333028  42.1686762  58.5071611  57.6175598
  43.6386101  71.4580216  49.2079388  43.2465893  71.1546931  48.4902254
  43.7939173  72.2949306  49.0184341  43.6039691  71.5364053  49.0735885
  31.1147280  61.4502230  49.1570270  31.4946245  61.8686775  48.4930538
  30.5402645  62.0315686  49.4639114  31.0858605  61.5980089  49.1047011
  44.3920521  60.1450533  58.7008474  43.5797203  59.8376423  58.7821647
  44.8510455  59.6649533  59.2651186  44.3400906  60.0287025  58.7963068
  43.8025776  68.0230205  49.1485418  43.4440430  68.1944848  49.9249451
  43.3164486  68.4843411  48.5913417  43.6784472  68.1169176  49.1810687
  38.5914141  63.7029370  41.6885653  38.8806666  64.4794253  41.9629227
  38.6785940  63.1918102  42.3900152  38.6468397  63.7421289  41.8328150
  41.4874028  61.5510604  63.4837176  41.9573660  62.1752721  63.8705050
  41.5335909  60.8827580  64.0430391  41.5641904  61.5445285  63.6237248
  40.7137535  54.1960592  56.0378832  40.3269289  54.2209623  56.8192362
  40.2270473  53.6302271  55.5853349  40.5850044  54.1156343  56.0866736
  44.9630515  68.9134101  60.0952619  45.6010235  68.4194297  59.7615075
  44.3204606  68.8411501  59.5104846  44.9624741  68.8293109  59.9594974
  46.6887515  60.7623247  54.6618535  46.2615123  60.6749595  53.9066634
  46.0513568  60.8701022  55.2473379  46.5317122  60.7655907  54.6363976
  40.3794677  51.0827577  58.3289092  41.0087795  51.6187877  58.0510163
  40.5480540  50.9904936  59.1802658  40.4972472  51.1488940  58.4137621
  40.1808592  55.8698772  60.6015504  41.0082021  55.5983921  60.6574118
  40.2016438  56.6659614  60.9579322  40.3061442  55.9478526  60.6630687
  45.0184771  69.6053909  56.7357976  45.8077150  69.2542974  56.8560057
  45.1928369  70.4190298  56.4734610  45.1605053  69.6739766  56.7145844
  34.7578082  63.0162635  53.7885765  33.9166088  62.9166509  53.9964658
  34.9668090  63.7858115  54.1400085  34.6642774  63.1154678  53.8713080
  32.2353649  60.6382172  51.6170515  31.8410347  60.7125184  50.8420625
  31.6793766  61.0240118  52.1678877  32.0956461  60.7063946  51.5838175
  38.5694747  60.9444034  53.0383362  38.2657884  60.3900022  53.6393770
  37.8674168  61.1236244  52.5511396  38.4210957  60.8888816  53.0553068
  37.6260844  58.2544554  47.6028064  37.9020578  57.5363466  47.1905632
  38.2259513  58.8529474  47.3949170  37.7554109  58.2364925  47.5108825
  36.6313098  68.1593755  57.7455460  36.5233453  68.1695817  58.6117518
  36.8408879  68.9848535  57.5560414  36.6463209  68.2834830  57.8459552
  41.1271364  55.9258071  45.8774659  41.5815111  56.0968632  46.6022504
  41.6011410  55.3126182  45.4772435  41.2639685  55.8608956  45.9248421
  34.6486890  65.4106397  55.2077398  34.0574823  66.0515895  55.1780413
  35.4107913  65.8344014  55.1808697  34.6735150  65.5682236  55.1992545
  35.0447513  56.5708395  55.8745415  35.5048994  56.6447324  56.6120539
  35.0903619  57.3689649  55.5245237  35.1198068  56.7002542  55.9318172
  36.6930862  57.2375090  60.4417442  36.3016427  56.5908437  60.8773220
  36.8616725  57.8286525  61.0611698  36.6601773  57.2289358  60.5980148
  50.7677311  65.2412167  56.2054676  50.8260435  65.6898816  56.9514652
  50.1343779  65.6510980  55.7684756  50.6828606  65.3685902  56.2507224
  44.4076406  70.8615709  52.6409422  44.2096095  71.3506523  51.9465633
  43.7864117  71.0656950  53.2193555  44.2863970  70.9632247  52.6232645
  38.4684384  62.6300606  46.9819666  39.2126429  63.0174882  47.2202616
  38.6145081  61.7858031  47.1460154  38.5994969  62.5631078  47.0413636
  41.4562260  58.2026079  52.8813586  40.9822214  57.6767841  53.3918897
  41.8280396  57.6555552  52.3128447  41.4412149  58.0442076  52.8728733
  31.8335290  60.1997586  58.2497131  32.6960903  60.0993295  58.1634461
  31.5027073  59.6192295  57.6882704  31.9120487  60.0989212  58.1542537
  47.7198991  63.2628455  54.2920366  47.4797214  62.4234870  54.2962793
  48.1990998  63.3428621  55.0161140  47.7551174  63.1509854  54.3995168
  43.3845760  59.0962634  45.9439339  42.8568779  59.1791378  45.2545048
  43.8441468  59.8380505  45.9403984  43.3747610  59.2183296  45.8414035
  49.7204178  60.0429912  52.2449625  49.4813948  60.0025746  51.4070410
  49.8838079  60.8901064  52.3715346  49.7094481  60.1621997  52.1403107
  46.3250208  64.4279861  58.1754670  47.0484407  63.9752388  57.9965690
  46.0600170  64.7084527  57.3926998  46.3931481  64.4030830  58.0333386
  35.1937076  59.0240035  54.9107550  34.5690147  59.0358427  54.3033502
  34.8582671  59.5000210  55.5598790  35.0522568  59.0958552  54.9164118
  35.3778825  57.3665153  40.9680235  35.0291629  58.0184878  41.4311784
  34.8975271  57.3522266  40.2404106  35.2549069  57.4608207  40.9291326
  31.9062752  67.0840495  56.3511314  31.3762676  66.3932934  56.4006289
  32.1787845  67.0750680  55.5224022  31.8687474  66.9807627  56.2358730
  42.9382842  67.6666197  45.0748996  43.6617041  68.1324310  44.9313570
  42.4983433  67.7339807  44.3246593  42.9798535  67.7450034  44.9433778
  42.1068997  64.5263739  56.3249685  41.4925991  63.9821790  56.6198321
  42.6236282  64.0127976  55.8455502  42.0924660  64.3700148  56.2973914
  41.3465295  65.5968009  54.0593984  40.9192903  64.9717728  53.6259419
  41.3390239  65.3142931  54.8852991  41.2824436  65.4620790  54.1173812
  34.4627822  60.6333182  57.1282418  34.6221308  59.8776507  57.5334140
  34.2820715  61.1824122  57.7823156  34.4593181  60.6026996  57.2845124
  42.4048125  52.7994418  57.6833208  41.9088686  52.9958092  56.9924774
  43.1617187  53.1987086  57.5122009  42.4434949  52.8872152  57.5553344
  39.6751004  56.4736764  54.2736518  39.6993491  55.9396876  53.5849298
  39.9262478  55.9654073  54.9362109  39.7160923  56.3197668  54.2701163
  27.1858594  63.7568259  53.7079662  27.0802043  63.7115103  52.8431746
  26.4358814  64.1022039  53.9893947  27.0594197  63.8009167  53.6216992
  35.9552327  55.2007582  53.6542262  35.9950698  55.7016789  54.3676970
  35.1301991  55.2917976  53.3848185  35.8391852  55.2889398  53.7192801
  38.1381939  64.7668322  61.7562557  37.2877570  64.9040036  61.8920202
  38.3010067  64.0332100  62.2010259  38.0365803  64.6782423  61.8418156
  37.3766690  61.7168092  55.9516161  36.5458620  61.8841910  55.7451410
  37.3218207  61.3404043  56.7365047  37.2456105  61.6857823  56.0364690
  35.1850473  55.2076985  61.5872572  35.8103177  54.6639118  61.8602004
  34.7300953  54.7271902  61.0180362  35.2098734  55.0566466  61.5434166
  35.7502734  59.9923684  46.4806279  35.8905695  60.4896148  47.1834920
  36.2485267  59.2909978  46.6220493  35.8443815  59.9625662  46.6057858
  35.7802956  60.8590795  43.8098856  36.4148036  61.4551220  43.7448318
  35.8628567  60.5594252  44.6244726  35.8859507  60.9031703  43.9201942
  48.7585522  63.3906272  56.6785220  49.3503362  64.0303523  56.7103418
  49.1944516  62.6929309  56.9677287  48.9103953  63.3824622  56.7266053
  37.3581939  56.7904770  43.7844298  37.6797780  56.3107852  43.1303560
  37.6208883  57.6004416  43.5935110  37.4447964  56.8394668  43.6599790
  40.5878912  67.8123644  57.3043114  40.0804003  68.3659491  57.7483745
  40.2905558  67.8731934  56.4861889  40.4683797  67.9029955  57.2491571
  42.7541094  56.1776964  56.1467777  43.1796166  55.7249490  55.5351303
  42.1398087  55.6237035  56.4232564  42.7269739  56.0290940  56.0972802
  32.2855944  63.0558635  47.0788402  32.7948173  63.6523143  47.4599707
  32.7590216  62.7884609  46.3964822  32.4299320  63.1044451  47.0342925
  43.1986692  71.7286902  45.2347058  42.4816002  71.5547764  44.7694295
  43.8493430  71.4939474  44.7022544  43.1888543  71.6682695  45.0876275
  45.7834663  60.6051491  48.9788363  45.1125853  61.1481193  48.8501428
  46.4774414  61.0746346  48.7370057  45.7863531  60.7549762  48.9243890
  39.8321397  72.7448203  54.2100121  39.6087051  71.9867032  54.5784147
  39.3431240  72.7746224  53.4880561  39.7264846  72.6370427  54.1576862
  45.9462791  57.0607374  51.8878736  46.2990401  56.6337097  52.5624535
  45.0877592  56.9758218  52.0179812  45.8712235  56.9852115  52.0073746
  34.6446476  59.6914894  49.9461582  33.9258465  60.1079026  50.2134446
  35.0158838  60.2569133  49.3953221  34.5938408  59.8364175  49.9044389
  43.9446057  60.3242743  55.8363578  43.9243984  60.1426038  56.6898357
  43.9925257  61.1954761  55.8123162  43.9480698  60.4259281  55.9586873
  41.8892386  66.9129935  61.7612055  41.8488241  66.2679612  61.1757211
  42.7015705  66.8566552  62.0737467  42.0035540  66.8088902  61.7209004
  38.4799854  72.9648661  51.6637206  38.0660253  72.3022791  51.2741047
  39.1647228  73.1126519  51.1432900  38.5198226  72.8889319  51.5293703
  41.8465148  72.1238746  52.4160822  41.4481431  72.2341016  51.6481642
  41.2316368  72.3320812  52.9987382  41.6964037  72.1712314  52.3892121
  40.4193050  58.7312894  45.2834962  39.8257889  59.0529890  44.7319529
  40.4568328  57.8853989  45.0756068  40.3367439  58.6537222  45.1717733
  43.2950867  58.6892398  48.7136712  43.0664560  58.7125100  47.8715070
  43.5548943  57.8649865  48.8331723  43.2997055  58.5708478  48.6061910
  37.5770095  60.5426871  58.3161812  37.0648998  59.9348054  58.6746844
  37.4049591  61.2583464  58.7835788  37.4759732  60.5590171  58.4378036
  32.4235810  58.9864447  60.9664174  32.2538400  59.6465821  60.4212381
  31.9801760  59.1971008  61.6876663  32.3335143  59.1150429  60.9925804
  36.3495629  57.2268945  50.0090908  36.8252995  57.5886024  49.3741089
  35.8484229  57.8825412  50.2891050  36.3460988  57.3763133  49.9567649
  49.5806991  66.6990713  45.8003913  49.9640597  67.4482069  46.0302010
  48.7851104  66.9456532  45.5415902  49.5200773  66.8460406  45.7961486
  41.4539165  58.4651116  60.7564068  42.0110596  58.2364925  60.1242533
  41.1300231  59.2256782  60.4799280  41.4885576  58.5434953  60.6220565
  29.3237874  61.8911312  56.2252664  28.7764594  61.2211958  56.3433532
  30.1130253  61.5241160  56.2896131  29.3590058  61.7376299  56.2521364
  39.1722283  61.5518769  61.7216075  39.9233610  61.8670446  62.0355629
  39.3644859  61.3497940  60.8949997  39.3113697  61.5686151  61.6459471
  38.3922282  59.3710144  43.3764292  38.7721247  59.3889774  42.5915406
  37.6514878  59.8164133  43.2555139  38.3391120  59.4391919  43.2427860
  46.0207573  57.6792336  48.9639870  46.0201799  57.5240992  49.8224147
  45.8163753  58.5255323  48.9081256  45.9907351  57.7812956  49.0827810
  28.0824844  61.1032120  53.3798687  27.9046605  60.6508729  54.1053603
  27.7943866  61.9058281  53.5637164  28.0137797  61.1554678  53.5142190
  43.7448425  62.3589837  52.6176077  44.2402090  61.6412832  52.5780098
  42.9348201  62.0560635  52.5030564  43.6992318  62.2087484  52.5949803
  39.1907036  66.2087651  44.7673082  38.3818359  65.8854324  44.7206391
  39.6981945  65.5020873  44.7001330  39.1456703  66.0568967  44.7503376
  29.8197314  63.6359844  50.4920446  28.9542833  63.6245534  50.3803217
  29.9196130  63.4490067  51.3391585  29.7071481  63.6065905  50.6009390
  45.8100244  65.1093525  55.3053206  46.2355315  64.5867947  54.7523631
  45.4457164  65.7074362  54.7841829  45.8186846  65.1203752  55.1462216
  35.4454324  73.4057742  54.0650552  35.7600883  74.2194131  54.0728333
  35.8547737  73.0207961  54.7332711  35.5522422  73.4686445  54.1654643
  42.3978843  68.8227789  51.6354363  42.8690021  69.5368052  51.8044349
  42.7339022  68.2226539  52.1714233  42.5173958  68.8399253  51.7386739
  44.4855828  70.4329102  63.8146436  44.5952793  69.6437663  64.1703183
  44.8146724  70.3435039  63.0120774  44.5508234  70.3034955  63.7488826
  39.3148338  53.5955260  58.5912458  39.4476244  52.7986253  58.9193434
  39.6993491  54.1221663  59.1710734  39.3904667  53.5555176  58.7255961
  43.0352790  68.6145723  58.3982056  42.4873736  67.9903607  58.1302121
  43.4965818  68.8039995  57.6826136  43.0219999  68.5504773  58.2532487
  45.8446654  56.6831078  55.7833248  45.2609643  57.1840284  55.3710816
  46.1650948  56.1760634  55.1497572  45.8059829  56.6822913  55.6291756
  38.3841453  55.5971673  46.0591923  39.2057147  55.7669985  45.8173618
  37.9211104  55.7518934  45.3358221  38.4372615  55.6453406  45.9163568
  36.9736785  53.5914435  56.8390352  37.5181198  53.2505562  57.4294694
  37.0273721  54.4499896  56.9811637  37.0625904  53.6669694  56.9472225
  32.7867344  67.3530851  53.7129160  33.3912201  67.3126685  53.0842981
  32.5794656  68.2002003  53.7433216  32.8456241  67.4718853  53.6245276
  42.6011116  69.6196796  54.9291397  43.4209490  69.4759762  55.1907692
  42.3205194  70.2442995  55.4707835  42.6807859  69.6907148  55.0479337
  28.0218626  66.3365468  53.5828083  27.9242904  65.5261740  53.8918140
  28.8047496  66.3157262  53.1974351  28.1234763  66.2132559  53.5714946
  59.0724766  77.2761648  47.8934274  59.0418771  78.1306284  48.0652543
  59.6706115  76.9756940  48.4520417  59.1561924  77.3578144  48.0009076
  52.2724451  76.3637299  52.6487204  51.4162347  76.5245797  52.6996321
  52.3192105  75.4929363  52.6692265  52.1523563  76.2588101  52.6593270
  55.1176272  78.4229343  55.2918856  55.6632232  79.1014429  55.3512825
  55.0593148  78.2816803  54.4320437  55.1892186  78.5021344  55.1730916
  56.8941341  79.8513950  46.1652584  56.7780867  80.6021636  46.5944722
  57.6897227  79.5937903  46.4148671  56.9945930  79.9248797  46.2656675
  43.7305479  74.1024426  53.2023850  43.1110510  73.5117073  53.0333864
  43.6289342  74.6935861  52.5688173  43.6243154  74.1028508  53.0828839
  48.7771666  83.8407973  47.4521926  49.0987507  84.3813180  46.8483234
  49.4243763  83.2704744  47.5844216  48.9197721  83.8367148  47.3828961
  50.8273374  75.8423968  47.5356313  51.5253539  76.0212095  48.0277776
  51.1425707  75.3194307  46.9126702  50.9768712  75.7917740  47.5158323
  43.4574612  77.6476708  55.4467418  43.3333309  78.2339153  56.0817237
  44.1092896  77.1536903  55.7479693  43.5348261  77.6615512  55.5853348
  51.0161310  82.2294413  47.5236104  51.4554945  81.6211513  47.9690877
  50.8665973  81.8501786  46.7521569  51.0582775  82.0832884  47.4755271
  48.4832953  80.8238425  54.7254930  49.1281955  80.3310868  54.4065878
  48.7234730  80.9663211  55.5521008  48.6143538  80.7715867  54.8004463
  51.0219044  83.6693330  54.3761822  51.3042287  82.8744736  54.1548578
  51.7505205  84.1473918  54.3966883  51.1708608  83.6227927  54.3464837
  49.0000238  71.2116364  51.6177587  48.6703568  71.6627508  50.9481286
  48.3245240  71.1332528  52.1650594  48.8510674  71.2667500  51.6000811
  54.6170646  80.5821594  44.4766873  54.5321941  81.4382561  44.6216442
  55.1055030  80.3065918  45.1449032  54.6759544  80.6678915  44.5968955
  56.2076646  67.2001887  49.8627198  55.8930087  67.8905366  50.2947620
  55.6903587  67.1446669  49.1612699  56.0841116  67.2936776  49.8224147
  55.5489080  77.2006388  45.9764608  55.0200551  77.4166022  46.6361915
  56.0714099  77.8942527  45.8965578  55.5477533  77.3349525  46.0620208
  47.4388687  81.0969605  44.7772076  46.8545903  81.6019636  45.1837940
  47.0358783  80.8711992  44.0368668  47.2927991  81.1377853  44.7277102
  51.8965902  77.3435257  43.2540997  52.1361905  77.5513241  42.4416340
  52.2181743  76.5392766  43.3629942  51.9803060  77.2549358  43.1501550
  47.2056192  69.2728653  47.1000535  47.9602160  69.6406970  46.8617585
  47.0283727  69.6468207  47.8679715  47.2910670  69.3826841  47.1785423
  60.4991091  75.4223093  55.1448074  59.6619512  75.4925280  55.3795669
  60.4679322  75.4247588  54.2722377  60.3709373  75.4333320  55.0507622
  46.8955820  77.5656129  60.8596443  47.0676323  77.4562024  61.7081724
  47.4325177  78.2110534  60.6227635  47.0000824  77.6448131  60.9501540
  45.5613257  71.6798972  43.7978648  45.3788830  71.8970853  42.9719641
  46.4238870  71.7937984  43.8537262  45.6617846  71.7288870  43.6833135
  51.2412976  68.6825382  46.8327672  51.9699136  68.5041337  46.3865828
  51.3307869  69.5243462  47.0434850  51.3619638  68.7809261  46.7981189
  55.2221277  79.6178770  50.7359966  55.9778792  80.0510284  50.7748874
  55.3283601  78.9683540  51.3094602  55.3491447  79.5856254  50.8257991
  41.2017537  80.1588060  55.6949363  40.9355952  79.3427177  55.8540353
  41.2156101  80.2041215  54.8244878  41.1642259  80.0444965  55.5902845
  58.1798931  70.4865875  53.7291797  58.8224839  70.5563979  54.3153712
  58.4321951  69.8195098  53.2271339  58.3121063  70.3992223  53.7419076
  45.1075284  74.9573144  42.3101121  44.3933461  74.6711324  42.7223554
  45.5919252  75.2969770  42.9507508  45.0734647  74.9654794  42.4656756
  45.9516143  73.6966438  58.3416371  45.2587940  73.2263418  58.5877102
  46.5676470  73.4704743  58.9158078  45.9400673  73.5933570  58.4625523
  52.2822602  83.4603098  42.6862929  52.6973750  83.1288122  41.9947425
  51.4514531  83.2272001  42.5583066  52.2210610  83.3774354  42.5653777
  41.6110950  80.9446839  52.9761107  41.4286524  80.9193725  52.1233399
  42.3460619  81.4145777  53.0150016  41.6925014  81.0108202  52.8559026
  57.6810625  81.1798349  50.1193995  57.9166214  81.3243548  49.2920845
  57.8300188  81.9440757  50.5125508  57.7376428  81.3137404  50.0557599
  44.6756702  77.6631842  59.4843216  45.3996674  77.6484873  59.9708111
  44.7772839  78.3727197  58.9865184  44.7974911  77.7656545  59.4822003
  59.5101081  80.0200015  47.9563599  59.8409298  80.5527655  47.3503693
  60.0834169  80.0738903  48.6125549  59.6434760  80.1069584  47.9641380
  54.7232970  77.8664918  48.6387179  54.8179825  78.6054212  49.0926804
  54.0991814  77.4382393  49.0721743  54.6442001  77.9126239  48.7695326
  41.5781861  77.8240340  53.1260174  42.1555363  77.6876791  53.7652419
  40.8795922  77.3676124  53.3805758  41.5602882  77.7362606  53.2582463
  54.9755992  79.7113658  41.8724131  54.8936154  79.7815845  42.7379118
  55.6135712  80.2743402  41.6807871  55.0575829  79.8052629  41.9714080
  48.3349163  79.4774396  51.3398657  48.0768407  78.6446131  51.3129956
  48.3897646  79.7032009  50.4991157  48.3048941  79.3872167  51.2118794
  53.4150213  71.5802846  51.4402750  52.7106540  71.0912032  51.5986669
  53.4635187  71.5925321  50.5691194  53.3180265  71.5092494  51.3342089
  47.3083875  77.0312158  51.8263552  46.7333466  77.1904327  52.4627513
  46.9319551  76.3947567  51.3632002  47.1686687  76.9609971  51.8518110
  50.9757164  75.5035507  56.6855930  50.5871596  75.0789725  56.0308121
  50.3111862  75.7517657  57.1932957  50.8204091  75.4774229  56.6643798
  60.6180433  75.2610512  49.4603760  60.3616998  74.4490454  49.2701643
  61.4609747  75.2688079  49.2333947  60.7046458  75.1422510  49.3988577
  37.0540694  76.6752233  49.8407992  37.1400946  76.2984101  50.6221522
  37.6816491  76.3012679  49.3627951  37.1597245  76.5637715  49.8853470
  54.7983525  69.2010136  54.1979914  55.1794037  68.5188307  54.5847789
  53.9946810  68.9119738  54.0155579  54.7359987  69.0577185  54.2283970
  52.0796102  79.7334112  44.8832737  52.8936741  80.0249005  44.7715508
  52.0155243  79.0793974  44.3091030  52.1898841  79.6799307  44.7821574
  47.9504010  83.2055629  50.0105049  48.5877957  82.9667377  50.5556843
  48.3759082  83.4092788  49.2758210  48.1080176  83.2006640  49.9822207
  48.5906825  78.4257919  44.3479939  48.9751978  78.2065626  45.0996484
  48.3418446  79.2520865  44.4781015  48.6108898  78.5156066  44.4781015
  48.7575366  71.7064334  64.0642523  48.4428807  72.4763897  63.8012086
  48.4365298  71.1434590  63.4794750  48.6634285  71.7374603  63.9383873
  50.3325482  83.6828052  51.6898835  50.4064490  83.5203224  52.5440685
  51.1494988  83.8718242  51.4459317  50.4641841  83.6864794  51.7796861
  46.3107263  70.0954856  49.6788719  45.4429688  70.1677455  49.7446328
  46.5982467  70.8976935  49.8676694  46.2247011  70.2249003  49.7163486
  55.4340151  70.2432715  58.0100041  56.1793743  70.0542526  57.5963466
  55.0177456  70.7690953  57.4513897  55.4825126  70.2934861  57.8664614
  62.8102422  77.6141944  52.9605546  63.3610344  76.9810013  53.2002638
  62.7946538  78.1457337  53.6521050  62.8887619  77.5990892  53.0984404
  49.4624813  81.4480541  57.5065439  48.9636507  82.1596309  57.5850328
  50.2725037  81.7681208  57.4683602  49.5080920  81.6007390  57.5122008
  45.7252931  80.7103494  51.7528160  45.4366179  80.0840965  52.2873888
  46.5936279  80.6523782  51.8192841  45.8113183  80.6091038  51.8419115
  56.5130828  75.8538277  52.0710142  56.1695594  75.1328613  52.4217392
  56.6123871  75.6452129  51.2288500  56.4772871  75.7162481  51.9981822
  45.9285204  82.3498745  47.6770525  46.6831172  82.7311784  47.8905988
  45.3355817  82.8009889  48.1317222  45.9521918  82.4727573  47.7753404
  48.3891871  74.3061585  62.8027738  47.5791647  74.6119365  62.6917580
  48.8666558  75.0267168  62.9180322  48.3395350  74.4576187  62.8034809
  47.2483431  83.5207306  53.0510641  46.7264184  83.6607598  53.7362505
  47.6357451  82.7617971  53.2412758  47.2287132  83.4292830  53.1811717
  44.2374615  73.5713115  47.1205595  43.9499410  73.2014386  46.3837543
  44.9245083  74.0407971  46.8589300  44.2963512  73.5860085  46.9720671
  48.6749756  80.5511326  48.4492132  48.4792539  81.1586060  47.8552435
  48.8984102  79.8579270  47.9683806  48.6784397  80.5388851  48.2908213
  47.0728286  77.4366063  48.5673000  47.7950938  77.6007222  48.1076806
  46.5936279  78.1575728  48.4612340  47.1092017  77.5664293  48.4838614
  55.0321794  73.7729862  53.9469685  54.1932894  73.7991141  53.7107948
  55.1026161  74.4200598  54.5275032  54.9190187  73.8725988  53.9978802
  44.7235903  79.8424136  57.6727140  45.2357000  80.1208389  57.0235900
  44.4372246  80.5813430  58.0389953  44.7570766  79.9926490  57.6317018
  53.4791072  70.6715239  48.6797301  54.1817425  70.4722988  48.2017259
  53.2135261  69.8991182  48.9866144  53.5437704  70.5278205  48.6542743
  58.9079318  78.9797849  51.2330927  58.8213292  79.1353275  52.0865706
  58.4529798  79.6235925  50.8590332  58.8282574  79.0973604  51.3038034
  41.8102809  74.3494328  47.9690876  41.9118946  75.1520489  48.2971852
  42.6058696  74.1481664  47.6713957  41.9430715  74.4380226  47.9726232
  48.2419628  71.9350524  57.7328182  48.0502825  71.9505659  58.5827605
  49.0918224  72.1314199  57.7094836  48.3395350  71.9664876  57.8551476
  42.6266541  74.4641506  55.7111998  42.4852033  73.6125447  55.8356506
  42.9107105  74.5070167  54.8874204  42.6474387  74.3441256  55.6079622
  52.7805134  76.3008596  49.8556486  52.5339848  76.2204347  50.6893275
  53.1090257  75.5162064  49.6619014  52.7926377  76.1734861  49.9504009
  48.7402161  79.0365315  59.2679469  48.8845537  79.6166523  58.6322579
  49.0877810  79.4141611  59.9729324  48.8129622  79.1786019  59.2778464
  50.9122078  78.2355483  57.0504601  50.1645392  78.4286497  56.6452879
  51.0663604  77.4100703  56.8128722  50.8244506  78.1420594  56.9550007
  51.1523855  72.1306034  57.9400005  51.6096470  72.8630008  58.0672797
  51.2280184  71.7072499  58.6987260  51.2314825  72.1763272  58.0701081
  43.3956847  72.3771854  59.0289448  42.8599036  71.7652212  59.3450216
  43.4574611  72.9519989  59.6823115  43.3252479  72.3718781  59.1724875
  55.6251181  65.3095909  51.8093848  55.7434749  65.7672372  51.0761150
  55.4513357  64.5041170  51.5230065  55.6170352  65.2589681  51.6594781
  49.0306233  74.1208138  54.7841829  48.2402308  73.9399598  55.1059165
  49.4266856  73.3435090  54.7672123  48.9723110  73.9795599  54.8294377
  53.5172124  82.9495912  40.2248542  54.2845109  83.0096037  39.8154394
  53.0703433  82.3776353  39.7404861  53.5645551  82.8732488  40.0926253
  54.4149920  81.7550568  52.5101275  53.7394921  81.5235800  53.0114662
  54.4242296  81.1471751  51.8843380  54.3168424  81.6309493  52.4917427
  51.5444064  76.5968397  59.2665328  51.4803205  77.4578353  59.1385464
  51.6841251  76.2800390  58.4660879  51.5559534  76.6768563  59.1293540
  50.2263158  79.2900536  53.4081531  49.8025407  79.4905035  52.6720549
  50.0508013  78.4429384  53.5205830  50.1374038  79.1949318  53.3155221
  45.5145602  79.7852588  48.8409503  45.6710222  79.7199390  49.6965495
  45.8546196  80.5601140  48.6288183  45.5878837  79.8901786  48.9364097
  52.0524747  79.1610471  47.7102866  52.5940293  78.6580852  48.1741487
  52.3671306  79.1075666  46.8992352  52.1789144  79.0789892  47.6586678
  50.2211197  84.5527823  44.9942894  50.2904017  83.6942361  45.1335895
  50.9999652  84.7699704  44.6661919  50.3464047  84.4580687  44.9660052
  53.2014016  74.0546776  57.7625167  53.4155986  73.4157690  57.2088521
  52.5847916  74.4992600  57.3333028  53.1419346  74.0256919  57.6175598
  42.0879864  76.9687538  49.1570270  42.4678829  77.3872083  48.4930538
  41.5135229  77.5500994  49.4639114  42.0591189  77.1165397  49.1047011
  55.3653104  75.6635841  58.7008474  54.5529786  75.3561731  58.7821647
  55.8243039  75.1834841  59.2651186  55.3133489  75.5472333  58.7963068
  54.7758359  83.5415513  49.1485418  54.4173014  83.7130156  49.9249451
  54.2897070  84.0028718  48.5913417  54.6517056  83.6354484  49.1810687
  52.5928745  67.1646711  52.7512510  51.7222303  67.1385432  52.7045819
  52.8469086  66.9923904  51.9338355  52.5022305  67.1356855  52.6232646
  49.5646725  79.2214678  41.6885653  49.8539249  79.9979561  41.9629227
  49.6518523  78.7103410  42.3900152  49.6200981  79.2606597  41.8328150
  49.6177886  69.1752940  54.2085980  49.1016374  68.4833131  54.3337559
  49.0571814  69.8423717  54.1548579  49.4584399  69.1716197  54.2192046
  51.6870119  69.7145900  56.0378832  51.3001872  69.7394931  56.8192362
  51.2003056  69.1487578  55.5853349  51.5582628  69.6341651  56.0866736
  57.6620099  76.2808555  54.6618535  57.2347707  76.1934903  53.9066634
  57.0246152  76.3886330  55.2473379  57.5049706  76.2841215  54.6363976
  51.3527261  66.6012885  58.3289092  51.9820379  67.1373185  58.0510163
  51.5213123  66.5090244  59.1802658  51.4705055  66.6674248  58.4137621
  51.1541176  71.3884080  60.6015504  51.9814605  71.1169229  60.6574118
  51.1749022  72.1844922  60.9579322  51.2794026  71.4663834  60.6630687
  45.7310666  78.5347943  53.7885765  44.8898672  78.4351817  53.9964658
  45.9400673  79.3043423  54.1400085  45.6375358  78.6339986  53.8713080
  43.2086232  76.1567480  51.6170515  42.8142930  76.2310492  50.8420625
  42.6526349  76.5425426  52.1678877  43.0689045  76.2249254  51.5838175
  54.8451179  69.1348774  51.2974394  55.0500773  69.0671082  52.1431391
  54.5177603  69.9407595  51.2295572  54.8266427  69.2434714  51.4134049
  49.5427330  76.4629342  53.0383362  49.2390468  75.9085330  53.6393770
  48.8406751  76.6421552  52.5511396  49.3943540  76.4074124  53.0553068
  48.5993427  73.7729862  47.6028064  48.8753162  73.0548774  47.1905632
  49.1992097  74.3714782  47.3949170  48.7286692  73.7550233  47.5108825
  58.0984867  69.6880538  50.7777160  57.4859181  70.1750940  51.1630892
  58.1949042  69.0124029  51.3214811  58.0222765  69.6598847  50.9156018
  52.1003948  71.4443379  45.8774659  52.5547695  71.6153940  46.6022504
  52.5743994  70.8311490  45.4772435  52.2372268  71.3794264  45.9248421
  45.6219473  80.9291705  55.2077398  45.0307407  81.5701203  55.1780413
  46.3840497  81.3529322  55.1808697  45.6467734  81.0867544  55.1992545
  46.0180096  72.0893703  55.8745415  46.4781578  72.1632632  56.6120539
  46.0636203  72.8874957  55.5245237  46.0930651  72.2187850  55.9318172
  47.6663446  72.7560398  60.4417442  47.2749011  72.1093745  60.8773220
  47.8349309  73.3471833  61.0611698  47.6334356  72.7474666  60.5980148
  49.4416968  78.1485914  46.9819666  50.1859013  78.5360190  47.2202616
  49.5877664  77.3043339  47.1460154  49.5727553  78.0816386  47.0413636
  51.3596543  69.9436172  52.0151528  50.5132588  70.1158980  51.8892877
  51.3567676  69.1385516  52.3517356  51.2343693  69.8497201  52.0462655
  52.4294844  73.7211387  52.8813586  51.9554798  73.1953149  53.3918897
  52.8012980  73.1740860  52.3128447  52.4144733  73.5627383  52.8728733
  42.8067874  75.7182894  58.2497131  43.6693487  75.6178603  58.1634461
  42.4759657  75.1377603  57.6882704  42.8853070  75.6174520  58.1542537
  58.6931574  78.7813763  54.2920366  58.4529797  77.9420178  54.2962793
  59.1723582  78.8613929  55.0161140  58.7283758  78.6695162  54.3995168
  54.3578343  74.6147941  45.9439339  53.8301362  74.6976685  45.2545048
  54.8174052  75.3565813  45.9403984  54.3480194  74.7368604  45.8414035
  60.6936761  75.5615220  52.2449625  60.4546531  75.5211054  51.4070410
  60.8570663  76.4086372  52.3715346  60.6827065  75.6807305  52.1403107
  46.1669660  74.5425343  54.9107550  45.5422730  74.5543735  54.3033502
  45.8315255  75.0185518  55.5598790  46.0255152  74.6143860  54.9164118
  46.3511409  72.8850461  40.9680235  46.0024213  73.5370186  41.4311784
  45.8707854  72.8707574  40.2404106  46.2281653  72.9793515  40.9291326
  53.9115426  83.1851505  45.0748996  54.6349625  83.6509618  44.9313570
  53.4716017  83.2525115  44.3246593  53.9531118  83.2635342  44.9433778
  53.0801581  80.0449047  56.3249685  52.4658574  79.5007098  56.6198321
  53.5968866  79.5313284  55.8455502  53.0657243  79.8885456  56.2973914
  52.3197878  81.1153317  54.0593984  51.8925486  80.4903036  53.6259419
  52.3122823  80.8328239  54.8852991  52.2557019  80.9806098  54.1173812
  45.4360405  76.1518490  57.1282418  45.5953892  75.3961815  57.5334140
  45.2553299  76.7009430  57.7823156  45.4325764  76.1212304  57.2845124
  53.3780708  68.3179726  57.6833208  52.8821270  68.5143400  56.9924774
  54.1349770  68.7172394  57.5122009  53.4167533  68.4057460  57.5553344
  50.6483588  71.9922072  54.2736518  50.6726075  71.4582184  53.5849298
  50.8995061  71.4839381  54.9362109  50.6893507  71.8382976  54.2701163
  38.1591178  79.2753567  53.7079662  38.0534627  79.2300411  52.8431746
  37.4091398  79.6207347  53.9893947  38.0326781  79.3194475  53.6216992
  46.9284910  70.7192890  53.6542262  46.9683282  71.2202097  54.3676970
  46.1034575  70.8103284  53.3848185  46.8124436  70.8074706  53.7192801
  48.3499274  77.2353400  55.9516161  47.5191203  77.4027218  55.7451410
  48.2950791  76.8589351  56.7365047  48.2188688  77.2043131  56.0364690
  46.1583057  70.7262293  61.5872572  46.7835760  70.1824426  61.8602004
  45.7033537  70.2457210  61.0180362  46.1831317  70.5751774  61.5434166
  46.7235317  75.5108991  46.4806279  46.8638278  76.0081456  47.1834920
  47.2217850  74.8095286  46.6220493  46.8176398  75.4810970  46.6057858
  46.7535540  76.3776102  43.8098856  47.3880619  76.9736528  43.7448318
  46.8361151  76.0779560  44.6244726  46.8592091  76.4217011  43.9201942
  48.3314523  72.3090078  43.7844298  48.6530364  71.8293160  43.1303560
  48.5941466  73.1189724  43.5935110  48.4180548  72.3579976  43.6599790
  53.7273678  71.6962272  56.1467777  54.1528749  71.2434798  55.5351303
  53.1130671  71.1422343  56.4232564  53.7002323  71.5476248  56.0972802
  43.2588528  78.5743943  47.0788402  43.7680757  79.1708451  47.4599707
  43.7322800  78.3069917  46.3964822  43.4031903  78.6229759  47.0342925
  52.1667900  68.1677372  49.5558354  51.5236218  68.0175018  50.1243492
  51.8267307  67.9219717  48.7907459  52.0212978  68.1089494  49.5261369
  56.7567247  76.1236798  48.9788363  56.0858437  76.6666501  48.8501428
  57.4506997  76.5931654  48.7370057  56.7596114  76.2735070  48.9243890
  56.9195374  72.5792682  51.8878736  57.2722984  72.1522405  52.5624535
  56.0610176  72.4943526  52.0179812  56.8444819  72.5037423  52.0073746
  45.6179059  75.2100202  49.9461582  44.8991048  75.6264334  50.2134446
  45.9891422  75.7754441  49.3953221  45.5670991  75.3549483  49.9044389
  54.9178640  75.8428051  55.8363578  54.8976567  75.6611346  56.6898357
  54.9657841  76.7140069  55.8123162  54.9213281  75.9444589  55.9586873
  51.3925634  74.2498202  45.2834962  50.7990473  74.5715198  44.7319529
  51.4300911  73.4039297  45.0756068  51.3100023  74.1722530  45.1717733
  58.3519434  67.7011094  52.8163048  57.8450299  66.9940234  52.7484226
  59.1486868  67.3704283  52.9464125  58.3946674  67.5484245  52.8262043
  54.2683450  74.2077706  48.7136712  54.0397143  74.2310408  47.8715070
  54.5281526  73.3835173  48.8331723  54.2729638  74.0893786  48.6061910
  48.5502679  76.0612179  58.3161812  48.0381582  75.4533362  58.6746844
  48.3782175  76.7768772  58.7835788  48.4492316  76.0775479  58.4378036
  43.3968393  74.5049755  60.9664174  43.2270984  75.1651129  60.4212381
  42.9534343  74.7156316  61.6876663  43.3067727  74.6335737  60.9925804
  47.3228213  72.7454252  50.0090908  47.7985579  73.1071332  49.3741089
  46.8216812  73.4010720  50.2891050  47.3193572  72.8948441  49.9567649
  52.4271749  73.9836424  60.7564068  52.9843179  73.7550233  60.1242533
  52.1032814  74.7442090  60.4799280  52.4618159  74.0620261  60.6220565
  40.2970458  77.4096620  56.2252664  39.7497177  76.7397266  56.3433532
  41.0862836  77.0426468  56.2896131  40.3322642  77.2561607  56.2521364
  49.3654866  74.8895452  43.3764292  49.7453831  74.9075081  42.5915406
  48.6247462  75.3349441  43.2555139  49.3123704  74.9577227  43.2427860
  56.9940156  73.1977643  48.9639870  56.9934383  73.0426300  49.8224147
  56.7896337  74.0440631  48.9081256  56.9639934  73.2998264  49.0827810
  39.0557427  76.6217428  53.3798687  38.8779189  76.1694037  54.1053603
  38.7676450  77.4243589  53.5637164  38.9870381  76.6739986  53.5142190
  54.7181009  77.8775145  52.6176077  55.2134674  77.1598140  52.5780098
  53.9080784  77.5745943  52.5030564  54.6724902  77.7272792  52.5949803
  50.1639620  81.7272959  44.7673082  49.3550943  81.4039632  44.7206391
  50.6714529  81.0206181  44.7001330  50.1189287  81.5754275  44.7503376
  40.7929897  79.1545152  50.4920446  39.9275417  79.1430842  50.3803217
  40.8928713  78.9675375  51.3391585  40.6804064  79.1251213  50.6009390
  56.7832827  80.6278833  55.3053206  57.2087899  80.1053255  54.7523631
  56.4189747  81.2259670  54.7841829  56.7919430  80.6389060  55.1462216
  53.3711427  84.3413097  51.6354363  53.8422605  85.0553360  51.8044349
  53.7071605  83.7411847  52.1714233  53.4906542  84.3584561  51.7386739
  50.2880922  69.1140568  58.5912458  50.4208827  68.3171561  58.9193434
  50.6726075  69.6406971  59.1710734  50.3637251  69.0740484  58.7255961
  53.3613277  66.0370894  55.1893552  52.5559241  65.9268623  55.5061390
  53.2320012  66.1383349  54.3323417  53.2233410  66.0354564  55.1101592
  56.8179238  72.2016386  55.7833248  56.2342226  72.7025592  55.3710816
  57.1383532  71.6945942  55.1497572  56.7792413  72.2008221  55.6291756
  49.3574037  71.1156980  46.0591923  50.1789731  71.2855293  45.8173618
  48.8943688  71.2704241  45.3358221  49.4105199  71.1638713  45.9163568
  47.9469369  69.1099743  56.8390352  48.4913782  68.7690870  57.4294694
  48.0006304  69.9685204  56.9811637  48.0358488  69.1855002  56.9472225
  25.8477839   7.6583855  34.8274320  25.8171844   8.5128492  34.9992590
  26.4459188   7.3579148  35.3860464  25.9314997   7.7400352  34.9349123
  19.0477524   6.7459506  39.5827251  18.1915420   6.9068004  39.6336368
  19.0945178   5.8751570  39.6032312  18.9276636   6.6410308  39.5933317
  13.4318664  16.2822224  35.3464482  12.6801564  15.9037762  35.1180528
  13.8804676  16.3140658  34.5983293  13.3868331  16.2307831  35.2021985
  22.3571241  13.0146032  49.1887707  23.0638008  12.5198062  49.3174641
  22.5459176  13.4555113  48.4590365  22.4899146  13.0064382  49.0996752
  18.8843624  16.7047593  30.7750030  18.5494992  17.3824515  30.3394252
  19.3970494  16.3152905  30.1866901  18.9109205  16.7472172  30.6236821
  18.4247915  18.6561862  36.7161141  18.8087295  19.2248761  36.1765916
  18.3607056  17.9311372  36.2366957  18.4721342  18.6337326  36.5655004
  21.8929345   8.8051550  42.2258903  22.4385305   9.4836637  42.2852872
  21.8346222   8.6639011  41.3660484  21.9645260   8.8843552  42.1070963
  15.0103420  16.2940616  37.6127255  15.1113783  15.4840970  37.9224383
  14.4145165  16.1997563  36.9826933  14.9375959  16.1605644  37.5653493
  23.6694414  10.2336157  33.0992630  23.5533940  10.9843843  33.5284768
  24.4650301   9.9760110  33.3488717  23.7699003  10.3071004  33.1996722
  14.8504160  21.2118205  39.0142111  15.4941615  21.6531369  39.4038269
  15.1760415  20.4071631  38.9272370  14.9935988  21.1583400  39.0587588
   8.2068465  12.3160903  37.2379589   7.9718649  11.4828555  37.1311857
   8.3454105  12.5965568  36.4240790   8.1924127  12.2344406  37.1021944
  15.5524740  14.2230180  34.3861973  15.8740581  14.7635387  33.7823281
  16.1996836  13.6526951  34.5184262  15.6950795  14.2189355  34.3169008
  17.6026448   6.2246175  34.4696359  18.3006612   6.4034303  34.9617823
  17.9178780   5.7016514  33.8466749  17.7521785   6.1739947  34.4498370
  10.2327685   8.0298915  42.3807465  10.1086382   8.6161360  43.0157284
  10.8845969   7.5359111  42.6819740  10.3101334   8.0437719  42.5193395
  17.7914383  12.6116620  34.4576151  18.2308018  12.0033721  34.9030924
  17.6419046  12.2323993  33.6861616  17.8335849  12.4655091  34.4095318
  15.2586026  11.2060632  41.6594976  15.9035028  10.7133075  41.3405925
  15.4987803  11.3485419  42.4861055  15.3896611  11.1538074  41.7344510
  17.7972117  14.0515538  41.3101869  18.0795360  13.2566944  41.0888625
  18.5258278  14.5296125  41.3306930  17.9461681  14.0050135  41.2804884
  21.3923720  10.9643801  31.4106920  21.3075015  11.8204768  31.5556489
  21.8808103  10.6888125  32.0789079  21.4512617  11.0501123  31.5309002
  22.9829719  -2.4175905  36.7967245  22.6683160  -1.7272427  37.2287667
  22.4656661  -2.4731123  36.0952745  22.8594189  -2.3241017  36.7564194
  22.3242153   7.5828596  32.9104655  21.7953624   7.7988229  33.5701961
  22.8467173   8.2764734  32.8305625  22.3230606   7.7171732  32.9960254
  14.2141761  11.4791812  31.7112123  13.6298976  11.9841844  32.1177987
  13.8111856  11.2534199  30.9708715  14.0681064  11.5200061  31.6617148
   9.7685789  17.1946573  38.5135795   9.2853367  17.9197063  38.4895378
  10.5809107  17.4922703  38.6245952   9.8176537  17.3448927  38.5263074
  15.8399943  15.9878754  41.1185609  15.3226885  15.6286169  40.5146917
  16.5374334  15.4640929  41.1291675  15.8665524  15.8576442  41.0315868
  19.4963535  16.4373568  47.0801782  19.5846881  16.2499709  47.9279993
  19.9253248  15.7910998  46.6806629  19.5725638  16.3136576  47.1473534
  17.0633995  15.7204728  46.0619444  16.5004830  15.3077338  46.5859106
  17.8255018  15.6457634  46.4812588  17.0928444  15.6482129  46.2012445
  18.6718975   7.7257464  30.1881044  18.9114979   7.9335448  29.3756387
  18.9934816   6.9214973  30.2969988  18.7556133   7.6371566  30.0841597
  12.6229986  17.7102749  38.6656075  13.3250566  17.1954738  38.7228831
  12.5427470  18.0376901  39.4702950  12.7153747  17.6816976  38.7928867
  27.2744164   5.8045301  42.0788121  26.4372585   5.8747488  42.3135716
  27.2432395   5.8069795  41.2062423  27.1462446   5.8155528  41.9847669
  13.6708893   7.9478336  47.7936490  13.8429397   7.8384231  48.6421771
  14.2078251   8.5932742  47.5567682  13.7753897   8.0270338  47.8841586
  11.9480762  13.9009101  38.1741683  12.7869661  14.1332034  38.2215444
  11.9792531  13.0313413  38.1048718  12.0762479  13.8066048  38.1706327
  12.5733465  14.3209977  42.4754988  13.1131690  14.1781108  43.1458361
  11.8903411  14.7206727  42.8439014  12.5525619  14.3589647  42.6289410
  21.9974350  10.0000977  37.6700013  22.7531865  10.4332492  37.7088921
  22.1036674   9.3505747  38.2434649  22.1244520   9.9678461  37.7598038
  19.6083594  15.8682587  49.7445566  20.3924011  15.9813435  50.1101308
  19.4080189  15.0423724  49.9404252  19.6949620  15.7629307  49.8279952
   7.9770610  10.5410267  42.6289410   7.7109025   9.7249384  42.7880400
   7.9909174  10.5863423  41.7584925   7.9395332  10.4267172  42.5242892
  24.9552004   0.8688082  40.6631843  25.5977912   0.9386187  41.2493759
  25.2075024   0.2017305  40.1611385  25.0874136   0.7814431  40.6759123
  11.8828357   5.3395352  29.2441168  11.1686534   5.0533531  29.6563600
  12.3672326   5.6791978  29.8847555  11.8487720   5.3477001  29.3996803
  19.7653988  17.7792689  43.3912021  18.9669234  17.5392189  43.6485890
  20.2139999  17.8307082  44.1379069  19.7128599  17.7515080  43.5396946
  28.1698867  10.5455174  37.3122053  28.8315301   9.9845843  37.2117961
  27.5290279  10.0507205  37.6374744  28.1727735  10.3891583  37.3454393
  19.0575675  13.8425306  29.6202976  19.4726823  13.5110330  28.9287472
  18.2267604  13.6094208  29.4923113  18.9963684  13.7596562  29.4993823
   8.3864024  11.3269047  39.9101154   8.2039597  11.3015933  39.0573446
   9.1213693  11.7967985  39.9490063   8.4678087  11.3930409  39.7899072
  24.4563698  11.5620557  37.0534042  24.6919287  11.7065756  36.2260892
  24.6053261  12.3262965  37.4465555  24.5129501  11.6959611  36.9897645
  11.4509775   8.0454050  46.4183263  12.1749748   8.0307080  46.9048157
  11.5525912   8.7549405  45.9205231  11.5727984   8.1478753  46.4162049
  26.2854155  10.4022223  34.8903645  26.6162372  10.9349863  34.2843740
  26.8587243  10.4561110  35.5465596  26.4187834  10.4891791  34.8981427
  18.8254725  11.5253134  51.2832210  18.0327705  11.8396646  51.4684829
  18.9403652  11.7404603  50.4452994  18.7250135  11.6036971  51.1870544
  21.4986044   8.2487125  35.5727225  21.5932898   8.9876419  36.0266851
  20.8744887   7.8204601  36.0061790  21.4195074   8.2948446  35.7035373
  19.7538517  11.4273338  46.2217506  20.3277379  10.7900582  46.3766070
  19.6753321  11.4277420  45.3527164  19.8271752  11.3338449  46.1163917
   8.3534934   8.2062547  40.0600221   8.9308437   8.0698998  40.6992466
   7.6548996   7.7498332  40.3145805   8.3355955   8.1184814  40.1922510
  21.7509065  10.0935865  28.8064177  21.6689227  10.1638052  29.6719164
  22.3888785  10.6565609  28.6147918  21.8328902  10.1874836  28.9054127
  15.1102236   9.8596603  38.2738704  14.8521480   9.0268338  38.2470003
  15.1650719  10.0854216  37.4331204  15.0802014   9.7694374  38.1458841
  20.1903286   1.9625054  38.3742796  19.4859613   1.4734239  38.5326716
  20.2388261   1.9747528  37.5031241  20.0933338   1.8914702  38.2682136
  14.0836948   7.4134366  38.7603599  13.5086540   7.5726534  39.3967559
  13.7072625   6.7769775  38.2972049  13.9439761   7.3432178  38.7858157
  17.7510237   5.8857715  43.6195977  17.3624670   5.4611933  42.9648168
  17.0864935   6.1339864  44.1273004  17.5957165   5.8596436  43.5983845
  27.3933506   5.6432720  36.3943807  27.1370071   4.8312661  36.2041690
  28.2362820   5.6510287  36.1673994  27.4799531   5.5244717  36.3328624
  21.5736598  -0.4167656  41.1319961  21.9547110  -1.0989485  41.5187835
  20.7699883  -0.7058054  40.9495626  21.5113060  -0.5600608  41.1624017
  18.8549175  10.1156319  31.8172784  19.6689814  10.4071212  31.7055555
  18.7908316   9.4616182  31.2431077  18.9651914  10.0621514  31.7161621
  25.0758665  12.7982316  46.2302360  24.8397303  11.9670380  46.1114420
  25.7201894  12.7467923  46.8157204  25.1353336  12.6680004  46.2988253
  14.7257083  13.5877837  36.9445096  15.3631030  13.3489584  37.4896889
  15.1512155  13.7914996  36.2098257  14.8833250  13.5828847  36.9162253
   9.4169726  15.8266173  40.8279400   9.4573871  16.0981024  39.9999179
   9.9764250  16.3508081  41.2437188   9.5053072  15.9441928  40.7671288
  15.3659898   8.8080127  31.2819985  15.7505051   8.5887833  32.0336530
  15.1171519   9.6343072  31.4121062  15.3861971   8.8978273  31.4121062
  26.0995086  12.5826764  42.2930654  25.7940903  13.3154821  42.6543970
  25.3801302  12.1764694  42.0123440  25.9482428  12.6308497  42.3043791
  17.1078555  14.0650260  38.6238882  17.1817564  13.9025431  39.4780732
  17.9248062  14.2540449  38.3799364  17.2394914  14.0687002  38.7136908
  31.7996878   9.2219765  41.6198998  31.7321378   9.2415724  40.7501585
  31.7852541  10.0650092  41.8454669  31.7875635   9.3493500  41.5251475
  10.8684312  14.4108122  35.6533326  10.0422430  14.6569860  35.5267605
  10.9296303  14.3320203  36.5195384  10.7558479  14.4353071  35.7622270
  22.2093225   0.6254923  44.9440088  22.9546817   0.4364733  44.5303513
  21.7930529   1.1513161  44.3853944  22.2578199   0.6757068  44.8004661
  15.6483141  17.0285003  33.3552356  15.9381439  16.6373984  32.6311582
  16.3786622  17.2101707  33.7957631  15.7990025  16.9978816  33.3135163
  29.5855495   7.9964151  39.8945593  30.1363417   7.3632220  40.1342685
  29.5699611   8.5279544  40.5861097  29.6640692   7.9813099  40.0324451
  16.2377886  11.8302748  44.4405486  15.7389580  12.5418516  44.5190375
  17.0478111  12.1503415  44.4023649  16.2833993  11.9829597  44.4462055
  13.5889057  19.0052385  36.4212505  13.3689352  18.7149740  37.2139172
  13.3683579  18.3467340  35.8930418  13.5236651  18.8652093  36.4601414
  12.5006004  11.0925701  38.6868207  12.2119252  10.4663173  39.2213934
  13.3689352  11.0345989  38.7532888  12.5866256  10.9913246  38.7759162
  23.2883902   6.2360485  39.0050189  22.9448668   5.5150820  39.3557439
  23.3876944   6.0274336  38.1628547  23.2525944   6.0984688  38.9321869
  15.7557012  20.3781775  35.2043198  16.4081070  19.8458217  35.4334224
  15.0582621  20.0250427  35.5911072  15.7487730  20.2471298  35.2955366
  12.7038277  12.7320953  34.6110572  13.4584245  13.1133992  34.8246035
  12.1108890  13.1832096  35.0657269  12.7274991  12.8549780  34.7093451
  23.7496931  12.6986189  34.5474177  24.3154963  13.3579399  34.4632720
  23.1024834  13.0435887  35.0190579  23.7375687  12.8468130  34.6046934
  15.1644944   4.6883793  49.7367784  14.3544720   4.9941573  49.6257627
  15.6419631   5.4089375  49.8520368  15.1148423   4.8398394  49.7374855
  14.0236504  13.9029514  39.9850688  13.5017257  14.0429806  40.6702552
  14.4110524  13.1440178  40.1752805  14.0040205  13.8115038  40.1151764
  20.2203509  15.6424973  33.9711256  19.9790185  14.9092834  33.5638321
  20.4004842  16.1911830  33.3177590  20.2111133  15.6147364  33.8141479
  15.4502829  10.9333533  35.3832179  15.2545612  11.5408267  34.7892482
  15.6737175  10.2401477  34.9023852  15.4537470  10.9211058  35.2248259
  13.8481359   7.8188271  35.5013047  14.5704011   7.9829429  35.0416853
  13.3689352   8.5397936  35.3952387  13.8845090   7.9486500  35.4178661
  21.8074867   4.1552070  40.8809732  20.9685968   4.1813349  40.6447995
  21.8779234   4.8022805  41.4615078  21.6943261   4.2548195  40.9318849
  11.4988976  10.2246343  44.6067187  12.0110073  10.5030597  43.9575947
  11.2125319  10.9635637  44.9730000  11.5323839  10.3748697  44.5657065
  20.2544145   1.0537447  35.6137348  20.9570498   0.8545195  35.1357306
  19.9888334   0.2813389  35.9206191  20.3190778   0.9100413  35.5882789
  25.6832391   9.3620056  38.1670974  25.5966365   9.5175482  39.0205752
  25.2282871  10.0058132  37.7930379  25.6035648   9.4795811  38.2378080
  15.0172702   2.3172732  44.6668228  14.8255899   2.3327866  45.5167652
  15.8671298   2.5136406  44.6434883  15.1148423   2.3487083  44.7891523
  19.5558207   6.6830803  36.7896533  19.3092921   6.6026554  37.6233322
  19.8843330   5.8984271  36.5959061  19.5679451   6.5557069  36.8844056
  23.4506256  13.3914163  40.5783314  23.3120615  14.0895209  41.0832057
  22.6706254  13.2362819  40.2219496  23.3149483  13.4714329  40.6009588
  21.7884341   9.6910538  46.8305696  21.7832379   8.8190355  46.8348122
  22.4945335   9.8898707  46.3575152  21.8929345   9.5914412  46.7612731
  15.5155234   9.4187522  46.2019516  15.6598610   9.9988730  45.5662626
  15.8630883   9.7963819  46.9069371  15.5882696   9.5608226  46.2118511
  17.6875152   8.6177690  43.9844648  16.9398466   8.8108705  43.5792926
  17.8416677   7.7922910  43.7468769  17.5997579   8.5242802  43.8890054
  14.5882989  17.6090294  43.0680543  14.7372553  17.0493210  42.4153947
  15.3682991  17.6882296  43.4513062  14.7257083  17.5375859  43.0277492
  17.1136290  17.7804937  44.3465034  17.0379961  17.1113747  44.9015822
  17.0426149  18.4822725  44.8605700  17.0916897  17.7849844  44.5041882
  17.9276929   2.5128241  44.8740052  18.3849543   3.2452216  45.0012844
  18.0033257   2.0894706  45.6327307  18.0067898   2.5585479  45.0041128
  17.7706537  16.3005936  35.1788640  18.5356428  16.0315579  34.8571304
  17.6684627  15.8155946  35.8958703  17.8688032  16.1895500  35.2368467
  15.8059307   4.5030345  41.7181876  15.0155381   4.3221805  42.0399211
  16.2019929   3.7257298  41.7012170  15.7476183   4.3617806  41.7634424
  20.2925197  13.3318119  27.1588589  21.0598182  13.3918244  26.7494441
  19.8456506  12.7598561  26.6744908  20.3398625  13.2554695  27.0266299
  21.1902993  12.1372775  39.4441321  20.5147995  11.9058008  39.9454708
  21.1995369  11.5293958  38.8183426  21.0921497  12.0131700  39.4257474
  18.3197137   6.9790604  46.2005374  18.2556278   7.8400561  46.0725511
  18.4594325   6.6622597  45.4000926  18.3312607   7.0590771  46.0633587
  23.1919727  14.9937908  31.6751499  23.2739565  15.8004894  31.3512950
  23.6769470  15.0133867  32.3992273  23.2756885  15.1158570  31.7338398
  17.0016231   9.6722744  40.3421577  16.5778480   9.8727243  39.6060596
  16.8261086   8.8251592  40.4545877  16.9127111   9.5771525  40.2495267
  16.5027924  21.1873257  42.8043035  16.9923854  20.4884046  42.6218699
  15.9312156  20.8897127  43.3919092  16.4912454  21.0399480  42.8644075
  12.2898676  10.1674795  35.7749550  12.4463295  10.1021598  36.6305542
  12.6299269  10.9423348  35.5628229  12.3631911  10.2723993  35.8704144
  18.8277820   9.5432679  34.6442913  19.3693366   9.0403060  35.1081534
  19.1424379   9.4897873  33.8332398  18.9542217   9.4612100  34.5926725
  22.6994928  13.7535326  51.7569825  23.5129793  13.4820475  51.9174958
  22.5389894  13.4542866  50.9530021  22.7964876  13.6690252  51.6615231
  16.9964270  14.9350030  31.9282941  17.0657090  14.0764569  32.0675942
  17.7752725  15.1521911  31.6001966  17.1217120  14.8402894  31.9000098
  19.9767090   4.4368983  44.6965214  20.1909059   3.7979897  44.1428568
  19.3600989   4.8814807  44.2673075  19.9172419   4.4079127  44.5515645
  21.3871758  17.3587731  36.1419434  20.9951549  17.0554447  35.4242301
  21.5424830  18.1956821  35.9524388  21.3525347  17.4371568  36.0075932
   8.8632937   7.3509745  36.0910317   9.2431902   7.7694290  35.4270584
   8.2888302   7.9323201  36.3979160   8.8344262   7.4987604  36.0387058
  22.1406178   6.0458048  45.6348521  21.3282859   5.7383939  45.7161693
  22.5996112   5.5657048  46.1991233  22.0886562   5.9294541  45.7303115
  21.5511432  13.9237720  36.0825465  21.1926087  14.0952363  36.8589497
  21.0650143  14.3850926  35.5253463  21.4270129  14.0176691  36.1150734
  16.3399798   9.6036886  28.6225699  16.6292323  10.3801768  28.8969274
  16.4271597   9.0925617  29.3240199  16.3954054   9.6428804  28.7668197
  19.2359685   7.4518120  50.4177223  19.7059316   8.0760236  50.8045097
  19.2821565   6.7835095  50.9770438  19.3127561   7.4452800  50.5577294
  22.7116172  14.8141616  47.0292666  23.3495892  14.3201812  46.6955122
  22.0690263  14.7419017  46.4444893  22.7110398  14.7300625  46.8935021
  24.4373172   6.6630762  41.5958581  24.0100780   6.5757111  40.8406681
  23.7999225   6.7708538  42.1813426  24.2802779   6.6663422  41.5704023
  17.9294249   1.7706287  47.5355551  18.7567678   1.4991436  47.5914165
  17.9502095   2.5667129  47.8919369  18.0547099   1.8486042  47.5970734
  22.7670428  15.5061424  43.6698023  23.5562806  15.1550489  43.7900104
  22.9414026  16.3197813  43.4074656  22.9090710  15.5747282  43.6485891
   9.9839306   6.5389687  38.5510562   9.5896003   6.6132699  37.7760672
   9.4279423   6.9247634  39.1018924   9.8442118   6.6071462  38.5178222
  21.6204252  -0.4829019  38.2314441  21.8253846  -0.5506711  39.0771438
  21.2930676   0.3229802  38.1635618  21.6019500  -0.3743078  38.3474096
  16.3180404   6.8451549  39.9723409  16.0143541   6.2907538  40.5733817
  15.6159824   7.0243759  39.4851443  16.1696613   6.7896332  39.9893115
  15.3746501   4.1552069  34.5368111  15.6506235   3.4370982  34.1245678
  15.9745170   4.7536989  34.3289217  15.5039765   4.1372440  34.4448872
  14.3798755  14.0601270  44.6795507  14.2719109  14.0703332  45.5457565
  14.5894536  14.8856051  44.4900461  14.3948866  14.1842345  44.7799598
  24.8737940   0.0702745  37.7117206  24.2612254   0.5573148  38.0970938
  24.9702115  -0.6053764  38.2554858  24.7975838   0.0421054  37.8496065
  18.8757021   1.8265587  32.8114706  19.3300768   1.9976147  33.5362550
  19.3497067   1.2133697  32.4112482  19.0125341   1.7616472  32.8588467
  12.3972547  11.3113913  42.1417444  11.8060480  11.9523411  42.1120459
  13.1593570  11.7351530  42.1148744  12.4220807  11.4689751  42.1332592
  14.4416519   3.1382605  47.3757489  14.0502084   2.4915952  47.8113267
  14.6102382   3.7294040  47.9951744  14.4087429   3.1296873  47.5320195
  22.1562063  16.7623224  39.5749469  21.9581751  17.2514039  38.8805680
  21.5349774  16.9664466  40.1533602  22.0349627  16.8639762  39.5572692
  16.2170041   8.5308121  33.9159713  16.9612086   8.9182397  34.1542663
  16.3630737   7.6865546  34.0800201  16.3480626   8.4638594  33.9753683
  19.2047917   4.1033594  39.8153632  18.7307871   3.5775356  40.3258943
  19.5766053   3.5563067  39.2468494  19.1897806   3.9449591  39.8068780
  25.4684648   9.1635970  41.2260413  25.2282870   8.3242385  41.2302839
  25.9476655   9.2436137  41.9501186  25.5036831   9.0517370  41.3335215
  21.1331417   4.9970149  32.8779386  20.6054435   5.0798893  32.1885095
  21.5927125   5.7388020  32.8744031  21.1233267   5.1190811  32.7754081
  27.4689835   5.9437427  39.1789672  27.2299605   5.9033261  38.3410457
  27.6323736   6.7908579  39.3055393  27.4580138   6.0629512  39.0743154
  24.0735865  10.3287376  45.1094717  24.7970064   9.8759903  44.9305737
  23.8085827  10.6092042  44.3267045  24.1417138  10.3038345  44.9673433
  12.9422733   4.9247550  41.8447596  12.3175803   4.9365942  41.2373549
  12.6068328   5.4007725  42.4938837  12.8008225   4.9966067  41.8504165
   9.6548409  12.9848010  43.2851361   9.1248333  12.2940449  43.3346335
   9.9273502  12.9758195  42.4564069   9.6173131  12.8815142  43.1698777
  20.6868499  13.5673712  32.0089043  21.4102698  14.0331825  31.8653617
  20.2469090  13.6347322  31.2586640  20.7284191  13.6457549  31.8773825
  19.8554654  10.4271255  43.2589732  19.2411647   9.8829305  43.5538368
  20.3721939   9.9135491  42.7795548  19.8410317  10.2707664  43.2313961
  19.0950951  11.4975525  40.9934031  18.6678559  10.8725243  40.5599466
  19.0875896  11.2150447  41.8193038  19.0310093  11.3628305  41.0513858
  12.2113479   6.5340698  44.0622465  12.3706965   5.7784022  44.4674187
  12.0306372   7.0831637  44.7163203  12.2078837   6.5034512  44.2185171
  20.1533782  -1.2998067  44.6173254  19.6574343  -1.1034392  43.9264821
  20.9102844  -0.9005398  44.4462056  20.1920606  -1.2120333  44.4893391
  17.4236661   2.3744279  41.2076565  17.4479148   1.8404392  40.5189345
  17.6748135   1.8661588  41.8702155  17.4646580   2.2205183  41.2041210
   4.9344251   9.6575774  40.6419709   4.8287700   9.6122619  39.7771793
   4.1844471  10.0029555  40.9233994   4.8079854   9.7016682  40.5557039
  15.8867596  10.6675837  48.6902604  15.0363227  10.8047552  48.8260249
  16.0495724   9.9339616  49.1350305  15.7851460  10.5789939  48.7758203
  15.1252347   7.6175607  42.8856208  14.2944276   7.7849425  42.6791456
  15.0703864   7.2411558  43.6705094  14.9941762   7.5865339  42.9704736
  13.4988391   5.8931199  33.4146326  13.6391352   6.3903663  34.1174967
  13.9970923   5.1917493  33.5560540  13.5929471   5.8633178  33.5397905
  13.5288613   6.7598310  30.7438903  14.1633692   7.3558735  30.6788365
  13.6114224   6.4601767  31.5584773  13.6345164   6.8039218  30.8541989
  26.5071179   9.2913787  43.6125267  27.0989019   9.9311038  43.6443465
  26.9430173   8.5936824  43.9017334  26.6589610   9.2832138  43.6606100
  15.1067596   2.6912285  30.7184345  15.4283437   2.2115368  30.0643607
  15.3694540   3.5011931  30.5275156  15.1933621   2.7402183  30.5939837
  18.3364569  13.7131160  44.2383161  17.8289660  14.2667006  44.6823791
  18.0391215  13.7739450  43.4201935  18.2169454  13.8037471  44.1831618
  20.5026751   2.0784479  43.0807824  20.9281822   1.6257006  42.4691350
  19.8883744   1.5244550  43.3572611  20.4755396   1.9298455  43.0312849
  10.0341601   8.9566151  34.0128449  10.5433830   9.5530658  34.3939754
  10.5075873   8.6892124  33.3304868  10.1784977   9.0051966  33.9682971
  20.9472349  17.6294417  32.1687104  20.2301659  17.4555280  31.7034342
  21.5979086  17.3946990  31.6362590  20.9374199  17.5690210  32.0216322
  23.5320320   6.5059006  35.9128409  22.8611510   7.0488708  35.7841475
  24.2260070   6.9753861  35.6710104  23.5349188   6.6557277  35.8583937
  17.5807054  18.6455718  41.1440168  17.3572708  17.8874547  41.5124194
  17.0916897  18.6753739  40.4220607  17.4750503  18.5377942  41.0916909
  23.6948448   2.9614889  38.8218783  24.0476058   2.5344612  39.4964581
  22.8363249   2.8765733  38.9519859  23.6197892   2.8859630  38.9413793
  12.3932133   5.5922409  36.8801629  11.6744122   6.0086542  37.1474493
  12.7644495   6.1576648  36.3293267  12.3424064   5.7371691  36.8384436
  21.6931713   6.2250258  42.7703625  21.6729641   6.0433553  43.6238404
  21.7410914   7.0962277  42.7463209  21.6966354   6.3266796  42.8926920
  19.6378043  12.8137450  48.6952101  19.5973898  12.1687127  48.1097257
  20.4501361  12.7574067  49.0077513  19.7521197  12.7096417  48.6549051
  16.2285511  18.8656176  38.5977252  15.8145909  18.2030306  38.2081094
  16.9132885  19.0134035  38.0772946  16.2683882  18.7896834  38.4633749
  19.5950805  18.0246261  39.3500869  19.1967088  18.1348532  38.5821689
  18.9802024  18.2328328  39.9327429  19.4449694  18.0719829  39.3232168
  18.1678707   4.6320409  32.2175009  17.5743546   4.9537406  31.6659576
  18.2053985   3.7861504  32.0096115  18.0853096   4.5544737  32.1057780
  25.1272508  -1.9166699  39.7503095  24.6203372  -2.6237559  39.6824273
  25.9239941  -2.2473510  39.8804172  25.1699747  -2.0693547  39.7602090
  21.0436524   4.5899914  35.6476759  20.8150217   4.6132615  34.8055117
  21.3034600   3.7657381  35.7671769  21.0482712   4.4715994  35.5401957
  15.3255752   6.4434387  45.2501859  14.8134655   5.8355570  45.6086890
  15.1535248   7.1590979  45.7175835  15.2245389   6.4597686  45.3718083
  14.0981286   3.1276460  36.9430955  14.5738652   3.4893540  36.3081136
  13.5969886   3.7832927  37.2231097  14.0946645   3.2770649  36.8907695
  19.2024822   4.3658631  47.6904115  19.7596252   4.1372441  47.0582580
  18.8785887   5.1264297  47.4139327  19.2371232   4.4442468  47.5560612
  16.9207940   7.4526285  48.6556122  17.6719267   7.7677961  48.9695676
  17.1130516   7.2505455  47.8290043  17.0599354   7.4693666  48.5799517
  16.1407939   5.2717660  30.3104338  16.5206904   5.2897289  29.5255453
  15.4000535   5.7171649  30.1895186  16.0876777   5.3399434  30.1767907
  23.7693230   3.5799851  35.8979917  23.7687456   3.4248507  36.7564194
  23.5649410   4.4262838  35.8421303  23.7393008   3.6820472  36.0167857
  21.4934082   8.2597353  39.5516124  21.9887747   7.5420348  39.5120144
  20.6833857   7.9568150  39.4370611  21.4477975   8.1094999  39.5289850
  16.9392693  12.1095166  31.7013129  16.1304016  11.7861839  31.6546438
  17.4467602  11.4028388  31.6341377  16.8942360  11.9576482  31.6843423
   7.5682971   9.5367359  37.4260493   6.7028490   9.5253050  37.3143264
   7.6681786   9.3497582  38.2731632   7.4557137   9.5073420  37.5349437
  23.5585901  11.0101040  42.2393253  23.9840972  10.4875462  41.6863678
  23.1942820  11.6081878  41.7181876  23.5672503  11.0211267  42.0802263
  13.1939980  19.3065258  40.9990598  13.5086539  20.1201646  41.0068380
  13.6033394  18.9215476  41.6672757  13.3008078  19.3693960  41.0994690
  20.1464500  14.7235304  38.5694410  20.6175678  15.4375567  38.7384395
  20.4824679  14.1234055  39.1054280  20.2659615  14.7406769  38.6726786
  22.2341485  16.3336618  50.7486482  22.3438450  15.5445178  51.1043230
  22.5632381  16.2442554  49.9460820  22.2993890  16.2042471  50.6828873
  20.7838446  14.5153239  45.3322103  20.2359392  13.8911122  45.0642168
  21.2451475  14.7047511  44.6166182  20.7705656  14.4512289  45.1872534
  23.5932311   2.5838593  42.7173295  23.0095300   3.0847800  42.3050863
  23.9136605   2.0768149  42.0837619  23.5545486   2.5830428  42.5631802
  16.1327110   1.4979188  32.9931970  16.9542804   1.6677501  32.7513665
  15.6696761   1.6526449  32.2698268  16.1858272   1.5460921  32.8503614
  10.5353001  13.2538366  40.6469207  11.1397858  13.2134200  40.0183027
  10.3280313  14.1009518  40.6773263  10.5941898  13.3726369  40.5585323
  20.3496773  15.5204311  41.8631444  21.1695146  15.3767277  42.1247739
  20.0690850  16.1450510  42.4047882  20.4293516  15.5914663  41.9819384
   5.7704283  12.2372984  40.5168130   5.6728561  11.4269255  40.8258187
   6.5533153  12.2164777  40.1314398   5.8720419  12.1140074  40.5054993
  19.1801048  27.8346211  37.2379589  18.9451232  27.0013863  37.1311857
  19.3186689  28.1150876  36.4240790  19.1656711  27.7529714  37.1021944
  21.4791136  20.0031941  40.1363896  20.8596167  19.4124588  39.9673911
  21.3774999  20.5943376  39.5028220  21.3728811  20.0036024  40.0168886
  21.2060269  23.5484223  42.3807465  21.0818965  24.1346668  43.0157284
  21.8578553  23.0544419  42.6819740  21.2833918  23.5623027  42.5193395
  33.9562303  13.1009403  36.7967245  33.6415744  13.7912881  37.2287667
  33.4389244  13.0454185  36.0952745  33.8326773  13.1944291  36.7564194
  28.0366579  31.2390036  46.0619444  27.4737413  30.8262646  46.5859106
  28.7987602  31.1642942  46.4812588  28.0661027  31.1667437  46.2012445
  29.6451559  23.2442772  30.1881044  29.8847562  23.4520756  29.3756387
  29.9667400  22.4400281  30.2969988  29.7288716  23.1556874  30.0841597
  24.6441477  23.4663644  47.7936490  24.8161980  23.3569539  48.6421771
  25.1810834  24.1118050  47.5567682  24.7486481  23.5455646  47.8841586
  23.3098913  17.5806487  30.7318695  23.1274487  17.7978368  29.9059688
  24.1724526  17.6945500  30.7877309  23.4103503  17.6296385  30.6173182
  23.5466048  29.8395284  42.4754988  24.0864273  29.6966415  43.1458361
  22.8635995  30.2392035  42.8439014  23.5258202  29.8774955  42.6289410
  18.9503193  26.0595575  42.6289410  18.6841609  25.2434692  42.7880400
  18.9641758  26.1048731  41.7584925  18.9127916  25.9452480  42.5242892
  35.9284587  16.3873390  40.6631843  36.5710496  16.4571495  41.2493759
  36.1807608  15.7202613  40.1611385  36.0606719  16.2999739  40.6759123
  23.7001800  19.5973954  45.2756417  23.0073597  19.1270933  45.5217149
  24.3162127  19.3712258  45.8498125  23.6886330  19.4941085  45.3965570
  19.3596607  26.8454355  39.9101154  19.1772180  26.8201241  39.0573446
  20.0946276  27.3153293  39.9490063  19.4410671  26.9115717  39.7899072
  22.4242359  23.5639358  46.4183263  23.1482331  23.5492388  46.9048157
  22.5258495  24.2734713  45.9205231  22.5460568  23.6664061  46.4162049
  29.7987308  27.0438442  51.2832210  29.0060289  27.3581954  51.4684829
  29.9136235  27.2589911  50.4452994  29.6982719  27.1222279  51.1870544
  19.3267517  23.7247855  40.0600221  19.9041020  23.5884306  40.6992466
  18.6281579  23.2683639  40.3145805  19.3088539  23.6370122  40.1922510
  14.8026351  22.5759748  36.7748039  14.8886603  22.1991617  37.5561569
  15.4302148  22.2020194  36.2967997  14.9082902  22.4645230  36.8193516
  20.3902309  31.3451481  40.8279400  20.4306455  31.6166332  39.9999179
  20.9496833  31.8693389  41.2437188  20.4785655  31.4627236  40.7671288
  26.5061022  17.6071850  50.9982570  26.1914463  18.3771413  50.7352132
  26.1850955  17.0442106  50.4134797  26.4119942  17.6382118  50.8723920
  33.1825808  16.1440231  44.9440088  33.9279400  15.9550041  44.5303513
  32.7663113  16.6698469  44.3853944  33.2310782  16.1942376  44.8004661
  23.4738587  26.6111009  38.6868207  23.1851836  25.9848481  39.2213934
  24.3421936  26.5531297  38.7532888  23.5598839  26.5098554  38.7759162
  26.1377528  20.2069101  49.7367784  25.3277304  20.5126881  49.6257627
  26.6152215  20.9274683  49.8520368  26.0881007  20.3583702  49.7374855
  22.4721560  25.7431651  44.6067187  22.9842657  26.0215904  43.9575947
  22.1857902  26.4820945  44.9730000  22.5056423  25.8934005  44.5657065
  19.5588466  20.2501843  34.9030923  19.6604603  21.0528004  35.2311899
  20.3544353  20.0489179  34.6054004  19.6916372  20.3387742  34.9066279
  20.3752198  20.3649021  42.6452045  20.2337690  19.5132962  42.7696553
  20.6592762  20.4077682  41.8214251  20.3960044  20.2448771  42.5419669
  25.5615573  33.1275602  43.0680543  25.7105137  32.5678518  42.4153947
  26.3415575  33.2067604  43.4513062  25.6989666  33.0561167  43.0277492
  28.0868873  33.2990245  44.3465034  28.0112545  32.6299055  44.9015822
  28.0158733  34.0008033  44.8605700  28.0649480  33.3035152  44.5041882
  21.1442503  18.2779369  45.9629495  20.6084693  17.6659727  46.2790262
  21.2060268  18.8527505  46.6163162  21.0738136  18.2726297  46.1064922
  33.3736838  11.2103424  38.7433894  33.4920406  11.6679888  38.0101197
  33.1999014  10.4048686  38.4570112  33.3656009  11.1597196  38.5934828
  23.2631259  25.6860103  35.7749550  23.4195878  25.6206906  36.6305542
  23.6031852  26.4608655  35.5628229  23.3364494  25.7909301  35.8704144
  33.6727511  29.2720634  51.7569825  34.4862377  29.0005783  51.9174958
  33.5122478  28.9728174  50.9530021  33.7697460  29.1875560  51.6615231
  19.8365521  22.8695053  36.0910317  20.2164486  23.2879598  35.4270584
  19.2620886  23.4508509  36.3979160  19.8076846  23.0172912  36.0387058
  30.2092269  22.9703428  50.4177223  30.6791900  23.5945544  50.8045097
  30.2554149  22.3020403  50.9770438  30.2860145  22.9638108  50.5577294
  29.1012918  12.5020401  45.2629139  29.7306036  13.0380701  44.9850210
  29.2698780  12.4097760  46.1142705  29.2190712  12.5681763  45.3477667
  28.9026832  17.2891595  47.5355551  29.7300262  17.0176744  47.5914165
  28.9234678  18.0852437  47.8919369  29.0279683  17.3671350  47.5970734
  23.4796322  24.4355458  40.7225811  22.6384329  24.3359332  40.9304705
  23.6886330  25.2050938  41.0740132  23.3861015  24.5347501  40.8053126
  20.9571889  22.0574995  38.5510562  20.5628587  22.1318007  37.7760672
  20.4012006  22.4432941  39.1018924  20.8174702  22.1256770  38.5178222
  25.3531338  29.5786578  44.6795507  25.2451693  29.5888640  45.5457565
  25.5627120  30.4041358  44.4900461  25.3681449  29.7027653  44.7799598
  35.8470524  15.5888053  37.7117206  35.2344837  16.0758456  38.0970938
  35.9434699  14.9131544  38.2554858  35.7708421  15.5606362  37.8496065
  23.3705130  26.8299220  42.1417444  22.7793063  27.4708719  42.1120459
  24.1326154  27.2536838  42.1148744  23.3953391  26.9875059  42.1332592
  23.7665753  17.9901218  42.8085462  24.2267235  18.0640148  43.5460586
  23.8121860  18.7882472  42.4585283  23.8416308  18.1195365  42.8658218
  25.4149103  18.6567913  47.3757489  25.0234668  18.0101260  47.8113267
  25.5834965  19.2479348  47.9951744  25.3820013  18.6482181  47.5320195
  20.5553531  21.6190409  45.1837178  21.4179144  21.5186118  45.0974508
  20.2245314  21.0385118  44.6222750  20.6338727  21.5182036  45.0882584
  24.0997065  18.7857976  27.9020281  23.7509870  19.4377702  28.3651831
  23.6193511  18.7715089  27.1744153  23.9767309  18.8801030  27.8631373
  20.6280992  28.5033318  43.2851361  20.0980917  27.8125757  43.3346335
  20.9006086  28.4943503  42.4564069  20.5905715  28.4000450  43.1698777
  23.1846062  22.0526006  44.0622465  23.3439549  21.2969330  44.4674187
  23.0038956  22.6016945  44.7163203  23.1811421  22.0219819  44.2185171
  31.1266365  14.2187241  44.6173254  30.6306926  14.4150915  43.9264821
  31.8835427  14.6179910  44.4462056  31.1653190  14.3064975  44.4893391
  15.9076834  25.1761082  40.6419709  15.8020284  25.1307926  39.7771793
  15.1577054  25.5214863  40.9233994  15.7812437  25.2201990  40.5557039
  26.8600180  26.1861145  48.6902604  26.0095810  26.3232860  48.8260249
  27.0228308  25.4524924  49.1350305  26.7584043  26.0975247  48.7758203
  23.9068714  16.6269808  48.5212619  24.5321417  16.0831941  48.7942051
  23.4519193  16.1464726  47.9520409  23.9316974  16.4759289  48.4774213
  21.0074184  24.4751459  34.0128449  21.5166414  25.0715966  34.3939754
  21.4808457  24.2077432  33.3304868  21.1517560  24.5237274  33.9682971
  36.1005091  13.6018609  39.7503095  35.5935956  12.8947749  39.6824273
  36.8972525  13.2711798  39.8804172  36.1432330  13.4491761  39.7602090
  21.1454050  20.4057270  47.9004221  20.9756640  21.0658645  47.3552428
  20.7020000  20.6163831  48.6216710  21.0553384  20.5343252  47.9265850
  30.1757406  19.8843939  47.6904115  30.7328836  19.6557749  47.0582580
  29.8518471  20.6449605  47.4139327  30.2103816  19.9627776  47.5560612
  18.0456115  23.3104135  43.1592711  17.4982834  22.6404781  43.2773579
  18.8348493  22.9433983  43.2236178  18.0808298  23.1569122  43.1861411
  27.8940523  22.9711592  48.6556122  28.6451850  23.2863269  48.9695676
  28.0863100  22.7690763  47.8290043  28.0331937  22.9878974  48.5799517
  16.8043084  22.5224943  40.3138734  16.6264845  22.0701552  41.0393649
  16.5162106  23.3251105  40.4977211  16.7356037  22.5747501  40.4482237
  18.5415554  25.0552667  37.4260493  17.6761074  25.0438357  37.3143264
  18.6414370  24.8682890  38.2731632  18.4289721  25.0258728  37.5349437
  24.1672564  34.8250566  40.9990598  24.4819123  35.6386954  41.0068380
  24.5765977  34.4400784  41.6672757  24.2740662  34.8879268  41.0994690
  28.0366579  15.0148083  45.5252505  28.1694484  14.2179076  45.8533481
  28.4211731  15.5414486  46.1050781  28.1122907  14.9748000  45.6596008
  25.6955025  15.0107258  43.7730399  26.2399438  14.6698385  44.3634741
  25.7491961  15.8692720  43.9151683  25.7844145  15.0862517  43.8812272
  21.5085584  28.7723674  40.6469207  22.1130441  28.7319508  40.0183027
  21.3012897  29.6194826  40.6773263  21.5674481  28.8911677  40.5585323
  16.7436866  27.7558292  40.5168130  16.6461144  26.9454563  40.8258187
  17.5265736  27.7350085  40.1314398  16.8453003  27.6325382  40.5054993
  55.2768992  59.5701955  49.1887707  55.9835759  59.0753986  49.3174641
  55.4656927  60.0111037  48.4590365  55.4096897  59.5620306  49.0996752
  51.3445666  65.2117786  36.7161141  51.7285045  65.7804685  36.1765916
  51.2804807  64.4867296  36.2366957  51.3919093  65.1893249  36.5655004
  47.7701911  67.7674129  39.0142111  48.4139366  68.2087293  39.4038269
  48.0958166  66.9627555  38.9272370  47.9133739  67.7139324  39.0587588
  50.7169868  60.6071462  41.3101869  50.9993111  59.8122867  41.0888625
  51.4456028  61.0852049  41.3306930  50.8659432  60.5606058  41.2804884
  60.6987956  59.7130824  38.2837700  59.8685660  59.9241467  38.4471116
  60.6497209  58.8867878  38.0079983  60.5694692  59.6220430  38.2675065
  42.6883540  63.7502497  38.5135795  42.2051118  64.4752987  38.4895378
  43.5006858  64.0478627  38.6245952  42.7374288  63.9004851  38.5263074
  48.7597694  62.5434678  41.1185609  48.2424636  62.1842093  40.5146917
  49.4572085  62.0196852  41.1291675  48.7863275  62.4132366  41.0315868
  52.4161286  62.9929492  47.0801782  52.5044632  62.8055632  47.9279993
  52.8450998  62.3466922  46.6806629  52.4923388  62.8692500  47.1473534
  49.9831746  62.2760652  46.0619444  49.4202581  61.8633262  46.5859106
  50.7452769  62.2013558  46.4812588  50.0126194  62.2038052  46.2012445
  45.5427737  64.2658673  38.6656075  46.2448316  63.7510662  38.7228831
  45.4625220  64.5932824  39.4702950  45.6351498  64.2372899  38.7928867
  45.4931216  60.8765900  42.4754988  46.0329441  60.7337031  43.1458361
  44.8101162  61.2762651  42.8439014  45.4723369  60.9145571  42.6289410
  57.9552272  60.3830178  38.4202416  57.5187503  60.3866921  39.1761387
  57.6215187  61.0635677  37.9881993  57.8414892  60.4842634  38.4683248
  52.5281345  62.4238511  49.7445566  53.3121762  62.5369359  50.1101308
  52.3277940  61.5979648  49.9404252  52.6147371  62.3185230  49.8279952
  52.6851739  64.3348613  43.3912021  51.8866984  64.0948113  43.6485890
  53.1337750  64.3863006  44.1379069  52.6326350  64.3071004  43.5396946
  59.2051905  56.9578146  34.8903645  59.5360122  57.4905787  34.2843740
  59.7784993  57.0117034  35.5465596  59.3385584  57.0447715  34.8981427
  51.7452475  58.0809058  51.2832210  50.9525456  58.3952570  51.4684829
  51.8601403  58.2960526  50.4452994  51.6447886  58.1592895  51.1870544
  52.6736268  57.9829262  46.2217506  53.2475130  57.3456506  46.3766070
  52.5951072  57.9833344  45.3527164  52.7469503  57.8894373  46.1163917
  57.9956416  59.3538239  46.2302360  57.7595053  58.5226304  46.1114420
  58.6399645  59.3023847  46.8157204  58.0551087  59.2235927  46.2988253
  59.0192837  59.1382688  42.2930654  58.7138654  59.8710745  42.6543970
  58.2999052  58.7320618  42.0123440  58.8680179  59.1864421  42.3043791
  64.7194629  55.7775689  41.6198998  64.6519129  55.7971648  40.7501585
  64.7050291  56.6206016  41.8454669  64.7073385  55.9049423  41.5251475
  48.5680892  63.5840926  33.3552356  48.8579190  63.1929908  32.6311582
  49.2984373  63.7657631  33.7957631  48.7187776  63.5534740  33.3135163
  46.5086807  65.5608309  36.4212505  46.2887103  65.2705663  37.2139172
  46.2881329  64.9023264  35.8930418  46.4434402  65.4208017  36.4601414
  48.6754763  66.9337699  35.2043198  49.3278821  66.4014141  35.4334224
  47.9780372  66.5806351  35.5911072  48.6685481  66.8027222  35.2955366
  56.6694681  59.2542113  34.5474177  57.2352714  59.9135323  34.4632720
  56.0222585  59.5991811  35.0190579  56.6573438  59.4024054  34.6046934
  53.1401260  62.1980897  33.9711256  52.8987935  61.4648758  33.5638321
  53.3202592  62.7467754  33.3177590  53.1308884  62.1703288  33.8141479
  56.3704006  59.9470087  40.5783314  56.2318366  60.6451132  41.0832057
  55.5904004  59.7918743  40.2219496  56.2347233  60.0270253  40.6009588
  54.7082092  56.2466462  46.8305696  54.7030130  55.3746279  46.8348122
  55.4143085  56.4454631  46.3575152  54.8127096  56.1470336  46.7612731
  47.5080740  64.1646218  43.0680543  47.6570304  63.6049134  42.4153947
  48.2880742  64.2438219  43.4513062  47.6454834  64.0931783  43.0277492
  57.8657379  59.3048340  31.3399814  57.4864188  58.5185478  31.3329103
  57.2023625  59.8535197  31.1971458  57.7115854  59.2693164  31.3180610
  50.0334041  64.3360861  44.3465034  49.9577712  63.6669671  44.9015822
  49.9623900  65.0378649  44.8605700  50.0114647  64.3405768  44.5041882
  50.6904288  62.8561859  35.1788640  51.4554179  62.5871503  34.8571304
  50.5882377  62.3711870  35.8958703  50.7885783  62.7451424  35.2368467
  56.1117478  61.5493831  31.6751499  56.1937316  62.3560818  31.3512950
  56.5967220  61.5689791  32.3992273  56.1954636  61.6714494  31.7338398
  49.4225675  67.7429180  42.8043035  49.9121605  67.0439970  42.6218699
  48.8509907  67.4453050  43.3919092  49.4110205  67.5955404  42.8644075
  55.6192678  60.3091250  51.7569825  56.4327544  60.0376399  51.9174958
  55.4587645  60.0098790  50.9530021  55.7162627  60.2246176  51.6615231
  54.3069508  63.9143655  36.1419434  53.9149300  63.6110370  35.4242301
  54.4622581  64.7512745  35.9524388  54.2723098  63.9927492  36.0075932
  54.4709183  60.4793644  36.0825465  54.1123838  60.6508287  36.8589497
  53.9847894  60.9406850  35.5253463  54.3467880  60.5732615  36.1150734
  55.6313922  61.3697540  47.0292666  56.2693643  60.8757736  46.6955122
  54.9888014  61.2974940  46.4444893  55.6308149  61.2856548  46.8935021
  55.6868179  62.0617348  43.6698023  56.4760557  61.7106413  43.7900104
  55.8611777  62.8753737  43.4074656  55.8288461  62.1303205  43.6485891
  47.2996505  60.6157194  44.6795507  47.1916860  60.6259256  45.5457565
  47.5092287  61.4411974  44.4900461  47.3146616  60.7398269  44.7799598
  55.0759814  63.3179148  39.5749469  54.8779502  63.8069962  38.8805680
  54.4547525  63.5220389  40.1533602  54.9547378  63.4195686  39.5572692
  56.9933615  56.8843300  45.1094717  57.7167814  56.4315827  44.9305737
  56.7283578  57.1647966  44.3267045  57.0614889  56.8594269  44.9673433
  53.6066250  60.1229636  32.0089043  54.3300449  60.5887749  31.8653617
  53.1666841  60.1903246  31.2586640  53.6481942  60.2013473  31.8773825
  37.8542002  56.2131698  40.6419709  37.7485451  56.1678542  39.7771793
  37.1042222  56.5585479  40.9233994  37.7277605  56.2572606  40.5557039
  51.2562319  60.2687083  44.2383161  50.7487410  60.8222930  44.6823791
  50.9588965  60.3295373  43.4201935  51.1367204  60.3593395  44.1831618
  53.8670100  64.1850341  32.1687104  53.1499409  64.0111203  31.7034342
  54.5176837  63.9502913  31.6362590  53.8571950  64.1246134  32.0216322
  50.5004805  65.2011642  41.1440168  50.2770459  64.4430471  41.5124194
  50.0114648  65.2309663  40.4220607  50.3948254  65.0933866  41.0916909
  52.5575794  59.3693374  48.6952101  52.5171649  58.7243051  48.1097257
  53.3699112  59.3129991  49.0077513  52.6718947  59.2652341  48.6549051
  49.1483262  65.4212100  38.5977252  48.7343660  64.7586230  38.2081094
  49.8330636  65.5689959  38.0772946  49.1881633  65.3452758  38.4633749
  52.5148556  64.5802185  39.3500869  52.1164839  64.6904455  38.5821689
  51.8999775  64.7884251  39.9327429  52.3647445  64.6275753  39.3232168
  60.2490398  59.1554152  32.7343960  60.6324004  59.9045508  32.9642057
  59.4534512  59.4019971  32.4755949  60.1884181  59.3023846  32.7301533
  46.1137731  65.8621181  40.9990598  46.4284290  66.6757570  41.0068380
  46.5231144  65.4771400  41.6672757  46.2205829  65.9249884  41.0994690
  53.0662251  61.2791228  38.5694410  53.5373429  61.9931491  38.7384395
  53.4022429  60.6789978  39.1054280  53.1857366  61.2962692  38.6726786
  55.1539235  62.8892542  50.7486482  55.2636201  62.1001102  51.1043230
  55.4830132  62.7998478  49.9460820  55.2191641  62.7598395  50.6828873
  53.7036197  61.0709162  45.3322103  53.1557143  60.4467046  45.0642168
  54.1649226  61.2603434  44.6166182  53.6903407  61.0068213  45.1872534
  53.2694523  62.0760235  41.8631444  54.0892897  61.9323201  42.1247739
  52.9888601  62.7006434  42.4047882  53.3491267  62.1470587  41.9819384
  38.6902034  58.7928907  40.5168130  38.5926312  57.9825179  40.8258187
  39.4730903  58.7720701  40.1314398  38.7918170  58.6695998  40.5054993
  69.7408174  69.7325087  34.8274320  69.7102178  70.5869723  34.9992590
  70.3389523  69.4320379  35.3860464  69.8245332  69.8141583  34.9349123
  62.9407859  68.8200738  39.5827251  62.0845754  68.9809236  39.6336368
  62.9875512  67.9492802  39.6032312  62.8206970  68.7151540  39.5933317
  57.3248998  78.3563456  35.3464482  56.5731898  77.9778994  35.1180528
  57.7735010  78.3881889  34.5983293  57.2798665  78.3049063  35.2021985
  66.2501575  75.0887263  49.1887707  66.9568342  74.5939294  49.3174641
  66.4389511  75.5296345  48.4590365  66.3829481  75.0805614  49.0996752
  65.7859680  70.8792782  42.2258903  66.3315640  71.5577868  42.2852872
  65.7276556  70.7380243  41.3660484  65.8575594  70.9584783  42.1070963
  58.9033754  78.3681848  37.6127255  59.0044117  77.5582202  37.9224383
  58.3075500  78.2738794  36.9826933  58.8306293  78.2346876  37.5653493
  67.5624748  72.3077389  33.0992630  67.4464274  73.0585075  33.5284768
  68.3580635  72.0501342  33.3488717  67.6629338  72.3812236  33.1996722
  52.0998799  74.3902134  37.2379589  51.8648983  73.5569787  37.1311857
  52.2384440  74.6706800  36.4240790  52.0854461  74.3085638  37.1021944
  54.3988886  66.5587865  40.1363896  53.7793918  65.9680512  39.9673911
  54.2972750  67.1499300  39.5028220  54.2926562  66.5591947  40.0168886
  59.4455074  76.2971412  34.3861973  59.7670915  76.8376619  33.7823281
  60.0927170  75.7268183  34.5184262  59.5881129  76.2930587  34.3169008
  61.4956782  68.2987407  34.4696359  62.1936947  68.4775534  34.9617823
  61.8109114  67.7757746  33.8466749  61.6452119  68.2481179  34.4498370
  54.1258019  70.1040147  42.3807465  54.0016716  70.6902592  43.0157284
  54.7776304  69.6100342  42.6819740  54.2031669  70.1178951  42.5193395
  61.6844717  74.6857852  34.4576151  62.1238353  74.0774952  34.9030924
  61.5349380  74.3065225  33.6861616  61.7266183  74.5396323  34.4095318
  59.1516360  73.2801864  41.6594976  59.7965363  72.7874307  41.3405925
  59.3918137  73.4226650  42.4861055  59.2826945  73.2279306  41.7344510
  61.6902452  76.1256769  41.3101869  61.9725694  75.3308175  41.0888625
  62.4188612  76.6037357  41.3306930  61.8392015  76.0791366  41.2804884
  59.6683645  63.6679803  38.5517634  59.3386975  64.1190947  37.8821333
  58.9928647  63.5895967  39.0990640  59.5194082  63.7230939  38.5340857
  65.2854054  73.0385033  31.4106920  65.2005349  73.8946000  31.5556489
  65.7738437  72.7629357  32.0789079  65.3442951  73.1242354  31.5309002
  66.8760053  59.6565326  36.7967245  66.5613494  60.3468805  37.2287667
  66.3586995  59.6010109  36.0952745  66.7524524  59.7500215  36.7564194
  66.2172487  69.6569827  32.9104655  65.6883959  69.8729461  33.5701961
  66.7397507  70.3505966  32.8305625  66.2160940  69.7912964  32.9960254
  58.1072095  73.5533044  31.7112123  57.5229310  74.0583075  32.1177987
  57.7042190  73.3275431  30.9708715  57.9611399  73.5941292  31.6617148
  53.6616123  79.2687805  38.5135795  53.1783702  79.9938295  38.4895378
  54.4739442  79.5663935  38.6245952  53.7106871  79.4190159  38.5263074
  59.7330278  78.0619986  41.1185609  59.2157219  77.7027401  40.5146917
  60.4304669  77.5382160  41.1291675  59.7595859  77.9317674  41.0315868
  60.9564329  77.7945960  46.0619444  60.3935164  77.3818570  46.5859106
  61.7185353  77.7198866  46.4812588  60.9858778  77.7223360  46.2012445
  62.5649309  69.7998696  30.1881044  62.8045313  70.0076680  29.3756387
  62.8865150  68.9956205  30.2969988  62.6486467  69.7112797  30.0841597
  57.8739600  61.7292092  34.0340582  58.6285568  62.0970409  33.7957632
  57.6967134  62.1031646  34.8019761  57.9594078  61.8390280  34.1125470
  56.5160321  79.7843981  38.6656075  57.2180900  79.2695970  38.7228831
  56.4357804  80.1118132  39.4702950  56.6084081  79.7558207  38.7928867
  71.1674498  67.8786532  42.0788121  70.3302919  67.9488719  42.3135716
  71.1362729  67.8811027  41.2062423  71.0392781  67.8896759  41.9847669
  57.5639227  70.0219568  47.7936490  57.7359731  69.9125463  48.6421771
  58.1008585  70.6673973  47.5567682  57.6684231  70.1011570  47.8841586
  56.2296664  64.1362411  30.7318695  56.0472237  64.3534292  29.9059688
  57.0922277  64.2501424  30.7877309  56.3301254  64.1852309  30.6173182
  55.8411096  75.9750333  38.1741683  56.6799996  76.2073266  38.2215444
  55.8722865  75.1054644  38.1048718  55.9692814  75.8807280  38.1706327
  56.4663799  76.3951208  42.4754988  57.0062024  76.2522339  43.1458361
  55.7833745  76.7947959  42.8439014  56.4455953  76.4330879  42.6289410
  61.9096383  61.1388822  33.7667719  62.6382544  60.9604776  33.3205875
  61.9991276  61.9806901  33.9774897  62.0303045  61.2372700  33.7321236
  65.8904684  72.0742209  37.6700013  66.6462199  72.5073723  37.7088921
  65.9967009  71.4246979  38.2434649  66.0174855  72.0419693  37.7598038
  51.8700944  72.6151499  42.6289410  51.6039359  71.7990616  42.7880400
  51.8839508  72.6604655  41.7584925  51.8325667  72.5008404  42.5242892
  68.8482338  62.9429314  40.6631843  69.4908247  63.0127419  41.2493759
  69.1005359  62.2758537  40.1611385  68.9804470  62.8555663  40.6759123
  55.7758691  67.4136583  29.2441168  55.0616868  67.1274763  29.6563600
  56.2602660  67.7533209  29.8847555  55.7418055  67.4218233  29.3996803
  56.6199551  66.1529877  45.2756417  55.9271347  65.6826857  45.5217149
  57.2359878  65.9268182  45.8498125  56.6084081  66.0497009  45.3965570
  62.9506009  75.9166537  29.6202976  63.3657158  75.5851561  28.9287472
  62.1197939  75.6835440  29.4923113  62.8894018  75.8337793  29.4993823
  52.2794358  73.4010278  39.9101154  52.0969931  73.3757164  39.0573446
  53.0144027  73.8709216  39.9490063  52.3608422  73.4671641  39.7899072
  68.3494032  73.6361788  37.0534042  68.5849621  73.7806987  36.2260892
  68.4983596  74.4004196  37.4465555  68.4059835  73.7700843  36.9897645
  55.3440110  70.1195281  46.4183263  56.0680082  70.1048312  46.9048157
  55.4456246  70.8290637  45.9205231  55.4658319  70.2219985  46.4162049
  70.1784489  72.4763454  34.8903645  70.5092706  73.0091094  34.2843740
  70.7517577  72.5302342  35.5465596  70.3118168  72.5633023  34.8981427
  62.7185059  73.5994366  51.2832210  61.9258040  73.9137878  51.4684829
  62.8333986  73.8145834  50.4452994  62.6180470  73.6778203  51.1870544
  65.3916378  70.3228357  35.5727225  65.4863232  71.0617651  36.0266851
  64.7675221  69.8945833  36.0061790  65.3125408  70.3689678  35.7035373
  63.6468852  73.5014570  46.2217506  64.2207713  72.8641814  46.3766070
  63.5683656  73.5018652  45.3527164  63.7202087  73.4079681  46.1163917
  52.2465268  70.2803779  40.0600221  52.8238771  70.1440230  40.6992466
  51.5479330  69.8239563  40.3145805  52.2286290  70.1926045  40.1922510
  65.6439399  72.1677097  28.8064177  65.5619562  72.2379284  29.6719164
  66.2819120  72.7306841  28.6147918  65.7259237  72.2616068  28.9054127
  59.0032570  71.9337835  38.2738704  58.7451815  71.1009570  38.2470003
  59.0581053  72.1595448  37.4331204  58.9732348  71.8435606  38.1458841
  64.0833621  64.0366285  38.3742796  63.3789947  63.5475471  38.5326716
  64.1318595  64.0488760  37.5031241  63.9863672  63.9655933  38.2682136
  57.9767283  69.4875597  38.7603599  57.4016874  69.6467766  39.3967559
  57.6002959  68.8511006  38.2972049  57.8370095  69.4173410  38.7858157
  61.6440571  67.9598947  43.6195977  61.2555004  67.5353164  42.9648168
  60.9795270  68.2081096  44.1273004  61.4887499  67.9337668  43.5983845
  71.2863840  67.7173951  36.3943807  71.0300405  66.9053893  36.2041690
  72.1293154  67.7251518  36.1673994  71.3729866  67.5985949  36.3328624
  47.7224101  69.1315672  36.7748039  47.8084353  68.7547540  37.5561569
  48.3499899  68.7576118  36.2967997  47.8280652  69.0201154  36.8193516
  65.4666933  61.6573575  41.1319961  65.8477445  60.9751746  41.5187835
  64.6630217  61.3683177  40.9495626  65.4043394  61.5140624  41.1624017
  62.7479509  72.1897551  31.8172784  63.5620148  72.4812444  31.7055555
  62.6838651  71.5357413  31.2431077  62.8582248  72.1362746  31.7161621
  58.6187418  75.6619069  36.9445096  59.2561365  75.4230816  37.4896889
  59.0442489  75.8656228  36.2098257  58.7763584  75.6570079  36.9162253
  53.3100060  77.9007405  40.8279400  53.3504205  78.1722256  39.9999179
  53.8694584  78.4249313  41.2437188  53.3983406  78.0183160  40.7671288
  59.2590233  70.8821358  31.2819985  59.6435385  70.6629065  32.0336530
  59.0101853  71.7084304  31.4121062  59.2792305  70.9719505  31.4121062
  59.4258773  64.1627774  50.9982570  59.1112214  64.9327336  50.7352132
  59.1048706  63.5998030  50.4134797  59.3317692  64.1938042  50.8723920
  61.0008890  76.1391491  38.6238882  61.0747898  75.9766663  39.4780732
  61.8178396  76.3281681  38.3799364  61.1325248  76.1428234  38.7136908
  54.7614646  76.4849354  35.6533326  53.9352764  76.7311091  35.5267605
  54.8226638  76.4061435  36.5195384  54.6488813  76.5094303  35.7622270
  56.9790670  62.5518295  36.6128766  56.1113096  62.6240895  36.6786375
  57.2665874  63.3540374  36.8016741  56.8930418  62.6812442  36.6503533
  66.1023559  62.6996154  44.9440088  66.8477151  62.5105965  44.5303513
  65.6860863  63.2254392  44.3853944  66.1508533  62.7498300  44.8004661
  59.5413475  79.1026234  33.3552356  59.8311774  78.7115216  32.6311582
  60.2716956  79.2842939  33.7957631  59.6920360  79.0720048  33.3135163
  73.4785830  70.0705383  39.8945593  74.0293751  69.4373452  40.1342685
  73.4629945  70.6020776  40.5861097  73.5571026  70.0554331  40.0324451
  60.1308221  73.9043980  44.4405486  59.6319914  74.6159748  44.5190375
  60.9408445  74.2244647  44.4023649  60.1764327  74.0570829  44.4462055
  57.4819391  81.0793617  36.4212505  57.2619686  80.7890971  37.2139172
  57.2613913  80.4208572  35.8930418  57.4166985  80.9393325  36.4601414
  56.3936338  73.1666933  38.6868207  56.1049587  72.5404404  39.2213934
  57.2619686  73.1087221  38.7532888  56.4796590  73.0654477  38.7759162
  67.1814236  68.3101717  39.0050189  66.8379002  67.5892052  39.3557439
  67.2807279  68.1015568  38.1628547  67.1456279  68.1725920  38.9321869
  56.5968612  74.8062184  34.6110572  57.3514580  75.1875223  34.8246035
  56.0039224  75.2573328  35.0657269  56.6205325  74.9291012  34.7093451
  59.0575279  66.7625025  49.7367784  58.2475054  67.0682804  49.6257627
  59.5349965  67.4830607  49.8520368  59.0078757  66.9139626  49.7374855
  57.9166838  75.9770746  39.9850688  57.3947592  76.1171037  40.6702552
  58.3040858  75.2181410  40.1752805  57.8970539  75.8856269  40.1151764
  54.9058022  66.0276554  34.0545642  54.6182818  65.6577825  33.3177590
  55.5928490  66.4971410  33.7929347  54.9646919  66.0423524  33.9060718
  59.3433164  73.0074765  35.3832179  59.1475946  73.6149499  34.7892482
  59.5667509  72.3142709  34.9023852  59.3467805  72.9952290  35.2248259
  57.7411694  69.8929503  35.5013047  58.4634346  70.0570661  35.0416853
  57.2619687  70.6139167  35.3952387  57.7775424  70.0227732  35.4178661
  65.7005201  66.2293301  40.8809732  64.8616302  66.2554580  40.6447995
  65.7709569  66.8764037  41.4615078  65.5873595  66.3289427  40.9318849
  55.3919310  72.2987575  44.6067187  55.9040407  72.5771828  43.9575947
  55.1055653  73.0376869  44.9730000  55.4254174  72.4489929  44.5657065
  64.1474480  63.1278678  35.6137348  64.8500832  62.9286427  35.1357306
  63.8818668  62.3554621  35.9206191  64.2121112  62.9841644  35.5882789
  69.5762725  71.4361288  38.1670974  69.4896700  71.5916714  39.0205752
  69.1213205  72.0799364  37.7930379  69.4965982  71.5537043  38.2378080
  52.4786217  66.8057767  34.9030923  52.5802353  67.6083928  35.2311899
  53.2742104  66.6045103  34.6054004  52.6114122  66.8943666  34.9066279
  58.9103036  64.3913964  44.6668228  58.7186233  64.4069098  45.5167652
  59.7601632  64.5877638  44.6434883  59.0078758  64.4228315  44.7891523
  53.2949949  66.9204945  42.6452045  53.1535441  66.0688886  42.7696553
  53.5790512  66.9633606  41.8214251  53.3157795  66.8004695  42.5419669
  63.4488541  68.7572035  36.7896533  63.2023256  68.6767786  37.6233322
  63.7773664  67.9725503  36.5959061  63.4609785  68.6298301  36.8844056
  65.6814675  71.7651770  46.8305696  65.6762714  70.8931586  46.8348122
  66.3875669  71.9639939  46.3575152  65.7859679  71.6655644  46.7612731
  59.4085569  71.4928754  46.2019516  59.5528944  72.0729962  45.5662626
  59.7561217  71.8705051  46.9069371  59.4813030  71.6349458  46.2118511
  61.5805486  70.6918922  43.9844648  60.8328800  70.8849937  43.5792926
  61.7347011  69.8664142  43.7468769  61.4927913  70.5984034  43.8890054
  58.4813324  79.6831526  43.0680543  58.6302887  79.1234442  42.4153947
  59.2613326  79.7623527  43.4513062  58.6187417  79.6117091  43.0277492
  61.8207263  64.5869473  44.8740052  62.2779877  65.3193447  45.0012844
  61.8963592  64.1635938  45.6327307  61.8998233  64.6326711  45.0041128
  54.0640254  64.8335293  45.9629495  53.5282444  64.2215651  46.2790262
  54.1258019  65.4083429  46.6163162  53.9935887  64.8282220  46.1064922
  66.2934589  57.7659348  38.7433894  66.4118157  58.2235811  38.0101197
  66.1196765  56.9604609  38.4570112  66.2853760  57.7153120  38.5934828
  61.6636871  78.3747167  35.1788640  62.4286762  78.1056811  34.8571304
  61.5614961  77.8897178  35.8958703  61.7618367  78.2636732  35.2368467
  59.6989641  66.5771577  41.7181876  58.9085716  66.3963037  42.0399211
  60.0950264  65.7998529  41.7012170  59.6406517  66.4359038  41.7634424
  64.1855532  75.4059351  27.1588589  64.9528517  75.4659476  26.7494441
  63.7386841  74.8339793  26.6744908  64.2328959  75.3295927  27.0266299
  65.0833327  74.2114007  39.4441321  64.4078329  73.9799239  39.9454708
  65.0925703  73.6035190  38.8183426  64.9851832  74.0872932  39.4257474
  62.2127471  69.0531836  46.2005374  62.1486612  69.9141792  46.0725511
  62.3524659  68.7363829  45.4000926  62.2242941  69.1332003  46.0633587
  60.8946565  71.7463975  40.3421577  60.4708814  71.9468474  39.6060596
  60.7191420  70.8992823  40.4545877  60.8057446  71.6512757  40.2495267
  56.1829010  72.2416027  35.7749550  56.3393629  72.1762830  36.6305542
  56.5229603  73.0164579  35.5628229  56.2562245  72.3465225  35.8704144
  62.7208155  71.6173910  34.6442913  63.2623700  71.1144291  35.1081534
  63.0354714  71.5639105  33.8332398  62.8472552  71.5353331  34.5926725
  60.8894604  77.0091262  31.9282941  60.9587425  76.1505800  32.0675942
  61.6683059  77.2263143  31.6001966  61.0147454  76.9144126  31.9000098
  63.8697424  66.5110215  44.6965214  64.0839394  65.8721129  44.1428568
  63.2531323  66.9556039  44.2673075  63.8102753  66.4820359  44.5515645
  52.7563271  69.4250977  36.0910317  53.1362236  69.8435522  35.4270584
  52.1818636  70.0064433  36.3979160  52.7274596  69.5728836  36.0387058
  66.0336512  68.1199280  45.6348521  65.2213194  67.8125170  45.7161693
  66.4926447  67.6398280  46.1991233  65.9816897  68.0035772  45.7303115
  65.4441767  75.9978952  36.0825465  65.0856421  76.1693595  36.8589497
  64.9580477  76.4592158  35.5253463  65.3200464  76.0917923  36.1150734
  63.2612153  59.6210150  39.6852556  62.3905711  59.5948872  39.6385866
  63.5152494  59.4487343  38.8678402  63.1705713  59.5920294  39.5572693
  60.2330132  71.6778117  28.6225699  60.5222657  72.4543000  28.8969274
  60.3201931  71.1666849  29.3240199  60.2884388  71.7170036  28.7668197
  63.1290019  69.5259351  50.4177223  63.5989651  70.1501468  50.8045097
  63.1751900  68.8576327  50.9770438  63.2057895  69.5194032  50.5577294
  60.2861293  61.6316379  41.1426027  59.7699782  60.9396570  41.2677606
  59.7255222  62.2987156  41.0888625  60.1267806  61.6279637  41.1532093
  62.3553527  62.1709339  42.9718879  61.9685280  62.1958370  43.7532409
  61.8686464  61.6051018  42.5193396  62.2266035  62.0905090  43.0206783
  68.3303506  68.7371994  41.5958581  67.9031114  68.6498342  40.8406681
  67.6929559  68.8449769  42.1813426  68.1733113  68.7404654  41.5704023
  62.0210668  59.0576324  45.2629139  62.6503786  59.5936624  44.9850210
  62.1896531  58.9653683  46.1142705  62.1388463  59.1237687  45.3477667
  61.8224583  63.8447519  47.5355551  62.6498013  63.5732668  47.5914165
  61.8432429  64.6408361  47.8919369  61.9477433  63.9227273  47.5970734
  56.3994073  70.9911382  40.7225811  55.5582080  70.8915256  40.9304705
  56.6084081  71.7606862  41.0740132  56.3058766  71.0903425  40.8053126
  53.8769640  68.6130919  38.5510562  53.4826338  68.6873931  37.7760672
  53.3209757  68.9988865  39.1018924  53.7372452  68.6812694  38.5178222
  65.5134587  61.5912213  38.2314441  65.7184180  61.5234521  39.0771438
  65.1861011  62.3971034  38.1635618  65.4949835  61.6998153  38.3474096
  60.2110738  68.9192781  39.9723409  59.9073875  68.3648769  40.5733817
  59.5090159  69.0984991  39.4851443  60.0626948  68.8637563  39.9893115
  59.2676835  66.2293301  34.5368111  59.5436569  65.5112213  34.1245678
  59.8675504  66.8278221  34.3289217  59.3970100  66.2113672  34.4448872
  58.2729089  76.1342502  44.6795507  58.1649444  76.1444564  45.5457565
  58.4824870  76.9597282  44.4900461  58.2879200  76.2583577  44.7799598
  68.7668274  62.1443977  37.7117206  68.1542588  62.6314379  38.0970938
  68.8632449  61.4687468  38.2554858  68.6906172  62.1162286  37.8496065
  62.7687355  63.9006818  32.8114706  63.2231102  64.0717379  33.5362550
  63.2427401  63.2874929  32.4112482  62.9055676  63.8357704  32.8588467
  56.2902881  73.3855144  42.1417444  55.6990814  74.0264642  42.1120459
  57.0523904  73.8092762  42.1148744  56.3151141  73.5430983  42.1332592
  56.6863504  64.5457142  42.8085462  57.1464985  64.6196071  43.5460586
  56.7319610  65.3438396  42.4585283  56.7614059  64.6751289  42.8658218
  58.3346853  65.2123837  47.3757489  57.9432419  64.5657184  47.8113267
  58.5032716  65.8035272  47.9951744  58.3017764  65.2038105  47.5320195
  60.1100375  70.6049353  33.9159713  60.8542420  70.9923629  34.1542663
  60.2561072  69.7606778  34.0800201  60.2410961  70.5379825  33.9753683
  62.0279951  62.3999612  38.9491574  61.1815996  62.5722419  38.8232924
  62.0251083  61.5948955  39.2857403  61.9027101  62.3060640  38.9802701
  63.0978251  66.1774826  39.8153632  62.6238206  65.6516588  40.3258943
  63.4696387  65.6304299  39.2468494  63.0828140  66.0190823  39.8068780
  53.4751281  68.1746333  45.1837178  54.3376894  68.0742042  45.0974508
  53.1443064  67.5941042  44.6222750  53.5536478  68.0737959  45.0882584
  69.3614982  71.2377202  41.2260413  69.1213205  70.3983617  41.2302839
  69.8406989  71.3177368  41.9501186  69.3967166  71.1258601  41.3335215
  65.0261751  67.0711381  32.8779386  64.4984770  67.1540125  32.1885095
  65.4857459  67.8129252  32.8744031  65.0163601  67.1932043  32.7754081
  71.3620169  68.0178659  39.1789672  71.1229939  67.9774493  38.3410457
  71.5254070  68.8649811  39.3055393  71.3510472  68.1370744  39.0743154
  67.9666199  72.4028608  45.1094717  68.6900398  71.9501135  44.9305737
  67.7016161  72.6833274  44.3267045  68.0347472  72.3779577  44.9673433
  56.8353067  66.9988782  41.8447596  56.2106138  67.0107174  41.2373549
  56.4998662  67.4748957  42.4938837  56.6938559  67.0707299  41.8504165
  57.0194816  65.3413900  27.9020281  56.6707620  65.9933625  28.3651831
  56.5391262  65.3271013  27.1744153  56.8965060  65.4356954  27.8631373
  53.5478743  75.0589242  43.2851361  53.0178668  74.3681681  43.3346335
  53.8203836  75.0499427  42.4564069  53.5103465  74.9556374  43.1698777
  64.5798833  75.6414944  32.0089043  65.3033032  76.1073057  31.8653617
  64.1399425  75.7088554  31.2586640  64.6214526  75.7198781  31.8773825
  63.7484989  72.5012486  43.2589732  63.1341982  71.9570537  43.5538368
  64.2652274  71.9876723  42.7795548  63.7340651  72.3448895  43.2313961
  62.9881286  73.5716756  40.9934031  62.5608894  72.9466475  40.5599466
  62.9806230  73.2891678  41.8193038  62.9240427  73.4369537  41.0513858
  56.1043813  68.6081929  44.0622465  56.2637300  67.8525254  44.4674187
  55.9236706  69.1572869  44.7163203  56.1009172  68.5775743  44.2185171
  64.0464116  60.7743165  44.6173254  63.5504677  60.9706839  43.9264821
  64.8033178  61.1735833  44.4462056  64.0850941  60.8620899  44.4893391
  61.3166995  64.4485511  41.2076565  61.3409483  63.9145623  40.5189345
  61.5678469  63.9402820  41.8702155  61.3576914  64.2946415  41.2041210
  48.8274585  71.7317006  40.6419709  48.7218034  71.6863850  39.7771793
  48.0774805  72.0770786  40.9233994  48.7010188  71.7757914  40.5557039
  57.5968318  63.1756329  40.5882309  57.6366689  63.6765536  41.3017017
  56.7717982  63.2666723  40.3188232  57.4807844  63.2638146  40.6532847
  59.7797931  72.7417069  48.6902604  58.9293561  72.8788783  48.8260249
  59.9426058  72.0080847  49.1350305  59.6781794  72.6531170  48.7758203
  59.0182681  69.6916839  42.8856208  58.1874611  69.8590657  42.6791456
  58.9634198  69.3152790  43.6705094  58.8872096  69.6606570  42.9704736
  56.8266464  63.1825732  48.5212619  57.4519168  62.6387865  48.7942051
  56.3716944  62.7020650  47.9520409  56.8514725  63.0315213  48.4774213
  57.3918725  67.9672431  33.4146326  57.5321686  68.4644895  34.1174967
  57.8901258  67.2658725  33.5560540  57.4859806  67.9374409  33.5397905
  57.4218947  68.8339542  30.7438903  58.0564027  69.4299967  30.6788365
  57.5044558  68.5342999  31.5584773  57.5275498  68.8780450  30.8541989
  70.4001513  71.3655019  43.6125267  70.9919353  72.0052270  43.6443465
  70.8360508  70.6678056  43.9017334  70.5519944  71.3573369  43.6606100
  58.9997930  64.7653517  30.7184345  59.3213771  64.2856600  30.0643607
  59.2624874  65.5753163  30.5275156  59.0863956  64.8143415  30.5939837
  62.2294903  75.7872391  44.2383161  61.7219994  76.3408238  44.6823791
  61.9321549  75.8480681  43.4201935  62.1099788  75.8778703  44.1831618
  64.3957085  64.1525711  43.0807824  64.8212157  63.6998237  42.4691350
  63.7814078  63.5985782  43.3572611  64.3685730  64.0039687  43.0312849
  53.9271935  71.0307382  34.0128449  54.4364164  71.6271890  34.3939754
  54.4006207  70.7633356  33.3304868  54.0715311  71.0793198  33.9682971
  62.8351308  60.6240811  36.4898401  62.1919626  60.4738457  37.0583539
  62.4950715  60.3783156  35.7247505  62.6896385  60.5652933  36.4601416
  67.4250654  68.5800238  35.9128409  66.7541844  69.1229940  35.7841475
  68.1190405  69.0495093  35.6710104  67.4279522  68.7298509  35.8583937
  67.5878782  65.0356121  38.8218783  67.9406392  64.6085844  39.4964581
  66.7293583  64.9506965  38.9519859  67.5128227  64.9600862  38.9413793
  56.2862467  67.6663641  36.8801629  55.5674456  68.0827773  37.1474493
  56.6574829  68.2317880  36.3293267  56.2354399  67.8112922  36.8384436
  65.5862048  68.2991490  42.7703625  65.5659975  68.1174785  43.6238404
  65.6341248  69.1703508  42.7463209  65.5896689  68.4008028  42.8926920
  63.5308378  74.8878682  48.6952101  63.4904232  74.2428359  48.1097257
  64.3431696  74.8315299  49.0077513  63.6451531  74.7837649  48.6549051
  62.0609041  66.7061641  32.2175009  61.4673881  67.0278637  31.6659576
  62.0984319  65.8602736  32.0096115  61.9783430  66.6285969  32.1057780
  69.0202842  60.1574533  39.7503095  68.5133707  59.4503673  39.6824273
  69.8170276  59.8267722  39.8804172  69.0630081  60.0047684  39.7602090
  64.9366858  66.6641145  35.6476759  64.7080551  66.6873847  34.8055117
  65.1964934  65.8398612  35.7671769  64.9413046  66.5457225  35.5401957
  59.2186086  68.5175618  45.2501859  58.7064989  67.9096801  45.6086890
  59.0465582  69.2332211  45.7175835  59.1175723  68.5338918  45.3718083
  54.0651801  66.9613194  47.9004221  53.8954391  67.6214568  47.3552428
  53.6217751  67.1719755  48.6216710  53.9751135  67.0899176  47.9265850
  57.9911620  65.2017692  36.9430955  58.4668987  65.5634771  36.3081136
  57.4900220  65.8574159  37.2231097  57.9876979  65.3511880  36.8907695
  63.0955157  66.4399863  47.6904115  63.6526587  66.2113673  47.0582580
  62.7716222  67.2005529  47.4139327  63.1301567  66.5183700  47.5560612
  50.9653865  69.8660059  43.1592711  50.4180585  69.1960705  43.2773579
  51.7546244  69.4989907  43.2236178  51.0006049  69.7125046  43.1861411
  60.8138274  69.5267516  48.6556122  61.5649601  69.8419193  48.9695676
  61.0060850  69.3246687  47.8290043  60.9529688  69.5434898  48.5799517
  60.0338273  67.3458891  30.3104338  60.4137238  67.3638521  29.5255453
  59.2930870  67.7912880  30.1895186  59.9807111  67.4140666  30.1767907
  67.6623564  65.6541083  35.8979917  67.6617790  65.4989739  36.7564194
  67.4579744  66.5004070  35.8421303  67.6323342  65.7561703  36.0167857
  49.7240835  69.0780867  40.3138734  49.5462596  68.6257476  41.0393649
  49.4359857  69.8807028  40.4977211  49.6553788  69.1303425  40.4482237
  65.3864416  70.3338584  39.5516124  65.8818081  69.6161579  39.5120144
  64.5764192  70.0309382  39.4370611  65.3408309  70.1836231  39.5289850
  60.8323028  74.1836398  31.7013129  60.0234350  73.8603071  31.6546438
  61.3397936  73.4769620  31.6341377  60.7872694  74.0317714  31.6843423
  51.4613305  71.6108591  37.4260493  50.5958824  71.5994281  37.3143264
  51.5612121  71.4238814  38.2731632  51.3487472  71.5814652  37.5349437
  67.4516235  73.0842272  42.2393253  67.8771306  72.5616694  41.6863678
  67.0873155  73.6823109  41.7181876  67.4602837  73.0952499  42.0802263
  57.0870315  81.3806489  40.9990598  57.4016874  82.1942878  41.0068380
  57.4963728  80.9956708  41.6672757  57.1938413  81.4435192  41.0994690
  64.0394834  76.7976536  38.5694410  64.5106013  77.5116799  38.7384395
  64.3755013  76.1975286  39.1054280  64.1589949  76.8148000  38.6726786
  60.9564329  61.5704007  45.5252505  61.0892235  60.7735000  45.8533481
  61.3409482  62.0970410  46.1050781  61.0320658  61.5303923  45.6596008
  64.6768781  76.5894470  45.3322103  64.1289727  75.9652354  45.0642168
  65.1381809  76.7788742  44.6166182  64.6635990  76.5253520  45.1872534
  64.0296684  58.4934333  42.1233598  63.2242648  58.3832062  42.4401437
  63.9003420  58.5946789  41.2663464  63.8916817  58.4918003  42.0441639
  67.4862645  64.6579825  42.7173295  66.9025634  65.1589031  42.3050863
  67.8066939  64.1509381  42.0837619  67.4475820  64.6571660  42.5631802
  60.0257444  63.5720420  32.9931970  60.8473139  63.7418732  32.7513665
  59.5627095  63.7267681  32.2698268  60.0788606  63.6202153  32.8503614
  58.6152776  61.5663182  43.7730399  59.1597189  61.2254309  44.3634741
  58.6689712  62.4248643  43.9151683  58.7041895  61.6418441  43.8812272
  54.4283335  75.3279598  40.6469207  55.0328192  75.2875432  40.0183027
  54.2210647  76.1750750  40.6773263  54.4872232  75.4467600  40.5585323
  49.6634617  74.3114215  40.5168130  49.5658895  73.5010487  40.8258187
  50.4463487  74.2906009  40.1314398  49.7650754  74.1881306  40.5054993
  36.5161247   0.1147294  21.7614367  36.4855251   0.9691931  21.9332637
  37.1142596  -0.1857413  22.3200511  36.5998405   0.1963791  21.8689170
  29.7160932  -0.7977055  26.5167298  28.8598827  -0.6368557  26.5676414
  29.7628586  -1.6684991  26.5372359  29.5960043  -0.9026253  26.5273364
  24.1002072   8.7385663  22.2804529  23.3484971   8.3601201  22.0520574
  24.5488083   8.7704097  21.5323340  24.0551738   8.6871270  22.1362031
  33.0254648   5.4709471  36.1227754  33.7321416   4.9761502  36.2514688
  33.2142584   5.9118552  35.3930412  33.1582554   5.4627821  36.0336799
  29.5527031   9.1611033  17.7090076  29.2178400   9.8387954  17.2734299
  30.0653902   8.7716344  17.1206948  29.5792613   9.2035611  17.5576868
  29.0931323  11.1125301  23.6501188  29.4770702  11.6812200  23.1105963
  29.0290464  10.3874812  23.1707004  29.1404750  11.0900765  23.4995050
  32.5612753   1.2614989  29.1598949  33.1068713   1.9400076  29.2192919
  32.5029629   1.1202450  28.3000531  32.6328667   1.3406991  29.0411010
  25.6786828   8.7504055  24.5467302  25.7797191   7.9404409  24.8564430
  25.0828573   8.6561002  23.9166980  25.6059366   8.6169083  24.4993540
  34.3377822   2.6899596  20.0332677  34.2217347   3.4407282  20.4624815
  35.1333708   2.4323549  20.2828764  34.4382411   2.7634443  20.1336769
  25.5187567  13.6681644  25.9482158  26.1625023  14.1094808  26.3378316
  25.8443823  12.8635071  25.8612417  25.6619396  13.6146839  25.9927635
  18.8751872   4.7724342  24.1719635  18.6402056   3.9391994  24.0651904
  19.0137513   5.0529007  23.3580836  18.8607534   4.6907845  24.0361990
  26.2208147   6.6793619  21.3202020  26.5423988   7.2198827  20.7163328
  26.8680244   6.1090391  21.4524309  26.3634202   6.6752794  21.2509055
  28.2709855  -1.3190386  21.4036406  28.9690020  -1.1402258  21.8957870
  28.5862188  -1.8420046  20.7806796  28.4205192  -1.3696614  21.3838416
  20.9011092   0.4862354  29.3147512  20.7769789   1.0724800  29.9497331
  21.5529377  -0.0077450  29.6159787  20.9784742   0.5001159  29.4533441
  28.4597790   5.0680059  21.3916198  28.8991426   4.4597160  21.8370970
  28.3102453   4.6887433  20.6201663  28.5019256   4.9218530  21.3435365
  25.9269433   3.6624071  28.5935023  26.5718436   3.1696514  28.2745972
  26.1671211   3.8048858  29.4201101  26.0580019   3.6101513  28.6684556
  28.4655525   6.5078977  28.2441916  28.7478768   5.7130383  28.0228672
  29.1941685   6.9859564  28.2646977  28.6145089   6.4613574  28.2144931
  32.0607127   3.4207240  18.3446967  31.9758422   4.2768207  18.4896536
  32.5491510   3.1451565  19.0129126  32.1196024   3.5064562  18.4649048
  32.9925560   0.0392035  19.8444702  32.4637032   0.2551668  20.5042008
  33.5150580   0.7328173  19.7645671  32.9914013   0.1735172  19.9300301
  38.4473613   5.6138339  25.2177747  37.6171316   5.8248983  25.3811163
  38.3982865   4.7875394  24.9420030  38.3180349   5.5227945  25.2015112
  20.4369197   9.6510013  25.4475842  19.9536775  10.3760502  25.4235425
  21.2492515   9.9486143  25.5585999  20.4859944   9.8012366  25.4603121
  26.5083351   8.4442193  28.0525656  25.9910292   8.0849608  27.4486964
  27.2057742   7.9204368  28.0631722  26.5348932   8.3139881  27.9655915
  30.1646943   8.8937007  34.0141829  30.2530289   8.7063148  34.8620039
  30.5936655   8.2474437  33.6146676  30.2409045   8.7700015  34.0813581
  27.7317402   8.1768167  32.9959491  27.1688237   7.7640777  33.5199152
  28.4938426   8.1021073  33.4152635  27.7611851   8.1045568  33.1352492
  23.2913394  10.1666188  25.5996121  23.9933973   9.6518178  25.6568878
  23.2110877  10.4940340  26.4042997  23.3837154  10.1380415  25.7268914
  37.9427571  -1.7391260  29.0128168  37.1055993  -1.6689073  29.2475762
  37.9115802  -1.7366765  28.1402470  37.8145854  -1.7281033  28.9187716
  24.3392300   0.4041775  34.7276537  24.5112804   0.2947670  35.5761818
  24.8761658   1.0496181  34.4907729  24.4437304   0.4833777  34.8181633
  23.2416872   6.7773416  29.4095035  23.7815097   6.6344547  30.0798407
  22.5586819   7.1770166  29.7779061  23.2209026   6.8153087  29.5629457
  32.6657757   2.4564416  24.6040059  33.4215272   2.8895931  24.6428968
  32.7720082   1.8069186  25.1774695  32.7927928   2.4241900  24.6938085
  35.7037928   6.2837694  25.3542462  35.2673160   6.2874436  26.1101434
  35.3700844   6.9643193  24.9222040  35.5900548   6.3850149  25.4023295
  30.2767002   8.3246026  36.6785613  31.0607419   8.4376874  37.0441355
  30.0763597   7.4987163  36.8744298  30.3633027   8.2192746  36.7619999
  18.6454017   2.9973706  29.5629457  18.3792433   2.1812823  29.7220447
  18.6592582   3.0426862  28.6924972  18.6078740   2.8830611  29.4582939
  30.4337395  10.2356128  30.3252068  29.6352641   9.9955628  30.5825937
  30.8823407  10.2870521  31.0719116  30.3812007  10.2078520  30.4736993
  38.8382275   3.0018613  24.2462100  39.4998709   2.4409282  24.1458008
  38.1973687   2.5070644  24.5714791  38.8411142   2.8455022  24.2794440
  29.7259082   6.2988745  16.5543023  30.1410231   5.9673769  15.8627519
  28.8951012   6.0657647  16.4263159  29.6647091   6.2160001  16.4333870
  19.0547431   3.7832486  26.8441201  18.8723004   3.7579372  25.9913493
  19.7897100   4.2531424  26.8830110  19.1361495   3.8493848  26.7239119
  35.1247105   4.0183996  23.9874088  35.3602694   4.1629195  23.1600939
  35.2736669   4.7826404  24.3805602  35.1812909   4.1523050  23.9237692
  22.1193183   0.5017489  33.3523309  22.8433155   0.4870519  33.8388204
  22.2209319   1.2112844  32.8545278  22.2411392   0.6042192  33.3502096
  36.9537562   2.8585662  21.8243692  37.2845779   3.3913302  21.2183787
  37.5270650   2.9124550  22.4805643  37.0871241   2.9455231  21.8321474
  29.4938132   3.9816573  38.2172256  28.7011113   4.2960085  38.4024876
  29.6087059   4.1968042  37.3793041  29.3933543   4.0600410  38.1210591
  32.1669451   0.7050564  22.5067272  32.2616306   1.4439859  22.9606898
  31.5428295   0.2768040  22.9401837  32.0878481   0.7511885  22.6375420
  30.4221925   3.8836777  33.1557553  30.9960787   3.2464021  33.3106117
  30.3436729   3.8840859  32.2867211  30.4955160   3.7901888  33.0503964
  19.0218341   0.6625987  26.9940267  19.5991844   0.5262437  27.6332513
  18.3232403   0.2061771  27.2485852  19.0039363   0.5748253  27.1262557
  25.7785644   2.3160042  25.2078751  25.5204888   1.4831777  25.1810050
  25.8334126   2.5417655  24.3671251  25.7485421   2.2257813  25.0798887
  24.7520356  -0.1302195  25.6943645  24.1769947   0.0289973  26.3307606
  24.3756032  -0.7666786  25.2312096  24.6123168  -0.2004382  25.7198204
  28.4193644  -1.6578846  30.5536024  28.0308077  -2.0824628  29.8988215
  27.7548343  -1.4096696  31.0613050  28.2640572  -1.6840125  30.5323892
  29.5232583   2.5719759  18.7512831  30.3373221   2.8634651  18.6395602
  29.4591724   1.9179621  18.1771124  29.6335322   2.5184953  18.6501668
  35.7442073   5.2545755  33.1642406  35.5080710   4.4233819  33.0454467
  36.3885302   5.2031362  33.7497251  35.8036744   5.1243443  33.2328300
  25.3940491   6.0441276  23.8785143  26.0314438   5.8053024  24.4236936
  25.8195562   6.2478435  23.1438303  25.5516657   6.0392286  23.8502300
  20.0853133   8.2829612  27.7619447  20.1257279   8.5544464  26.9339226
  20.6447657   8.8071521  28.1777234  20.1736479   8.4005368  27.7011335
  36.7678493   5.0390203  29.2270701  36.4624311   5.7718260  29.5884016
  36.0484709   4.6328133  28.9463487  36.6165836   5.0871936  29.2383838
  27.7761963   6.5213699  25.5578929  27.8500971   6.3588870  26.4120779
  28.5931469   6.7103888  25.3139411  27.9078321   6.5250441  25.6476955
  42.4680286   1.6783204  28.5539045  42.4004786   1.6979163  27.6841632
  42.4535948   2.5213531  28.7794716  42.4559042   1.8056939  28.4591522
  21.5367720   6.8671561  22.5873373  20.7105837   7.1133299  22.4607651
  21.5979711   6.7883642  23.4535431  21.4241887   6.8916510  22.6962317
  26.3166549   9.4848442  20.2892402  26.6064847   9.0937423  19.5651629
  27.0470029   9.6665147  20.7297678  26.4673433   9.4542255  20.2475209
  40.2538903   0.4527590  26.8285640  40.8046824  -0.1804341  27.0682732
  40.2383018   0.9842983  27.5201144  40.3324099   0.4376538  26.9664498
  26.9061294   4.2866188  31.3745533  26.4072987   4.9981955  31.4530421
  27.7161518   4.6066854  31.3363695  26.9517400   4.4393036  31.3802102
  24.2572464  11.4615824  23.3552552  24.0372760  11.1713179  24.1479219
  24.0366986  10.8030779  22.8270465  24.1920058  11.3215532  23.3941461
  23.1689411   3.5489141  25.6208254  22.8802660   2.9226612  26.1553981
  24.0372759   3.4909428  25.6872934  23.2549663   3.4476685  25.7099208
  33.9567309  -1.3076076  25.9390236  33.6132075  -2.0285741  26.2897485
  34.0560352  -1.5162225  25.0968594  33.9209352  -1.4451873  25.8661916
  26.4240420  12.8345214  22.1383245  27.0764478  12.3021656  22.3674271
  25.7266029  12.4813866  22.5251119  26.4171138  12.7034737  22.2295412
  23.3721685   5.1884392  21.5450619  24.1267653   5.5697431  21.7586081
  22.7792297   5.6395535  21.9997315  23.3958398   5.3113219  21.6433497
  34.4180338   5.1549628  21.4814224  34.9838371   5.8142838  21.3972767
  33.7708242   5.4999326  21.9530626  34.4059095   5.3031569  21.5386980
  25.8328352  -2.8552768  36.6707831  25.0228128  -2.5494988  36.5597674
  26.3103038  -2.1347186  36.7860415  25.7831831  -2.7038167  36.6714902
  24.6919911   6.3592953  26.9190734  24.1700665   6.4993245  27.6042599
  25.0793932   5.6003617  27.1092852  24.6723612   6.2678477  27.0491811
  30.8886916   8.0988412  20.9051303  30.6473592   7.3656273  20.4978368
  31.0688249   8.6475269  20.2517636  30.8794540   8.0710803  20.7481526
  26.1186237   3.3896972  22.3172225  25.9229020   3.9971707  21.7232528
  26.3420583   2.6964916  21.8363899  26.1220878   3.3774498  22.1588306
  24.5164767   0.2751710  22.4353094  25.2387419   0.4392868  21.9756900
  24.0372760   0.9961375  22.3292433  24.5528498   0.4049940  22.3518708
  32.4758275  -3.3884491  27.8149779  31.6369375  -3.3623212  27.5788042
  32.5462642  -2.7413756  28.3955125  32.3626668  -3.2888365  27.8658896
  22.1672384   2.6809782  31.5407234  22.6793481   2.9594036  30.8915993
  21.8808726   3.4199076  31.9070047  22.2007247   2.8312136  31.4997112
  36.3515798   1.8183496  25.1011020  36.2649773   1.9738922  25.9545799
  35.8966278   2.4621571  24.7270425  36.2719055   1.9359251  25.1718127
  25.6856109  -5.2263829  31.6008275  25.4939306  -5.2108695  32.4507699
  26.5354705  -5.0300155  31.5774930  25.7831831  -5.1949478  31.7231570
  30.2241614  -0.8605757  23.7236580  29.9776329  -0.9410006  24.5573369
  30.5526738  -1.6452290  23.5299107  30.2362858  -0.9879492  23.8184103
  34.1189663   5.8477602  27.5123361  33.9804023   6.5458648  28.0172104
  33.3389661   5.6926258  27.1559543  33.9832890   5.9277769  27.5349635
  32.4567748   2.1473977  33.7645743  32.4515787   1.2753794  33.7688169
  33.1628742   2.3462146  33.2915199  32.5612752   2.0477851  33.6952778
  26.1838642   1.8750961  33.1359563  26.3282017   2.4552169  32.5002673
  26.5314290   2.2527258  33.8409418  26.2566103   2.0171665  33.1458558
  28.3558559   1.0741130  30.9184695  27.6081873   1.2672144  30.5132973
  28.5100084   0.2486349  30.6808816  28.2680987   0.9806241  30.8230100
  25.2566397  10.0653733  30.0020590  25.4055960   9.5056649  29.3493994
  26.0366399  10.1445735  30.3853109  25.3940490   9.9939298  29.9617539
  35.6143036   5.2055856  18.2739860  35.2349845   4.4192994  18.2669150
  34.9509282   5.7542713  18.1311505  35.4601511   5.1700680  18.2520657
  27.7819697  10.2368376  31.2805081  27.7063368   9.5677186  31.8355869
  27.7109556  10.9386164  31.7945747  27.7600304  10.2413283  31.4381929
  28.5960336  -5.0308320  31.8080098  29.0532950  -4.2984345  31.9352891
  28.6716665  -5.4541854  32.5667354  28.6751306  -4.9851082  31.9381175
  28.4389944   8.7569375  22.1128687  29.2039835   8.4879019  21.7911351
  28.3368034   8.2719385  22.8298749  28.5371440   8.6458939  22.1708514
  26.4742714  -3.0406216  28.6521922  25.6838789  -3.2214756  28.9739258
  26.8703337  -3.8179263  28.6352217  26.4159590  -3.1818755  28.6974471
  31.8586400   4.5936214  26.3781368  31.1831402   4.3621447  26.8794755
  31.8678776   3.9857397  25.7523473  31.7604905   4.4695140  26.3597520
  28.9880544  -0.5645957  33.1345421  28.9239686   0.2964000  33.0065558
  29.1277732  -0.8813963  32.3340973  28.9996014  -0.4845790  32.9973634
  33.8603135   7.4501347  18.6091546  33.9422972   8.2568333  18.2852997
  34.3452877   7.4697306  19.3332320  33.9440293   7.5722009  18.6678445
  27.6699638   2.1286183  27.2761624  27.2461887   2.3290682  26.5400642
  27.4944493   1.2815031  27.3885924  27.5810519   2.0334964  27.1835314
  22.9582083   2.6238234  22.7089597  23.1146702   2.5585037  23.5645589
  23.2982676   3.3986787  22.4968276  23.0315318   2.7287432  22.8044191
  29.4961228   1.9996118  21.5782960  30.0376773   1.4966499  22.0421580
  29.8107787   1.9461312  20.7672445  29.6225625   1.9175539  21.5266772
  33.3678335   6.2098765  38.6909872  34.1813200   5.9383914  38.8515005
  33.2073302   5.9106305  37.8870068  33.4648284   6.1253691  38.5955278
  27.6647678   7.3913469  18.8622988  27.7340498   6.5328008  19.0015988
  28.4436133   7.6085350  18.5342012  27.7900528   7.2966333  18.8340145
  30.6450497  -3.1067578  31.6305260  30.8592467  -3.7456664  31.0768614
  30.0284396  -2.6621754  31.2013122  30.5855826  -3.1357434  31.4855691
  32.0555165   9.8151171  23.0759481  31.6634957   9.5117886  22.3582347
  32.2108237  10.6520260  22.8864435  32.0208755   9.8935007  22.9415978
  32.8089585  -1.4978513  32.5688567  31.9966267  -1.8052622  32.6501740
  33.2679520  -1.9779512  33.1331280  32.7569970  -1.6142020  32.6643162
  32.2194840   6.3801159  23.0165512  31.8609495   6.5515802  23.7929544
  31.7333551   6.8414365  22.4593510  32.0953537   6.4740130  23.0490781
  29.9043093  -0.0918441  37.3517270  30.3742724   0.5323675  37.7385144
  29.9504973  -0.7601466  37.9110484  29.9810969  -0.0983761  37.4917341
  33.3799579   7.2705055  33.9632713  34.0179300   6.7765251  33.6295169
  32.7373671   7.1982456  33.3784940  33.3793806   7.1864064  33.8275068
  35.1056579  -0.8805799  28.5298628  34.6784187  -0.9679450  27.7746728
  34.4682632  -0.7728023  29.1153472  34.9486187  -0.8773139  28.5044070
  33.4353836   7.9624864  30.6038069  34.2246214   7.6113928  30.7240151
  33.6097434   8.7761252  30.3414703  33.5774117   8.0310721  30.5825937
  23.1747146   1.3733589  27.6565858  22.3335153   1.2737464  27.8644752
  23.3837154   2.1429070  28.0080179  23.0811839   1.4725633  27.7393173
  20.6522713  -1.0046874  25.4850609  20.2579411  -0.9303862  24.7100719
  20.0962830  -0.6188927  26.0358971  20.5125526  -0.9365099  25.4518269
  26.9863811  -0.6985011  26.9063456  26.6826949  -1.2529023  27.5073863
  26.2843232  -0.5192802  26.4191490  26.8380021  -0.7540229  26.9233161
  25.0482162   6.5164709  31.6135554  24.9402517   6.5266771  32.4797612
  25.2577944   7.3419490  31.4240507  25.0632273   6.6405784  31.7139645
  23.0655954   3.7677352  29.0757491  22.4743887   4.4086850  29.0460506
  23.8276978   4.1914969  29.0488791  23.0904215   3.9253190  29.0672638
  25.1099927  -4.4053956  34.3097536  24.7185492  -5.0520609  34.7453314
  25.2785789  -3.8142520  34.9291791  25.0770837  -4.4139688  34.4660242
  39.1846376   3.5983121  30.0734769  39.2429499   4.0469770  30.8194746
  38.5512843   4.0081934  29.6364849  39.0997671   3.7256856  30.1187318
  32.8245470   9.2186663  26.5089516  32.6265159   9.7077478  25.8145727
  32.2033181   9.4227905  27.0873649  32.7033035   9.3203201  26.4912739
  26.8853449   0.9871560  20.8499760  27.6295494   1.3745836  21.0882710
  27.0314145   0.1428985  21.0140248  27.0164034   0.9202033  20.9093730
  29.8731325  -3.4402967  26.7493679  29.3991279  -3.9661205  27.2598990
  30.2449460  -3.9873494  26.1808541  29.8581213  -3.5986970  26.7408826
  36.1368055   1.6199409  28.1600460  35.8966278   0.7805824  28.1642886
  36.6160062   1.6999576  28.8841233  36.1720239   1.5080809  28.2675262
  38.1373242  -1.5999134  26.1129719  37.8983012  -1.6403300  25.2750503
  38.3007143  -0.7527982  26.2395440  38.1263546  -1.4807049  26.0083201
  34.7419272   2.7850815  32.0434764  35.4653471   2.3323342  31.8645784
  34.4769235   3.0655481  31.2607092  34.8100546   2.7601784  31.9013479
  23.6106141  -2.6189011  28.7787643  22.9859211  -2.6070619  28.1713596
  23.2751736  -2.1428836  29.4278883  23.4691633  -2.5470494  28.7844212
  20.3231816   5.4411449  30.2191407  19.7931741   4.7503888  30.2686382
  20.5956910   5.4321634  29.3904116  20.2856539   5.3378581  30.1038823
  31.3551907   6.0237152  18.9429090  32.0786106   6.4895264  18.7993663
  30.9152498   6.0910761  18.1926687  31.3967599   6.1020988  18.8113871
  30.5238062   2.8834694  30.1929779  29.9095055   2.3392744  30.4878414
  31.0405347   2.3698930  29.7135595  30.5093724   2.7271103  30.1654007
  29.7634359   3.9538964  27.9274078  29.3361967   3.3288682  27.4939513
  29.7559303   3.6713886  28.7533085  29.6993500   3.8191744  27.9853905
  22.8796886  -1.0095863  30.9962512  23.0390373  -1.7652539  31.4014234
  22.6989780  -0.4604924  31.6503249  22.8762245  -1.0402049  31.1525218
  28.0920069  -5.1692282  28.1416612  28.1162556  -5.7032169  27.4529392
  28.3431542  -5.6774973  28.8042202  28.1329987  -5.3231378  28.1381256
  15.6027658   2.1139213  27.5759756  15.4971108   2.0686058  26.7111840
  14.8527878   2.4592994  27.8574041  15.4763261   2.1580121  27.4897085
  26.5551004   3.1239277  35.6242651  25.7046634   3.2610991  35.7600295
  26.7179131   2.3903055  36.0690352  26.4534867   3.0353378  35.7098250
  25.7935754   0.0739046  29.8196255  24.9627684   0.2412864  29.6131503
  25.7387271  -0.3025003  30.6045140  25.6625169   0.0428778  29.9044783
  37.1754586   1.7477226  30.5465314  37.7672426   2.3874477  30.5783512
  37.6113581   1.0500263  30.8357381  37.3273017   1.7395577  30.5946146
  29.0047976   6.1694599  31.1723208  28.4973067   6.7230446  31.6163838
  28.7074622   6.2302889  30.3541982  28.8852861   6.2600910  31.1171664
  31.6155756  10.0857856  19.1027151  30.8985066   9.9118719  18.6374388
  32.2662494   9.8510429  18.5702637  31.6057607  10.0253649  18.9556369
  34.2003728  -1.0377555  22.8468456  33.5294917  -0.4947853  22.7181522
  34.8943478  -0.5682700  22.6050151  34.2032595  -0.8879284  22.7923984
  28.2490461  11.1019157  28.0780214  28.0256116  10.3437986  28.4464241
  27.7600305  11.1317178  27.3560654  28.1433910  10.9941381  28.0256955
  23.0615540  -1.9514152  23.8141676  22.3427529  -1.5350019  24.0814540
  23.4327902  -1.3859913  23.2633314  23.0107472  -1.8064870  23.7724483
  32.3615121  -1.3186303  29.7043672  32.3413048  -1.5003008  30.5578451
  32.4094322  -0.4474284  29.6803255  32.3649762  -1.2169765  29.8266966
  30.3061451   5.2700889  35.6292148  30.2657306   4.6250566  35.0437304
  31.1184769   5.2137507  35.9417560  30.4204604   5.1659856  35.5889097
  26.8968918  11.3219615  25.5317299  26.4829317  10.6593745  25.1421141
  27.5816293  11.4697474  25.0112993  26.9367290  11.2460273  25.3973796
  30.2634212  10.4809700  26.2840916  29.8650496  10.5911971  25.5161736
  29.6485432  10.6891767  26.8667475  30.1133102  10.5283268  26.2572215
  31.7119931  -2.9536647  22.5816806  31.4833624  -2.9303946  21.7395164
  31.9718007  -3.7779180  22.7011816  31.7166119  -3.0720567  22.4742003
  25.9939159  -1.1002174  32.1841906  25.4818063  -1.7080991  32.5426937
  25.8218656  -0.3845582  32.6515882  25.8928796  -1.0838875  32.3058130
  24.7664694  -4.4160101  23.8771001  25.2422060  -4.0543021  23.2421182
  24.2653293  -3.7603633  24.1571144  24.7630053  -4.2665912  23.8247742
  37.9976055   5.0561667  19.6684006  38.3809661   5.8053023  19.8982103
  37.2020168   5.3027487  19.4095995  37.9369837   5.2031361  19.6641580
  29.8708230  -3.1777930  34.6244161  30.4279660  -3.4064120  33.9922627
  29.5469295  -2.4172264  34.3479374  29.9054640  -3.0994093  34.4900659
  27.5891347  -0.0910276  35.5896169  28.3402674   0.2241400  35.9035723
  27.7813924  -0.2931105  34.7630090  27.7282761  -0.0742895  35.5139564
  32.1617489   0.7160792  26.4856171  32.6571155  -0.0016213  26.4460191
  31.3517265   0.4131589  26.3710658  32.1161383   0.5658438  26.4629897
  27.6076101   4.5658605  18.6353175  26.7987423   4.2425279  18.5886485
  28.1151010   3.8591827  18.5681424  27.5625768   4.4139921  18.6183470
  18.2366378   1.9930798  24.3600540  17.3711897   1.9816489  24.2483311
  18.3365194   1.8061021  25.2071679  18.1240545   1.9636859  24.4689484
  34.2269308   3.4664479  29.1733300  34.6524380   2.9438901  28.6203725
  33.8626228   4.0645317  28.6521923  34.2355911   3.4774706  29.0142309
  23.8623388  11.7628697  27.9330645  24.1769947  12.5765085  27.9408427
  24.2716801  11.3778915  28.6012804  23.9691486  11.8257399  28.0334737
  30.8147908   7.1798744  25.5034457  31.2859086   7.8939006  25.6724442
  31.1508086   6.5797494  26.0394327  30.9343023   7.1970208  25.6066833
  32.9024892   8.7900057  37.6826529  33.0121858   8.0008617  38.0383276
  33.2315789   8.7005993  36.8800867  32.9677298   8.6605910  37.6168920
  31.4521854   6.9716678  32.2662150  30.9042800   6.3474561  31.9982215
  31.9134883   7.1610950  31.5506229  31.4389063   6.9075728  32.1212581
  21.2036408   5.7101805  27.5809254  21.8081265   5.6697639  26.9523074
  20.9963721   6.5572957  27.6113309  21.2625305   5.8289808  27.4925370
  31.0180180   7.9767750  28.7971491  31.8378554   7.8330716  29.0587786
  30.7374258   8.6013949  29.3387929  31.0976924   8.0478102  28.9159430
  16.4387690   4.6936423  27.4508177  16.3411968   3.8832694  27.7598233
  17.2216560   4.6728216  27.0654445  16.5403827   4.5703513  27.4395040
  47.4893831  15.6332602  21.7614367  47.4587835  16.4877239  21.9332637
  48.0875179  15.3327895  22.3200511  47.5730988  15.7149099  21.8689170
  40.5259615  24.6796340  17.7090076  40.1910983  25.3573262  17.2734299
  41.0386485  24.2901652  17.1206948  40.5525196  24.7220919  17.5576868
  43.5345336  16.7800297  29.1598949  44.0801296  17.4585384  29.2192919
  43.4762213  16.6387758  28.3000531  43.6061251  16.8592299  29.0411010
  45.3110405  18.2084904  20.0332677  45.1949931  18.9592590  20.4624815
  46.1066292  17.9508857  20.2828764  45.4114995  18.2819751  20.1336769
  29.8484456  20.2909650  24.1719635  29.6134640  19.4577302  24.0651904
  29.9870096  20.5714315  23.3580836  29.8340118  20.2093153  24.0361990
  32.1474543  12.4595380  27.0703943  31.5279575  11.8688028  26.9013958
  32.0458407  13.0506816  26.4368266  32.0412219  12.4599463  26.9508933
  37.1940731  22.1978927  21.3202020  37.5156572  22.7384134  20.7163328
  37.8412827  21.6275699  21.4524309  37.3366786  22.1938102  21.2509055
  39.2442439  14.1994922  21.4036406  39.9422603  14.3783050  21.8957870
  39.5594771  13.6765261  20.7806796  39.3937776  14.1488694  21.3838416
  31.8743676  16.0047662  29.3147512  31.7502373  16.5910108  29.9497331
  32.5261961  15.5107858  29.6159787  31.9517325  16.0186466  29.4533441
  39.4330374  20.5865367  21.3916198  39.8724010  19.9782468  21.8370970
  39.2835037  20.2072740  20.6201663  39.4751840  20.4403838  21.3435365
  36.9002017  19.1809379  28.5935023  37.5451020  18.6881822  28.2745972
  37.1403794  19.3234166  29.4201101  37.0312602  19.1286821  28.6684556
  39.4388108  22.0264285  28.2441916  39.7211351  21.2315691  28.0228672
  40.1674269  22.5044872  28.2646977  39.5877672  21.9798882  28.2144931
  37.4169302   9.5687319  25.4857681  37.0872632  10.0198462  24.8161380
  36.7414304   9.4903482  26.0330687  37.2679739   9.6238454  25.4680904
  43.0339711  18.9392548  18.3446967  42.9491006  19.7953515  18.4896536
  43.5224094  18.6636872  19.0129126  43.0928608  19.0249870  18.4649048
  44.6245710   5.5572842  23.7307292  44.3099151   6.2476320  24.1627714
  44.1072652   5.5017624  23.0292792  44.5010180   5.6507730  23.6904241
  43.9658144  15.5577343  19.8444702  43.4369615  15.7736976  20.5042008
  44.4883164  16.2513481  19.7645671  43.9646597  15.6920479  19.9300301
  49.4206197  21.1323647  25.2177747  48.5903900  21.3434291  25.3811163
  49.3715449  20.3060702  24.9420030  49.2912932  21.0413253  25.2015112
  35.8557752  19.4540559  18.6452170  35.2714967  19.9590591  19.0518034
  35.4527847  19.2282946  17.9048762  35.7097055  19.4948808  18.5957195
  31.4101780  25.1695320  25.4475842  30.9269359  25.8945810  25.4235425
  32.2225099  25.4671451  25.5585999  31.4592528  25.3197674  25.4603121
  40.3134966  15.7006211  17.1221091  40.5530970  15.9084195  16.3096434
  40.6350807  14.8963720  17.2310035  40.3972124  15.6120313  17.0181644
  35.6225256   7.6299607  20.9680629  36.3771224   7.9977924  20.7297679
  35.4452791   8.0039162  21.7359808  35.7079735   7.7397795  21.0465517
  48.9160155  13.7794048  29.0128168  48.0788576  13.8496235  29.2475762
  48.8848386  13.7818543  28.1402470  48.7878437  13.7904275  28.9187716
  35.3124884  15.9227083  34.7276537  35.4845388  15.8132978  35.5761818
  35.8494242  16.5681489  34.4907729  35.4169888  16.0019085  34.8181633
  33.9782321  10.0369926  17.6658742  33.7957894  10.2541807  16.8399734
  34.8407934  10.1508939  17.7217356  34.0786910  10.0859824  17.5513229
  33.5896753  21.8757848  25.1081729  34.4285652  22.1080781  25.1555491
  33.6208522  21.0062160  25.0388765  33.7178471  21.7814795  25.1046374
  39.6582040   7.0396337  20.7007765  40.3868201   6.8612292  20.2545922
  39.7476933   7.8814417  20.9114944  39.7788702   7.1380215  20.6661283
  43.6390341  17.9749724  24.6040059  44.3947856  18.4081239  24.6428968
  43.7452665  17.3254494  25.1774695  43.7660511  17.9427208  24.6938085
  46.6770512  21.8023001  25.3542462  46.2405744  21.8059744  26.1101434
  46.3433427  22.4828500  24.9222040  46.5633132  21.9035457  25.4023295
  29.6186601  18.5159014  29.5629457  29.3525016  17.6998131  29.7220447
  29.6325165  18.5612170  28.6924972  29.5811323  18.4015919  29.4582939
  46.5967995   8.8436829  27.5971890  47.2393903   8.9134934  28.1833806
  46.8491016   8.1766052  27.0951432  46.7290127   8.7563178  27.6099170
  33.5244348  13.3144099  16.1781215  32.8102525  13.0282278  16.5903647
  34.0088317  13.6540725  16.8187602  33.4903711  13.3225748  16.3336850
  34.3685207  12.0537393  32.2096464  33.6757004  11.5834372  32.4557196
  34.9845535  11.8275697  32.7838171  34.3569737  11.9504524  32.3305617
  49.8114858  18.5203921  24.2462100  50.4731292  17.9594590  24.1458008
  49.1706270  18.0255952  24.5714791  49.8143726  18.3640330  24.2794440
  40.6991666  21.8174053  16.5543023  41.1142814  21.4859077  15.8627519
  39.8683596  21.5842955  16.4263159  40.6379675  21.7345309  16.4333870
  30.0280015  19.3017794  26.8441201  29.8455588  19.2764680  25.9913493
  30.7629684  19.7716732  26.8830110  30.1094079  19.3679156  26.7239119
  46.0979689  19.5369304  23.9874088  46.3335278  19.6814503  23.1600939
  46.2469253  20.3011712  24.3805602  46.1545492  19.6708358  23.9237692
  47.9270146  18.3770970  21.8243692  48.2578363  18.9098610  21.2183787
  48.5003234  18.4309857  22.4805643  48.0603825  18.4640539  21.8321474
  43.1402035  16.2235872  22.5067272  43.2348889  16.9625166  22.9606898
  42.5160878  15.7953348  22.9401837  43.0611065  16.2697193  22.6375420
  41.3954509  19.4022085  33.1557553  41.9693370  18.7649329  33.3106117
  41.3169312  19.4026167  32.2867211  41.4687743  19.3087196  33.0503964
  29.9950925  16.1811294  26.9940267  30.5724428  16.0447745  27.6332513
  29.2964987  15.7247079  27.2485852  29.9771946  16.0933561  27.1262557
  43.3925056  18.0684612  15.7404224  43.3105219  18.1386799  16.6059211
  44.0304777  18.6314356  15.5487965  43.4744893  18.1623583  15.8394174
  36.7518227  17.8345350  25.2078751  36.4937471  17.0017085  25.1810050
  36.8066710  18.0602963  24.3671251  36.7218005  17.7443121  25.0798887
  41.8319277   9.9373801  25.3082843  41.1275604   9.4482986  25.4666762
  41.8804252   9.9496275  24.4371288  41.7349329   9.8663449  25.2022183
  35.7252939  15.3883113  25.6943645  35.1502531  15.5475281  26.3307606
  35.3488616  14.7518522  25.2312096  35.5855752  15.3180926  25.7198204
  39.3926228  13.8606462  30.5536024  39.0040661  13.4360680  29.8988215
  38.7280926  14.1088612  31.0613050  39.2373156  13.8345183  30.5323892
  49.0349497  13.6181467  23.3283854  48.7786062  12.8061408  23.1381737
  49.8778811  13.6259034  23.1014041  49.1215523  13.4993464  23.2668671
  25.4709758  15.0323187  23.7088086  25.5570010  14.6555056  24.4901616
  26.0985556  14.6583633  23.2308044  25.5766309  14.9208670  23.7533563
  43.2152590   7.5581091  28.0660008  43.5963101   6.8759262  28.4527882
  42.4115874   7.2690693  27.8835672  43.1529051   7.4148139  28.0964064
  40.4965166  18.0905066  18.7512831  41.3105805  18.3819959  18.6395602
  40.4324308  17.4364929  18.1771124  40.6067905  18.0370261  18.6501668
  46.7174656  20.7731063  33.1642406  46.4813294  19.9419127  33.0454467
  47.3617885  20.7216670  33.7497251  46.7769327  20.6428751  33.2328300
  36.3673075  21.5626584  23.8785143  37.0047021  21.3238331  24.4236936
  36.7928146  21.7663743  23.1438303  36.5249241  21.5577594  23.8502300
  31.0585717  23.8014920  27.7619447  31.0989862  24.0729771  26.9339226
  31.6180241  24.3256828  28.1777234  31.1469063  23.9190675  27.7011335
  37.0075890  16.7828874  18.2160032  37.3921042  16.5636580  18.9676577
  36.7587510  17.6091819  18.3461109  37.0277962  16.8727020  18.3461109
  37.1744430  10.0635289  37.9322616  36.8597871  10.8334852  37.6692179
  36.8534363   9.5005545  37.3474843  37.0803349  10.0945558  37.8063966
  47.7411077  20.5575511  29.2270701  47.4356894  21.2903568  29.5884016
  47.0217293  20.1513441  28.9463487  47.5898419  20.6057244  29.2383838
  38.7494546  22.0399007  25.5578929  38.8233555  21.8774178  26.4120779
  39.5664053  22.2289196  25.3139411  38.8810905  22.0435749  25.6476955
  53.4412869  17.1968512  28.5539045  53.3737369  17.2164471  27.6841632
  53.4268532  18.0398839  28.7794716  53.4291626  17.3242247  28.4591522
  32.5100303  22.3856869  22.5873373  31.6838421  22.6318607  22.4607651
  32.5712294  22.3068950  23.4535431  32.3974470  22.4101818  22.6962317
  34.7276327   8.4525810  23.5468813  33.8598752   8.5248410  23.6126422
  35.0151531   9.2547889  23.7356788  34.6416075   8.5819957  23.5843579
  43.8509216   8.6003670  31.8780135  44.5962808   8.4113480  31.4643560
  43.4346520   9.1261908  31.3193991  43.8994190   8.6505815  31.7344708
  37.2899132  25.0033750  20.2892402  37.5797431  24.6122731  19.5651629
  38.0202613  25.1850455  20.7297678  37.4406016  24.9727563  20.2475209
  51.2271487  15.9712898  26.8285640  51.7779408  15.3380967  27.0682732
  51.2115602  16.5028291  27.5201144  51.3056683  15.9561846  26.9664498
  37.8793877  19.8051496  31.3745533  37.3805571  20.5167263  31.4530421
  38.6894102  20.1252162  31.3363695  37.9249984  19.9578344  31.3802102
  34.1421995  19.0674449  25.6208254  33.8535244  18.4411920  26.1553981
  35.0105343  19.0094736  25.6872934  34.2282247  18.9661993  25.7099208
  44.9299893  14.2109232  25.9390236  44.5864659  13.4899567  26.2897485
  45.0292935  14.0023083  25.0968594  44.8941936  14.0733435  25.8661916
  34.3454268  20.7069700  21.5450619  35.1000236  21.0882739  21.7586081
  33.7524881  21.1580843  21.9997315  34.3690982  20.8298527  21.6433497
  45.3912922  20.6734936  21.4814224  45.9570954  21.3328146  21.3972767
  44.7440825  21.0184634  21.9530626  45.3791678  20.8216877  21.5386980
  36.8060935  12.6632540  36.6707831  35.9960711  12.9690320  36.5597674
  37.2835622  13.3838122  36.7860415  36.7564414  12.8147141  36.6714902
  35.6652495  21.8778261  26.9190734  35.1433248  22.0178553  27.6042599
  36.0526515  21.1188925  27.1092852  35.6456196  21.7863785  27.0491811
  32.6543679  11.9284070  20.9885689  32.3668475  11.5585340  20.2517636
  33.3414147  12.3978925  20.7269394  32.7132576  11.9431039  20.8400765
  41.8619500  23.6173720  20.9051303  41.6206176  22.8841581  20.4978368
  42.0420833  24.1660577  20.2517636  41.8527124  23.5896111  20.7481526
  37.0918821  18.9082280  22.3172225  36.8961603  19.5157014  21.7232528
  37.3153166  18.2150224  21.8363899  37.0953462  18.8959805  22.1588306
  35.4897351  15.7937018  22.4353094  36.2120002  15.9578176  21.9756900
  35.0105343  16.5146683  22.3292433  35.5261081  15.9235247  22.3518708
  43.4490858  12.1300817  27.8149779  42.6101959  12.1562096  27.5788042
  43.5195225  12.7771552  28.3955125  43.3359252  12.2296942  27.8658896
  41.8960136   9.0286194  22.5477395  42.5986489   8.8293942  22.0697353
  41.6304325   8.2562136  22.8546238  41.9606769   8.8849160  22.5222836
  47.3248382  17.3368803  25.1011020  47.2382357  17.4924229  25.9545799
  46.8698862  17.9806879  24.7270425  47.2451639  17.4544559  25.1718127
  30.2271874  12.7065282  21.8370970  30.3288010  13.5091444  22.1651945
  31.0227760  12.5052618  21.5394051  30.3599779  12.7951181  21.8406325
  36.6588693  10.2921479  31.6008275  36.4671890  10.3076613  32.4507699
  37.5087289  10.4885153  31.5774930  36.7564415  10.3235830  31.7231570
  31.0435606  12.8212460  29.5792092  30.9021097  11.9696401  29.7036600
  31.3276169  12.8641121  28.7554298  31.0643452  12.7012210  29.4759716
  41.1974198  14.6579551  23.7236580  40.9508912  14.5775301  24.5573369
  41.5259321  13.8733018  23.5299107  41.2095442  14.5305816  23.8184103
  45.0922247  21.3662910  27.5123361  44.9536606  22.0643956  28.0172104
  44.3122245  21.2111566  27.1559543  44.9565474  21.4463077  27.5349635
  43.4300332  17.6659285  33.7645743  43.4248370  16.7939102  33.7688169
  44.1361326  17.8647454  33.2915199  43.5345336  17.5663159  33.6952778
  37.1571225  17.3936269  33.1359563  37.3014601  17.9737477  32.5002673
  37.5046874  17.7712566  33.8409418  37.2298687  17.5356973  33.1458558
  39.3291143  16.5926437  30.9184695  38.5814457  16.7857452  30.5132973
  39.4832668  15.7671657  30.6808816  39.2413570  16.4991549  30.8230100
  46.5875620  20.7241164  18.2739860  46.2082428  19.9378302  18.2669150
  45.9241865  21.2728021  18.1311505  46.4334094  20.6885988  18.2520657
  39.5692920  10.4876988  31.8080098  40.0265534  11.2200963  31.9352891
  39.6449248  10.0643453  32.5667354  39.6483890  10.5334226  31.9381175
  31.8125911  10.7342808  32.8969542  31.2768100  10.1223166  33.2130309
  31.8743676  11.3090944  33.5503209  31.7421544  10.7289736  33.0404969
  44.0420246   3.6666863  25.6773941  44.1603814   4.1243327  24.9441244
  43.8682421   2.8612125  25.3910159  44.0339417   3.6160636  25.5274875
  39.4122528  24.2754683  22.1128687  40.1772419  24.0064326  21.7911351
  39.3100618  23.7904693  22.8298749  39.5104023  24.1644247  22.1708514
  37.4475298  12.4779092  28.6521922  36.6571372  12.2970552  28.9739258
  37.8435920  11.7006045  28.6352217  37.3892174  12.3366553  28.6974471
  41.9341188  21.3066866  14.0928636  42.7014174  21.3666991  13.6834488
  41.4872497  20.7347308  13.6084954  41.9814616  21.2303442  13.9606346
  42.8318984  20.1121522  26.3781368  42.1563986  19.8806755  26.8794755
  42.8411360  19.5042705  25.7523473  42.7337488  19.9880448  26.3597520
  39.9613128  14.9539351  33.1345421  39.8972269  15.8149308  33.0065558
  40.1010316  14.6371344  32.3340973  39.9728598  15.0339518  32.9973634
  44.8335718  22.9686655  18.6091546  44.9155556  23.7753641  18.2852997
  45.3185461  22.9882614  19.3332320  44.9172876  23.0907317  18.6678445
  38.6432222  17.6471491  27.2761624  38.2194471  17.8475990  26.5400642
  38.4677077  16.8000339  27.3885924  38.5543102  17.5520272  27.1835314
  33.9314667  18.1423542  22.7089597  34.0879286  18.0770345  23.5645589
  34.2715260  18.9172095  22.4968276  34.0047902  18.2472740  22.8044191
  40.4693811  17.5181426  21.5782960  41.0109357  17.0151807  22.0421580
  40.7840370  17.4646620  20.7672445  40.5958208  17.4360847  21.5266772
  38.6380261  22.9098777  18.8622988  38.7073081  22.0513316  19.0015988
  39.4168716  23.1270658  18.5342012  38.7633111  22.8151641  18.8340145
  41.6183081  12.4117730  31.6305260  41.8325050  11.7728644  31.0768614
  41.0016980  12.8563554  31.2013122  41.5588410  12.3827874  31.4855691
  43.0287749  25.3336478  23.0759481  42.6367540  25.0303194  22.3582347
  43.1840821  26.1705568  22.8864435  42.9941339  25.4120315  22.9415978
  30.5048928  15.3258493  23.0250364  30.8847893  15.7443037  22.3610631
  29.9304293  15.9071948  23.3319207  30.4760253  15.4736351  22.9727105
  43.7822169  14.0206795  32.5688567  42.9698850  13.7132686  32.6501740
  44.2412103  13.5405795  33.1331280  43.7302554  13.9043288  32.6643162
  43.1927423  21.8986467  23.0165512  42.8342078  22.0701110  23.7929544
  42.7066134  22.3599673  22.4593510  43.0686120  21.9925438  23.0490781
  41.0097809   5.5217666  26.6192603  40.1391367   5.4956387  26.5725913
  41.2638151   5.3494858  25.8018449  40.9191369   5.4927810  26.4912740
  37.9815789  17.5785633  15.5565746  38.2708314  18.3550515  15.8309320
  38.0687588  17.0674364  16.2580245  38.0370045  17.6177551  15.7008244
  40.8775676  15.4266867  37.3517270  41.3475307  16.0508983  37.7385144
  40.9237556  14.7583842  37.9110484  40.9543552  15.4201547  37.4917341
  38.0346950   7.5323894  28.0766074  37.5185438   6.8404086  28.2017653
  37.4740879   8.1994671  28.0228672  37.8753463   7.5287152  28.0872140
  40.1039183   8.0716854  29.9058926  39.7170936   8.0965886  30.6872456
  39.6172121   7.5058533  29.4533443  39.9751692   7.9912605  29.9546830
  46.0789163  14.6379509  28.5298628  45.6516771  14.5505858  27.7746728
  45.4415216  14.7457285  29.1153472  45.9218770  14.6412169  28.5044070
  39.7696325   4.9583840  32.1969186  40.3989443   5.4944140  31.9190256
  39.9382188   4.8661199  33.0482752  39.8874120   5.0245202  32.2817714
  39.5710240   9.7455034  34.4695598  40.3983669   9.4740183  34.5254212
  39.5918086  10.5415876  34.8259416  39.6963090   9.8234789  34.5310781
  44.4086419  23.4810172  30.6038069  45.1978798  23.1299236  30.7240151
  44.5830017  24.2946560  30.3414703  44.5506701  23.5496029  30.5825937
  34.1479730  16.8918897  27.6565858  33.3067736  16.7922771  27.8644752
  34.3569738  17.6614378  28.0080179  34.0544422  16.9910941  27.7393173
  31.6255297  14.5138434  25.4850609  31.2311994  14.5881446  24.7100719
  31.0695414  14.8996381  26.0358971  31.4858109  14.5820209  25.4518269
  43.2620244   7.4919728  25.1654488  43.4669837   7.4242036  26.0111485
  42.9346668   8.2978549  25.0975665  43.2435491   7.6005669  25.2814143
  37.9596395  14.8200296  26.9063456  37.6559532  14.2656285  27.5073863
  37.2575815  14.9992506  26.4191490  37.8112604  14.7645079  26.9233161
  37.0162492  12.1300816  21.4708158  37.2922226  11.4119729  21.0585725
  37.6161161  12.7285736  21.2629264  37.1455756  12.1121187  21.3788919
  46.5153931   8.0451493  24.6457253  45.9028245   8.5321895  25.0310985
  46.6118106   7.3694983  25.1894904  46.4391829   8.0169801  24.7836111
  40.5173012   9.8014334  19.7454753  40.9716759   9.9724894  20.4702597
  40.9913058   9.1882444  19.3452528  40.6541332   9.7365219  19.7928514
  34.0388538  19.2862660  29.0757491  33.4476471  19.9272158  29.0460506
  34.8009561  19.7100277  29.0488791  34.0636798  19.4438498  29.0672638
  34.4349160  10.4464657  29.7425509  34.8950642  10.5203587  30.4800633
  34.4805267  11.2445911  29.3925330  34.5099716  10.5758804  29.7998265
  36.0832510  11.1131352  34.3097536  35.6918075  10.4664699  34.7453314
  36.2518373  11.7042787  34.9291791  36.0503421  11.1045620  34.4660242
  50.1578959  19.1168429  30.0734769  50.2162083  19.5655078  30.8194746
  49.5245427  19.5267242  29.6364849  50.0730254  19.2442164  30.1187318
  43.7978054  24.7371971  26.5089516  43.5997743  25.2262786  25.8145727
  43.1765765  24.9413213  27.0873649  43.6765618  24.8388509  26.4912739
  37.8586032  16.5056868  20.8499760  38.6028077  16.8931144  21.0882710
  38.0046728  15.6614293  21.0140248  37.9896617  16.4387341  20.9093730
  39.7765608   8.3007127  25.8831621  38.9301653   8.4729935  25.7572971
  39.7736740   7.4956471  26.2197450  39.6512758   8.2068156  25.9142748
  40.8463908  12.0782341  26.7493679  40.3723862  11.5524103  27.2598990
  41.2182044  11.5311814  26.1808541  40.8313797  11.9198338  26.7408826
  47.1100639  17.1384717  28.1600460  46.8698862  16.2991132  28.1642886
  47.5892646  17.2184884  28.8841233  47.1452822  17.0266117  28.2675262
  42.7747408  12.9718896  19.8119433  42.2470426  13.0547640  19.1225142
  43.2343116  13.7136767  19.8084078  42.7649258  13.0939558  19.7094128
  49.1105826  13.9186174  26.1129719  48.8715596  13.8782008  25.2750503
  49.2739727  14.7657326  26.2395440  49.0996129  14.0378259  26.0083201
  45.7151856  18.3036123  32.0434764  46.4386055  17.8508650  31.8645784
  45.4501818  18.5840789  31.2607092  45.7833129  18.2787092  31.9013479
  34.5838724  12.8996297  28.7787643  33.9591794  12.9114689  28.1713596
  34.2484319  13.3756472  29.4278883  34.4424216  12.9714814  28.7844212
  34.7680473  11.2421415  14.8360328  34.4193277  11.8941141  15.2991878
  34.2876919  11.2278529  14.1084199  34.6450717  11.3364469  14.7971419
  42.3284490  21.5422459  18.9429090  43.0518689  22.0080572  18.7993663
  41.8885081  21.6096069  18.1926687  42.3700182  21.6206296  18.8113871
  41.4970645  18.4020002  30.1929779  40.8827638  17.8578052  30.4878414
  42.0137930  17.8884238  29.7135595  41.4826308  18.2456411  30.1654007
  40.7366943  19.4724272  27.9274078  40.3094551  18.8473990  27.4939513
  40.7291887  19.1899194  28.7533085  40.6726084  19.3377052  27.9853905
  33.8529470  14.5089445  30.9962512  34.0122956  13.7532769  31.4014234
  33.6722363  15.0580384  31.6503249  33.8494829  14.4783259  31.1525218
  41.7949773   6.6750680  31.5513301  41.2990334   6.8714355  30.8604868
  42.5518835   7.0743349  31.3802103  41.8336597   6.7628414  31.4233438
  39.0652652  10.3493026  28.1416612  39.0895139   9.8153139  27.4529392
  39.3164126   9.8410335  28.8042202  39.1062571  10.1953930  28.1381256
  26.5760242  17.6324521  27.5759756  26.4703691  17.5871366  26.7111840
  25.8260462  17.9778302  27.8574041  26.4495845  17.6765429  27.4897085
  35.3453974   9.0763845  27.5222356  35.3852346   9.5773051  28.2357063
  34.5203639   9.1674238  27.2528279  35.2293500   9.1645661  27.5872894
  37.5283587  18.6424584  35.6242651  36.6779218  18.7796299  35.7600295
  37.6911715  17.9088363  36.0690352  37.4267451  18.5538686  35.7098250
  36.7668338  15.5924354  29.8196255  35.9360267  15.7598172  29.6131503
  36.7119855  15.2160305  30.6045140  36.6357753  15.5614086  29.9044783
  34.5752121   9.0833247  35.4552666  35.2004824   8.5395380  35.7282098
  34.1202601   8.6028165  34.8860456  34.6000382   8.9322729  35.4114260
  35.1404382  13.8679946  20.3486373  35.2807343  14.3652410  21.0515014
  35.6386914  13.1666240  20.4900586  35.2345463  13.8381925  20.4737952
  35.1704604  14.7347057  17.6778950  35.8049683  15.3307482  17.6128411
  35.2530215  14.4350515  18.4924820  35.2761155  14.7787965  17.7882036
  48.1487170  17.2662534  30.5465314  48.7405010  17.9059785  30.5783512
  48.5846164  16.5685571  30.8357381  48.3005601  17.2580885  30.5946146
  36.7483587  10.6661032  17.6524392  37.0699428  10.1864115  16.9983654
  37.0110531  11.4760678  17.4615203  36.8349612  10.7150930  17.5279884
  42.1442742  10.0533226  30.0147871  42.5697813   9.6005753  29.4031397
  41.5299735   9.4993297  30.2912658  42.1171387   9.9047202  29.9652896
  31.6757592  16.9314898  20.9468496  32.1849821  17.5279405  21.3279801
  32.1491864  16.6640871  20.2644915  31.8200968  16.9800713  20.9023018
  42.5888340  25.6043164  19.1027151  41.8717650  25.4304027  18.6374388
  43.2395078  25.3695737  18.5702637  42.5790190  25.5438957  18.9556369
  40.5836965   6.5248326  23.4238448  39.9405283   6.3745972  23.9923586
  40.2436372   6.2790671  22.6587552  40.4382042   6.4660449  23.3941463
  45.1736311  14.4807753  22.8468456  44.5027501  15.0237455  22.7181522
  45.8676061  14.9502608  22.6050151  45.1765179  14.6306024  22.7923984
  39.2223045  26.6204465  28.0780214  38.9988699  25.8623294  28.4464241
  38.7332888  26.6502486  27.3560654  39.1166494  26.5126689  28.0256955
  45.3364439  10.9363637  25.7558829  45.6892049  10.5093359  26.4304628
  44.4779240  10.8514480  25.8859906  45.2613883  10.8608377  25.8753840
  34.0348124  13.5671156  23.8141676  33.3160113  13.9835289  24.0814540
  34.4060486  14.1325395  23.2633314  33.9840055  13.7120438  23.7724483
  43.3347704  14.1999005  29.7043672  43.3145632  14.0182300  30.5578451
  43.3826905  15.0711024  29.6803255  43.3382345  14.3015543  29.8266966
  41.2366796  25.9995008  26.2840916  40.8383079  26.1097279  25.5161736
  40.6218016  26.2077075  26.8667475  41.0865685  26.0468576  26.2572215
  39.8094698  12.6069156  19.1515055  39.2159537  12.9286153  18.5999622
  39.8469976  11.7610252  18.9436162  39.7269087  12.5293484  19.0397827
  46.7688499   6.0582048  26.6843142  46.2619363   5.3511188  26.6164319
  47.5655932   5.7275237  26.8144219  46.8115738   5.9055200  26.6942137
  42.6852515  12.5648661  22.5816806  42.4566208  12.5881362  21.7395164
  42.9450591  11.7406128  22.7011816  42.6898703  12.4464741  22.4742003
  36.9671743  14.4183134  32.1841906  36.4550646  13.8104317  32.5426937
  36.7951239  15.1339726  32.6515882  36.8661380  14.4346433  32.3058130
  31.8137458  12.8620709  34.8344268  31.6440048  13.5222084  34.2892474
  31.3703408  13.0727270  35.5556757  31.7236791  12.9906691  34.8605897
  35.7397277  11.1025207  23.8771001  36.2154643  11.4642287  23.2421182
  35.2385877  11.7581674  24.1571144  35.7362636  11.2519396  23.8247742
  48.9708639  20.5746975  19.6684006  49.3542244  21.3238331  19.8982103
  48.1752752  20.8212795  19.4095995  48.9102421  20.7216669  19.6641580
  40.8440813  12.3407378  34.6244161  41.4012244  12.1121188  33.9922627
  40.5201878  13.1013044  34.3479374  40.8787224  12.4191215  34.4900659
  38.5623931  15.4275032  35.5896169  39.3135258  15.7426708  35.9035723
  38.7546507  15.2254203  34.7630090  38.7015345  15.4442413  35.5139564
  37.7823930  13.2466407  17.2444385  38.1622895  13.2646036  16.4595500
  37.0416526  13.6920396  17.1235233  37.7292768  13.3148181  17.1107953
  45.4109221  11.5548598  22.8319964  45.4103447  11.3997254  23.6904240
  45.2065401  12.4011585  22.7761350  45.3808999  11.6569219  22.9507903
  27.4726492  14.9788382  27.2478781  27.2948253  14.5264991  27.9733696
  27.1845514  15.7814544  27.4317258  27.4039445  15.0310940  27.3822283
  43.1350073  16.2346100  26.4856171  43.6303738  15.5169095  26.4460191
  42.3249849  15.9316897  26.3710658  43.0893966  16.0843746  26.4629897
  38.5808684  20.0843913  18.6353175  37.7720007  19.7610586  18.5886485
  39.0883593  19.3777135  18.5681424  38.5358351  19.9325229  18.6183470
  29.2098962  17.5116106  24.3600540  28.3444481  17.5001797  24.2483311
  29.3097777  17.3246329  25.2071679  29.0973129  17.4822167  24.4689484
  45.2001892  18.9849787  29.1733300  45.6256963  18.4624209  28.6203725
  44.8358812  19.5830625  28.6521923  45.2088494  18.9960014  29.0142309
  41.7880491  22.6984051  25.5034457  42.2591669  23.4124314  25.6724442
  42.1240670  22.0982802  26.0394327  41.9075606  22.7155516  25.6066833
  38.7049986   7.4711522  32.4592552  38.8377892   6.6742515  32.7873527
  39.0895139   7.9977925  33.0390827  38.7806315   7.4311439  32.5936055
  41.7782341   4.3941848  29.0573645  40.9728305   4.2839578  29.3741483
  41.6489077   4.4954304  28.2003511  41.6402474   4.3925518  28.9781686
  45.2348302  10.5587340  29.6513342  44.6511291  11.0596547  29.2390909
  45.5552596  10.0516896  29.0177665  45.1961477  10.5579175  29.4971849
  37.7743101   9.4727935  19.9272017  38.5958795   9.6426248  19.6853712
  37.3112752   9.6275196  19.2038314  37.8274263   9.5209668  19.7843661
  36.3638433   7.4670697  30.7070446  36.9082846   7.1261824  31.2974787
  36.4175369   8.3256159  30.8491730  36.4527552   7.5425956  30.8152319
  32.1768992  21.2287113  27.5809254  32.7813849  21.1882947  26.9523074
  31.9696304  22.0758265  27.6113309  32.2357889  21.3475116  27.4925370
  41.9912764  23.4953058  28.7971491  42.8111138  23.3516024  29.0587786
  41.7106841  24.1199257  29.3387929  42.0709507  23.5663410  28.9159430
  27.4120274  20.2121731  27.4508177  27.3144552  19.4018002  27.7598233
  28.1949144  20.1913524  27.0654445  27.5136410  20.0888821  27.4395040
  58.4626414  31.1517910  21.7614367  58.4320418  32.0062547  21.9332637
  59.0607763  30.8513203  22.3200511  58.5463572  31.2334407  21.8689170
  51.6626099  30.2393561  26.5167298  50.8063994  30.4002059  26.5676414
  51.7093753  29.3685625  26.5372359  51.5425210  30.1344363  26.5273364
  51.4992199  40.1981648  17.7090076  51.1643567  40.8758570  17.2734299
  52.0119069  39.8086960  17.1206948  51.5257780  40.2406227  17.5576868
  54.5077920  32.2985605  29.1598949  55.0533880  32.9770692  29.2192919
  54.4494796  32.1573066  28.3000531  54.5793834  32.3777607  29.0411010
  56.2842989  33.7270212  20.0332677  56.1682515  34.4777898  20.4624815
  57.0798875  33.4694165  20.2828764  56.3847578  33.8005059  20.1336769
  40.8217039  35.8094958  24.1719635  40.5867224  34.9762610  24.0651904
  40.9602680  36.0899623  23.3580836  40.8072702  35.7278461  24.0361990
  43.1207127  27.9780688  27.0703943  42.5012158  27.3873335  26.9013958
  43.0190990  28.5692123  26.4368266  43.0144802  27.9784771  26.9508933
  48.1673314  37.7164235  21.3202020  48.4889155  38.2569442  20.7163328
  48.8145411  37.1461006  21.4524309  48.3099369  37.7123410  21.2509055
  50.2175022  29.7180230  21.4036406  50.9155187  29.8968358  21.8957870
  50.5327355  29.1950569  20.7806796  50.3670359  29.6674002  21.3838416
  50.4062958  36.1050675  21.3916198  50.8456593  35.4967776  21.8370970
  50.2567620  35.7258048  20.6201663  50.4484423  35.9589146  21.3435365
  48.3901886  25.0872627  25.4857681  48.0605216  25.5383770  24.8161380
  47.7146888  25.0088790  26.0330687  48.2412322  25.1423762  25.4680904
  54.0072294  34.4577856  18.3446967  53.9223589  35.3138823  18.4896536
  54.4956677  34.1822180  19.0129126  54.0661191  34.5435178  18.4649048
  55.5978294  21.0758150  23.7307292  55.2831735  21.7661628  24.1627714
  55.0805235  21.0202932  23.0292792  55.4742764  21.1693038  23.6904241
  54.9390727  31.0762651  19.8444702  54.4102199  31.2922284  20.5042008
  55.4615747  31.7698789  19.7645671  54.9379180  31.2105787  19.9300301
  60.3938780  36.6508955  25.2177747  59.5636483  36.8619599  25.3811163
  60.3448033  35.8246010  24.9420030  60.2645516  36.5598561  25.2015112
  46.8290335  34.9725867  18.6452170  46.2447550  35.4775899  19.0518034
  46.4260430  34.7468254  17.9048762  46.6829639  35.0134116  18.5957195
  51.2867550  31.2191519  17.1221091  51.5263553  31.4269503  16.3096434
  51.6083391  30.4149028  17.2310035  51.3704708  31.1305621  17.0181644
  46.5957840  23.1484915  20.9680629  47.3503808  23.5163232  20.7297679
  46.4185374  23.5224469  21.7359808  46.6812318  23.2583103  21.0465517
  59.8892739  29.2979356  29.0128168  59.0521160  29.3681543  29.2475762
  59.8580970  29.3003850  28.1402470  59.7611021  29.3089583  28.9187716
  44.9514905  25.5555234  17.6658742  44.7690478  25.7727115  16.8399734
  45.8140518  25.6694247  17.7217356  45.0519494  25.6045132  17.5513229
  50.6314624  22.5581645  20.7007765  51.3600784  22.3797600  20.2545922
  50.7209517  23.3999725  20.9114944  50.7521286  22.6565523  20.6661283
  54.6122924  33.4935032  24.6040059  55.3680439  33.9266546  24.6428968
  54.7185249  32.8439802  25.1774695  54.7393095  33.4612516  24.6938085
  57.6503096  37.3208309  25.3542462  57.2138327  37.3245052  26.1101434
  57.3166011  38.0013808  24.9222040  57.5365715  37.4220765  25.4023295
  57.5700578  24.3622137  27.5971890  58.2126487  24.4320242  28.1833806
  57.8223599  23.6951360  27.0951432  57.7022711  24.2748486  27.6099170
  44.4976932  28.8329407  16.1781215  43.7835109  28.5467586  16.5903647
  44.9820900  29.1726033  16.8187602  44.4636295  28.8411056  16.3336850
  60.7847442  34.0389229  24.2462100  61.4463876  33.4779898  24.1458008
  60.1438854  33.5441260  24.5714791  60.7876309  33.8825638  24.2794440
  51.6724249  37.3359361  16.5543023  52.0875398  37.0044385  15.8627519
  50.8416179  37.1028263  16.4263159  51.6112258  37.2530617  16.4333870
  57.0712272  35.0554612  23.9874088  57.3067862  35.1999811  23.1600939
  57.2201836  35.8197020  24.3805602  57.1278076  35.1893666  23.9237692
  58.9002729  33.8956278  21.8243692  59.2310946  34.4283918  21.2183787
  59.4735817  33.9495165  22.4805643  59.0336408  33.9825846  21.8321474
  54.1134618  31.7421180  22.5067272  54.2081473  32.4810474  22.9606898
  53.4893462  31.3138656  22.9401837  54.0343648  31.7882501  22.6375420
  54.3657640  33.5869920  15.7404224  54.2837802  33.6572107  16.6059211
  55.0037360  34.1499664  15.5487965  54.4477477  33.6808891  15.8394174
  52.8051861  25.4559109  25.3082843  52.1008188  24.9668294  25.4666762
  52.8536835  25.4681583  24.4371288  52.7081912  25.3848757  25.2022183
  46.6985523  30.9068421  25.6943645  46.1235114  31.0660589  26.3307606
  46.3221199  30.2703830  25.2312096  46.5588335  30.8366233  25.7198204
  60.0082081  29.1366774  23.3283854  59.7518646  28.3246716  23.1381737
  60.8511395  29.1444342  23.1014041  60.0948106  29.0178772  23.2668671
  54.1885173  23.0766399  28.0660008  54.5695685  22.3944570  28.4527882
  53.3848457  22.7876001  27.8835672  54.1261635  22.9333447  28.0964064
  51.4697750  33.6090374  18.7512831  52.2838389  33.9005267  18.6395602
  51.4056891  32.9550237  18.1771124  51.5800489  33.5555569  18.6501668
  47.3405658  37.0811892  23.8785143  47.9779605  36.8423639  24.4236936
  47.7660730  37.2849051  23.1438303  47.4981824  37.0762902  23.8502300
  47.9808473  32.3014182  18.2160032  48.3653626  32.0821888  18.9676577
  47.7320093  33.1277127  18.3461109  48.0010546  32.3912328  18.3461109
  58.7143661  36.0760819  29.2270701  58.4089478  36.8088876  29.5884016
  57.9949876  35.6698749  28.9463487  58.5631003  36.1242552  29.2383838
  64.4145453  32.7153820  28.5539045  64.3469953  32.7349779  27.6841632
  64.4001115  33.5584147  28.7794716  64.4024209  32.8427555  28.4591522
  45.7008910  23.9711118  23.5468813  44.8331336  24.0433718  23.6126422
  45.9884115  24.7733197  23.7356788  45.6148659  24.1005265  23.5843579
  54.8241799  24.1188978  31.8780135  55.5695391  23.9298788  31.4643560
  54.4079104  24.6447216  31.3193991  54.8726773  24.1691123  31.7344708
  48.2631716  40.5219058  20.2892402  48.5530014  40.1308039  19.5651629
  48.9935197  40.7035762  20.7297678  48.4138600  40.4912871  20.2475209
  62.2004070  31.4898206  26.8285640  62.7511992  30.8566275  27.0682732
  62.1848185  32.0213599  27.5201144  62.2789266  31.4747154  26.9664498
  55.9032476  29.7294540  25.9390236  55.5597242  29.0084875  26.2897485
  56.0025519  29.5208391  25.0968594  55.8674519  29.5918743  25.8661916
  48.3705587  43.8715830  22.1383245  49.0229645  43.3392272  22.3674271
  47.6731196  43.5184482  22.5251119  48.3636305  43.7405353  22.2295412
  45.3186852  36.2255008  21.5450619  46.0732820  36.6068047  21.7586081
  44.7257465  36.6766151  21.9997315  45.3423565  36.3483835  21.6433497
  56.3645505  36.1920244  21.4814224  56.9303538  36.8513454  21.3972767
  55.7173409  36.5369942  21.9530626  56.3524262  36.3402185  21.5386980
  43.6276263  27.4469378  20.9885689  43.3401058  27.0770648  20.2517636
  44.3146731  27.9164233  20.7269394  43.6865160  27.4616347  20.8400765
  52.8352083  39.1359028  20.9051303  52.5938759  38.4026889  20.4978368
  53.0153416  39.6845885  20.2517636  52.8259707  39.1081419  20.7481526
  48.0651404  34.4267588  22.3172225  47.8694187  35.0342322  21.7232528
  48.2885750  33.7335532  21.8363899  48.0686045  34.4145113  22.1588306
  46.4629934  31.3122326  22.4353094  47.1852586  31.4763484  21.9756900
  45.9837927  32.0331991  22.3292433  46.4993665  31.4420555  22.3518708
  54.4223442  27.6486125  27.8149779  53.5834542  27.6747403  27.5788042
  54.4927809  28.2956860  28.3955125  54.3091835  27.7482250  27.8658896
  52.8692720  24.5471502  22.5477395  53.5719073  24.3479250  22.0697353
  52.6036909  23.7747444  22.8546238  52.9339352  24.4034468  22.5222836
  58.2980966  32.8554111  25.1011020  58.2114940  33.0109537  25.9545799
  57.8431445  33.4992187  24.7270425  58.2184222  32.9729866  25.1718127
  41.2004457  28.2250590  21.8370970  41.3020594  29.0276751  22.1651945
  41.9960344  28.0237926  21.5394051  41.3332363  28.3136489  21.8406325
  52.1706782  30.1764858  23.7236580  51.9241496  30.0960609  24.5573369
  52.4991905  29.3918326  23.5299107  52.1828025  30.0491124  23.8184103
  56.0654830  36.8848218  27.5123361  55.9269190  37.5829264  28.0172104
  55.2854828  36.7296874  27.1559543  55.9298057  36.9648384  27.5349635
  50.3023726  32.1111745  30.9184695  49.5547040  32.3042760  30.5132973
  50.4565251  31.2856965  30.6808816  50.2146154  32.0176857  30.8230100
  57.5608203  36.2426472  18.2739860  57.1815012  35.4563609  18.2669150
  56.8974449  36.7913329  18.1311505  57.4066678  36.2071296  18.2520657
  55.0152829  19.1852171  25.6773941  55.1336397  19.6428635  24.9441244
  54.8415005  18.3797433  25.3910159  55.0072000  19.1345943  25.5274875
  50.3855111  39.7939991  22.1128687  51.1505003  39.5249634  21.7911351
  50.2833201  39.3090001  22.8298749  50.4836607  39.6829555  22.1708514
  48.4207881  27.9964400  28.6521922  47.6303956  27.8155860  28.9739258
  48.8168504  27.2191353  28.6352217  48.3624757  27.8551861  28.6974471
  52.9073772  36.8252174  14.0928636  53.6746757  36.8852299  13.6834488
  52.4605081  36.2532616  13.6084954  52.9547199  36.7488750  13.9606346
  53.8051567  35.6306830  26.3781368  53.1296569  35.3992062  26.8794755
  53.8143944  35.0228013  25.7523473  53.7070072  35.5065755  26.3597520
  55.8068302  38.4871963  18.6091546  55.8888139  39.2938949  18.2852997
  56.2918044  38.5067922  19.3332320  55.8905460  38.6092625  18.6678445
  44.9047250  33.6608850  22.7089597  45.0611869  33.5955653  23.5645589
  45.2447843  34.4357403  22.4968276  44.9780485  33.7658048  22.8044191
  51.4426395  33.0366734  21.5782960  51.9841940  32.5337115  22.0421580
  51.7572954  32.9831928  20.7672445  51.5690792  32.9546154  21.5266772
  49.6112845  38.4284085  18.8622988  49.6805665  37.5698624  19.0015988
  50.3901300  38.6455966  18.5342012  49.7365695  38.3336949  18.8340145
  54.0020332  40.8521786  23.0759481  53.6100124  40.5488502  22.3582347
  54.1573404  41.6890876  22.8864435  53.9673922  40.9305623  22.9415978
  54.7554752  29.5392103  32.5688567  53.9431434  29.2317994  32.6501740
  55.2144687  29.0591103  33.1331280  54.7035137  29.4228596  32.6643162
  54.1660007  37.4171775  23.0165512  53.8074662  37.5886418  23.7929544
  53.6798718  37.8784981  22.4593510  54.0418704  37.5110746  23.0490781
  51.9830393  21.0402974  26.6192603  51.1123951  21.0141695  26.5725913
  52.2370734  20.8680166  25.8018449  51.8923953  21.0113117  26.4912740
  48.9548372  33.0970941  15.5565746  49.2440897  33.8735823  15.8309320
  49.0420171  32.5859672  16.2580245  49.0102629  33.1362859  15.7008244
  49.0079533  23.0509202  28.0766074  48.4918022  22.3589394  28.2017653
  48.4473462  23.7179979  28.0228672  48.8486047  23.0472460  28.0872140
  51.0771767  23.5902162  29.9058926  50.6903520  23.6151194  30.6872456
  50.5904704  23.0243841  29.4533443  50.9484276  23.5097913  29.9546830
  57.0521746  30.1564817  28.5298628  56.6249355  30.0691166  27.7746728
  56.4147799  30.2642593  29.1153472  56.8951354  30.1597477  28.5044070
  50.7428909  20.4769148  32.1969186  51.3722027  21.0129448  31.9190256
  50.9114771  20.3846507  33.0482752  50.8606703  20.5430510  32.2817714
  42.5987880  30.0323742  25.4850609  42.2044578  30.1066754  24.7100719
  42.0427997  30.4181688  26.0358971  42.4590693  30.1005517  25.4518269
  54.2352827  23.0105036  25.1654488  54.4402420  22.9427344  26.0111485
  53.9079251  23.8163857  25.0975665  54.2168075  23.1190977  25.2814143
  48.9328978  30.3385604  26.9063456  48.6292116  29.7841593  27.5073863
  48.2308399  30.5177814  26.4191490  48.7845188  30.2830387  26.9233161
  47.9895075  27.6486124  21.4708158  48.2654810  26.9305037  21.0585725
  48.5893745  28.2471044  21.2629264  48.1188340  27.6306495  21.3788919
  57.4886515  23.5636800  24.6457253  56.8760828  24.0507203  25.0310985
  57.5850690  22.8880291  25.1894904  57.4124412  23.5355109  24.7836111
  51.4905596  25.3199642  19.7454753  51.9449342  25.4910202  20.4702597
  51.9645642  24.7067752  19.3452528  51.6273916  25.2550527  19.7928514
  45.4081744  25.9649965  29.7425509  45.8683226  26.0388895  30.4800633
  45.4537851  26.7631219  29.3925330  45.4832299  26.0944112  29.7998265
  61.1311543  34.6353737  30.0734769  61.1894667  35.0840386  30.8194746
  60.4978010  35.0452550  29.6364849  61.0462838  34.7627472  30.1187318
  54.7710637  40.2557279  26.5089516  54.5730326  40.7448094  25.8145727
  54.1498349  40.4598521  27.0873649  54.6498202  40.3573817  26.4912739
  48.8318616  32.0242176  20.8499760  49.5760661  32.4116452  21.0882710
  48.9779312  31.1799601  21.0140248  48.9629201  31.9572649  20.9093730
  50.7498191  23.8192435  25.8831621  49.9034236  23.9915243  25.7572971
  50.7469324  23.0141779  26.2197450  50.6245341  23.7253464  25.9142748
  51.8196492  27.5967649  26.7493679  51.3456446  27.0709411  27.2598990
  52.1914627  27.0497122  26.1808541  51.8046381  27.4383646  26.7408826
  58.0833222  32.6570025  28.1600460  57.8431445  31.8176440  28.1642886
  58.5625229  32.7370192  28.8841233  58.1185406  32.5451425  28.2675262
  53.7479991  28.4904204  19.8119433  53.2203010  28.5732948  19.1225142
  54.2075699  29.2322075  19.8084078  53.7381842  28.6124866  19.7094128
  60.0838409  29.4371482  26.1129719  59.8448179  29.3967316  25.2750503
  60.2472311  30.2842634  26.2395440  60.0728713  29.5563567  26.0083201
  56.6884439  33.8221431  32.0434764  57.4118638  33.3693958  31.8645784
  56.4234402  34.1026097  31.2607092  56.7565713  33.7972400  31.9013479
  45.5571308  28.4181605  28.7787643  44.9324378  28.4299997  28.1713596
  45.2216903  28.8941780  29.4278883  45.4156800  28.4900122  28.7844212
  45.7413056  26.7606723  14.8360328  45.3925861  27.4126449  15.2991878
  45.2609502  26.7463836  14.1084199  45.6183300  26.8549777  14.7971419
  53.3017074  37.0607767  18.9429090  54.0251273  37.5265880  18.7993663
  52.8617665  37.1281377  18.1926687  53.3432766  37.1391604  18.8113871
  52.7682356  22.1935988  31.5513301  52.2722917  22.3899662  30.8604868
  53.5251418  22.5928657  31.3802103  52.8069181  22.2813722  31.4233438
  50.0385236  25.8678334  28.1416612  50.0627723  25.3338446  27.4529392
  50.2896709  25.3595643  28.8042202  50.0795154  25.7139238  28.1381256
  46.3186558  24.5949152  27.5222356  46.3584930  25.0958359  28.2357063
  45.4936223  24.6859546  27.2528279  46.2026084  24.6830969  27.5872894
  46.1136965  29.3865254  20.3486373  46.2539926  29.8837718  21.0515014
  46.6119498  28.6851548  20.4900586  46.2078046  29.3567233  20.4737952
  46.1437188  30.2532365  17.6778950  46.7782267  30.8492790  17.6128411
  46.2262798  29.9535822  18.4924820  46.2493739  30.2973273  17.7882036
  59.1219753  32.7847842  30.5465314  59.7137594  33.4245093  30.5783512
  59.5578748  32.0870879  30.8357381  59.2738185  32.7766193  30.5946146
  47.7216170  26.1846340  17.6524392  48.0432012  25.7049423  16.9983654
  47.9843114  26.9945986  17.4615203  47.8082196  26.2336238  17.5279884
  53.1175325  25.5718534  30.0147871  53.5430397  25.1191061  29.4031397
  52.5032319  25.0178605  30.2912658  53.0903971  25.4232510  29.9652896
  42.6490175  32.4500206  20.9468496  43.1582405  33.0464713  21.3279801
  43.1224448  32.1826179  20.2644915  42.7933551  32.4986021  20.9023018
  53.5620924  41.1228472  19.1027151  52.8450233  40.9489335  18.6374388
  54.2127661  40.8881045  18.5702637  53.5522774  41.0624265  18.9556369
  51.5569548  22.0433634  23.4238448  50.9137866  21.8931280  23.9923586
  51.2168955  21.7975979  22.6587552  51.4114626  21.9845756  23.3941463
  56.1468895  29.9993061  22.8468456  55.4760085  30.5422763  22.7181522
  56.8408645  30.4687916  22.6050151  56.1497762  30.1491332  22.7923984
  56.3097022  26.4548944  25.7558829  56.6624632  26.0278667  26.4304628
  55.4511824  26.3699788  25.8859906  56.2346467  26.3793685  25.8753840
  45.0080707  29.0856464  23.8141676  44.2892696  29.5020597  24.0814540
  45.3793070  29.6510703  23.2633314  44.9572639  29.2305746  23.7724483
  54.3080288  29.7184313  29.7043672  54.2878215  29.5367608  30.5578451
  54.3559489  30.5896332  29.6803255  54.3114929  29.8200851  29.8266966
  50.7827282  28.1254464  19.1515055  50.1892121  28.4471461  18.5999622
  50.8202559  27.2795559  18.9436162  50.7001671  28.0478792  19.0397827
  57.7421082  21.5767356  26.6843142  57.2351947  20.8696496  26.6164319
  58.5388516  21.2460545  26.8144219  57.7848322  21.4240508  26.6942137
  53.6585098  28.0833969  22.5816806  53.4298791  28.1066670  21.7395164
  53.9183174  27.2591436  22.7011816  53.6631286  27.9650048  22.4742003
  46.7129861  26.6210515  23.8771001  47.1887227  26.9827595  23.2421182
  46.2118460  27.2766982  24.1571144  46.7095220  26.7704704  23.8247742
  59.9441222  36.0932283  19.6684006  60.3274828  36.8423639  19.8982103
  59.1485336  36.3398103  19.4095995  59.8835004  36.2401977  19.6641580
  48.7556514  28.7651715  17.2444385  49.1355479  28.7831344  16.4595500
  48.0149110  29.2105703  17.1235233  48.7025352  28.8333489  17.1107953
  56.3841804  27.0733906  22.8319964  56.3836031  26.9182562  23.6904240
  56.1797984  27.9196893  22.7761350  56.3541582  27.1754527  22.9507903
  49.5541268  35.6029221  18.6353175  48.7452591  35.2795894  18.5886485
  50.0616177  34.8962443  18.5681424  49.5090935  35.4510537  18.6183470
  56.1734475  34.5035095  29.1733300  56.5989547  33.9809517  28.6203725
  55.8091395  35.1015933  28.6521923  56.1821078  34.5145322  29.0142309
  52.7613075  38.2169359  25.5034457  53.2324253  38.9309622  25.6724442
  53.0973253  37.6168110  26.0394327  52.8808190  38.2340824  25.6066833
  49.6782570  22.9896830  32.4592552  49.8110475  22.1927823  32.7873527
  50.0627722  23.5163233  33.0390827  49.7538899  22.9496747  32.5936055
  52.7514925  19.9127156  29.0573645  51.9460889  19.8024886  29.3741483
  52.6221660  20.0139612  28.2003511  52.6135058  19.9110826  28.9781686
  56.2080885  26.0772648  29.6513342  55.6243874  26.5781855  29.2390909
  56.5285179  25.5702204  29.0177665  56.1694061  26.0764483  29.4971849
  48.7475685  24.9913243  19.9272017  49.5691379  25.1611556  19.6853712
  48.2845335  25.1460504  19.2038314  48.8006847  25.0394976  19.7843661
  47.3371016  22.9856005  30.7070446  47.8815429  22.6447132  31.2974787
  47.3907952  23.8441467  30.8491730  47.4260136  23.0611264  30.8152319
  69.4358998  46.6703218  21.7614367  69.4053002  47.5247855  21.9332637
  70.0340346  46.3698511  22.3200511  69.5196156  46.7519715  21.8689170
  62.6358683  45.7578869  26.5167298  61.7796578  45.9187367  26.5676414
  62.6826336  44.8870933  26.5372359  62.5157794  45.6529671  26.5273364
  57.0199822  55.2941587  22.2804529  56.2682722  54.9157125  22.0520574
  57.4685834  55.3260020  21.5323340  56.9749489  55.2427194  22.1362031
  65.9452399  52.0265395  36.1227754  66.6519166  51.5317425  36.2514688
  66.1340335  52.4674476  35.3930412  66.0780305  52.0183745  36.0336799
  62.4724782  55.7166956  17.7090076  62.1376151  56.3943878  17.2734299
  62.9851653  55.3272268  17.1206948  62.4990363  55.7591535  17.5576868
  62.0129073  57.6681225  23.6501188  62.3968453  58.2368124  23.1105963
  61.9488215  56.9430735  23.1707004  62.0602501  57.6456688  23.4995050
  65.4810504  47.8170913  29.1598949  66.0266464  48.4955999  29.2192919
  65.4227380  47.6758374  28.3000531  65.5526418  47.8962915  29.0411010
  58.5984578  55.3059979  24.5467302  58.6994941  54.4960333  24.8564430
  58.0026324  55.2116925  23.9166980  58.5257117  55.1725007  24.4993540
  67.2575572  49.2455520  20.0332677  67.1415098  49.9963206  20.4624815
  68.0531459  48.9879473  20.2828764  67.3580162  49.3190367  20.1336769
  58.4385318  60.2237568  25.9482158  59.0822774  60.6650732  26.3378316
  58.7641574  59.4190994  25.8612417  58.5817147  60.1702763  25.9927635
  51.7949623  51.3280266  24.1719635  51.5599807  50.4947918  24.0651904
  51.9335263  51.6084931  23.3580836  51.7805285  51.2463769  24.0361990
  54.0939710  43.4965996  27.0703943  53.4744742  42.9058643  26.9013958
  53.9923574  44.0877431  26.4368266  53.9877386  43.4970079  26.9508933
  59.1405898  53.2349543  21.3202020  59.4621739  53.7754750  20.7163328
  59.7877994  52.6646314  21.4524309  59.2831953  53.2308718  21.2509055
  61.1907606  45.2365538  21.4036406  61.8887771  45.4153665  21.8957870
  61.5059938  44.7135877  20.7806796  61.3402943  45.1859310  21.3838416
  61.3795541  51.6235983  21.3916198  61.8189177  51.0153083  21.8370970
  61.2300204  51.2443356  20.6201663  61.4217007  51.4774454  21.3435365
  61.3853276  53.0634901  28.2441916  61.6676518  52.2686306  28.0228672
  62.1139436  53.5415488  28.2646977  61.5342839  53.0169498  28.2144931
  59.3634469  40.6057935  25.4857681  59.0337799  41.0569078  24.8161380
  58.6879471  40.5274098  26.0330687  59.2144906  40.6609070  25.4680904
  64.9804878  49.9763164  18.3446967  64.8956173  50.8324131  18.4896536
  65.4689261  49.7007488  19.0129126  65.0393775  50.0620486  18.4649048
  66.5710877  36.5943457  23.7307292  66.2564318  37.2846936  24.1627714
  66.0537819  36.5388240  23.0292792  66.4475348  36.6878346  23.6904241
  65.9123311  46.5947958  19.8444702  65.3834782  46.8107592  20.5042008
  66.4348331  47.2884097  19.7645671  65.9111764  46.7291095  19.9300301
  71.3671364  52.1694263  25.2177747  70.5369067  52.3804907  25.3811163
  71.3180616  51.3431317  24.9420030  71.2378099  52.0783869  25.2015112
  57.8022919  50.4911175  18.6452170  57.2180134  50.9961207  19.0518034
  57.3993014  50.2653562  17.9048762  57.6562223  50.5319423  18.5957195
  59.4281101  54.9998117  28.0525656  58.9108043  54.6405532  27.4486964
  60.1255493  54.4760291  28.0631722  59.4546683  54.8695805  27.9655915
  63.0844693  55.4492931  34.0141829  63.1728039  55.2619072  34.8620039
  63.5134406  54.8030361  33.6146676  63.1606796  55.3255939  34.0813581
  60.6515153  54.7324091  32.9959491  60.0885988  54.3196701  33.5199152
  61.4136177  54.6576997  33.4152635  60.6809602  54.6601492  33.1352492
  62.2600133  46.7376827  17.1221091  62.4996137  46.9454811  16.3096434
  62.5815974  45.9334336  17.2310035  62.3437291  46.6490928  17.0181644
  57.5690423  38.6670223  20.9680629  58.3236392  39.0348540  20.7297679
  57.3917958  39.0409777  21.7359808  57.6544902  38.7768411  21.0465517
  56.2111145  56.7222112  25.5996121  56.9131724  56.2074101  25.6568878
  56.1308628  57.0496264  26.4042997  56.3034905  56.6936338  25.7268914
  70.8625322  44.8164664  29.0128168  70.0253743  44.8866851  29.2475762
  70.8313553  44.8189158  28.1402470  70.7343605  44.8274891  28.9187716
  55.9247488  41.0740542  17.6658742  55.7423061  41.2912423  16.8399734
  56.7873101  41.1879555  17.7217356  56.0252078  41.1230440  17.5513229
  55.5361920  52.9128464  25.1081729  56.3750820  53.1451397  25.1555491
  55.5673689  52.0432776  25.0388765  55.6643638  52.8185411  25.1046374
  61.6047207  38.0766953  20.7007765  62.3333368  37.8982908  20.2545922
  61.6942100  38.9185032  20.9114944  61.7253869  38.1750831  20.6661283
  65.5855508  49.0120340  24.6040059  66.3413023  49.4451854  24.6428968
  65.6917832  48.3625110  25.1774695  65.7125679  48.9797824  24.6938085
  68.6235679  52.8393617  25.3542462  68.1870911  52.8430360  26.1101434
  68.2898595  53.5199116  24.9222040  68.5098299  52.9406073  25.4023295
  55.4709515  44.3514715  16.1781215  54.7567692  44.0652894  16.5903647
  55.9553484  44.6911340  16.8187602  55.4368878  44.3596364  16.3336850
  63.3535146  56.7912052  30.3252068  62.5550392  56.5511552  30.5825937
  63.8021158  56.8426445  31.0719116  63.3009757  56.7634443  30.4736993
  71.7580025  49.5574537  24.2462100  72.4196459  48.9965206  24.1458008
  71.1171437  49.0626568  24.5714791  71.7608893  49.4010946  24.2794440
  62.6456833  52.8544669  16.5543023  63.0607982  52.5229692  15.8627519
  61.8148763  52.6213571  16.4263159  62.5844842  52.7715925  16.4333870
  68.0444856  50.5739920  23.9874088  68.2800445  50.7185118  23.1600939
  68.1934420  51.3382328  24.3805602  68.1010659  50.7078974  23.9237692
  69.8735313  49.4141586  21.8243692  70.2043530  49.9469226  21.2183787
  70.4468401  49.4680473  22.4805643  70.0068992  49.5011154  21.8321474
  65.0867202  47.2606488  22.5067272  65.1814056  47.9995782  22.9606898
  64.4626045  46.8323964  22.9401837  65.0076232  47.3067809  22.6375420
  63.3419676  50.4392701  33.1557553  63.9158537  49.8019945  33.3106117
  63.2634479  50.4396783  32.2867211  63.4152911  50.3457812  33.0503964
  65.3390223  49.1055228  15.7404224  65.2570386  49.1757415  16.6059211
  65.9769944  49.6684972  15.5487965  65.4210061  49.1994199  15.8394174
  58.6983394  48.8715966  25.2078751  58.4402639  48.0387701  25.1810050
  58.7531877  49.0973579  24.3671251  58.6683172  48.7813737  25.0798887
  63.7784445  40.9744417  25.3082843  63.0740771  40.4853602  25.4666762
  63.8269419  40.9866891  24.4371288  63.6814496  40.9034065  25.2022183
  57.6718107  46.4253728  25.6943645  57.0967698  46.5845897  26.3307606
  57.2953783  45.7889138  25.2312096  57.5320919  46.3551541  25.7198204
  70.9814664  44.6552082  23.3283854  70.7251229  43.8432024  23.1381737
  71.8243978  44.6629650  23.1014041  71.0680690  44.5364080  23.2668671
  65.1617757  38.5951706  28.0660008  65.5428268  37.9129878  28.4527882
  64.3581041  38.3061309  27.8835672  65.0994218  38.4518755  28.0964064
  62.4430333  49.1275682  18.7512831  63.2570972  49.4190575  18.6395602
  62.3789475  48.4735545  18.1771124  62.5533072  49.0740877  18.6501668
  68.6639824  51.8101678  33.1642406  68.4278461  50.9789743  33.0454467
  69.3083052  51.7587286  33.7497251  68.7234494  51.6799366  33.2328300
  58.3138242  52.5997200  23.8785143  58.9512189  52.3608947  24.4236936
  58.7393313  52.8034359  23.1438303  58.4714408  52.5948210  23.8502300
  58.9541057  47.8199490  18.2160032  59.3386209  47.6007196  18.9676577
  58.7052677  48.6462435  18.3461109  58.9743129  47.9097636  18.3461109
  69.6876244  51.5946127  29.2270701  69.3822061  52.3274184  29.5884016
  68.9682460  51.1884057  28.9463487  69.5363586  51.6427860  29.2383838
  60.6959714  53.0769622  25.5578929  60.7698722  52.9144794  26.4120779
  61.5129220  53.2659812  25.3139411  60.8276072  53.0806365  25.6476955
  75.3878036  48.2339128  28.5539045  75.3202537  48.2535087  27.6841632
  75.3733699  49.0769455  28.7794716  75.3756793  48.3612863  28.4591522
  54.4565470  53.4227485  22.5873373  53.6303588  53.6689222  22.4607651
  54.5177462  53.3439566  23.4535431  54.3439637  53.4472434  22.6962317
  56.6741494  39.4896426  23.5468813  55.8063920  39.5619026  23.6126422
  56.9616698  40.2918505  23.7356788  56.5881242  39.6190573  23.5843579
  65.7974383  39.6374286  31.8780135  66.5427975  39.4484096  31.4643560
  65.3811687  40.1632524  31.3193991  65.8459357  39.6876431  31.7344708
  59.2364299  56.0404365  20.2892402  59.5262598  55.6493347  19.5651629
  59.9667780  56.2221070  20.7297678  59.3871184  56.0098179  20.2475209
  73.1736654  47.0083514  26.8285640  73.7244575  46.3751583  27.0682732
  73.1580769  47.5398907  27.5201144  73.2521850  46.9932462  26.9664498
  57.1770215  58.0171748  23.3552552  56.9570510  57.7269103  24.1479219
  56.9564737  57.3586703  22.8270465  57.1117809  57.8771456  23.3941461
  56.0887162  50.1045064  25.6208254  55.8000411  49.4782536  26.1553981
  56.9570510  50.0465352  25.6872934  56.1747414  50.0032609  25.7099208
  66.8765060  45.2479848  25.9390236  66.5329826  44.5270183  26.2897485
  66.9758102  45.0393699  25.0968594  66.8407103  45.1104051  25.8661916
  59.3438171  59.3901138  22.1383245  59.9962229  58.8577580  22.3674271
  58.6463779  59.0369790  22.5251119  59.3368889  59.2590661  22.2295412
  56.2919435  51.7440315  21.5450619  57.0465403  52.1253354  21.7586081
  55.6990048  52.1951459  21.9997315  56.3156149  51.8669143  21.6433497
  67.3378089  51.7105552  21.4814224  67.9036122  52.3698762  21.3972767
  66.6905992  52.0555250  21.9530626  67.3256845  51.8587493  21.5386980
  54.6008846  42.9654686  20.9885689  54.3133642  42.5955956  20.2517636
  55.2879314  43.4349541  20.7269394  54.6597743  42.9801655  20.8400765
  63.8084667  54.6544336  20.9051303  63.5671343  53.9212197  20.4978368
  63.9886000  55.2031193  20.2517636  63.7992291  54.6266727  20.7481526
  59.0383988  49.9452896  22.3172225  58.8426770  50.5527630  21.7232528
  59.2618333  49.2520840  21.8363899  59.0418629  49.9330421  22.1588306
  57.4362518  46.8307634  22.4353094  58.1585170  46.9948792  21.9756900
  56.9570510  47.5517299  22.3292433  57.4726248  46.9605863  22.3518708
  65.3956025  43.1671433  27.8149779  64.5567126  43.1932711  27.5788042
  65.4660393  43.8142168  28.3955125  65.2824419  43.2667558  27.8658896
  63.8425304  40.0656810  22.5477395  64.5451656  39.8664558  22.0697353
  63.5769492  39.2932752  22.8546238  63.9071936  39.9219776  22.5222836
  69.2713549  48.3739419  25.1011020  69.1847524  48.5294845  25.9545799
  68.8164029  49.0177495  24.7270425  69.1916806  48.4915174  25.1718127
  52.1737041  43.7435898  21.8370970  52.2753177  44.5462059  22.1651945
  52.9692927  43.5423234  21.5394051  52.3064946  43.8321797  21.8406325
  63.1439365  45.6950166  23.7236580  62.8974079  45.6145917  24.5573369
  63.4724488  44.9103634  23.5299107  63.1560609  45.5676432  23.8184103
  67.0387414  52.4033526  27.5123361  66.9001773  53.1014572  28.0172104
  66.2587412  52.2482182  27.1559543  66.9030641  52.4833692  27.5349635
  65.3765499  48.7029901  33.7645743  65.3713538  47.8309718  33.7688169
  66.0826493  48.9018070  33.2915199  65.4810503  48.6033775  33.6952778
  58.1764147  56.6209657  30.0020590  58.3253711  56.0612573  29.3493994
  58.9564150  56.7001658  30.3853109  58.3138241  56.5495222  29.9617539
  68.5340787  51.7611780  18.2739860  68.1547596  50.9748917  18.2669150
  67.8707032  52.3098637  18.1311505  68.3799262  51.7256603  18.2520657
  60.7017448  56.7924300  31.2805081  60.6261119  56.1233110  31.8355869
  60.6307307  57.4942088  31.7945747  60.6798055  56.7969207  31.4381929
  65.9885413  34.7037479  25.6773941  66.1068981  35.1613943  24.9441244
  65.8147589  33.8982740  25.3910159  65.9804584  34.6531251  25.5274875
  61.3587695  55.3125299  22.1128687  62.1237586  55.0434942  21.7911351
  61.2565785  54.8275309  22.8298749  61.4569190  55.2014863  22.1708514
  63.8806356  52.3437482  14.0928636  64.6479341  52.4037607  13.6834488
  63.4337665  51.7717924  13.6084954  63.9279783  52.2674058  13.9606346
  64.7784151  51.1492138  26.3781368  64.1029153  50.9177370  26.8794755
  64.7876527  50.5413321  25.7523473  64.6802656  51.0251063  26.3597520
  66.7800886  54.0057271  18.6091546  66.8620723  54.8124257  18.2852997
  67.2650628  54.0253230  19.3332320  66.8638044  54.1277933  18.6678445
  60.0909082  60.1992619  29.7383081  60.5805013  59.5003409  29.5558746
  59.5193315  59.9016489  30.3259139  60.0793612  60.0518843  29.7984122
  55.8779834  49.1794158  22.7089597  56.0344453  49.1140961  23.5645589
  56.2180427  49.9542710  22.4968276  55.9513069  49.2843356  22.8044191
  62.4158979  48.5552041  21.5782960  62.9574524  48.0522423  22.0421580
  62.7305538  48.5017236  20.7672445  62.5423376  48.4731462  21.5266772
  66.2876086  52.7654689  38.6909872  67.1010951  52.4939838  38.8515005
  66.1271052  52.4662229  37.8870068  66.3846034  52.6809615  38.5955278
  60.5845428  53.9469393  18.8622988  60.6538249  53.0883931  19.0015988
  61.3633883  54.1641274  18.5342012  60.7098278  53.8522257  18.8340145
  64.9752916  56.3707094  23.0759481  64.5832708  56.0673809  22.3582347
  65.1305988  57.2076184  22.8864435  64.9406506  56.4490931  22.9415978
  52.4514095  46.3629108  23.0250364  52.8313060  46.7813653  22.3610631
  51.8769460  46.9442564  23.3319207  52.4225420  46.5106967  22.9727105
  65.1392591  52.9357083  23.0165512  64.7807245  53.1071726  23.7929544
  64.6531301  53.3970289  22.4593510  65.0151287  53.0296054  23.0490781
  62.9562977  36.5588282  26.6192603  62.0856535  36.5327003  26.5725913
  63.2103318  36.3865474  25.8018449  62.8656537  36.5298425  26.4912740
  59.9280956  48.6156249  15.5565746  60.2173481  49.3921131  15.8309320
  60.0152755  48.1044980  16.2580245  59.9835212  48.6548167  15.7008244
  59.9812117  38.5694510  28.0766074  59.4650606  37.8774702  28.2017653
  59.4206046  39.2365287  28.0228672  59.8218630  38.5657768  28.0872140
  62.0504351  39.1087470  29.9058926  61.6636104  39.1336502  30.6872456
  61.5637288  38.5429149  29.4533443  61.9216859  39.0283221  29.9546830
  66.2997330  53.8260979  33.9632713  66.9377050  53.3321175  33.6295169
  65.6571422  53.7538380  33.3784940  66.2991556  53.7419988  33.8275068
  68.0254330  45.6750125  28.5298628  67.5981938  45.5876474  27.7746728
  67.3880383  45.7827901  29.1153472  67.8683937  45.6782785  28.5044070
  61.7161492  35.9954456  32.1969186  62.3454610  36.5314756  31.9190256
  61.8847355  35.9031815  33.0482752  61.8339287  36.0615818  32.2817714
  66.3551587  54.5180787  30.6038069  67.1443965  54.1669852  30.7240151
  66.5295184  55.3317176  30.3414703  66.4971868  54.5866645  30.5825937
  53.5720464  45.5509050  25.4850609  53.1777162  45.6252062  24.7100719
  53.0160581  45.9366996  26.0358971  53.4323276  45.6190825  25.4518269
  65.2085411  38.5290344  25.1654488  65.4135004  38.4612652  26.0111485
  64.8811835  39.3349165  25.0975665  65.1900659  38.6376285  25.2814143
  58.9627659  43.1671432  21.4708158  59.2387393  42.4490345  21.0585725
  59.5626328  43.7656352  21.2629264  59.0920924  43.1491803  21.3788919
  68.4619098  39.0822108  24.6457253  67.8493412  39.5692510  25.0310985
  68.5583273  38.4065599  25.1894904  68.3856996  39.0540417  24.7836111
  62.4638179  40.8384949  19.7454753  62.9181926  41.0095510  20.4702597
  62.9378225  40.2253060  19.3452528  62.6006500  40.7735835  19.7928514
  72.1044126  50.1539045  30.0734769  72.1627250  50.6025694  30.8194746
  71.4710594  50.5637858  29.6364849  72.0195421  50.2812780  30.1187318
  65.7443221  55.7742587  26.5089516  65.5462910  56.2633401  25.8145727
  65.1230932  55.9783828  27.0873649  65.6230786  55.8759125  26.4912739
  59.8051199  47.5427484  20.8499760  60.5493244  47.9301760  21.0882710
  59.9511896  46.6984909  21.0140248  59.9361785  47.4757957  20.9093730
  61.7230775  39.3377743  25.8831621  60.8766820  39.5100551  25.7572971
  61.7201907  38.5327086  26.2197450  61.5977925  39.2438772  25.9142748
  62.7929075  43.1152957  26.7493679  62.3189030  42.5894719  27.2598990
  63.1647211  42.5682430  26.1808541  62.7778964  42.9568954  26.7408826
  69.0565806  48.1755333  28.1600460  68.8164029  47.3361748  28.1642886
  69.5357813  48.2555500  28.8841233  69.0917990  48.0636733  28.2675262
  64.7212575  44.0089512  19.8119433  64.1935594  44.0918256  19.1225142
  65.1808283  44.7507383  19.8084078  64.7114425  44.1310174  19.7094128
  71.0570993  44.9556790  26.1129719  70.8180763  44.9152624  25.2750503
  71.2204894  45.8027942  26.2395440  71.0461296  45.0748875  26.0083201
  67.6617023  49.3406739  32.0434764  68.3851222  48.8879266  31.8645784
  67.3966985  49.6211405  31.2607092  67.7298296  49.3157708  31.9013479
  64.2749657  52.5793075  18.9429090  64.9983856  53.0451188  18.7993663
  63.8350248  52.6466685  18.1926687  64.3165350  52.6576912  18.8113871
  63.4435812  49.4390618  30.1929779  62.8292806  48.8948668  30.4878414
  63.9603097  48.9254854  29.7135595  63.4291475  49.2827027  30.1654007
  62.6832110  50.5094888  27.9274078  62.2559718  49.8844606  27.4939513
  62.6757054  50.2269809  28.7533085  62.6191251  50.3747668  27.9853905
  63.7414940  37.7121296  31.5513301  63.2455501  37.9084970  30.8604868
  64.4984002  38.1113964  31.3802103  63.7801764  37.7999030  31.4233438
  61.0117819  41.3863642  28.1416612  61.0360307  40.8523754  27.4529392
  61.2629293  40.8780951  28.8042202  61.0527738  41.2324546  28.1381256
  57.2919142  40.1134460  27.5222356  57.3317513  40.6143667  28.2357063
  56.4668806  40.2044854  27.2528279  57.1758668  40.2016277  27.5872894
  57.0869549  44.9050562  20.3486373  57.2272510  45.4023026  21.0515014
  57.5852082  44.2036856  20.4900586  57.1810630  44.8752540  20.4737952
  57.1169771  45.7717673  17.6778950  57.7514851  46.3678098  17.6128411
  57.1995382  45.4721130  18.4924820  57.2226322  45.8158581  17.7882036
  70.0952337  48.3033150  30.5465314  70.6870177  48.9430401  30.5783512
  70.5311331  47.6056187  30.8357381  70.2470768  48.2951500  30.5946146
  58.6948754  41.7031648  17.6524392  59.0164595  41.2234731  16.9983654
  58.9575698  42.5131294  17.4615203  58.7814779  41.7521546  17.5279884
  61.9245727  52.7250523  31.1723208  61.4170818  53.2786369  31.6163838
  61.6272373  52.7858812  30.3541982  61.8050612  52.8156834  31.1171664
  53.6222759  47.9685513  20.9468496  54.1314988  48.5650021  21.3279801
  54.0957031  47.7011487  20.2644915  53.7666135  48.0171329  20.9023018
  64.5353507  56.6413780  19.1027151  63.8182817  56.4674642  18.6374388
  65.1860245  56.4066352  18.5702637  64.5255358  56.5809573  18.9556369
  62.5302132  37.5618942  23.4238448  61.8870450  37.4116588  23.9923586
  62.1901539  37.3161287  22.6587552  62.3847209  37.5031064  23.3941463
  67.1201478  45.5178369  22.8468456  66.4492668  46.0608071  22.7181522
  67.8141229  45.9873224  22.6050151  67.1230346  45.6676640  22.7923984
  61.1688212  57.6575081  28.0780214  60.9453867  56.8993910  28.4464241
  60.6798055  57.6873102  27.3560654  61.0631661  57.5497305  28.0256955
  67.2829606  41.9734252  25.7558829  67.6357216  41.5463975  26.4304628
  66.4244407  41.8885096  25.8859906  67.2079050  41.8978993  25.8753840
  55.9813291  44.6041772  23.8141676  55.2625280  45.0205905  24.0814540
  56.3525653  45.1696011  23.2633314  55.9305223  44.7491053  23.7724483
  65.2812872  45.2369621  29.7043672  65.2610799  45.0552916  30.5578451
  65.3292072  46.1081639  29.6803255  65.2847513  45.3386159  29.8266966
  59.8166669  57.8775539  25.5317299  59.4027068  57.2149669  25.1421141
  60.5014043  58.0253398  25.0112993  59.8565041  57.8016197  25.3973796
  63.1831963  57.0365624  26.2840916  62.7848246  57.1467894  25.5161736
  62.5683183  57.2447690  26.8667475  63.0330852  57.0839192  26.2572215
  61.7559865  43.6439772  19.1515055  61.1624704  43.9656768  18.5999622
  61.7935143  42.7980867  18.9436162  61.6734254  43.5664100  19.0397827
  68.7153666  37.0952664  26.6843142  68.2084531  36.3881804  26.6164319
  69.5121100  36.7645853  26.8144219  68.7580905  36.9425816  26.6942137
  64.6317682  43.6019276  22.5816806  64.4031375  43.6251978  21.7395164
  64.8915758  42.7776743  22.7011816  64.6363870  43.4835356  22.4742003
  57.6862444  42.1395823  23.8771001  58.1619811  42.5012903  23.2421182
  57.1851044  42.7952290  24.1571144  57.6827803  42.2890012  23.8247742
  70.9173806  51.6117591  19.6684006  71.3007412  52.3608947  19.8982103
  70.1217919  51.8583411  19.4095995  70.8567588  51.7587285  19.6641580
  59.7289097  44.2837023  17.2444385  60.1088062  44.3016652  16.4595500
  58.9881693  44.7291011  17.1235233  59.6757935  44.3518797  17.1107953
  67.3574388  42.5919214  22.8319964  67.3568614  42.4367870  23.6904240
  67.1530568  43.4382201  22.7761350  67.3274166  42.6939835  22.9507903
  65.0815240  47.2716716  26.4856171  65.5768905  46.5539711  26.4460191
  64.2715016  46.9687513  26.3710658  65.0359133  47.1214362  26.4629897
  60.5273851  51.1214529  18.6353175  59.7185174  50.7981202  18.5886485
  61.0348760  50.4147751  18.5681424  60.4823518  50.9695845  18.6183470
  67.1467059  50.0220403  29.1733300  67.5722130  49.4994825  28.6203725
  66.7823979  50.6201240  28.6521923  67.1553661  50.0330630  29.0142309
  56.7821139  58.3184621  27.9330645  57.0967698  59.1321009  27.9408427
  57.1914552  57.9334839  28.6012804  56.8889237  58.3813323  28.0334737
  63.7345658  53.7354667  25.5034457  64.2056836  54.4494930  25.6724442
  64.0705837  53.1353417  26.0394327  63.8540773  53.7526132  25.6066833
  65.8222643  55.3455981  37.6826529  65.9319608  54.5564541  38.0383276
  66.1513539  55.2561917  36.8800867  65.8875049  55.2161834  37.6168920
  64.3719605  53.5272601  32.2662150  63.8240551  52.9030485  31.9982215
  64.8332633  53.7166874  31.5506229  64.3586814  53.4631652  32.1212581
  63.7247508  35.4312464  29.0573645  62.9193472  35.3210194  29.3741483
  63.5954244  35.5324920  28.2003511  63.5867641  35.4296134  28.9781686
  67.1813469  41.5957956  29.6513342  66.5976458  42.0967162  29.2390909
  67.5017763  41.0887512  29.0177665  67.1426644  41.5949791  29.4971849
  59.7208268  40.5098551  19.9272017  60.5423962  40.6796864  19.6853712
  59.2577919  40.6645812  19.2038314  59.7739430  40.5580284  19.7843661
  63.9377931  54.5323674  28.7971491  64.7576305  54.3886640  29.0587786
  63.6572009  55.1569873  29.3387929  64.0174674  54.6034026  28.9159430
  73.6091266  61.2764177  26.5167298  72.7529162  61.4372675  26.5676414
  73.6558920  60.4056241  26.5372359  73.4890378  61.1714979  26.5273364
  67.9932406  70.8126895  22.2804529  67.2415305  70.4342433  22.0520574
  68.4418418  70.8445328  21.5323340  67.9482073  70.7612502  22.1362031
  76.9184983  67.5450703  36.1227754  77.6251750  67.0502733  36.2514688
  77.1072918  67.9859784  35.3930412  77.0512888  67.5369053  36.0336799
  76.4543087  63.3356221  29.1598949  76.9999047  64.0141307  29.2192919
  76.3959963  63.1943682  28.3000531  76.5259002  63.4148222  29.0411010
  69.5717162  70.8245287  24.5467302  69.6727525  70.0145641  24.8564430
  68.9758907  70.7302233  23.9166980  69.4989701  70.6910315  24.4993540
  62.7682206  66.8465573  24.1719635  62.5332391  66.0133226  24.0651904
  62.9067847  67.1270239  23.3580836  62.7537869  66.7649077  24.0361990
  65.0672294  59.0151304  27.0703943  64.4477325  58.4243951  26.9013958
  64.9656157  59.6062739  26.4368266  64.9609969  59.0155387  26.9508933
  72.1640189  60.7550846  21.4036406  72.8620354  60.9338973  21.8957870
  72.4792522  60.2321185  20.7806796  72.3135527  60.7044618  21.3838416
  64.7941427  62.5603586  29.3147512  64.6700124  63.1466031  29.9497331
  65.4459711  62.0663781  29.6159787  64.8715076  62.5742390  29.4533441
  72.3528125  67.1421291  21.3916198  72.7921760  66.5338391  21.8370970
  72.2032788  66.7628664  20.6201663  72.3949590  66.9959762  21.3435365
  69.8199768  65.7365303  28.5935023  70.4648770  65.2437746  28.2745972
  70.0601545  65.8790089  29.4201101  69.9510353  65.6842745  28.6684556
  72.3585859  68.5820209  28.2441916  72.6409102  67.7871614  28.0228672
  73.0872020  69.0600796  28.2646977  72.5075423  68.5354806  28.2144931
  70.3367053  56.1243243  25.4857681  70.0070383  56.5754386  24.8161380
  69.6612055  56.0459406  26.0330687  70.1877489  56.1794378  25.4680904
  77.5443461  52.1128765  23.7307292  77.2296902  52.8032244  24.1627714
  77.0270402  52.0573548  23.0292792  77.4207931  52.2063654  23.6904241
  64.3299531  71.7251244  25.4475842  63.8467109  72.4501734  25.4235425
  65.1422849  72.0227374  25.5585999  64.3790279  71.8753598  25.4603121
  70.4013685  70.5183425  28.0525656  69.8840627  70.1590840  27.4486964
  71.0988076  69.9945599  28.0631722  70.4279266  70.3881113  27.9655915
  71.6247737  70.2509399  32.9959491  71.0618572  69.8382009  33.5199152
  72.3868760  70.1762305  33.4152635  71.6542185  70.1786800  33.1352492
  68.5423007  54.1855531  20.9680629  69.2968975  54.5533848  20.7297679
  68.3650542  54.5595085  21.7359808  68.6277485  54.2953719  21.0465517
  67.1843728  72.2407420  25.5996121  67.8864308  71.7259409  25.6568878
  67.1041211  72.5681572  26.4042997  67.2767489  72.2121646  25.7268914
  68.2322635  62.4783007  34.7276537  68.4043139  62.3688902  35.5761818
  68.7691992  63.1237413  34.4907729  68.3367639  62.5575009  34.8181633
  66.8980072  56.5925850  17.6658742  66.7155645  56.8097731  16.8399734
  67.7605685  56.7064863  17.7217356  66.9984661  56.6415748  17.5513229
  66.5094504  68.4313772  25.1081729  67.3483403  68.6636705  25.1555491
  66.5406273  67.5618084  25.0388765  66.6376221  68.3370719  25.1046374
  67.1347207  68.8514647  29.4095035  67.6745432  68.7085778  30.0798407
  66.4517153  69.2511398  29.7779061  67.1139361  68.8894318  29.5629457
  72.5779791  53.5952261  20.7007765  73.3065951  53.4168216  20.2545922
  72.6674684  54.4370340  20.9114944  72.6986453  53.6936139  20.6661283
  76.5588092  64.5305648  24.6040059  77.3145607  64.9637162  24.6428968
  76.6650416  63.8810418  25.1774695  76.6858262  64.4983132  24.6938085
  62.5384352  65.0714938  29.5629457  62.2722767  64.2554055  29.7220447
  62.5522916  65.1168094  28.6924972  62.5009074  64.9571843  29.4582939
  66.4442099  59.8700023  16.1781215  65.7300276  59.5838202  16.5903647
  66.9286067  60.2096648  16.8187602  66.4101462  59.8781672  16.3336850
  67.2882958  58.6093316  32.2096464  66.5954755  58.1390296  32.4557196
  67.9043285  58.3831621  32.7838171  67.2767488  58.5060448  32.3305617
  62.9477765  65.8573718  26.8441201  62.7653339  65.8320604  25.9913493
  63.6827434  66.3272655  26.8830110  63.0291829  65.9235080  26.7239119
  66.0123517  62.5758720  33.3523309  66.7363489  62.5611751  33.8388204
  66.1139654  63.2854076  32.8545278  66.1341726  62.6783424  33.3502096
  73.3868467  66.0557805  38.2172256  72.5941447  66.3701317  38.4024876
  73.5017394  66.2709273  37.3793041  73.2863877  66.1341642  38.1210591
  76.0599785  62.7791796  22.5067272  76.1546640  63.5181090  22.9606898
  75.4358629  62.3509272  22.9401837  75.9808816  62.8253117  22.6375420
  74.3152259  65.9578009  33.1557553  74.8891121  65.3205253  33.3106117
  74.2367063  65.9582091  32.2867211  74.3885494  65.8643120  33.0503964
  62.9148676  62.7367218  26.9940267  63.4922178  62.6003669  27.6332513
  62.2162737  62.2803002  27.2485852  62.8969697  62.6489484  27.1262557
  69.6715978  64.3901274  25.2078751  69.4135222  63.5573009  25.1810050
  69.7264461  64.6158887  24.3671251  69.6415756  64.2999045  25.0798887
  74.7517028  56.4929725  25.3082843  74.0473355  56.0038910  25.4666762
  74.8002002  56.5052199  24.4371288  74.6547080  56.4219373  25.2022183
  68.6450690  61.9439036  25.6943645  68.0700281  62.1031205  26.3307606
  68.2686366  61.3074445  25.2312096  68.5053502  61.8736849  25.7198204
  72.3123979  60.4162386  30.5536024  71.9238411  59.9916603  29.8988215
  71.6478677  60.6644535  31.0613050  72.1570906  60.3901107  30.5323892
  58.3907509  61.5879111  23.7088086  58.4767761  61.2110979  24.4901616
  59.0183306  61.2139557  23.2308044  58.4964060  61.4764593  23.7533563
  76.1350340  54.1137014  28.0660008  76.5160852  53.4315186  28.4527882
  75.3313625  53.8246617  27.8835672  76.0726802  53.9704063  28.0964064
  69.2870825  68.1182508  23.8785143  69.9244772  67.8794255  24.4236936
  69.7125897  68.3219667  23.1438303  69.4446991  68.1133518  23.8502300
  63.9783468  70.3570844  27.7619447  64.0187613  70.6285695  26.9339226
  64.5377992  70.8812752  28.1777234  64.0666814  70.4746599  27.7011335
  69.9273640  63.3384797  18.2160032  70.3118793  63.1192504  18.9676577
  69.6785261  64.1647743  18.3461109  69.9475713  63.4282944  18.3461109
  70.0942181  56.6191213  37.9322616  69.7795622  57.3890775  37.6692179
  69.7732113  56.0561469  37.3474843  70.0001100  56.6501481  37.8063966
  71.6692297  68.5954930  25.5578929  71.7431305  68.4330102  26.4120779
  72.4861804  68.7845120  25.3139411  71.8008656  68.5991673  25.6476955
  65.4298054  68.9412793  22.5873373  64.6036172  69.1874530  22.4607651
  65.4910045  68.8624874  23.4535431  65.3172221  68.9657742  22.6962317
  67.6474078  55.0081734  23.5468813  66.7796503  55.0804334  23.6126422
  67.9349282  55.8103813  23.7356788  67.5613826  55.1375881  23.5843579
  76.7706966  55.1559594  31.8780135  77.5160558  54.9669404  31.4643560
  76.3544271  55.6817831  31.3193991  76.8191941  55.2061739  31.7344708
  70.7991628  66.3607419  31.3745533  70.3003322  67.0723187  31.4530421
  71.6091852  66.6808086  31.3363695  70.8447735  66.5134268  31.3802102
  68.1502798  73.5357056  23.3552552  67.9303094  73.2454411  24.1479219
  67.9297321  72.8772011  22.8270465  68.0850393  73.3956764  23.3941461
  67.0619746  65.6230372  25.6208254  66.7732994  64.9967844  26.1553981
  67.9303094  65.5650660  25.6872934  67.1479998  65.5217917  25.7099208
  77.8497643  60.7665156  25.9390236  77.5062409  60.0455491  26.2897485
  77.9490686  60.5579007  25.0968594  77.8139686  60.6289359  25.8661916
  67.2652019  67.2625623  21.5450619  68.0197987  67.6438662  21.7586081
  66.6722632  67.7136767  21.9997315  67.2888733  67.3854451  21.6433497
  69.7258686  59.2188464  36.6707831  68.9158462  59.5246243  36.5597674
  70.2033373  59.9394046  36.7860415  69.6762165  59.3703065  36.6714902
  68.5850246  68.4334185  26.9190734  68.0630999  68.5734476  27.6042599
  68.9724266  67.6744849  27.1092852  68.5653947  68.3419709  27.0491811
  65.5741430  58.4839993  20.9885689  65.2866225  58.1141264  20.2517636
  66.2611898  58.9534849  20.7269394  65.6330327  58.4986963  20.8400765
  70.0116571  65.4638204  22.3172225  69.8159354  66.0712938  21.7232528
  70.2350917  64.7706148  21.8363899  70.0151212  65.4515729  22.1588306
  68.4095101  62.3492942  22.4353094  69.1317753  62.5134100  21.9756900
  67.9303094  63.0702606  22.3292433  68.4458832  62.4791171  22.3518708
  76.3688609  58.6856740  27.8149779  75.5299710  58.7118019  27.5788042
  76.4392976  59.3327476  28.3955125  76.2557002  58.7852866  27.8658896
  66.0602718  64.7551014  31.5407234  66.5723815  65.0335267  30.8915993
  65.7739061  65.4940308  31.9070047  66.0937581  64.9053368  31.4997112
  74.8157887  55.5842117  22.5477395  75.5184240  55.3849866  22.0697353
  74.5502076  54.8118060  22.8546238  74.8804519  55.4405083  22.5222836
  63.1469624  59.2621206  21.8370970  63.2485761  60.0647367  22.1651945
  63.9425511  59.0608542  21.5394051  63.2797530  59.3507105  21.8406325
  69.5786443  56.8477403  31.6008275  69.3869640  56.8632537  32.4507699
  70.4285039  57.0441077  31.5774930  69.6762165  56.8791754  31.7231570
  63.9633356  59.3768384  29.5792092  63.8218848  58.5252325  29.7036600
  64.2473920  59.4197045  28.7554298  63.9841202  59.2568134  29.4759716
  74.1171949  61.2135474  23.7236580  73.8706663  61.1331225  24.5573369
  74.4457072  60.4288942  23.5299107  74.1293192  61.0861740  23.8184103
  76.3498083  64.2215209  33.7645743  76.3446121  63.3495026  33.7688169
  77.0559077  64.4203378  33.2915199  76.4543087  64.1219083  33.6952778
  70.0768976  63.9492193  33.1359563  70.2212352  64.5293401  32.5002673
  70.4244625  64.3268490  33.8409418  70.1496437  64.0912897  33.1458558
  72.2488893  63.1482361  30.9184695  71.5012207  63.3413376  30.5132973
  72.4030419  62.3227581  30.6808816  72.1611321  63.0547473  30.8230100
  69.1496731  72.1394965  30.0020590  69.2986295  71.5797881  29.3493994
  69.9296733  72.2186966  30.3853109  69.2870825  72.0680530  29.9617539
  72.4890670  57.0432912  31.8080098  72.9463285  57.7756886  31.9352891
  72.5646999  56.6199377  32.5667354  72.5681640  57.0890150  31.9381175
  64.7323662  57.2898732  32.8969542  64.1965851  56.6779090  33.2130309
  64.7941426  57.8646868  33.5503209  64.6619294  57.2845659  33.0404969
  76.9617996  50.2222787  25.6773941  77.0801564  50.6799250  24.9441244
  76.7880172  49.4168048  25.3910159  76.9537167  50.1716559  25.5274875
  70.3673048  59.0335016  28.6521922  69.5769123  58.8526476  28.9739258
  70.7633671  58.2561968  28.6352217  70.3089925  58.8922477  28.6974471
  75.7516735  66.6677446  26.3781368  75.0761736  66.4362678  26.8794755
  75.7609111  66.0598629  25.7523473  75.6535239  66.5436371  26.3597520
  72.8810879  61.5095275  33.1345421  72.8170020  62.3705231  33.0065558
  73.0208066  61.1927268  32.3340973  72.8926349  61.5895442  32.9973634
  71.5629973  64.2027414  27.2761624  71.1392222  64.4031913  26.5400642
  71.3874828  63.3556262  27.3885924  71.4740853  64.1076196  27.1835314
  66.8512418  64.6979466  22.7089597  67.0077037  64.6326269  23.5645589
  67.1913011  65.4728018  22.4968276  66.9245652  64.8028664  22.8044191
  73.3891562  64.0737349  21.5782960  73.9307108  63.5707730  22.0421580
  73.7038121  64.0202544  20.7672445  73.5155959  63.9916770  21.5266772
  74.5380831  58.9673654  31.6305260  74.7522801  58.3284568  31.0768614
  73.9214731  59.4119478  31.2013122  74.4786161  58.9383798  31.4855691
  63.4246679  61.8814416  23.0250364  63.8045644  62.2998961  22.3610631
  62.8502044  62.4627872  23.3319207  63.3958004  62.0292275  22.9727105
  76.7019919  60.5762719  32.5688567  75.8896601  60.2688609  32.6501740
  77.1609854  60.0961719  33.1331280  76.6500304  60.4599211  32.6643162
  73.9295560  52.0773590  26.6192603  73.0589118  52.0512311  26.5725913
  74.1835901  51.9050782  25.8018449  73.8389120  52.0483733  26.4912740
  73.7973427  61.9822791  37.3517270  74.2673058  62.6064907  37.7385144
  73.8435307  61.3139766  37.9110484  73.8741303  61.9757471  37.4917341
  70.9544701  54.0879818  28.0766074  70.4383189  53.3960009  28.2017653
  70.3938630  54.7550595  28.0228672  70.7951214  54.0843076  28.0872140
  73.0236934  54.6272778  29.9058926  72.6368687  54.6521810  30.6872456
  72.5369871  54.0614457  29.4533443  72.8949443  54.5468529  29.9546830
  72.6894076  51.5139764  32.1969186  73.3187194  52.0500064  31.9190256
  72.8579939  51.4217122  33.0482752  72.8071870  51.5801126  32.2817714
  72.4907991  56.3010958  34.4695598  73.3181420  56.0296107  34.5254212
  72.5115837  57.0971800  34.8259416  72.6160841  56.3790712  34.5310781
  67.0677481  63.4474821  27.6565858  66.2265487  63.3478695  27.8644752
  67.2767488  64.2170301  28.0080179  66.9742173  63.5466864  27.7393173
  64.5453047  61.0694358  25.4850609  64.1509745  61.1437370  24.7100719
  63.9893164  61.4552304  26.0358971  64.4055860  61.1376133  25.4518269
  76.1817994  54.0475652  25.1654488  76.3867588  53.9797960  26.0111485
  75.8544418  54.8534473  25.0975665  76.1633242  54.1561592  25.2814143
  70.8794145  61.3756220  26.9063456  70.5757283  60.8212208  27.5073863
  70.1773566  61.5548430  26.4191490  70.7310355  61.3201003  26.9233161
  69.9360243  58.6856740  21.4708158  70.2119977  57.9675653  21.0585725
  70.5358912  59.2841660  21.2629264  70.0653507  58.6677111  21.3788919
  68.9412496  68.5905941  31.6135554  68.8332851  68.6008003  32.4797612
  69.1508278  69.4160721  31.4240507  68.9562607  68.7147016  31.7139645
  73.4370763  56.3570257  19.7454753  73.8914510  56.5280818  20.4702597
  73.9110809  55.7438368  19.3452528  73.5739083  56.2921143  19.7928514
  66.9586288  65.8418583  29.0757491  66.3674222  66.4828082  29.0460506
  67.7207312  66.2656201  29.0488791  66.9834549  65.9994422  29.0672638
  67.3546911  57.0020581  29.7425509  67.8148393  57.0759511  30.4800633
  67.4003018  57.8001835  29.3925330  67.4297467  57.1314728  29.7998265
  69.0030261  57.6687276  34.3097536  68.6115826  57.0220623  34.7453314
  69.1716124  58.2598711  34.9291791  68.9701171  57.6601544  34.4660242
  70.7783783  63.0612792  20.8499760  71.5225828  63.4487068  21.0882710
  70.9244479  62.2170217  21.0140248  70.9094368  62.9943265  20.9093730
  72.6963358  54.8563051  25.8831621  71.8499404  55.0285858  25.7572971
  72.6934491  54.0512394  26.2197450  72.5710508  54.7624080  25.9142748
  73.7661659  58.6338265  26.7493679  73.2921613  58.1080027  27.2598990
  74.1379795  58.0867738  26.1808541  73.7511548  58.4754262  26.7408826
  64.1434689  60.6309772  32.1177225  65.0060302  60.5305481  32.0314555
  63.8126472  60.0504481  31.5562797  64.2219885  60.5301398  32.0222631
  75.6945159  59.5274820  19.8119433  75.1668177  59.6103564  19.1225142
  76.1540867  60.2692691  19.8084078  75.6847009  59.6495482  19.7094128
  67.5036475  59.4552221  28.7787643  66.8789545  59.4670613  28.1713596
  67.1682070  59.9312396  29.4278883  67.3621967  59.5270738  28.7844212
  67.6878224  57.7977339  14.8360328  67.3391028  58.4497064  15.2991878
  67.2074669  57.7834452  14.1084199  67.5648468  57.8920393  14.7971419
  64.2162151  67.5152681  30.2191407  63.6862075  66.8245120  30.2686382
  64.4887244  67.5062866  29.3904116  64.1786873  67.4119813  30.1038823
  74.4168396  64.9575925  30.1929779  73.8025389  64.4133976  30.4878414
  74.9335681  64.4440162  29.7135595  74.4024059  64.8012335  30.1654007
  73.6564693  66.0280195  27.9274078  73.2292301  65.4029914  27.4939513
  73.6489638  65.7455117  28.7533085  73.5923834  65.8932976  27.9853905
  66.7727220  61.0645369  30.9962512  66.9320707  60.3088693  31.4014234
  66.5920114  61.6136308  31.6503249  66.7692579  61.0339182  31.1525218
  74.7147523  53.2306604  31.5513301  74.2188085  53.4270278  30.8604868
  75.4716585  53.6299272  31.3802103  74.7534348  53.3184338  31.4233438
  71.9850403  56.9048950  28.1416612  72.0092890  56.3709062  27.4529392
  72.2361877  56.3966259  28.8042202  72.0260322  56.7509854  28.1381256
  59.4957993  64.1880445  27.5759756  59.3901442  64.1427289  26.7111840
  58.7458213  64.5334226  27.8574041  59.3693596  64.2321353  27.4897085
  68.2651725  55.6319768  27.5222356  68.3050097  56.1328975  28.2357063
  67.4401390  55.7230162  27.2528279  68.1491251  55.7201585  27.5872894
  70.4481338  65.1980508  35.6242651  69.5976969  65.3352223  35.7600295
  70.6109466  64.4644287  36.0690352  70.3465202  65.1094609  35.7098250
  69.6866089  62.1480278  29.8196255  68.8558018  62.3154096  29.6131503
  69.6317606  61.7716229  30.6045140  69.5555503  62.1170009  29.9044783
  67.4949872  55.6389171  35.4552666  68.1202575  55.0951304  35.7282098
  67.0400352  55.1584089  34.8860456  67.5198132  55.4878652  35.4114260
  68.0602132  60.4235870  20.3486373  68.2005093  60.9208334  21.0515014
  68.5584665  59.7222164  20.4900586  68.1543213  60.3937848  20.4737952
  68.0902355  61.2902981  17.6778950  68.7247434  61.8863406  17.6128411
  68.1727966  60.9906438  18.4924820  68.1958906  61.3343889  17.7882036
  69.6681338  57.2216956  17.6524392  69.9897179  56.7420039  16.9983654
  69.9308281  58.0316602  17.4615203  69.7547363  57.2706854  17.5279884
  72.8978310  68.2435830  31.1723208  72.3903401  68.7971677  31.6163838
  72.6004957  68.3044120  30.3541982  72.7783195  68.3342142  31.1171664
  75.0640493  56.6089150  30.0147871  75.4895564  56.1561676  29.4031397
  74.4497486  56.0549221  30.2912658  75.0369138  56.4603126  29.9652896
  64.5955343  63.4870821  20.9468496  65.1047572  64.0835329  21.3279801
  65.0689615  63.2196795  20.2644915  64.7398718  63.5356637  20.9023018
  73.5034715  53.0804250  23.4238448  72.8603033  52.9301896  23.9923586
  73.1634122  52.8346595  22.6587552  73.3579793  53.0216372  23.3941463
  78.2562189  57.4919560  25.7558829  78.6089799  57.0649283  26.4304628
  77.3976991  57.4070404  25.8859906  78.1811634  57.4164301  25.8753840
  66.9545874  60.1227080  23.8141676  66.2357864  60.5391213  24.0814540
  67.3258237  60.6881319  23.2633314  66.9037806  60.2676361  23.7724483
  76.2545455  60.7554929  29.7043672  76.2343383  60.5738224  30.5578451
  76.3024656  61.6266947  29.6803255  76.2580096  60.8571467  29.8266966
  74.1991785  67.3442121  35.6292148  74.1587640  66.6991798  35.0437304
  75.0115103  67.2878738  35.9417560  74.3134939  67.2401088  35.5889097
  72.7292449  59.1625080  19.1515055  72.1357288  59.4842076  18.5999622
  72.7667726  58.3166175  18.9436162  72.6466838  59.0849408  19.0397827
  75.6050265  59.1204584  22.5816806  75.3763958  59.1437286  21.7395164
  75.8648342  58.2962051  22.7011816  75.6096453  59.0020664  22.4742003
  69.8869494  60.9739057  32.1841906  69.3748397  60.3660240  32.5426937
  69.7148990  61.6895650  32.6515882  69.7859131  60.9902357  32.3058130
  64.7335208  59.4176633  34.8344268  64.5637799  60.0778008  34.2892474
  64.2901158  59.6283194  35.5556757  64.6434542  59.5462615  34.8605897
  68.6595028  57.6581131  23.8771001  69.1352394  58.0198211  23.2421182
  68.1583627  58.3137598  24.1571144  68.6560387  57.8075319  23.8247742
  73.7638564  58.8963302  34.6244161  74.3209994  58.6677112  33.9922627
  73.4399629  59.6568968  34.3479374  73.7984974  58.9747139  34.4900659
  61.6337273  62.3223498  30.0932757  61.0863992  61.6524144  30.2113626
  62.4229651  61.9553346  30.1576225  61.6689457  62.1688485  30.1201458
  71.4821681  61.9830955  35.5896169  72.2333008  62.2982632  35.9035723
  71.6744258  61.7810126  34.7630090  71.6213096  61.9998337  35.5139564
  70.7021681  59.8022330  17.2444385  71.0820646  59.8201960  16.4595500
  69.9614277  60.2476319  17.1235233  70.6490519  59.8704105  17.1107953
  78.3306972  58.1104522  22.8319964  78.3301198  57.9553178  23.6904240
  78.1263152  58.9567509  22.7761350  78.3006749  58.2125142  22.9507903
  60.3924242  61.5344306  27.2478781  60.2146004  61.0820915  27.9733696
  60.1043265  62.3370468  27.4317258  60.3237196  61.5866864  27.3822283
  76.0547824  62.7902023  26.4856171  76.5501489  62.0725019  26.4460191
  75.2447599  62.4872821  26.3710658  76.0091717  62.6399670  26.4629897
  62.1296712  64.0672030  24.3600540  61.2642232  64.0557720  24.2483311
  62.2295528  63.8802253  25.2071679  62.0170879  64.0378091  24.4689484
  78.1199642  65.5405711  29.1733300  78.5454714  65.0180133  28.6203725
  77.7556562  66.1386548  28.6521923  78.1286245  65.5515938  29.0142309
  67.7553722  73.8369928  27.9330645  68.0700281  74.6506317  27.9408427
  68.1647136  73.4520147  28.6012804  67.8621820  73.8998631  28.0334737
  74.7078242  69.2539975  25.5034457  75.1789420  69.9680238  25.6724442
  75.0438420  68.6538725  26.0394327  74.8273357  69.2711440  25.6066833
  71.6247737  54.0267446  32.4592552  71.7575642  53.2298439  32.7873527
  72.0092890  54.5533849  33.0390827  71.7004066  53.9867363  32.5936055
  75.3452188  69.0457909  32.2662150  74.7973134  68.4215793  31.9982215
  75.8065217  69.2352181  31.5506229  75.3319398  68.9816960  32.1212581
  78.1546053  57.1143264  29.6513342  77.5709041  57.6152470  29.2390909
  78.4750347  56.6072820  29.0177665  78.1159228  57.1135099  29.4971849
  70.6940852  56.0283859  19.9272017  71.5156546  56.1982172  19.6853712
  70.2310503  56.1831120  19.2038314  70.7472014  56.0765592  19.7843661
  69.2836184  54.0226621  30.7070446  69.8280597  53.6817748  31.2974787
  69.3373119  54.8812082  30.8491730  69.3725303  54.0981880  30.8152319
  65.0966742  67.7843037  27.5809254  65.7011600  67.7438871  26.9523074
  64.8894055  68.6314189  27.6113309  65.1555640  67.9031039  27.4925370
  60.3318025  66.7677654  27.4508177  60.2342303  65.9573926  27.7598233
  61.1146894  66.7469448  27.0654445  60.4334161  66.6444745  27.4395040
  36.1870975   6.1245083  12.8822205  36.8308430   6.5658248  13.2718363
  36.5127230   5.3198510  12.7952463  36.3302804   6.0710278  12.9267682
  40.8330350   1.3500446  20.9481876  40.9213696   1.1626587  21.7960086
  41.2620063   0.7037876  20.5486723  40.9092453   1.2263454  21.0153627
  38.4000810   0.6331606  19.9299538  37.8371645   0.2204216  20.4539199
  39.1621834   0.5584512  20.3492681  38.4295259   0.5609007  20.0692538
  40.9450410   0.7809465  23.6125659  41.7290826   0.8940313  23.9781402
  40.7447004  -0.0449397  23.8084345  41.0316435   0.6756185  23.6960046
  41.1020803   2.6919567  17.2592115  40.3036049   2.4519068  17.5165984
  41.5506814   2.7433960  18.0059163  41.0495414   2.6641959  17.4077039
  35.9249804   2.5217172  16.9360637  36.0739368   1.9620088  16.2834041
  36.7049806   2.6009174  17.3193155  36.0623898   2.4502738  16.8957586
  38.4503105   2.6931815  18.2145127  38.3746776   2.0240626  18.7695916
  38.3792964   3.3949603  18.7285794  38.4283712   2.6976722  18.3721976
  37.8394739   6.1000135  16.6723128  38.3290669   5.4010924  16.4898793
  37.2678971   5.8024005  17.2599186  37.8279269   5.9526358  16.7324169
  35.7165570  -1.0271852  18.5475600  35.6085925  -1.0169790  19.4137658
  35.9261351  -0.2017071  18.3580554  35.7315681  -0.9030777  18.6479692
  43.4928878   1.6750102  13.4429562  43.2948566   2.1640917  12.7485774
  42.8716589   1.8791344  14.0213696  43.3716442   1.7766641  13.4252786
  39.6731384  -1.3741962  18.1063254  39.1656475  -0.8206115  18.5503885
  39.3758030  -1.3133672  17.2882029  39.5536269  -1.2835651  18.0511711
  38.9173869   3.5582596  15.0120261  38.6939523   2.8001425  15.3804288
  38.4283712   3.5880617  14.2900701  38.8117318   3.4504821  14.9597002
  40.9317620   2.9373139  13.2180963  40.5333903   3.0475410  12.4501783
  40.3168840   3.1455206  13.8007522  40.7816509   2.9846707  13.1912262
  34.5306795   4.2192136  14.8670692  34.8453354   5.0328524  14.8748474
  34.9400209   3.8342355  15.5352851  34.6374893   4.2820838  14.9674784
  43.5708300   1.2463496  24.6166576  43.6805265   0.4572057  24.9723323
  43.8999196   1.1569432  23.8140914  43.6360705   1.1169349  24.5508967
  41.6863588   0.4331189  15.7311538  42.5061962   0.2894156  15.9927833
  41.4057665   1.0577388  16.2727976  41.7660331   0.5041542  15.8499477
  51.3576923   7.1771692  13.4507345  50.5014818   7.3380190  13.5016461
  51.4044577   6.3063756  13.4712406  51.2376034   7.0722494  13.4613411
  45.7418063  16.7134410   9.2144576  44.9900962  16.3349948   8.9860621
  46.1904074  16.7452844   8.4663386  45.6967729  16.6620017   9.0702078
  54.6670639  13.4458218  23.0567801  55.3737407  12.9510249  23.1854735
  54.8558575  13.8867299  22.3270459  54.7998545  13.4376568  22.9676846
  51.1943023  17.1359780   4.6430123  50.8594391  17.8136701   4.2074345
  51.7069893  16.7465091   4.0546995  51.2208604  17.1784358   4.4916915
  50.7347314  19.0874048  10.5841235  51.1186693  19.6560947  10.0446010
  50.6706455  18.3623559  10.1047051  50.7820741  19.0649512  10.4335097
  54.2028744   9.2363736  16.0938996  54.7484704   9.9148823  16.1532966
  54.1445620   9.0951197  15.2340578  54.2744658   9.3155738  15.9751057
  47.3202819  16.7252802  11.4807349  47.4213182  15.9153156  11.7904476
  46.7244564  16.6309749  10.8507027  47.2475357  16.5917830  11.4333587
  55.9793813  10.6648343   6.9672724  55.8633339  11.4156029   7.3964862
  56.7749699  10.4072297   7.2168811  56.0798402  10.7383190   7.0676816
  47.1603558  21.6430391  12.8822205  47.8041014  22.0843555  13.2718363
  47.4859814  20.8383818  12.7952463  47.3035387  21.5895586  12.9267682
  40.5167863  12.7473089  11.1059682  40.2818048  11.9140741  10.9991951
  40.6553504  13.0277754  10.2920883  40.5023526  12.6656592  10.9702037
  42.8157951   4.9158819  14.0043990  42.1962982   4.3251467  13.8354005
  42.7141814   5.5070255  13.3708313  42.7095626   4.9162902  13.8848979
  47.8624138  14.6542366   8.2542066  48.1839979  15.1947574   7.6503374
  48.5096235  14.0839138   8.3864356  48.0050193  14.6501541   8.1849102
  49.9125846   6.6558361   8.3376453  50.6106011   6.8346489   8.8297916
  50.2278179   6.1328701   7.7146842  50.0621183   6.6052133   8.3178463
  42.5427084   8.4611101  16.2487559  42.4185780   9.0473547  16.8837378
  43.1945368   7.9671297  16.5499834  42.6200733   8.4749906  16.3873488
  50.1013782  13.0428806   8.3256245  50.5407417  12.4345907   8.7711017
  49.9518444  12.6636180   7.5541710  50.1435247  12.8967277   8.2775412
  47.5685425  11.6372818  15.5275070  48.2134427  11.1445261  15.2086019
  47.8087202  11.7797605  16.3541148  47.6996010  11.5850260  15.6024603
  50.1071516  14.4827724  15.1781963  50.3894759  13.6879130  14.9568718
  50.8357676  14.9608311  15.1987024  50.2561080  14.4362321  15.1484978
  48.0852710   2.0250758  12.4197728  47.7556040   2.4761901  11.7501426
  47.4097712   1.9466921  12.9670734  47.9363146   2.0801893  12.4020951
  53.7023118  11.3955987   5.2787014  53.6174413  12.2516954   5.4236583
  54.1907501  11.1200312   5.9469173  53.7612015  11.4813309   5.3989095
  54.6341551   8.0140782   6.7784749  54.1053023   8.2300415   7.4382055
  55.1566571   8.7076920   6.6985718  54.6330004   8.1483919   6.8640348
  60.0889604  13.5887086  12.1517793  59.2587307  13.7997730  12.3151210
  60.0398857  12.7624141  11.8760077  59.9596340  13.4976692  12.1355159
  42.0785188  17.6258760  12.3815888  41.5952766  18.3509249  12.3575472
  42.8908506  17.9234890  12.4926046  42.1275936  17.7761113  12.3943168
  48.1499342  16.4190940  14.9865703  47.6326283  16.0598355  14.3827011
  48.8473733  15.8953115  14.9971769  48.1764923  16.2888628  14.8995962
  51.8062934  16.8685754  20.9481876  51.8946280  16.6811895  21.7960086
  52.2352646  16.2223184  20.5486723  51.8825036  16.7448762  21.0153627
  49.3733394  16.1516914  19.9299538  48.8104228  15.7389524  20.4539199
  50.1354417  16.0769820  20.3492681  49.4027842  16.0794315  20.0692538
  44.9329385  18.1414935  12.5336168  45.6349964  17.6266925  12.5908925
  44.8526868  18.4689087  13.3383043  45.0253145  18.1129162  12.6608960
  59.5843563   6.2357487  15.9468215  58.7471984   6.3059674  16.1815809
  59.5531793   6.2381982  15.0742517  59.4561845   6.2467714  15.8527763
  45.9808292   8.3790522  21.6616583  46.1528795   8.2696417  22.5101865
  46.5177649   9.0244928  21.4247776  46.0853296   8.4582524  21.7521680
  44.2580160  14.3321287  12.0421776  45.0969060  14.5644220  12.0895538
  44.2891930  13.4625599  11.9728812  44.3861878  14.2378234  12.0386421
  44.8832863  14.7522163  16.3435082  45.4231088  14.6093294  17.0138454
  44.2002810  15.1518913  16.7119108  44.8625017  14.7901834  16.4969504
  54.3073748  10.4313163  11.5380106  55.0631263  10.8644678  11.5769015
  54.4136073   9.7817933  12.1114742  54.4343919  10.3990647  11.6278132
  57.3453919  14.2586441  12.2882509  56.9089151  14.2623183  13.0441481
  57.0116835  14.9391940  11.8562087  57.2316539  14.3598896  12.3363342
  51.9182993  16.2994773  23.6125659  52.7023410  16.4125621  23.9781402
  51.7179588  15.4735910  23.8084345  52.0049018  16.1941493  23.6960046
  40.2870009  10.9722453  16.4969503  40.0208424  10.1561570  16.6560494
  40.3008573  11.0175609  15.6265019  40.2494731  10.8579358  16.3922985
  45.0368615   4.5100832  19.1436511  44.3440412   4.0397811  19.3897243
  45.6528942   4.2839136  19.7178218  45.0253145   4.4067964  19.2645664
  52.0753386  18.2104875  17.2592115  51.2768632  17.9704375  17.5165984
  52.5239398  18.2619268  18.0059163  52.0227998  18.1827267  17.4077039
  60.4798266  10.9767360  11.1802146  61.1414700  10.4158029  11.0798055
  59.8389678  10.4819391  11.5054838  60.4827133  10.8203769  11.2134487
  51.3675073  14.2737492   3.4883070  51.7826222  13.9422516   2.7967565
  50.5367003  14.0406394   3.3603206  51.3063082  14.1908748   3.3673917
  40.6963422  11.7581233  13.7781248  40.5138995  11.7328119  12.9253540
  41.4313091  12.2280171  13.8170156  40.7777486  11.8242595  13.6579166
  56.7663096  11.9932743  10.9214135  57.0018686  12.1377942  10.0940986
  56.9152660  12.7575151  11.3145649  56.8228900  12.1271797  10.8577739
  43.7609174   8.4766236  20.2863356  44.4849146   8.4619266  20.7728251
  43.8625310   9.1861591  19.7885324  43.8827383   8.5790939  20.2842143
  58.5953553  10.8334409   8.7583739  58.9261770  11.3662049   8.1523834
  59.1686641  10.8873297   9.4145690  58.7287232  10.9203978   8.7661521
  51.1354123  11.9565320  25.1512303  50.3427104  12.2708832  25.3364923
  51.2503050  12.1716789  24.3133088  51.0349534  12.0349157  25.0550638
  53.8085442   8.6799311   9.4407319  53.9032297   9.4188606   9.8946945
  53.1844286   8.2516787   9.8741884  53.7294472   8.7260632   9.5715467
  52.0637916  11.8585524  20.0897600  52.6376778  11.2212768  20.2446164
  51.9852720  11.8589607  19.2207258  52.1371151  11.7650636  19.9844011
  40.6634333   8.6374734  13.9280314  41.2407835   8.5011184  14.5672560
  39.9648394   8.1810518  14.1825899  40.6455354   8.5497000  14.0602604
  47.4201635  10.2908789  12.1418797  47.1620879   9.4580524  12.1150097
  47.4750118  10.5166402  11.3011298  47.3901413  10.2006560  12.0138934
  46.3936347   7.8446552  12.6283692  45.8185938   8.0038720  13.2647653
  46.0172023   7.2081961  12.1652143  46.2539159   7.7744365  12.6538251
  50.0609636   6.3169901  17.4876071  49.6724068   5.8924119  16.8328262
  49.3964334   6.5652051  17.9953097  49.9056563   6.2908622  17.4663939
  51.1648574  10.5468506   5.6852878  51.9789213  10.8383398   5.5735649
  51.1007715   9.8928368   5.1111171  51.2751313  10.4933700   5.5841715
  57.3858064  13.2294502  20.0982453  57.1496701  12.3982566  19.9794514
  58.0301293  13.1780109  20.6837297  57.4452735  13.0992190  20.1668347
  47.0356482  14.0190023  10.8125190  47.6730429  13.7801771  11.3576983
  47.4611554  14.2227182  10.0778350  47.1932648  14.0141033  10.7842347
  41.7269124  16.2578360  14.6959493  41.7673270  16.5293211  13.8679273
  42.2863648  16.7820268  15.1117281  41.8152470  16.3754115  14.6351382
  47.8427837   2.5198728  24.8662663  47.5281279   3.2898291  24.6032226
  47.5217770   1.9568984  24.2814890  47.7486757   2.5508997  24.7404013
  58.4094485  13.0138950  16.1610748  58.1040302  13.7467007  16.5224063
  57.6900700  12.6076880  15.8803534  58.2581827  13.0620683  16.1723885
  49.4177954  14.4962446  12.4918976  49.4916962  14.3337618  13.3460826
  50.2347460  14.6852635  12.2479458  49.5494313  14.4999188  12.5817002
  64.1096277   9.6531951  15.4879092  64.0420777   9.6727910  14.6181679
  64.0951939  10.4962278  15.7134762  64.0975033   9.7805686  15.3931569
  43.1783711  14.8420308   9.5213419  42.3521828  15.0882046   9.3947698
  43.2395702  14.7632389  10.3875477  43.0657878  14.8665257   9.6302364
  47.9582540  17.4597189   7.2232449  48.2480838  17.0686170   6.4991676
  48.6886021  17.6413894   7.6637725  48.1089424  17.4291002   7.1815256
  61.8954894   8.4276337  13.7625686  62.4462816   7.7944406  14.0022778
  61.8799009   8.9591730  14.4541191  61.9740090   8.4125285  13.9004545
  48.5477285  12.2614935  18.3085580  48.0488979  12.9730702  18.3870468
  49.3577509  12.5815601  18.2703742  48.5933392  12.4141783  18.3142148
  45.8988455  19.4364571  10.2892599  45.6788751  19.1461926  11.0819266
  45.6782977  18.7779526   9.7610511  45.8336049  19.2964279  10.3281508
  44.8105402  11.5237888  12.5548301  44.5218651  10.8975359  13.0894028
  45.6788751  11.4658175  12.6212981  44.8965654  11.4225432  12.6439255
  55.5983300   6.6672671  12.8730283  55.2548066   5.9463006  13.2237532
  55.6976343   6.4586522  12.0308641  55.5625343   6.5296874  12.8001963
  48.0656411  20.8093961   9.0723291  48.7180469  20.2770403   9.3014317
  47.3682020  20.4562613   9.4591165  48.0587129  20.6783484   9.1635459
  45.0137676  13.1633139   8.4790666  45.7683644  13.5446178   8.6926128
  44.4208289  13.6144282   8.9337362  45.0374389  13.2861966   8.5773544
  56.0596329  13.1298375   8.4154271  56.6254362  13.7891585   8.3312814
  55.4124233  13.4748073   8.8870673  56.0475086  13.2780316   8.4727027
  47.4744343   5.1195979  23.6047878  46.6644119   5.4253759  23.4937720
  47.9519030   5.8401561  23.7200462  47.4247822   5.2710580  23.6054949
  46.3335902  14.3341700  13.8530781  45.8116656  14.4741992  14.5382646
  46.7209923  13.5752364  14.0432898  46.3139603  14.2427224  13.9831858
  52.5302907  16.0737159   7.8391350  52.2889583  15.3405020   7.4318415
  52.7104240  16.6224016   7.1857683  52.5210531  16.0459550   7.6821573
  47.7602228  11.3645719   9.2512272  47.5645011  11.9720454   8.6572575
  47.9836574  10.6713663   8.7703946  47.7636869  11.3523245   9.0928353
  46.1580758   8.2500457   9.3693141  46.8803410   8.4141615   8.9096947
  45.6788751   8.9710122   9.2632480  46.1944489   8.3798687   9.2858755
  54.1174266   4.5864256  14.7489825  53.2785366   4.6125535  14.5128089
  54.1878633   5.2334991  15.3295172  54.0042659   4.6860382  14.7998942
  43.8088375  10.6558529  18.4747280  44.3209472  10.9342783  17.8256040
  43.5224717  11.3947823  18.8410093  43.8423238  10.8060883  18.4337158
  57.9931790   9.7932243  12.0351067  57.9065764   9.9487669  12.8885846
  57.5382269  10.4370318  11.6610472  57.9135046   9.9107998  12.1058174
  47.3272100   2.7484918  18.5348322  47.1355297   2.7640052  19.3847745
  48.1770696   2.9448592  18.5114977  47.4247822   2.7799269  18.6571617
  41.7119013   5.2775899  16.5132138  41.5704505   4.4259840  16.6376646
  41.9959577   5.3204560  15.6894344  41.7326859   5.1575649  16.4099763
  51.8657606   7.1142990  10.6576627  51.6192320   7.0338741  11.4913416
  52.1942729   6.3296457  10.4639154  51.8778849   6.9869255  10.7524150
  55.7605654  13.8226349  14.4463408  55.6220014  14.5207395  14.9512150
  54.9805652  13.6675005  14.0899590  55.6248881  13.9026516  14.4689682
  54.0983740  10.1222724  20.6985790  54.0931778   9.2502541  20.7028216
  54.8044733  10.3210893  20.2255245  54.2028744  10.0226599  20.6292825
  47.8254633   9.8499708  20.0699610  47.9698009  10.4300916  19.4342720
  48.1730281  10.2276005  20.7749464  47.8982094   9.9920412  20.0798605
  49.9974550   9.0489877  17.8524741  49.2497864   9.2420891  17.4473019
  50.1516075   8.2235096  17.6148863  49.9096978   8.9554988  17.7570147
  46.8982388  18.0402480  16.9360637  47.0471952  17.4805396  16.2834041
  47.6782390  18.1194482  17.3193155  47.0356481  17.9688046  16.8957586
  49.4235688  18.2117123  18.2145127  49.3479360  17.5425933  18.7695916
  49.3525548  18.9134911  18.7285794  49.4016295  18.2162030  18.3721976
  50.2376327   2.9440427  18.7420145  50.6948941   3.6764402  18.8692937
  50.3132656   2.5206893  19.5007401  50.3167297   2.9897665  18.8721222
  42.4809318   3.1906247  19.8309589  41.9451508   2.5786605  20.1470356
  42.5427083   3.7654383  20.4843255  42.4104951   3.1853175  19.9745016
  50.0805935  16.7318122   9.0468733  50.8455826  16.4627766   8.7251398
  49.9784025  16.2468132   9.7638796  50.1787431  16.6207686   9.1048561
  48.1158705   4.9342531  15.5861969  47.3254780   4.7533991  15.9079305
  48.5119328   4.1569484  15.5692264  48.0575581   4.7929992  15.6314517
  53.5002391  12.5684961  13.3121415  52.8247393  12.3370194  13.8134802
  53.5094768  11.9606144  12.6863520  53.4020896  12.4443887  13.2937567
  50.6296535   7.4102790  20.0685468  50.5655677   8.2712747  19.9405605
  50.7693723   7.0934784  19.2681019  50.6412005   7.4902957  19.9313681
  55.5019126  15.4250094   5.5431593  55.5838963  16.2317080   5.2193044
  55.9868868  15.4446053   6.2672367  55.5856284  15.5470756   5.6018492
  49.3115629  10.1034930  14.2101671  48.8877878  10.3039429  13.4740689
  49.1360484   9.2563778  14.3225971  49.2226510  10.0083711  14.1175361
  48.8127323  21.6185443  16.6723128  49.3023253  20.9196232  16.4898793
  48.2411555  21.3209313  17.2599186  48.8011853  21.4711666  16.7324169
  44.5998074  10.5986981   9.6429643  44.7562693  10.5333784  10.4985636
  44.9398667  11.3735534   9.4308323  44.6731309  10.7036179   9.7384238
  51.1377219   9.9744865   8.5123007  51.6792764   9.4715246   8.9761627
  51.4523778   9.9210059   7.7012492  51.2641616   9.8924286   8.4606819
  55.0094326  14.1847512  25.6249919  55.8229192  13.9132661  25.7855051
  54.8489293  13.8855052  24.8210115  55.1064275  14.1002438  25.5295325
  49.3063669  15.3662216   5.7963035  49.3756489  14.5076755   5.9356035
  50.0852124  15.5834097   5.4682059  49.4316519  15.2715080   5.7680192
  52.2866488   4.8681169  18.5645307  52.5008458   4.2292083  18.0108661
  51.6700387   5.3126993  18.1353169  52.2271818   4.8391313  18.4195738
  53.6971156  17.7899918  10.0099528  53.3050948  17.4866633   9.2922394
  53.8524228  18.6269007   9.8204482  53.6624746  17.8683754   9.8756025
  41.1732336   7.7821932   9.9590411  41.5531301   8.2006477   9.2950678
  40.5987701   8.3635387  10.2659254  41.1443661   7.9299790   9.9067152
  54.4505576   6.4770234  19.5028614  53.6382258   6.1696125  19.5841787
  54.9095511   5.9969235  20.0671326  54.3985961   6.3606727  19.5983208
  53.8610831  14.3549906   9.9505559  53.5025486  14.5264549  10.7269591
  53.3749542  14.8163112   9.3933557  53.7369528  14.4488877   9.9830828
  51.5459084   7.8830306  24.2857317  52.0158715   8.5072422  24.6725191
  51.5920964   7.2147281  24.8450531  51.6226960   7.8764986  24.4257388
  55.0215570  15.2453802  20.8972759  55.6595291  14.7513998  20.5635216
  54.3789662  15.1731203  20.3124986  55.0209797  15.1612811  20.7615114
  56.7472570   7.0942948  15.4638675  56.3200178   7.0069297  14.7086775
  56.1098623   7.2020724  16.0493519  56.5902178   7.0975608  15.4384117
  55.0769827  15.9373611  17.5378116  55.8662205  15.5862675  17.6580198
  55.2513425  16.7509999  17.2754750  55.2190109  16.0059468  17.5165984
  44.8163137   9.3482336  14.5905905  43.9751144   9.2486211  14.7984799
  45.0253145  10.1177817  14.9420226  44.7227830   9.4474380  14.6733220
  42.2938704   6.9701873  12.4190656  41.8995402   7.0444885  11.6440765
  41.7378821   7.3559820  12.9699017  42.1541517   7.0383648  12.3858316
  48.6279802   7.2763736  13.8403503  48.3242940   6.7219724  14.4413910
  47.9259223   7.4555946  13.3531537  48.4796012   7.2208518  13.8573208
  44.7071945  11.7426099  16.0097538  44.1159878  12.3835597  15.9800553
  45.4692969  12.1663716  15.9828837  44.7320206  11.9001937  16.0012685
  45.1032568   2.9028096  16.6765556  45.5634050   2.9767026  17.4140679
  45.1488675   3.7009350  16.3265377  45.1783123   3.0322243  16.7338312
  46.7515918   3.5694791  21.2437583  46.3601483   2.9228138  21.6793360
  46.9201780   4.1606227  21.8631838  46.7186828   3.5609059  21.4000289
  60.8262367  11.5731868  17.0074816  60.8845490  12.0218517  17.7534793
  60.1928834  11.9830681  16.5704896  60.7413662  11.7005603  17.0527365
  54.4661461  17.1935410  13.4429562  54.2681150  17.6826225  12.7485774
  53.8449172  17.3976652  14.0213696  54.3449026  17.2951948  13.4252786
  48.5269440   8.9620307   7.7839807  49.2711485   9.3494583   8.0222757
  48.6730136   8.1177732   7.9480294  48.6580025   8.8950780   7.8433776
  51.5147316   4.5345780  13.6833726  51.0407270   4.0087542  14.1939037
  51.8865451   3.9875253  13.1148588  51.4997205   4.3761777  13.6748873
  41.8920346   6.5317287  19.0517272  42.7545959   6.4312996  18.9654602
  41.5612129   5.9511996  18.4902844  41.9705542   6.4308914  18.9562678
  57.7784046   9.5948156  15.0940507  57.5382269   8.7554571  15.0982933
  58.2576053   9.6748323  15.8181280  57.8136230   9.4829556  15.2015309
  59.7789233   6.3749613  13.0469766  59.5399003   6.3345447  12.2090550
  59.9423134   7.2220765  13.1735487  59.7679537   6.4941698  12.9423248
  56.3835263  10.7599563  18.9774811  57.1069462  10.3072089  18.7985831
  56.1185226  11.0404228  18.1947139  56.4516537  10.7350531  18.8353526
  45.2522132   5.3559736  15.7127690  44.6275202   5.3678128  15.1053643
  44.9167727   5.8319911  16.3618930  45.1107624   5.4278253  15.7184259
  41.9647807  13.4160196  17.1531454  41.4347732  12.7252635  17.2026429
  42.2372901  13.4070382  16.3244163  41.9272530  13.3127328  17.0378870
  52.9967898  13.9985899   5.8769137  53.7202097  14.4644012   5.7333710
  52.5568489  14.0659508   5.1266734  53.0383590  14.0769735   5.7453918
  52.1654053  10.8583441  17.1269826  51.5511046  10.3141491  17.4218461
  52.6821338  10.3447677  16.6475642  52.1509715  10.7019850  17.0994054
  51.4050350  11.9287711  14.8614124  50.9777958  11.3037429  14.4279560
  51.3975294  11.6462633  15.6873132  51.3409491  11.7940491  14.9193952
  44.5212877   6.9652884  17.9302558  44.6806364   6.2096208  18.3354280
  44.3405771   7.5143823  18.5843296  44.5178236   6.9346698  18.0865264
  49.7336060   2.8056465  15.0756658  49.7578547   2.2716578  14.3869438
  49.9847533   2.2973774  15.7382249  49.7745978   2.6517369  15.0721303
  37.2443650  10.0887960  14.5099803  37.1387099  10.0434805  13.6451887
  36.4943870  10.4341741  14.7914087  37.1179252  10.1328868  14.4237132
  46.0137382   1.5327284  14.4562403  46.0535754   2.0336490  15.1697110
  45.1887047   1.6237677  14.1868326  45.8976908   1.6209100  14.5212941
  48.1966995  11.0988024  22.5582697  47.3462625  11.2359738  22.6940342
  48.3595123  10.3651802  23.0030399  48.0950858  11.0102125  22.6438297
  47.4351745   8.0487793  16.7536302  46.6043675   8.2161611  16.5471550
  47.3803263   7.6723744  17.5385187  47.3041160   8.0177525  16.8384830
  45.2435529   1.5396686  22.3892713  45.8688232   0.9958819  22.6622145
  44.7886009   1.0591604  21.8200503  45.2683789   1.3886168  22.3454306
  58.8170577   9.7225973  17.4805361  59.4088418  10.3623224  17.5123559
  59.2529572   9.0249010  17.7697427  58.9689009   9.7144324  17.5286193
  50.6463967  14.1443346  18.1063254  50.1389058  14.6979193  18.5503885
  50.3490613  14.2051636  17.2882029  50.5268852  14.2349657  18.0511711
  53.2571747  18.0606603   6.0367198  52.5401057  17.8867466   5.5714435
  53.9078485  17.8259176   5.5042684  53.2473598  18.0002396   5.8896416
  55.8419719   6.9371192   9.7808503  55.1710909   7.4800894   9.6521569
  56.5359469   7.4066047   9.5390198  55.8448586   7.0869463   9.7264031
  49.8906452  19.0767904  15.0120261  49.6672107  18.3186733  15.3804288
  49.4016296  19.1065925  14.2900701  49.7849901  18.9690129  14.9597002
  44.7031531   6.0234595  10.7481723  43.9843520   6.4398728  11.0154586
  45.0743893   6.5888834  10.1973361  44.6523463   6.1683877  10.7064530
  54.0031112   6.6562444  16.6383718  53.9829039   6.4745739  17.4918497
  54.0510313   7.5274463  16.6143302  54.0065753   6.7578982  16.7607013
  48.5384909  19.2968362  12.4657346  48.1245308  18.6342492  12.0761188
  49.2232284  19.4446221  11.9453040  48.5783281  19.2209020  12.3313843
  51.9050204  18.4558447  13.2180963  51.5066487  18.5660718  12.4501783
  51.2901423  18.6640514  13.8007522  51.7549093  18.5032015  13.1912262
  53.3535922   5.0212100   9.5156852  53.1249615   5.0444801   8.6735211
  53.6133998   4.1969567   9.6351863  53.3582110   4.9028180   9.4082050
  47.6355151   6.8746573  19.1181953  47.1234054   6.2667756  19.4766984
  47.4634647   7.5903165  19.5855928  47.5344788   6.8909872  19.2398176
  42.4820865   5.3184148  21.7684314  42.3123456   5.9785523  21.2232521
  42.0386815   5.5290709  22.4896804  42.3920199   5.4470130  21.7945944
  46.4080685   3.5588646  10.8111048  46.8838051   3.9205726  10.1761229
  45.9069284   4.2145114  11.0911191  46.4046044   3.7082835  10.7587789
  51.5124221   4.7970817  21.5584208  52.0695651   4.5684627  20.9262674
  51.1885286   5.5576483  21.2819421  51.5470631   4.8754654  21.4240705
  39.3822930   8.2231014  17.0272804  38.8349649   7.5531659  17.1453673
  40.1715308   7.8560862  17.0916272  39.4175113   8.0696000  17.0541505
  49.2307338   7.8838471  22.5236215  49.9818665   8.1990148  22.8375770
  49.4229915   7.6817642  21.6970137  49.3698752   7.9005852  22.4479611
  38.1409899   7.4351821  14.1818827  37.9631660   6.9828430  14.9073743
  37.8528921   8.2377983  14.3657305  38.0722852   7.4874379  14.3162330
  53.8033480   8.6909539  13.4196218  54.2987146   7.9732534  13.3800238
  52.9933256   8.3880336  13.3050705  53.7577374   8.5407185  13.3969943
  49.2492092  12.5407352   5.5693222  48.4403415  12.2174026   5.5226532
  49.7567001  11.8340574   5.5021471  49.2041759  12.3888668   5.5523517
  39.8782369   9.9679545  11.2940586  39.0127889   9.9565236  11.1823358
  39.9781185   9.7809768  12.1411726  39.7656536   9.9385606  11.4029531
  55.8685299  11.4413226  16.1073346  56.2940371  10.9187648  15.5543771
  55.5042219  12.0394064  15.5861969  55.8771902  11.4523453  15.9482356
  45.5039379  19.7377444  14.8670692  45.8185938  20.5513832  14.8748474
  45.9132792  19.3527662  15.5352851  45.6107477  19.8006146  14.9674784
  52.4563899  15.1547491  12.4374504  52.9275077  15.8687753  12.6064489
  52.7924077  14.5546241  12.9734373  52.5759014  15.1718955  12.5406880
  54.5440883  16.7648804  24.6166576  54.6537849  15.9757365  24.9723323
  54.8731780  16.6754740  23.8140914  54.6093289  16.6354657  24.5508967
  53.0937845  14.9465425  19.2002197  52.5458791  14.3223308  18.9322262
  53.5550874  15.1359697  18.4846276  53.0805054  14.8824475  19.0552628
  42.8452399  13.6850552  14.5149300  43.4497257  13.6446386  13.8863121
  42.6379712  14.5321704  14.5453356  42.9041296  13.8038555  14.4265417
  52.6596171  15.9516497  15.7311538  53.4794545  15.8079463  15.9927833
  52.3790249  16.5762696  16.2727976  52.7392915  16.0226849  15.8499477
  38.0803681  12.6685170  14.3848223  37.9827959  11.8581441  14.6938280
  38.8632551  12.6476963  13.9994492  38.1819818  12.5452260  14.3735086
  62.3309507  22.6957000  13.4507345  61.4747402  22.8565498  13.5016461
  62.3777160  21.8249064  13.4712406  62.2108618  22.5907802  13.4613411
  56.7150646  32.2319718   9.2144576  55.9633546  31.8535256   8.9860621
  57.1636658  32.2638152   8.4663386  56.6700313  32.1805325   9.0702078
  65.6403223  28.9643526  23.0567801  66.3469990  28.4695556  23.1854735
  65.8291158  29.4052607  22.3270459  65.7731129  28.9561876  22.9676846
  62.1675606  32.6545088   4.6430123  61.8326975  33.3322009   4.2074345
  62.6802477  32.2650399   4.0546995  62.1941187  32.6969666   4.4916915
  61.7079897  34.6059356  10.5841235  62.0919277  35.1746255  10.0446010
  61.6439039  33.8808867  10.1047051  61.7553325  34.5834820  10.4335097
  65.1761328  24.7549044  16.0938996  65.7217288  25.4334131  16.1532966
  65.1178204  24.6136505  15.2340578  65.2477242  24.8341046  15.9751057
  58.2935402  32.2438110  11.4807349  58.3945765  31.4338464  11.7904476
  57.6977148  32.1495057  10.8507027  58.2207941  32.1103138  11.4333587
  66.9526396  26.1833651   6.9672724  66.8365922  26.9341337   7.3964862
  67.7482283  25.9257604   7.2168811  67.0530986  26.2568498   7.0676816
  58.1336142  37.1615699  12.8822205  58.7773597  37.6028863  13.2718363
  58.4592398  36.3569126  12.7952463  58.2767971  37.1080894  12.9267682
  51.4900447  28.2658397  11.1059682  51.2550631  27.4326049  10.9991951
  51.6286087  28.5463062  10.2920883  51.4756109  28.1841900  10.9702037
  53.7890534  20.4344127  14.0043990  53.1695566  19.8436775  13.8354005
  53.6874398  21.0255563  13.3708313  53.6828210  20.4348210  13.8848979
  58.8356722  30.1727674   8.2542066  59.1572563  30.7132881   7.6503374
  59.4828818  29.6024446   8.3864356  58.9782777  30.1686849   8.1849102
  60.8858430  22.1743669   8.3376453  61.5838594  22.3531797   8.8297916
  61.2010762  21.6514008   7.7146842  61.0353767  22.1237441   8.3178463
  53.5159667  23.9796409  16.2487559  53.3918364  24.5658855  16.8837378
  54.1677952  23.4856605  16.5499834  53.5933316  23.9935213  16.3873488
  61.0746365  28.5614114   8.3256245  61.5140001  27.9531215   8.7711017
  60.9251028  28.1821487   7.5541710  61.1167831  28.4152585   8.2775412
  58.5418008  27.1558126  15.5275070  59.1867011  26.6630569  15.2086019
  58.7819785  27.2982913  16.3541148  58.6728593  27.1035568  15.6024603
  61.0804100  30.0013032  15.1781963  61.3627342  29.2064438  14.9568718
  61.8090260  30.4793619  15.1987024  61.2293663  29.9547629  15.1484978
  59.0585293  17.5436066  12.4197728  58.7288623  17.9947209  11.7501426
  58.3830295  17.4652229  12.9670734  58.9095730  17.5987201  12.4020951
  64.6755702  26.9141295   5.2787014  64.5906997  27.7702262   5.4236583
  65.1640085  26.6385620   5.9469173  64.7344599  26.9998617   5.3989095
  65.6074135  23.5326090   6.7784749  65.0785606  23.7485723   7.4382055
  66.1299155  24.2262228   6.6985718  65.6062588  23.6669227   6.8640348
  71.0622188  29.1072394  12.1517793  70.2319891  29.3183038  12.3151210
  71.0131440  28.2809449  11.8760077  70.9328923  29.0162000  12.1355159
  57.4973743  27.4289306   5.5792217  56.9130958  27.9339338   5.9858081
  57.0943838  27.2031693   4.8388809  57.3513047  27.4697555   5.5297242
  53.0517771  33.1444068  12.3815888  52.5685350  33.8694557  12.3575472
  53.8641090  33.4420198  12.4926046  53.1008519  33.2946421  12.3943168
  59.1231925  31.9376248  14.9865703  58.6058867  31.5783663  14.3827011
  59.8206317  31.4138423  14.9971769  59.1497507  31.8073936  14.8995962
  62.7795517  32.3871062  20.9481876  62.8678863  32.1997203  21.7960086
  63.2085230  31.7408492  20.5486723  62.8557620  32.2634070  21.0153627
  60.3465977  31.6702222  19.9299538  59.7836812  31.2574832  20.4539199
  61.1087001  31.5955128  20.3492681  60.3760426  31.5979623  20.0692538
  57.2641247  15.6048354   7.9020675  58.0187215  15.9726671   7.6637726
  57.0868782  15.9787909   8.6699855  57.3495726  15.7146542   7.9805564
  55.9061969  33.6600243  12.5336168  56.6082548  33.1452232  12.5908925
  55.8259452  33.9874395  13.3383043  55.9985729  33.6314470  12.6608960
  70.5576146  21.7542795  15.9468215  69.7204567  21.8244982  16.1815809
  70.5264377  21.7567290  15.0742517  70.4294429  21.7653022  15.8527763
  56.9540875  23.8975830  21.6616583  57.1261379  23.7881725  22.5101865
  57.4910233  24.5430236  21.4247776  57.0585879  23.9767832  21.7521680
  55.6198312  18.0118673   4.5998788  55.4373885  18.2290554   3.7739781
  56.4823925  18.1257686   4.6557403  55.7202902  18.0608571   4.4853275
  55.2312744  29.8506595  12.0421776  56.0701643  30.0829528  12.0895538
  55.2624513  28.9810907  11.9728812  55.3594462  29.7563542  12.0386421
  55.8565447  30.2707471  16.3435082  56.3963672  30.1278602  17.0138454
  55.1735393  30.6704221  16.7119108  55.8357601  30.3087142  16.4969504
  65.2806332  25.9498471  11.5380106  66.0363847  26.3829986  11.5769015
  65.3868656  25.3003241  12.1114742  65.4076503  25.9175955  11.6278132
  68.3186503  29.7771749  12.2882509  67.8821735  29.7808491  13.0441481
  67.9849419  30.4577247  11.8562087  68.2049123  29.8784204  12.3363342
  62.8915577  31.8180081  23.6125659  63.6755993  31.9310929  23.9781402
  62.6912171  30.9921218  23.8084345  62.9781602  31.7126801  23.6960046
  51.2602592  26.4907761  16.4969503  50.9941007  25.6746878  16.6560494
  51.2741156  26.5360917  15.6265019  51.2227314  26.3764666  16.3922985
  68.2383986  16.8185576  14.5311937  68.8809894  16.8883681  15.1173852
  68.4907007  16.1514799  14.0291479  68.3706118  16.7311925  14.5439216
  55.1660339  21.2892846   3.1121261  54.4518516  21.0031025   3.5243694
  55.6504308  21.6289472   3.7527649  55.1319702  21.2974495   3.2676896
  56.0101199  20.0286140  19.1436511  55.3172995  19.5583119  19.3897243
  56.6261526  19.8024444  19.7178218  55.9985728  19.9253272  19.2645664
  63.0485970  33.7290183  17.2592115  62.2501216  33.4889683  17.5165984
  63.4971982  33.7804576  18.0059163  62.9960581  33.7012575  17.4077039
  71.4530849  26.4952668  11.1802146  72.1147283  25.9343337  11.0798055
  70.8122261  26.0004699  11.5054838  71.4559717  26.3389077  11.2134487
  62.3407657  29.7922800   3.4883070  62.7558806  29.4607824   2.7967565
  61.5099587  29.5591702   3.3603206  62.2795666  29.7094056   3.3673917
  51.6696006  27.2766541  13.7781248  51.4871579  27.2513427  12.9253540
  52.4045675  27.7465479  13.8170156  51.7510070  27.3427903  13.6579166
  67.7395680  27.5118051  10.9214135  67.9751269  27.6563250  10.0940986
  67.8885244  28.2760459  11.3145649  67.7961483  27.6457105  10.8577739
  54.7341757  23.9951544  20.2863356  55.4581730  23.9804574  20.7728251
  54.8357894  24.7046899  19.7885324  54.8559967  24.0976247  20.2842143
  69.5686137  26.3519717   8.7583739  69.8994354  26.8847357   8.1523834
  70.1419225  26.4058604   9.4145690  69.7019816  26.4389286   8.7661521
  62.1086707  27.4750628  25.1512303  61.3159688  27.7894140  25.3364923
  62.2235634  27.6902097  24.3133088  62.0082117  27.5534465  25.0550638
  64.7818026  24.1984619   9.4407319  64.8764880  24.9373914   9.8946945
  64.1576869  23.7702095   9.8741884  64.7027056  24.2445940   9.5715467
  63.0370500  27.3770832  20.0897600  63.6109361  26.7398076  20.2446164
  62.9585303  27.3774914  19.2207258  63.1103735  27.2835943  19.9844011
  51.6366916  24.1560041  13.9280314  52.2140419  24.0196492  14.5672560
  50.9380978  23.6995826  14.1825899  51.6187938  24.0682308  14.0602604
  58.3934218  25.8094097  12.1418797  58.1353463  24.9765832  12.1150097
  58.4482701  26.0351710  11.3011298  58.3633996  25.7191868  12.0138934
  63.4735268  17.9122548  12.2422890  62.7691595  17.4231733  12.4006809
  63.5220243  17.9245022  11.3711335  63.3765320  17.8412196  12.1362230
  57.3668930  23.3631860  12.6283692  56.7918522  23.5224028  13.2647653
  56.9904607  22.7267269  12.1652143  57.2271743  23.2929673  12.6538251
  61.0342219  21.8355209  17.4876071  60.6456652  21.4109427  16.8328262
  60.3696917  22.0837359  17.9953097  60.8789147  21.8093930  17.4663939
  47.1125749  23.0071934  10.6428133  47.1986001  22.6303803  11.4241663
  47.7401547  22.6332380  10.1648091  47.2182300  22.8957417  10.6873610
  64.8568581  15.5329838  15.0000055  65.2379092  14.8508009  15.3867929
  64.0531865  15.2439440  14.8175719  64.7945042  15.3896886  15.0304111
  62.1381157  26.0653813   5.6852878  62.9521796  26.3568706   5.5735649
  62.0740299  25.4113676   5.1111171  62.2483896  26.0119008   5.5841715
  68.3590647  28.7479810  20.0982453  68.1229285  27.9167874  19.9794514
  69.0033876  28.6965417  20.6837297  68.4185318  28.6177498  20.1668347
  58.0089066  29.5375331  10.8125190  58.6463013  29.2987078  11.3576983
  58.4344137  29.7412490  10.0778350  58.1665232  29.5326341  10.7842347
  52.7001708  31.7763667  14.6959493  52.7405853  32.0478519  13.8679273
  53.2596232  32.3005576  15.1117281  52.7885054  31.8939423  14.6351382
  58.6491881  24.7577621   5.1500079  59.0337033  24.5385327   5.9016624
  58.4003501  25.5840566   5.2801155  58.6693953  24.8475767   5.2801155
  58.8160421  18.0384036  24.8662663  58.5013862  18.8083599  24.6032226
  58.4950354  17.4754292  24.2814890  58.7219340  18.0694305  24.7404013
  69.3827068  28.5324258  16.1610748  69.0772885  29.2652315  16.5224063
  68.6633284  28.1262188  15.8803534  69.2314410  28.5805991  16.1723885
  60.3910538  30.0147754  12.4918976  60.4649546  29.8522925  13.3460826
  61.2080044  30.2037943  12.2479458  60.5226896  30.0184496  12.5817002
  75.0828860  25.1717259  15.4879092  75.0153361  25.1913218  14.6181679
  75.0684523  26.0147586  15.7134762  75.0707617  25.2990994  15.3931569
  54.1516294  30.3605616   9.5213419  53.3254412  30.6067354   9.3947698
  54.2128285  30.2817697  10.3875477  54.0390461  30.3850565   9.6302364
  56.3692318  16.4274557  10.4808860  55.5014743  16.4997157  10.5466469
  56.6567522  17.2296636  10.6696835  56.2832066  16.5568704  10.5183626
  65.4925207  16.5752417  18.8120181  66.2378799  16.3862227  18.3983607
  65.0762511  17.1010655  18.2534038  65.5410181  16.6254562  18.6684755
  58.9315123  32.9782497   7.2232449  59.2213422  32.5871478   6.4991676
  59.6618604  33.1599202   7.6637725  59.0822007  32.9476310   7.1815256
  72.8687478  23.9461645  13.7625686  73.4195399  23.3129714  14.0022778
  72.8531593  24.4777038  14.4541191  72.9472674  23.9310593  13.9004545
  59.5209868  27.7800243  18.3085580  59.0221562  28.4916010  18.3870468
  60.3310093  28.1000909  18.2703742  59.5665975  27.9327091  18.3142148
  56.8721039  34.9549879  10.2892599  56.6521334  34.6647234  11.0819266
  56.6515561  34.2964834   9.7610511  56.8068633  34.8149587  10.3281508
  55.7837986  27.0423196  12.5548301  55.4951235  26.4160667  13.0894028
  56.6521334  26.9843483  12.6212981  55.8698238  26.9410740  12.6439255
  66.5715884  22.1857979  12.8730283  66.2280650  21.4648314  13.2237532
  66.6708926  21.9771830  12.0308641  66.5357927  22.0482182  12.8001963
  59.0388995  36.3279269   9.0723291  59.6913053  35.7955711   9.3014317
  58.3414603  35.9747921   9.4591165  59.0319713  36.1968792   9.1635459
  55.9870259  28.6818447   8.4790666  56.7416227  29.0631486   8.6926128
  55.3940872  29.1329590   8.9337362  56.0106973  28.8047274   8.5773544
  67.0328913  28.6483683   8.4154271  67.5986946  29.3076893   8.3312814
  66.3856816  28.9933381   8.8870673  67.0207669  28.7965624   8.4727027
  58.4476926  20.6381287  23.6047878  57.6376702  20.9439067  23.4937720
  58.9251613  21.3586869  23.7200462  58.3980405  20.7895888  23.6054949
  57.3068486  29.8527008  13.8530781  56.7849240  29.9927300  14.5382646
  57.6942506  29.0937672  14.0432898  57.2872187  29.7612532  13.9831858
  54.2959670  19.9032817   7.9225736  54.0084466  19.5334087   7.1857683
  54.9830138  20.3727672   7.6609441  54.3548567  19.9179786   7.7740812
  63.5035491  31.5922467   7.8391350  63.2622167  30.8590328   7.4318415
  63.6836824  32.1409324   7.1857683  63.4943115  31.5644858   7.6821573
  58.7334812  26.8831027   9.2512272  58.5377594  27.4905762   8.6572575
  58.9569157  26.1898971   8.7703946  58.7369453  26.8708552   9.0928353
  57.1313342  23.7685765   9.3693141  57.8535994  23.9326923   8.9096947
  56.6521334  24.4895430   9.2632480  57.1677072  23.8983994   9.2858755
  65.0906849  20.1049564  14.7489825  64.2517950  20.1310843  14.5128089
  65.1611217  20.7520299  15.3295172  64.9775243  20.2045690  14.7998942
  54.7820958  26.1743837  18.4747280  55.2942055  26.4528091  17.8256040
  54.4957301  26.9133131  18.8410093  54.8155822  26.3246191  18.4337158
  68.9664373  25.3117550  12.0351067  68.8798348  25.4672977  12.8885846
  68.5114853  25.9555626  11.6610472  68.8867630  25.4293306  12.1058174
  51.8687865  20.6814029   8.7711017  51.9704001  21.4840191   9.0991992
  52.6643751  20.4801365   8.4734097  52.0015770  20.7699928   8.7746372
  58.3004684  18.2670226  18.5348322  58.1087881  18.2825360  19.3847745
  59.1503280  18.4633900  18.5114977  58.3980406  18.2984577  18.6571617
  52.6851597  20.7961207  16.5132138  52.5437089  19.9445148  16.6376646
  52.9692160  20.8389868  15.6894344  52.7059443  20.6760957  16.4099763
  62.8390189  22.6328298  10.6576627  62.5924903  22.5524048  11.4913416
  63.1675312  21.8481765  10.4639154  62.8511433  22.5054563  10.7524150
  66.7338238  29.3411657  14.4463408  66.5952597  30.0392703  14.9512150
  65.9538236  29.1860313  14.0899590  66.5981465  29.4211824  14.4689682
  65.0716323  25.6408032  20.6985790  65.0664362  24.7687849  20.7028216
  65.7777317  25.8396201  20.2255245  65.1761327  25.5411906  20.6292825
  58.7987216  25.3685016  20.0699610  58.9430592  25.9486224  19.4342720
  59.1462865  25.7461313  20.7749464  58.8714678  25.5105720  20.0798605
  60.9707134  24.5675185  17.8524741  60.2230448  24.7606199  17.4473019
  61.1248659  23.7420404  17.6148863  60.8829561  24.4740296  17.7570147
  57.8714971  33.5587788  16.9360637  58.0204535  32.9990704  16.2834041
  58.6514973  33.6379790  17.3193155  58.0089065  33.4873353  16.8957586
  60.3968272  33.7302431  18.2145127  60.3211943  33.0611241  18.7695916
  60.3258131  34.4320219  18.7285794  60.3748879  33.7347338  18.3721976
  61.2108911  18.4625735  18.7420145  61.6681525  19.1949710  18.8692937
  61.2865240  18.0392201  19.5007401  61.2899881  18.5082973  18.8721222
  53.4541902  18.7091555  19.8309589  52.9184091  18.0971913  20.1470356
  53.5159667  19.2839691  20.4843255  53.3837535  18.7038483  19.9745016
  61.0538519  32.2503430   9.0468733  61.8188410  31.9813073   8.7251398
  60.9516609  31.7653440   9.7638796  61.1520014  32.1392994   9.1048561
  59.0891289  20.4527839  15.5861969  58.2987363  20.2719299  15.9079305
  59.4851912  19.6754792  15.5692264  59.0308165  20.3115300  15.6314517
  64.4734975  28.0870269  13.3121415  63.7979977  27.8555502  13.8134802
  64.4827351  27.4791452  12.6863520  64.3753480  27.9629195  13.2937567
  61.6029119  22.9288098  20.0685468  61.5388260  23.7898055  19.9405605
  61.7426307  22.6120092  19.2681019  61.6144589  23.0088265  19.9313681
  66.4751710  30.9435402   5.5431593  66.5571547  31.7502388   5.2193044
  66.9601452  30.9631361   6.2672367  66.5588867  31.0656064   5.6018492
  60.2848213  25.6220238  14.2101671  59.8610462  25.8224737  13.4740689
  60.1093068  24.7749086  14.3225971  60.1959093  25.5269019  14.1175361
  59.7859906  37.1370751  16.6723128  60.2755837  36.4381540  16.4898793
  59.2144139  36.8394621  17.2599186  59.7744436  36.9896974  16.7324169
  55.5730658  26.1172289   9.6429643  55.7295277  26.0519092  10.4985636
  55.9131251  26.8920842   9.4308323  55.6463893  26.2221487   9.7384238
  62.1109802  25.4930173   8.5123007  62.6525348  24.9900554   8.9761627
  62.4256361  25.4395367   7.7012492  62.2374200  25.4109594   8.4606819
  65.9826910  29.7032820  25.6249919  66.7961775  29.4317969  25.7855051
  65.8221876  29.4040360  24.8210115  66.0796858  29.6187746  25.5295325
  60.2796252  30.8847524   5.7963035  60.3489072  30.0262063   5.9356035
  61.0584707  31.1019405   5.4682059  60.4049102  30.7900388   5.7680192
  63.2599072  20.3866477  18.5645307  63.4741041  19.7477391  18.0108661
  62.6432971  20.8312301  18.1353169  63.2004401  20.3576621  18.4195738
  64.6703740  33.3085225  10.0099528  64.2783531  33.0051941   9.2922394
  64.8256812  34.1454315   9.8204482  64.6357330  33.3869062   9.8756025
  52.1464919  23.3007240   9.9590411  52.5263884  23.7191784   9.2950678
  51.5720284  23.8820695  10.2659254  52.1176244  23.4485098   9.9067152
  65.4238160  21.9955542  19.5028614  64.6114842  21.6881433  19.5841787
  65.8828094  21.5154542  20.0671326  65.3718545  21.8792035  19.5983208
  64.8343415  29.8735214   9.9505559  64.4758069  30.0449857  10.7269591
  64.3482125  30.3348420   9.3933557  64.7102111  29.9674185   9.9830828
  62.6513800  13.4966413  13.5532650  61.7807358  13.4705134  13.5065959
  62.9054142  13.3243605  12.7358496  62.5607361  13.4676557  13.4252787
  59.6231780  25.5534380   2.4905793  59.9124305  26.3299262   2.7649367
  59.7103579  25.0423111   3.1920292  59.6786036  25.5926298   2.6348291
  62.5191667  23.4015614  24.2857317  62.9891299  24.0257730  24.6725191
  62.5653548  22.7332589  24.8450531  62.5959543  23.3950294  24.4257388
  59.6762941  15.5072641  15.0106120  59.1601430  14.8152833  15.1357699
  59.1156870  16.1743418  14.9568719  59.5169454  15.5035899  15.0212186
  61.7455174  16.0465601  16.8398973  61.3586928  16.0714633  17.6212503
  61.2588112  15.4807280  16.3873490  61.6167683  15.9661352  16.8886877
  65.9948154  30.7639110  20.8972759  66.6327874  30.2699306  20.5635216
  65.3522245  30.6916511  20.3124986  65.9942380  30.6798119  20.7615114
  67.7205154  22.6128256  15.4638675  67.2932762  22.5254605  14.7086775
  67.0831207  22.7206032  16.0493519  67.5634761  22.6160916  15.4384117
  61.4112316  12.9332587  19.1309233  62.0405434  13.4692887  18.8530303
  61.5798179  12.8409946  19.9822798  61.5290111  12.9993949  19.2157761
  61.2126231  17.7203781  21.4035644  62.0399660  17.4488930  21.4594259
  61.2334077  18.5164623  21.7599463  61.3379081  17.7983536  21.4650827
  66.0502410  31.4558919  17.5378116  66.8394789  31.1047983  17.6580198
  66.2246008  32.2695307  17.2754750  66.1922692  31.5244776  17.5165984
  55.7895721  24.8667644  14.5905905  54.9483727  24.7671518  14.7984799
  55.9985729  25.6363125  14.9420226  55.6960413  24.9659688  14.6733220
  53.2671288  22.4887181  12.4190656  52.8727986  22.5630193  11.6440765
  52.7111405  22.8745128  12.9699017  53.1274100  22.5568956  12.3858316
  64.9036235  15.4668475  12.0994535  65.1085828  15.3990783  12.9451532
  64.5762659  16.2727296  12.0315712  64.8851483  15.5754416  12.2154190
  59.6012386  22.7949043  13.8403503  59.2975523  22.2405032  14.4413910
  58.8991807  22.9741253  13.3531537  59.4528596  22.7393826  13.8573208
  58.6578483  20.1049563   8.4048204  58.9338217  19.3868476   7.9925772
  59.2577152  20.7034483   8.1969311  58.7871747  20.0869934   8.3128966
  57.6630737  30.0098764  18.5475600  57.5551092  30.0200826  19.4137658
  57.8726518  30.8353545  18.3580554  57.6780848  30.1339839  18.6479692
  55.6804529  27.2611407  16.0097538  55.0892462  27.9020905  15.9800553
  56.4425552  27.6849024  15.9828837  55.7052789  27.4187245  16.0012685
  56.0765152  18.4213404  16.6765556  56.5366633  18.4952334  17.4140679
  56.1221258  19.2194658  16.3265377  56.1515707  18.5507551  16.7338312
  57.7248501  19.0880099  21.2437583  57.3334066  18.4413446  21.6793360
  57.8934364  19.6791534  21.8631838  57.6919412  19.0794367  21.4000289
  71.7994950  27.0917176  17.0074816  71.8578074  27.5403825  17.7534793
  71.1661418  27.5015989  16.5704896  71.7146245  27.2190911  17.0527365
  65.4394045  32.7120718  13.4429562  65.2413734  33.2011533  12.7485774
  64.8181756  32.9161960  14.0213696  65.3181609  32.8137256  13.4252786
  59.5002023  24.4805615   7.7839807  60.2444068  24.8679891   8.0222757
  59.6462720  23.6363040   7.9480294  59.6312608  24.4136088   7.8433776
  61.4181599  16.2755874  12.8171668  60.5717644  16.4478682  12.6913018
  61.4152731  15.4705218  13.1537496  61.2928749  16.1816903  12.8482795
  62.4879899  20.0531088  13.6833726  62.0139853  19.5272850  14.1939037
  62.8598035  19.5060561  13.1148588  62.4729788  19.8947085  13.6748873
  52.8652929  22.0502595  19.0517272  53.7278542  21.9498304  18.9654602
  52.5344712  21.4697304  18.4902844  52.9438126  21.9494222  18.9562678
  68.7516630  25.1133464  15.0940507  68.5114853  24.2739879  15.0982933
  69.2308637  25.1933631  15.8181280  68.7868813  25.0014864  15.2015309
  70.7521817  21.8934921  13.0469766  70.5131587  21.8530755  12.2090550
  70.9155718  22.7406073  13.1735487  70.7412120  22.0127006  12.9423248
  67.3567847  26.2784870  18.9774811  68.0802046  25.8257397  18.7985831
  67.0917809  26.5589536  18.1947139  67.4249120  26.2535839  18.8353526
  56.2254715  20.8745044  15.7127690  55.6007785  20.8863436  15.1053643
  55.8900310  21.3505219  16.3618930  56.0840207  20.9463561  15.7184259
  56.4096464  19.2170163   1.7700375  56.0609268  19.8689888   2.2331924
  55.9292910  19.2027276   1.0424246  56.2866708  19.3113216   1.7311466
  52.9380391  28.9345504  17.1531454  52.4080315  28.2437943  17.2026429
  53.2105484  28.9255689  16.3244163  52.9005113  28.8312636  17.0378870
  63.9700481  29.5171206   5.8769137  64.6934680  29.9829319   5.7333710
  63.5301072  29.5844816   5.1266734  64.0116174  29.5955043   5.7453918
  63.1386636  26.3768749  17.1269826  62.5243630  25.8326799  17.4218461
  63.6553921  25.8632985  16.6475642  63.1242299  26.2205158  17.0994054
  62.3782934  27.4473019  14.8614124  61.9510542  26.8222737  14.4279560
  62.3707878  27.1647941  15.6873132  62.3142075  27.3125799  14.9193952
  55.4945461  22.4838192  17.9302558  55.6538947  21.7281516  18.3354280
  55.3138354  23.0329131  18.5843296  55.4910820  22.4532006  18.0865264
  63.4365764  14.6499427  18.4853348  62.9406325  14.8463102  17.7944915
  64.1934826  15.0492096  18.3142150  63.4752588  14.7377161  18.3573485
  60.7068643  18.3241773  15.0756658  60.7311130  17.7901886  14.3869438
  60.9580117  17.8159082  15.7382249  60.7478562  18.1702677  15.0721303
  48.2176233  25.6073268  14.5099803  48.1119682  25.5620113  13.6451887
  47.4676453  25.9527049  14.7914087  48.0911836  25.6514176  14.4237132
  56.9869966  17.0512592  14.4562403  57.0268337  17.5521798  15.1697110
  56.1619630  17.1422985  14.1868326  56.8709491  17.1394408  14.5212941
  59.1699578  26.6173332  22.5582697  58.3195209  26.7545046  22.6940342
  59.3327706  25.8837110  23.0030399  59.0683442  26.5287433  22.6438297
  58.4084329  23.5673101  16.7536302  57.5776259  23.7346919  16.5471550
  58.3535846  23.1909052  17.5385187  58.2773744  23.5362833  16.8384830
  56.2168112  17.0581994  22.3892713  56.8420816  16.5144127  22.6622145
  55.7618592  16.5776912  21.8200503  56.2416373  16.9071476  22.3454306
  56.7820373  21.8428693   7.2826420  56.9223334  22.3401157   7.9855061
  57.2802906  21.1414987   7.4240633  56.8761454  21.8130672   7.4077999
  56.8120595  22.7095804   4.6118996  57.4465675  23.3056229   4.5468458
  56.8946206  22.4099262   5.4264866  56.9177146  22.7536712   4.7222083
  69.7903161  25.2411281  17.4805361  70.3821001  25.8808532  17.5123559
  70.2262155  24.5434318  17.7697427  69.9421592  25.2329632  17.5286193
  58.3899578  18.6409779   4.5864438  58.7115419  18.1612862   3.9323701
  58.6526522  19.4509425   4.3955250  58.4765603  18.6899677   4.4619930
  61.6196551  29.6628654  18.1063254  61.1121642  30.2164501  18.5503885
  61.3223197  29.7236944  17.2882029  61.5001436  29.7534965  18.0511711
  63.7858733  18.0281973  16.9487917  64.2113805  17.5754500  16.3371444
  63.1715726  17.4742044  17.2252705  63.7587378  17.8795950  16.8992943
  53.3173583  24.9063645   7.8808542  53.8265812  25.5028152   8.2619848
  53.7907855  24.6389618   7.1984962  53.4616959  24.9549460   7.8363065
  64.2304331  33.5791911   6.0367198  63.5133641  33.4052774   5.5714435
  64.8811069  33.3444484   5.5042684  64.2206182  33.5187704   5.8896416
  62.2252956  14.4997073  10.3578494  61.5821274  14.3494719  10.9263633
  61.8852363  14.2539418   9.5927599  62.0798033  14.4409196  10.3281510
  66.8152302  22.4556500   9.7808503  66.1443492  22.9986202   9.6521569
  67.5092053  22.9251355   9.5390198  66.8181170  22.6054771   9.7264031
  60.8639036  34.5953212  15.0120261  60.6404690  33.8372041  15.3804288
  60.3748879  34.6251233  14.2900701  60.7582485  34.4875436  14.9597002
  66.9780430  18.9112384  12.6898876  67.3308040  18.4842106  13.3644675
  66.1195231  18.8263227  12.8199953  66.9029874  18.8357124  12.8093887
  55.6764115  21.5419903  10.7481723  54.9576104  21.9584036  11.0154586
  56.0476477  22.1074142  10.1973361  55.6256047  21.6869185  10.7064530
  64.9763696  22.1747752  16.6383718  64.9561623  21.9931047  17.4918497
  65.0242896  23.0459771  16.6143302  64.9798337  22.2764290  16.7607013
  62.9210025  28.7634944  22.5632195  62.8805880  28.1184621  21.9777351
  63.7333344  28.7071562  22.8757607  63.0353179  28.6593911  22.5229144
  59.5117493  34.8153670  12.4657346  59.0977892  34.1527800  12.0761188
  60.1964867  34.9631529  11.9453040  59.5515865  34.7394328  12.3313843
  62.8782787  33.9743755  13.2180963  62.4799070  34.0846026  12.4501783
  62.2634007  34.1825822  13.8007522  62.7281676  34.0217323  13.1912262
  61.4510689  20.5817903   6.0855102  60.8575528  20.9034900   5.5339669
  61.4885967  19.7358999   5.8776208  61.3685078  20.5042231   5.9737874
  64.3268506  20.5397408   9.5156852  64.0982199  20.5630109   8.6735211
  64.5866582  19.7154875   9.6351863  64.3314694  20.4213488   9.4082050
  58.6087734  22.3931881  19.1181953  58.0966637  21.7853064  19.4766984
  58.4367230  23.1088473  19.5855928  58.5077371  22.4095180  19.2398176
  53.4553449  20.8369456  21.7684314  53.2856039  21.4970831  21.2232521
  53.0119399  21.0476017  22.4896804  53.3652782  20.9655438  21.7945944
  57.3813268  19.0773954  10.8111048  57.8570634  19.4391034  10.1761229
  56.8801868  19.7330422  11.0911191  57.3778627  19.2268143  10.7587789
  62.4856804  20.3156125  21.5584208  63.0428235  20.0869935  20.9262674
  62.1617869  21.0761791  21.2819421  62.5203215  20.3939962  21.4240705
  50.3555513  23.7416322  17.0272804  49.8082233  23.0716967  17.1453673
  51.1447892  23.3746169  17.0916272  50.3907697  23.5881308  17.0541505
  60.2039922  23.4023779  22.5236215  60.9551249  23.7175455  22.8375770
  60.3962498  23.2002950  21.6970137  60.3431336  23.4191160  22.4479611
  67.0525212  19.5297345   9.7660011  67.0519438  19.3746001  10.6244287
  66.8481392  20.3760332   9.7101396  67.0224990  19.6317966   9.8847950
  49.1142483  22.9537129  14.1818827  48.9364244  22.5013738  14.9073743
  48.8261505  23.7563291  14.3657305  49.0455436  23.0059687  14.3162330
  64.7766064  24.2094847  13.4196218  65.2719729  23.4917842  13.3800238
  63.9665840  23.9065644  13.3050705  64.7309957  24.0592493  13.3969943
  60.2224675  28.0592660   5.5693222  59.4135998  27.7359334   5.5226532
  60.7299584  27.3525882   5.5021471  60.1774342  27.9073976   5.5523517
  50.8514953  25.4864853  11.2940586  49.9860472  25.4750544  11.1823358
  50.9513769  25.2995076  12.1411726  50.7389120  25.4570914  11.4029531
  66.8417883  26.9598534  16.1073346  67.2672954  26.4372956  15.5543771
  66.4774803  27.5579372  15.5861969  66.8504485  26.9708761  15.9482356
  56.4771963  35.2562752  14.8670692  56.7918522  36.0699140  14.8748474
  56.8865376  34.8712970  15.5352851  56.5840061  35.3191454  14.9674784
  63.4296482  30.6732798  12.4374504  63.9007660  31.3873061  12.6064489
  63.7656661  30.0731549  12.9734373  63.5491597  30.6904263  12.5406880
  65.5173467  32.2834112  24.6166576  65.6270432  31.4942672  24.9723323
  65.8464363  32.1940048  23.8140914  65.5825873  32.1539965  24.5508967
  60.3465977  15.4460269  19.3932599  60.4793883  14.6491262  19.7213574
  60.7311130  15.9726672  19.9730874  60.4222306  15.4060186  19.5276102
  64.0670429  30.4650733  19.2002197  63.5191375  29.8408616  18.9322262
  64.5283457  30.6545005  18.4846276  64.0537638  30.4009783  19.0552628
  63.4198332  12.3690595  15.9913692  62.6144296  12.2588325  16.3081530
  63.2905068  12.4703051  15.1343558  63.2818465  12.3674265  15.9121732
  66.8764293  18.5336087  16.5853389  66.2927282  19.0345294  16.1730956
  67.1968587  18.0265643  15.9517712  66.8377468  18.5327922  16.4311896
  59.4159092  17.4476682   6.8612064  60.2374786  17.6174995   6.6193759
  58.9528743  17.6023943   6.1378361  59.4690254  17.4958415   6.7183708
  58.0054424  15.4419444  17.6410492  58.5498837  15.1010571  18.2314834
  58.0591360  16.3004906  17.7831777  58.0943543  15.5174703  17.7492366
  53.8184983  29.2035860  14.5149300  54.4229840  29.1631694  13.8863121
  53.6112295  30.0507012  14.5453356  53.8773880  29.3223863  14.4265417
  63.6328755  31.4701805  15.7311538  64.4527129  31.3264771  15.9927833
  63.3522833  32.0948004  16.2727976  63.7125498  31.5412157  15.8499477
  49.0536265  28.1870478  14.3848223  48.9560543  27.3766749  14.6938280
  49.8365135  28.1662271  13.9994492  49.1552401  28.0637568  14.3735086
  73.3042090  38.2142308  13.4507345  72.4479986  38.3750806  13.5016461
  73.3509744  37.3434372  13.4712406  73.1841202  38.1093110  13.4613411
  67.6883230  47.7505026   9.2144576  66.9366129  47.3720564   8.9860621
  68.1369241  47.7823460   8.4663386  67.6432897  47.6990633   9.0702078
  76.6135807  44.4828834  23.0567801  77.3202574  43.9880864  23.1854735
  76.8023742  44.9237915  22.3270459  76.7463712  44.4747184  22.9676846
  76.1493911  40.2734352  16.0938996  76.6949871  40.9519439  16.1532966
  76.0910787  40.1321813  15.2340578  76.2209825  40.3526354  15.9751057
  69.2667986  47.7623418  11.4807349  69.3678349  46.9523772  11.7904476
  68.6709731  47.6680364  10.8507027  69.1940525  47.6288446  11.4333587
  69.1068726  52.6801007  12.8822205  69.7506181  53.1214171  13.2718363
  69.4324981  51.8754433  12.7952463  69.2500554  52.6266202  12.9267682
  62.4633030  43.7843705  11.1059682  62.2283215  42.9511357  10.9991951
  62.6018671  44.0648370  10.2920883  62.4488693  43.7027208  10.9702037
  64.7623118  35.9529435  14.0043990  64.1428149  35.3622082  13.8354005
  64.6606981  36.5440870  13.3708313  64.6560793  35.9533518  13.8848979
  71.8591013  37.6928977   8.3376453  72.5571178  37.8717105   8.8297916
  72.1743346  37.1699316   7.7146842  72.0086351  37.6422749   8.3178463
  64.4892251  39.4981717  16.2487559  64.3650948  40.0844162  16.8837378
  65.1410535  39.0041913  16.5499834  64.5665900  39.5120521  16.3873488
  72.0478949  44.0799422   8.3256245  72.4872584  43.4716523   8.7711017
  71.8983612  43.7006795   7.5541710  72.0900414  43.9337893   8.2775412
  69.5150592  42.6743434  15.5275070  70.1599594  42.1815877  15.2086019
  69.7552369  42.8168221  16.3541148  69.6461177  42.6220876  15.6024603
  72.0536683  45.5198340  15.1781963  72.3359926  44.7249746  14.9568718
  72.7822843  45.9978927  15.1987024  72.2026247  45.4732937  15.1484978
  70.0317877  33.0621374  12.4197728  69.7021207  33.5132517  11.7501426
  69.3562879  32.9837537  12.9670734  69.8828313  33.1172509  12.4020951
  64.0250355  48.6629375  12.3815888  63.5417933  49.3879865  12.3575472
  64.8373673  48.9605505  12.4926046  64.0741103  48.8131729  12.3943168
  70.0964509  47.4561556  14.9865703  69.5791451  47.0968971  14.3827011
  70.7938900  46.9323731  14.9971769  70.1230090  47.3259244  14.8995962
  73.7528101  47.9056370  20.9481876  73.8411447  47.7182511  21.7960086
  74.1817814  47.2593800  20.5486723  73.8290203  47.7819378  21.0153627
  71.3198561  47.1887530  19.9299538  70.7569396  46.7760140  20.4539199
  72.0819584  47.1140436  20.3492681  71.3493009  47.1164931  20.0692538
  68.2373831  31.1233662   7.9020675  68.9919799  31.4911979   7.6637726
  68.0601366  31.4973216   8.6699855  68.3228309  31.2331850   7.9805564
  66.8794552  49.1785551  12.5336168  67.5815131  48.6637540  12.5908925
  66.7992035  49.5059703  13.3383043  66.9718313  49.1499778  12.6608960
  67.9273459  39.4161138  21.6616583  68.0993962  39.3067033  22.5101865
  68.4642816  40.0615544  21.4247776  68.0318463  39.4953140  21.7521680
  66.5930896  33.5303981   4.5998788  66.4106469  33.7475862   3.7739781
  67.4556509  33.6442994   4.6557403  66.6935485  33.5793879   4.4853275
  66.2045328  45.3691903  12.0421776  67.0434227  45.6014836  12.0895538
  66.2357097  44.4996215  11.9728812  66.3327045  45.2748850  12.0386421
  66.8298031  45.7892779  16.3435082  67.3696256  45.6463910  17.0138454
  66.1467977  46.1889529  16.7119108  66.8090185  45.8272449  16.4969504
  76.2538916  41.4683779  11.5380106  77.0096431  41.9015294  11.5769015
  76.3601240  40.8188549  12.1114742  76.3809086  41.4361263  11.6278132
  73.8648160  47.3365389  23.6125659  74.6488577  47.4496237  23.9781402
  73.6644755  46.5106526  23.8084345  73.9514186  47.2312109  23.6960046
  62.2335176  42.0093069  16.4969503  61.9673591  41.1932186  16.6560494
  62.2473740  42.0546225  15.6265019  62.1959898  41.8949974  16.3922985
  66.1392923  36.8078154   3.1121261  65.4251100  36.5216333   3.5243694
  66.6236891  37.1474780   3.7527649  66.1052286  36.8159803   3.2676896
  66.9833782  35.5471448  19.1436511  66.2905579  35.0768427  19.3897243
  67.5994109  35.3209752  19.7178218  66.9718312  35.4438579  19.2645664
  74.0218554  49.2475491  17.2592115  73.2233799  49.0074991  17.5165984
  74.4704565  49.2989884  18.0059163  73.9693165  49.2197882  17.4077039
  62.6428589  42.7951849  13.7781248  62.4604163  42.7698735  12.9253540
  63.3778258  43.2650787  13.8170156  62.7242653  42.8613211  13.6579166
  65.7074341  39.5136852  20.2863356  66.4314313  39.4989882  20.7728251
  65.8090478  40.2232207  19.7885324  65.8292550  39.6161555  20.2842143
  73.0819290  42.9935936  25.1512303  72.2892271  43.3079448  25.3364923
  73.1968218  43.2087405  24.3133088  72.9814701  43.0719773  25.0550638
  75.7550609  39.7169927   9.4407319  75.8497464  40.4559221   9.8946945
  75.1309453  39.2887403   9.8741884  75.6759640  39.7631248   9.5715467
  74.0103083  42.8956140  20.0897600  74.5841945  42.2583384  20.2446164
  73.9317887  42.8960222  19.2207258  74.0836318  42.8021251  19.9844011
  62.6099500  39.6745349  13.9280314  63.1873002  39.5381800  14.5672560
  61.9113561  39.2181134  14.1825899  62.5920521  39.5867616  14.0602604
  69.3666802  41.3279405  12.1418797  69.1086046  40.4951140  12.1150097
  69.4215285  41.5537018  11.3011298  69.3366580  41.2377176  12.0138934
  74.4467852  33.4307856  12.2422890  73.7424179  32.9417041  12.4006809
  74.4952826  33.4430330  11.3711335  74.3497904  33.3597504  12.1362230
  68.3401514  38.8817168  12.6283692  67.7651105  39.0409336  13.2647653
  67.9637190  38.2452577  12.1652143  68.2004326  38.8114980  12.6538251
  72.0074803  37.3540517  17.4876071  71.6189235  36.9294735  16.8328262
  71.3429501  37.6022666  17.9953097  71.8521730  37.3279238  17.4663939
  58.0858333  38.5257242  10.6428133  58.1718585  38.1489111  11.4241663
  58.7134130  38.1517688  10.1648091  58.1914884  38.4142724  10.6873610
  75.8301164  31.0515146  15.0000055  76.2111676  30.3693317  15.3867929
  75.0264448  30.7624748  14.8175719  75.7677626  30.9082194  15.0304111
  68.9821649  45.0560639  10.8125190  69.6195596  44.8172386  11.3576983
  69.4076721  45.2597798  10.0778350  69.1397815  45.0511649  10.7842347
  63.6734292  47.2948975  14.6959493  63.7138437  47.5663826  13.8679273
  64.2328816  47.8190883  15.1117281  63.7617637  47.4124730  14.6351382
  69.6224464  40.2762929   5.1500079  70.0069617  40.0570635   5.9016624
  69.3736085  41.1025874   5.2801155  69.6426537  40.3661075   5.2801155
  69.7893005  33.5569344  24.8662663  69.4746446  34.3268907  24.6032226
  69.4682937  32.9939600  24.2814890  69.6951924  33.5879613  24.7404013
  71.3643121  45.5333061  12.4918976  71.4382129  45.3708233  13.3460826
  72.1812627  45.7223251  12.2479458  71.4959480  45.5369804  12.5817002
  65.1248878  45.8790924   9.5213419  64.2986995  46.1252661   9.3947698
  65.1860869  45.8003005  10.3875477  65.0123045  45.9035873   9.6302364
  67.3424902  31.9459865  10.4808860  66.4747327  32.0182465  10.5466469
  67.6300106  32.7481944  10.6696835  67.2564650  32.0754012  10.5183626
  76.4657790  32.0937725  18.8120181  77.2111382  31.9047535  18.3983607
  76.0495095  32.6195963  18.2534038  76.5142765  32.1439870  18.6684755
  70.4942452  43.2985550  18.3085580  69.9954146  44.0101318  18.3870468
  71.3042676  43.6186217  18.2703742  70.5398559  43.4512399  18.3142148
  67.8453622  50.4735187  10.2892599  67.6253918  50.1832542  11.0819266
  67.6248144  49.8150142   9.7610511  67.7801217  50.3334895  10.3281508
  66.7570570  42.5608503  12.5548301  66.4683818  41.9345975  13.0894028
  67.6253918  42.5028791  12.6212981  66.8430822  42.4596048  12.6439255
  77.5448467  37.7043287  12.8730283  77.2013233  36.9833622  13.2237532
  77.6441510  37.4957138  12.0308641  77.5090510  37.5667490  12.8001963
  66.9602843  44.2003755   8.4790666  67.7148811  44.5816794   8.6926128
  66.3673456  44.6514898   8.9337362  66.9839557  44.3232582   8.5773544
  69.4209510  36.1566595  23.6047878  68.6109286  36.4624375  23.4937720
  69.8984197  36.8772177  23.7200462  69.3712989  36.3081196  23.6054949
  68.2801070  45.3712316  13.8530781  67.7581823  45.5112608  14.5382646
  68.6675090  44.6122980  14.0432898  68.2604771  45.2797840  13.9831858
  65.2692254  35.4218125   7.9225736  64.9817049  35.0519395   7.1857683
  65.9562722  35.8912980   7.6609441  65.3281151  35.4365094   7.7740812
  69.7067395  42.4016335   9.2512272  69.5110178  43.0091069   8.6572575
  69.9301741  41.7084279   8.7703946  69.7102036  42.3893860   9.0928353
  68.1045925  39.2871073   9.3693141  68.8268577  39.4512231   8.9096947
  67.6253918  40.0080738   9.2632480  68.1409656  39.4169302   9.2858755
  76.0639433  35.6234872  14.7489825  75.2250533  35.6496151  14.5128089
  76.1343800  36.2705607  15.3295172  75.9507826  35.7230997  14.7998942
  65.7553542  41.6929145  18.4747280  66.2674639  41.9713399  17.8256040
  65.4689885  42.4318439  18.8410093  65.7888405  41.8431499  18.4337158
  62.8420448  36.1999337   8.7711017  62.9436585  37.0025498   9.0991992
  63.6376335  35.9986673   8.4734097  62.9748354  36.2885236   8.7746372
  69.2737267  33.7855534  18.5348322  69.0820464  33.8010668  19.3847745
  70.1235863  33.9819208  18.5114977  69.3712989  33.8169885  18.6571617
  63.6584180  36.3146515  16.5132138  63.5169672  35.4630456  16.6376646
  63.9424744  36.3575176  15.6894344  63.6792026  36.1946265  16.4099763
  73.8122773  38.1513605  10.6576627  73.5657487  38.0709356  11.4913416
  74.1407896  37.3667073  10.4639154  73.8244016  38.0239871  10.7524150
  77.7070822  44.8596965  14.4463408  77.5685181  45.5578011  14.9512150
  76.9270819  44.7045621  14.0899590  77.5714048  44.9397131  14.4689682
  76.0448907  41.1593340  20.6985790  76.0396945  40.2873157  20.7028216
  76.7509901  41.3581509  20.2255245  76.1493911  41.0597214  20.6292825
  69.7719800  40.8870324  20.0699610  69.9163176  41.4671532  19.4342720
  70.1195449  41.2646621  20.7749464  69.8447261  41.0291028  20.0798605
  71.9439717  40.0860492  17.8524741  71.1963031  40.2791507  17.4473019
  72.0981243  39.2605712  17.6148863  71.8562145  39.9925604  17.7570147
  68.8447555  49.0773096  16.9360637  68.9937119  48.5176012  16.2834041
  69.6247557  49.1565098  17.3193155  68.9821649  49.0058661  16.8957586
  71.3700856  49.2487739  18.2145127  71.2944527  48.5796549  18.7695916
  71.2990715  49.9505527  18.7285794  71.3481463  49.2532646  18.3721976
  72.1841494  33.9811043  18.7420145  72.6414108  34.7135018  18.8692937
  72.2597823  33.5577508  19.5007401  72.2632464  34.0268281  18.8721222
  64.4274486  34.2276863  19.8309589  63.8916675  33.6157221  20.1470356
  64.4892250  34.8024999  20.4843255  64.3570118  34.2223791  19.9745016
  70.0623872  35.9713147  15.5861969  69.2719947  35.7904607  15.9079305
  70.4584495  35.1940100  15.5692264  70.0040748  35.8300608  15.6314517
  75.4467559  43.6055577  13.3121415  74.7712560  43.3740810  13.8134802
  75.4559935  42.9976760  12.6863520  75.3486063  43.4814502  13.2937567
  72.5761703  38.4473406  20.0685468  72.5120844  39.3083363  19.9405605
  72.7158890  38.1305399  19.2681019  72.5877173  38.5273573  19.9313681
  71.2580796  41.1405546  14.2101671  70.8343046  41.3410045  13.4740689
  71.0825652  40.2934394  14.3225971  71.1691677  41.0454327  14.1175361
  70.7592490  52.6556059  16.6723128  71.2488420  51.9566848  16.4898793
  70.1876722  52.3579929  17.2599186  70.7477020  52.5082282  16.7324169
  66.5463241  41.6357597   9.6429643  66.7027861  41.5704400  10.4985636
  66.8863835  42.4106150   9.4308323  66.6196476  41.7406795   9.7384238
  73.0842386  41.0115481   8.5123007  73.6257932  40.5085862   8.9761627
  73.3988945  40.9580675   7.7012492  73.2106783  40.9294902   8.4606819
  76.9559493  45.2218128  25.6249919  77.7694359  44.9503277  25.7855051
  76.7954460  44.9225668  24.8210115  77.0529442  45.1373054  25.5295325
  63.1197503  38.8192547   9.9590411  63.4996468  39.2377092   9.2950678
  62.5452868  39.4006003  10.2659254  63.0908828  38.9670406   9.9067152
  76.3970743  37.5140850  19.5028614  75.5847425  37.2066741  19.5841787
  76.8560678  37.0339850  20.0671326  76.3451128  37.3977343  19.5983208
  73.6246384  29.0151721  13.5532650  72.7539942  28.9890442  13.5065959
  73.8786725  28.8428913  12.7358496  73.5339944  28.9861864  13.4252787
  73.4924251  38.9200922  24.2857317  73.9623882  39.5443038  24.6725191
  73.5386131  38.2517897  24.8450531  73.5692127  38.9135602  24.4257388
  70.6495525  31.0257949  15.0106120  70.1334013  30.3338141  15.1357699
  70.0889453  31.6928726  14.9568719  70.4902038  31.0221207  15.0212186
  72.7187758  31.5650909  16.8398973  72.3319511  31.5899941  17.6212503
  72.2320695  30.9992588  16.3873490  72.5900267  31.4846660  16.8886877
  76.9680737  46.2824418  20.8972759  77.6060458  45.7884614  20.5635216
  76.3254829  46.2101819  20.3124986  76.9674964  46.1983427  20.7615114
  78.6937738  38.1313564  15.4638675  78.2665346  38.0439913  14.7086775
  78.0563790  38.2391340  16.0493519  78.5367345  38.1346224  15.4384117
  72.3844900  28.4517895  19.1309233  73.0138018  28.9878195  18.8530303
  72.5530762  28.3595254  19.9822798  72.5022694  28.5179257  19.2157761
  72.1858815  33.2389089  21.4035644  73.0132244  32.9674238  21.4594259
  72.2066661  34.0349931  21.7599463  72.3111665  33.3168844  21.4650827
  77.0234994  46.9744226  17.5378116  77.8127372  46.6233291  17.6580198
  77.1978592  47.7880615  17.2754750  77.1655276  47.0430084  17.5165984
  66.7628304  40.3852952  14.5905905  65.9216311  40.2856826  14.7984799
  66.9718312  41.1548433  14.9420226  66.6692997  40.4844996  14.6733220
  64.2403871  38.0072489  12.4190656  63.8460569  38.0815501  11.6440765
  63.6843988  38.3930436  12.9699017  64.1006684  38.0754264  12.3858316
  75.8768818  30.9853783  12.0994535  76.0818412  30.9176091  12.9451532
  75.5495242  31.7912604  12.0315712  75.8584066  31.0939724  12.2154190
  70.5744969  38.3134351  13.8403503  70.2708107  37.7590340  14.4413910
  69.8724390  38.4926561  13.3531537  70.4261179  38.2579134  13.8573208
  69.6311066  35.6234871   8.4048204  69.9070801  34.9053784   7.9925772
  70.2309736  36.2219791   8.1969311  69.7604331  35.6055242   8.3128966
  68.6363320  45.5284072  18.5475600  68.5283675  45.5386134  19.4137658
  68.8459102  46.3538853  18.3580554  68.6513431  45.6525147  18.6479692
  66.6537112  42.7796715  16.0097538  66.0625046  43.4206213  15.9800553
  67.4158136  43.2034332  15.9828837  66.6785373  42.9372553  16.0012685
  67.0497735  33.9398712  16.6765556  67.5099217  34.0137642  17.4140679
  67.0953842  34.7379966  16.3265377  67.1248290  34.0692859  16.7338312
  68.6981085  34.6065407  21.2437583  68.3066650  33.9598754  21.6793360
  68.8666948  35.1976842  21.8631838  68.6651995  34.5979675  21.4000289
  76.4126629  48.2306026  13.4429562  76.2146317  48.7196841  12.7485774
  75.7914340  48.4347268  14.0213696  76.2914193  48.3322564  13.4252786
  72.3914182  31.7941182  12.8171668  71.5450227  31.9663990  12.6913018
  72.3885315  30.9890526  13.1537496  72.2661332  31.7002211  12.8482795
  73.4612483  35.5716396  13.6833726  72.9872437  35.0458158  14.1939037
  73.8330619  35.0245869  13.1148588  73.4462372  35.4132393  13.6748873
  63.8385513  37.5687903  19.0517272  64.7011126  37.4683612  18.9654602
  63.5077296  36.9882612  18.4902844  63.9170709  37.4679530  18.9562678
  67.1987299  36.3930352  15.7127690  66.5740369  36.4048744  15.1053643
  66.8632894  36.8690527  16.3618930  67.0572791  36.4648869  15.7184259
  67.3829048  34.7355470   1.7700375  67.0341852  35.3875196   2.2331924
  66.9025493  34.7212583   1.0424246  67.2599292  34.8298524   1.7311466
  63.9112974  44.4530812  17.1531454  63.3812899  43.7623251  17.2026429
  64.1838068  44.4440997  16.3244163  63.8737697  44.3497944  17.0378870
  74.1119220  41.8954057  17.1269826  73.4976213  41.3512107  17.4218461
  74.6286505  41.3818293  16.6475642  74.0974882  41.7390466  17.0994054
  73.3515517  42.9658327  14.8614124  72.9243125  42.3408045  14.4279560
  73.3440462  42.6833249  15.6873132  73.2874658  42.8311107  14.9193952
  66.4678044  38.0023500  17.9302558  66.6271531  37.2466824  18.3354280
  66.2870938  38.5514439  18.5843296  66.4643403  37.9717314  18.0865264
  74.4098347  30.1684735  18.4853348  73.9138909  30.3648410  17.7944915
  75.1667409  30.5677404  18.3142150  74.4485172  30.2562469  18.3573485
  71.6801227  33.8427081  15.0756658  71.7043714  33.3087194  14.3869438
  71.9312700  33.3344390  15.7382249  71.7211146  33.6887985  15.0721303
  59.1908817  41.1258576  14.5099803  59.0852266  41.0805421  13.6451887
  58.4409037  41.4712357  14.7914087  59.0644420  41.1699484  14.4237132
  67.9602549  32.5697899  14.4562403  68.0000921  33.0707106  15.1697110
  67.1352214  32.6608293  14.1868326  67.8442075  32.6579716  14.5212941
  70.1432162  42.1358639  22.5582697  69.2927793  42.2730354  22.6940342
  70.3060290  41.4022418  23.0030399  70.0416026  42.0472741  22.6438297
  69.3816912  39.0858409  16.7536302  68.5508842  39.2532227  16.5471550
  69.3268430  38.7094360  17.5385187  69.2506327  39.0548141  16.8384830
  67.1900696  32.5767302  22.3892713  67.8153399  32.0329435  22.6622145
  66.7351176  32.0962220  21.8200503  67.2148956  32.4256784  22.3454306
  67.7552956  37.3614001   7.2826420  67.8955917  37.8586465   7.9855061
  68.2535489  36.6600295   7.4240633  67.8494037  37.3315980   7.4077999
  67.7853179  38.2281112   4.6118996  68.4198258  38.8241537   4.5468458
  67.8678790  37.9284569   5.4264866  67.8909730  38.2722020   4.7222083
  69.3632162  34.1595087   4.5864438  69.6848003  33.6798170   3.9323701
  69.6259105  34.9694733   4.3955250  69.4498187  34.2084985   4.4619930
  72.5929134  45.1813962  18.1063254  72.0854225  45.7349808  18.5503885
  72.2955781  45.2422252  17.2882029  72.4734019  45.2720273  18.0511711
  74.7591317  33.5467281  16.9487917  75.1846388  33.0939808  16.3371444
  74.1448310  32.9927352  17.2252705  74.7319962  33.3981257  16.8992943
  64.2906167  40.4248953   7.8808542  64.7998396  41.0213460   8.2619848
  64.7640439  40.1574926   7.1984962  64.4349542  40.4734768   7.8363065
  73.1985539  30.0182381  10.3578494  72.5553857  29.8680027  10.9263633
  72.8584946  29.7724726   9.5927599  73.0530617  29.9594504  10.3281510
  77.7884886  37.9741808   9.7808503  77.1176076  38.5171510   9.6521569
  78.4824636  38.4436663   9.5390198  77.7913753  38.1240079   9.7264031
  77.9513013  34.4297691  12.6898876  78.3040623  34.0027414  13.3644675
  77.0927815  34.3448535  12.8199953  77.8762458  34.3542432  12.8093887
  66.6496698  37.0605211  10.7481723  65.9308687  37.4769344  11.0154586
  67.0209061  37.6259450  10.1973361  66.5988630  37.2054493  10.7064530
  75.9496279  37.6933060  16.6383718  75.9294206  37.5116355  17.4918497
  75.9975480  38.5645079  16.6143302  75.9530920  37.7949598  16.7607013
  73.8942609  44.2820252  22.5632195  73.8538464  43.6369929  21.9777351
  74.7065927  44.2256869  22.8757607  74.0085763  44.1779219  22.5229144
  70.4850077  50.3338978  12.4657346  70.0710475  49.6713108  12.0761188
  71.1697451  50.4816837  11.9453040  70.5248448  50.2579636  12.3313843
  73.8515371  49.4929063  13.2180963  73.4531654  49.6031334  12.4501783
  73.2366590  49.7011130  13.8007522  73.7014260  49.5402631  13.1912262
  72.4243273  36.1003211   6.0855102  71.8308112  36.4220208   5.5339669
  72.4618550  35.2544306   5.8776208  72.3417662  36.0227539   5.9737874
  75.3001089  36.0582716   9.5156852  75.0714782  36.0815417   8.6735211
  75.5599165  35.2340183   9.6351863  75.3047277  35.9398796   9.4082050
  69.5820318  37.9117189  19.1181953  69.0699221  37.3038372  19.4766984
  69.4099814  38.6273781  19.5855928  69.4809955  37.9280488  19.2398176
  64.4286032  36.3554764  21.7684314  64.2588623  37.0156139  21.2232521
  63.9851982  36.5661325  22.4896804  64.3385366  36.4840746  21.7945944
  68.3545852  34.5959262  10.8111048  68.8303218  34.9576342  10.1761229
  67.8534451  35.2515729  11.0911191  68.3511211  34.7453451  10.7587789
  73.4589388  35.8341433  21.5584208  74.0160818  35.6055243  20.9262674
  73.1350453  36.5947099  21.2819421  73.4935798  35.9125270  21.4240705
  61.3288097  39.2601629  17.0272804  60.7814816  38.5902275  17.1453673
  62.1180475  38.8931477  17.0916272  61.3640281  39.1066616  17.0541505
  71.1772505  38.9209087  22.5236215  71.9283832  39.2360763  22.8375770
  71.3695082  38.7188257  21.6970137  71.3163919  38.9376468  22.4479611
  70.3972505  36.7400462   4.1784432  70.7771470  36.7580091   3.3935547
  69.6565101  37.1854450   4.0575279  70.3441343  36.8082236   4.0448000
  78.0257795  35.0482653   9.7660011  78.0252022  34.8931309  10.6244287
  77.8213976  35.8945640   9.7101396  77.9957573  35.1503274   9.8847950
  60.0875066  38.4722437  14.1818827  59.9096827  38.0199046  14.9073743
  59.7994089  39.2748599  14.3657305  60.0188020  38.5244995  14.3162330
  75.7498647  39.7280155  13.4196218  76.2452313  39.0103150  13.3800238
  74.9398423  39.4250952  13.3050705  75.7042541  39.5777801  13.3969943
  61.8247536  41.0050161  11.2940586  60.9593056  40.9935852  11.1823358
  61.9246352  40.8180384  12.1411726  61.7121703  40.9756222  11.4029531
  77.8150466  42.4783842  16.1073346  78.2405538  41.9558264  15.5543771
  77.4507386  43.0764680  15.5861969  77.8237069  42.4894069  15.9482356
  67.4504546  50.7748060  14.8670692  67.7651105  51.5884448  14.8748474
  67.8597960  50.3898278  15.5352851  67.5572644  50.8376762  14.9674784
  74.4029066  46.1918106  12.4374504  74.8740244  46.9058369  12.6064489
  74.7389244  45.5916857  12.9734373  74.5224181  46.2089571  12.5406880
  76.4906050  47.8019420  24.6166576  76.6003016  47.0127980  24.9723323
  76.8196947  47.7125356  23.8140914  76.5558456  47.6725273  24.5508967
  71.3198561  30.9645577  19.3932599  71.4526466  30.1676570  19.7213574
  71.7043714  31.4911980  19.9730874  71.3954890  30.9245494  19.5276102
  75.0403012  45.9836041  19.2002197  74.4923958  45.3593924  18.9322262
  75.5016041  46.1730313  18.4846276  75.0270222  45.9195091  19.0552628
  74.3930916  27.8875903  15.9913692  73.5876880  27.7773633  16.3081530
  74.2637651  27.9888359  15.1343558  74.2551049  27.8859573  15.9121732
  77.8496876  34.0521395  16.5853389  77.2659865  34.5530602  16.1730956
  78.1701171  33.5450951  15.9517712  77.8110052  34.0513230  16.4311896
  70.3891676  32.9661990   6.8612064  71.2107370  33.1360303   6.6193759
  69.9261327  33.1209251   6.1378361  70.4422838  33.0143723   6.7183708
  68.9787008  30.9604752  17.6410492  69.5231421  30.6195879  18.2314834
  69.0323943  31.8190214  17.7831777  69.0676127  31.0360011  17.7492366
  64.7917566  44.7221168  14.5149300  65.3962424  44.6817002  13.8863121
  64.5844879  45.5692320  14.5453356  64.8506464  44.8409171  14.4265417
  74.6061338  46.9887113  15.7311538  75.4259712  46.8450079  15.9927833
  74.3255416  47.6133312  16.2727976  74.6858082  47.0597465  15.8499477
  60.0268849  43.7055786  14.3848223  59.9293127  42.8952057  14.6938280
  60.8097718  43.6847579  13.9994492  60.1284985  43.5822876  14.3735086
  75.4624834  55.0167025  16.2487559  75.3383531  55.6029470  16.8837378
  76.1143119  54.5227221  16.5499834  75.5398484  55.0305829  16.3873488
  73.2067759  57.5278377  16.4969503  72.9406175  56.7117494  16.6560494
  73.2206323  57.5731533  15.6265019  73.1692482  57.4135282  16.3922985
  77.9566366  51.0656756  19.1436511  77.2638162  50.5953735  19.3897243
  78.5726693  50.8395060  19.7178218  77.9450896  50.9623887  19.2645664
  76.6806925  55.0322160  20.2863356  77.4046897  55.0175190  20.7728251
  76.7823061  55.7417515  19.7885324  76.8025134  55.1346863  20.2842143
  76.7286125  57.2114453  18.4747280  77.2407222  57.4898706  17.8256040
  76.4422468  57.9503747  18.8410093  76.7620989  57.3616807  18.4337158
  74.6316764  51.8331823  16.5132138  74.4902256  50.9815764  16.6376646
  74.9157327  51.8760484  15.6894344  74.6524610  51.7131573  16.4099763
  75.4007069  49.7462171  19.8309589  74.8649259  49.1342529  20.1470356
  75.4624834  50.3210307  20.4843255  75.3302702  49.7409099  19.9745016
  78.0230319  49.4584020  16.6765556  78.4831800  49.5322950  17.4140679
  78.0686425  50.2565274  16.3265377  78.0980874  49.5878167  16.7338312
  74.8118097  53.0873211  19.0517272  75.6743710  52.9868920  18.9654602
  74.4809880  52.5067920  18.4902844  74.8903293  52.9864838  18.9562678
  78.1719882  51.9115660  15.7127690  77.5472953  51.9234052  15.1053643
  77.8365477  52.3875835  16.3618930  78.0305374  51.9834177  15.7184259
  77.4410628  53.5208808  17.9302558  77.6004115  52.7652132  18.3354280
  77.2603521  54.0699747  18.5843296  77.4375987  53.4902621  18.0865264
  75.4018616  51.8740072  21.7684314  75.2321206  52.5341447  21.2232521
  74.9584566  52.0846633  22.4896804  75.3117950  52.0026054  21.7945944
  72.3020680  54.7786937  17.0272804  71.7547400  54.1087583  17.1453673
  73.0913059  54.4116785  17.0916272  72.3372864  54.6251924  17.0541505
  71.0607650  53.9907745  14.1818827  70.8829411  53.5384354  14.9073743
  70.7726672  54.7933907  14.3657305  70.9920603  54.0430303  14.3162330
   4.5927382  45.9657687  47.6199634   4.5621386  46.8202324  47.7917903
   5.1908730  45.6652980  48.1785778   4.6764540  46.0474184  47.7274436
   1.1020783  51.3219864  61.9813021   1.8087550  50.8271894  62.1099955
   1.2908718  51.7628945  61.2515679   1.2348689  51.3138214  61.8922066
   0.6378888  47.1125382  55.0184216   1.1834848  47.7910469  55.0778186
   0.5795764  46.9712843  54.1585798   0.7094802  47.1917384  54.8996277
   2.4143956  48.5409989  45.8917944   2.2983482  49.2917675  46.3210082
   3.2099843  48.2833942  46.1414031   2.5148546  48.6144836  45.9922036
   1.7279261  35.8897927  49.5892558   1.4132702  36.5801405  50.0212981
   1.2106203  35.8342709  48.8878059   1.6043732  35.9832815  49.5489507
   1.0691695  45.8902428  45.7029969   0.5403166  46.1062061  46.3627275
   1.5916715  46.5838566  45.6230938   1.0680148  46.0245564  45.7885568
   6.5239748  51.4648732  51.0763013   5.6937451  51.6759376  51.2396430
   6.4749000  50.6385787  50.8005297   6.3946483  51.3738338  51.0600379
   6.0193706  44.1119133  54.8713435   5.1822127  44.1821320  55.1061029
   5.9881937  44.1143627  53.9987737   5.8911989  44.1229360  54.7772983
   0.7423892  48.3074809  50.4625326   1.4981407  48.7406323  50.5014235
   0.8486216  47.6579579  51.0359962   0.8694063  48.2752293  50.5523352
   3.7804063  52.1348086  51.2127729   3.3439295  52.1384829  51.9686701
   3.4466979  52.8153585  50.7807307   3.6666683  52.2360542  51.2608562
   3.7001546  39.1761914  53.4557157   4.3427454  39.2460019  54.0419072
   3.9524567  38.5091137  52.9536699   3.8323678  39.0888263  53.4684436
   6.9148409  48.8529006  50.1047366   7.5764843  48.2919675  50.0043275
   6.2739821  48.3581037  50.4300058   6.9177277  48.6965415  50.1379707
   3.2013240  49.8694389  49.8459355   3.4368829  50.0139588  49.0186206
   3.3502804  50.6336797  50.2390869   3.2579043  50.0033443  49.7822959
   5.0303697  48.7096055  47.6828959   5.3611914  49.2423695  47.0769054
   5.6036785  48.7634942  48.3390910   5.1637376  48.7965623  47.6906741
   0.4958607  48.4009697  41.5989491   0.4138770  48.4711884  42.4644478
   1.1338328  48.9639441  41.4073232   0.5778445  48.4948668  41.6979441
   6.1383048  43.9506551  49.1869121   5.8819613  43.1386493  48.9967003
   6.9812362  43.9584119  48.9599308   6.2249074  43.8318549  49.1253938
   3.8208207  51.1056148  59.0227673   3.5846845  50.2744212  58.9039734
   4.4651436  51.0541755  59.6082517   3.8802878  50.9753835  59.0913567
   4.8444628  50.8900596  55.0855968   4.5390445  51.6228653  55.4469283
   4.1250844  50.4838526  54.8048754   4.6931970  50.9382329  55.0969105
  10.5446420  47.5293597  54.4124312  10.4770921  47.5489556  53.5426899
  10.5302083  48.3723924  54.6379983  10.5325177  47.6567332  54.3176789
   0.9542767  38.9328755  57.7365401   1.6996359  38.7438565  57.3228827
   0.5380071  39.4586993  57.1779258   1.0027741  38.9830900  57.5929975
   8.3305038  46.3037983  52.6870906   8.8812959  45.6706052  52.9267998
   8.3149153  46.8353376  53.3786411   8.4090234  46.2886931  52.8249765
   2.0333444  44.5434317  51.7975503   1.6898210  43.8224652  52.1482752
   2.1326486  44.3348168  50.9553861   1.9975487  44.4058520  51.7247183
   2.4946473  51.0060021  47.3399491   3.0604506  51.6653231  47.2558034
   1.8474376  51.3509719  47.8115893   2.4825229  51.1541962  47.3972247
   4.4281933  47.6693888  50.9596287   4.3415908  47.8249314  51.8131066
   3.9732413  48.3131964  50.5855692   4.3485190  47.7869643  51.0303394
   2.1955798  51.6987995  53.3708628   2.0570157  52.3969041  53.8757370
   1.4155796  51.5436651  53.0144810   2.0599025  51.7788161  53.3934902
   0.5333883  47.9984370  59.6231010   0.5281922  47.1264187  59.6273436
   1.2394877  48.1972539  59.1500465   0.6378887  47.8988244  59.5538045
   3.6909171  51.0566249  44.1325127   3.3115980  50.2703386  44.1254417
   3.0275416  51.6053106  43.9896771   3.5367646  51.0211073  44.1105924
   1.1453797  33.9991948  51.5359208   1.2637365  34.4568412  50.8026511
   0.9715972  33.1937210  51.2495426   1.1372968  33.9485720  51.3860142
   1.9369270  53.3011740  44.4676813   2.0189107  54.1078726  44.1438264
   2.4219012  53.3207699  45.1917587   2.0206427  53.4232402  44.5263712
   1.4444470  52.0609158  64.5495139   2.2579335  51.7894307  64.7100271
   1.2839436  51.7616698  63.7455335   1.5414418  51.9764084  64.4540545
   1.4565714  53.1215448  59.8217979   2.0945434  52.6275644  59.4880436
   0.8139805  53.0492849  59.2370206   1.4559940  53.0374457  59.6860334
   3.1822714  44.9704594  54.3883895   2.7550322  44.8830943  53.6331995
   2.5448767  45.0782370  54.9738739   3.0252321  44.9737254  54.3629337
   1.5119970  53.8135256  56.4623336   2.3012349  53.4624321  56.5825418
   1.6863568  54.6271645  56.1999970   1.6540252  53.8821114  56.4411204
   3.6187482  38.3776577  50.5042520   3.0061796  38.8646980  50.8896252
   3.7151657  37.7020068  51.0480171   3.5425380  38.3494886  50.6421378
   7.2612510  49.4493514  55.9320036   7.3195634  49.8980163  56.6780013
   6.6278978  49.8592327  55.4950116   7.1763805  49.5767249  55.9772585
   4.2134190  47.4709802  54.0185727   3.9732413  46.6316217  54.0228153
   4.6926197  47.5509969  54.7426500   4.2486373  47.3591202  54.1260529
   6.2139377  44.2511259  51.9714986   5.9749147  44.2107093  51.1335770
   6.3773278  45.0982411  52.0980707   6.2029680  44.3703344  51.8668468
   2.8185407  48.6361208  57.9020031   3.5419606  48.1833735  57.7231051
   2.5535369  48.9165874  57.1192359   2.8866680  48.6112177  57.7598746
   5.2520721  47.5987619  56.4050581   5.8438561  48.2384870  56.4368779
   5.6879715  46.9010656  56.6942647   5.4039152  47.5905970  56.4531413
   2.2769862  44.8132838  48.7053723   1.6061052  45.3562540  48.5766789
   2.9709613  45.2827693  48.4635418   2.2798730  44.9631109  48.6509251
   2.4397990  41.2688721  51.6144096   2.7925600  40.8418444  52.2889895
   1.5812791  41.1839565  51.7445173   2.3647434  41.1933462  51.7339107
   0.4381256  44.5324090  55.5628939   0.4179183  44.3507385  56.4163717
   0.4860456  45.4036109  55.5388522   0.4415897  44.6340628  55.6852233
   3.8722050  36.3907133  52.5428409   3.3652914  35.6836273  52.4749586
   4.6689484  36.0600322  52.6729485   3.9149289  36.2380285  52.5527404
   6.0742190  50.9072060  45.5269273   6.4575796  51.6563416  45.7567370
   5.2786303  51.1537880  45.2681262   6.0135972  51.0541754  45.5226847
   2.5142772  41.8873683  48.6905231   2.5136998  41.7322339  49.5489507
   2.3098952  42.7336670  48.6346616   2.4842550  41.9894304  48.8093170
   2.3035443  49.3174872  55.0318566   2.7290514  48.7949294  54.4788991
   1.9392363  49.9155710  54.5107189   2.3122045  49.3285099  54.8727576
   2.3381853  40.8912425  55.5098609   1.7544842  41.3921631  55.0976176
   2.6586147  40.3841981  54.8762932   2.2995028  40.8904260  55.3557116
  15.5659965  61.4842995  47.6199634  15.5353970  62.3387632  47.7917903
  16.1641314  61.1838288  48.1785778  15.6497123  61.5659491  47.7274436
   8.7659650  60.5718646  52.3752565   7.9097546  60.7327144  52.4261681
   8.8127304  59.7010710  52.3957626   8.6458762  60.4669448  52.3858631
  12.0753367  66.8405172  61.9813021  12.7820134  66.3457202  62.1099955
  12.2641302  67.2814253  61.2515679  12.2081272  66.8323522  61.8922066
  11.6111471  62.6310690  55.0184216  12.1567431  63.3095776  55.0778186
  11.5528347  62.4898151  54.1585798  11.6827385  62.7102692  54.8996277
  13.3876540  64.0595297  45.8917944  13.2716066  64.8102983  46.3210082
  14.1832426  63.8019250  46.1414031  13.4881129  64.1330144  45.9922036
   5.2706865  68.0489320  47.1787286   5.5922706  68.5894527  46.5748594
   5.9178962  67.4786091  47.3109576   5.4132920  68.0448495  47.1094322
   7.3208573  60.0505315  47.2621673   8.0188738  60.2293442  47.7543136
   7.6360906  59.5275654  46.6392062   7.4703911  59.9999087  47.2423683
   7.5096509  66.4375760  47.2501465   7.9490144  65.8292860  47.6956237
   7.3601172  66.0583133  46.4786930   7.5517974  66.2914231  47.2020632
   4.9768152  65.0319772  54.4520290   5.6217154  64.5392215  54.1331239
   5.2169929  65.1744558  55.2786368   5.1078737  64.9797214  54.5269823
   7.5154243  67.8774678  54.1027183   7.7977486  67.0826083  53.8813938
   8.2440403  68.3555265  54.1232244   7.6643807  67.8309275  54.0730198
   5.4935437  55.4197712  51.3442948   5.1638767  55.8708855  50.6746646
   4.8180439  55.3413875  51.8915954   5.3445873  55.4748847  51.3266171
  11.1105845  64.7902941  44.2032234  11.0257140  65.6463908  44.3481803
  11.5990229  64.5147265  44.8714393  11.1694743  64.8760263  44.3234315
  12.7011845  51.4083234  49.5892558  12.3865286  52.0986713  50.0212981
  12.1838786  51.3528017  48.8878059  12.5776315  51.5018123  49.5489507
  12.0424279  61.4087735  45.7029969  11.5135750  61.6247369  46.3627275
  12.5649298  62.1023874  45.6230938  12.0412731  61.5430872  45.7885568
  17.4972331  66.9834040  51.0763013  16.6670035  67.1944684  51.2396430
  17.4481584  66.1571094  50.8005297  17.3679067  66.8923646  51.0600379
   3.9323886  65.3050952  44.5037437   3.3481102  65.8100984  44.9103301
   3.5293981  65.0793339  43.7634029   3.7863190  65.3459200  44.4542462
   9.2145661  70.2632708  59.8727096   9.3029007  70.0758849  60.7205306
   9.6435374  69.6170138  59.4731943   9.2907763  70.1395716  59.9398847
   8.3901101  61.5516604  42.9806357   8.6297104  61.7594588  42.1681701
   8.7116942  60.7474113  43.0895302   8.4738259  61.4630705  42.8766911
   3.6991391  53.4810000  46.8265895   4.4537359  53.8488317  46.5882946
   3.5218926  53.8549554  47.5945075   3.7845869  53.5908188  46.9050784
  16.9926290  59.6304441  54.8713435  16.1554711  59.7006628  55.1061029
  16.9614521  59.6328935  53.9987737  16.8644572  59.6414668  54.7772983
   3.3891019  61.7737476  60.5861803   3.5611522  61.6643371  61.4347085
   3.9260376  62.4191882  60.3492996   3.4936023  61.8529478  60.6766900
   2.0548456  55.8880319  43.5244008   1.8724029  56.1052200  42.6985001
   2.9174069  56.0019332  43.5802623   2.1553045  55.9370217  43.4098495
   1.6662888  67.7268241  50.9666996   2.5051787  67.9591174  51.0140758
   1.6974657  66.8572553  50.8974032   1.7944605  67.6325188  50.9631641
   7.7348175  52.8906730  46.5593032   8.4634335  52.7122685  46.1131188
   7.8243068  53.7324809  46.7700210   7.8554837  52.9890608  46.5246550
  11.7156476  63.8260117  50.4625326  12.4713991  64.2591631  50.5014235
  11.8218800  63.1764887  51.0359962  11.8426646  63.7937601  50.5523352
  14.7536647  67.6533394  51.2127729  14.3171879  67.6570137  51.9686701
  14.4199562  68.3338893  50.7807307  14.6399267  67.7545850  51.2608562
  14.6734130  54.6947222  53.4557157  15.3160038  54.7645327  54.0419072
  14.9257150  54.0276445  52.9536699  14.8056262  54.6073571  53.4684436
   1.6010483  59.1654492  42.0366481   0.8868660  58.8792671  42.4488914
   2.0854451  59.5051117  42.6772869   1.5669846  59.1736141  42.1922116
   2.4451342  57.9047785  58.0681731   1.7523139  57.4344765  58.3142463
   3.0611669  57.6786090  58.6423438   2.4335872  57.8014917  58.1890884
  17.8880993  64.3714314  50.1047366  18.5497427  63.8104983  50.0043275
  17.2472405  63.8766345  50.4300058  17.8909860  64.2150723  50.1379707
   8.7757801  67.6684446  42.4128290   9.1908949  67.3369469  41.7212785
   7.9449730  67.4353348  42.2848426   8.7145809  67.5855702  42.2919137
  14.1745824  65.3879697  49.8459355  14.4101413  65.5324895  49.0186206
  14.3235387  66.1522105  50.2390869  14.2311627  65.5218751  49.7822959
   1.1691901  61.8713189  59.2108576   1.8931873  61.8566220  59.6973471
   1.2708038  62.5808545  58.7130544   1.2910110  61.9737893  59.2087363
  16.0036280  64.2281363  47.6828959  16.3344497  64.7609003  47.0769054
  16.5769368  64.2820250  48.3390910  16.1369959  64.3150931  47.6906741
  11.2168169  62.0746265  48.3652539  11.3115024  62.8135559  48.8192165
  10.5927013  61.6463741  48.7987104  11.1377200  62.1207586  48.4960687
   9.4720643  65.2532478  59.0142820  10.0459505  64.6159722  59.1691384
   9.3935447  65.2536560  58.1452478   9.5453878  65.1597589  58.9089231
  11.4691191  63.9195005  41.5989491  11.3871353  63.9897192  42.4644478
  12.1070911  64.4824749  41.4073232  11.5511028  64.0133976  41.6979441
   4.8284362  63.6855743  51.0664017   4.5703606  62.8527478  51.0395317
   4.8832845  63.9113356  50.2256518   4.7984140  63.5953514  50.9384154
   9.9085412  55.7884194  51.1668110   9.2041739  55.2993379  51.3252029
   9.9570386  55.8006668  50.2956555   9.8115464  55.7173842  51.0607450
   3.8019074  61.2393505  51.5528912   3.2268665  61.3985674  52.1892873
   3.4254750  60.6028915  51.0897363   3.6621886  61.1691318  51.5783471
   7.4692363  59.7116855  56.4121291   7.0806795  59.2871072  55.7573482
   6.8047061  59.9599004  56.9198317   7.3139290  59.6855576  56.3909159
  17.1115632  59.4691859  49.1869121  16.8552197  58.6571801  48.9967003
  17.9544946  59.4769427  48.9599308  17.1981657  59.3503857  49.1253938
  11.2918724  53.4091483  53.9245275  11.6729236  52.7269655  54.3113149
  10.4882008  53.1201086  53.7420939  11.2295186  53.2658532  53.9549331
   8.5731301  63.9415459  44.6098098   9.3871940  64.2330352  44.4980869
   8.5090442  63.2875322  44.0356391   8.6834040  63.8880654  44.5086935
  14.7940791  66.6241455  59.0227673  14.5579428  65.7929520  58.9039734
  15.4384020  66.5727063  59.6082517  14.8535462  66.4939143  59.0913567
   4.4439209  67.4136977  49.7370410   5.0813156  67.1748724  50.2822203
   4.8694281  67.6174136  49.0023570   4.6015375  67.4087987  49.7087567
   5.0842024  62.6339267  44.0745299   5.4687177  62.4146973  44.8261844
   4.8353645  63.4602212  44.2046375   5.1044097  62.7237413  44.2046375
   5.2510565  55.9145682  63.7907883   4.9364006  56.6845244  63.5277446
   4.9300497  55.3515938  63.2060110   5.1569484  55.9455950  63.6649233
  15.8177212  66.4085904  55.0855968  15.5123029  67.1413961  55.4469283
  15.0983427  66.0023834  54.8048754  15.6664554  66.4567637  55.0969105
   6.8260681  67.8909399  51.4164196   6.8999689  67.7284571  52.2706046
   7.6430187  68.0799589  51.1724678   6.9577040  67.8946142  51.5062222
  21.5179004  63.0478905  54.4124312  21.4503504  63.0674864  53.5426899
  21.5034666  63.8909232  54.6379983  21.5057760  63.1752640  54.3176789
   2.8042462  54.3036203  49.4054080   1.9364887  54.3758803  49.4711689
   3.0917666  55.1058282  49.5942055   2.7182210  54.4330350  49.4428846
  11.9275350  54.4514063  57.7365401  12.6728942  54.2623873  57.3228827
  11.5112655  54.9772301  57.1779258  11.9760325  54.5016208  57.5929975
  19.3037621  61.8223291  52.6870906  19.8545543  61.1891360  52.9267998
  19.2881737  62.3538684  53.3786411  19.3822818  61.8072239  52.8249765
   5.9560012  65.6561888  57.2330800   5.4571706  66.3677656  57.3115688
   6.7660236  65.9762555  57.1948962   6.0016119  65.8088737  57.2387368
   2.2188130  64.9184841  51.4793521   1.9301378  64.2922313  52.0139248
   3.0871478  64.8605129  51.5458201   2.3048382  64.8172386  51.5684475
  13.0066027  60.0619625  51.7975503  12.6630793  59.3409960  52.1482752
  13.1059070  59.8533476  50.9553861  12.9708070  59.9243828  51.7247183
  13.4679056  66.5245329  47.3399491  14.0337089  67.1838539  47.2558034
  12.8206960  66.8695027  47.8115893  13.4557813  66.6727270  47.3972247
   4.8827070  58.5142933  62.5293098   4.0726846  58.8200712  62.4182940
   5.3601757  59.2348515  62.6445682   4.8330549  58.6657534  62.5300169
   3.7418630  67.7288654  52.7776001   3.2199383  67.8688945  53.4627866
   4.1292650  66.9699318  52.9678118   3.7222331  67.6374178  52.9077078
   0.7309814  57.7794462  46.8470956   0.4434609  57.4095733  46.1102903
   1.4180282  58.2489318  46.5854661   0.7898711  57.7941432  46.6986032
   9.9385635  69.4684113  46.7636570   9.6972311  68.7351974  46.3563635
  10.1186967  70.0170970  46.1102903   9.9293259  69.4406504  46.6066793
   5.1684955  64.7592673  48.1757492   4.9727738  65.3667407  47.5817795
   5.3919301  64.0660617  47.6949166   5.1719596  64.7470198  48.0173573
   3.5663485  61.6447411  48.2938361   4.2886137  61.8088569  47.8342167
   3.0871478  62.3657076  48.1877700   3.6027216  61.7745640  48.2103975
  11.5256993  57.9811210  53.6735045  10.6868093  58.0072488  53.4373309
  11.5961360  58.6281945  54.2540392  11.4125386  58.0807335  53.7244162
   9.9726271  54.8796587  48.4062661  10.6752624  54.6804335  47.9282620
   9.7070460  54.1072529  48.7131505  10.0372903  54.7359553  48.3808103
  15.4014517  63.1879196  50.9596287  15.3148491  63.3434622  51.8131066
  14.9464997  63.8317272  50.5855692  15.3217773  63.3054951  51.0303394
   4.7354827  56.1431872  57.4593542   4.5438024  56.1587006  58.3092966
   5.5853423  56.3395546  57.4360197   4.8330549  56.1746223  57.5816837
   9.2740333  60.5089943  49.5821847   9.0275047  60.4285694  50.4158636
   9.6025456  59.7243411  49.3884374   9.2861576  60.3816209  49.6769370
  13.1688382  67.2173303  53.3708628  13.0302741  67.9154349  53.8757370
  12.3888379  67.0621959  53.0144810  13.0331608  67.2973469  53.3934902
  11.5066467  63.5169678  59.6231010  11.5014505  62.6449495  59.6273436
  12.2127461  63.7157847  59.1500465  11.6111471  63.4173552  59.5538045
   5.2337360  63.2446662  58.9944830   5.3780736  63.8247870  58.3587940
   5.5813009  63.6222959  59.6994684   5.3064821  63.3867366  59.0043825
   7.4057277  62.4436830  56.7769961   6.6580591  62.6367845  56.3718239
   7.5598803  61.6182050  56.5394083   7.3179705  62.3501942  56.6815367
  14.6641754  66.5751556  44.1325127  14.2848563  65.7888694  44.1254417
  14.0008000  67.1238414  43.9896771  14.5100229  66.5396380  44.1105924
   7.6459054  56.3387381  57.6665365   8.1031668  57.0711355  57.7938157
   7.7215383  55.9153846  58.4252621   7.7250024  56.3844619  57.7966442
  12.1186380  49.5177256  51.5359208  12.2369948  49.9753720  50.8026511
  11.9448556  48.7122517  51.2495426  12.1105551  49.4671028  51.3860142
   5.5241432  58.3289485  54.5107189   4.7337507  58.1480945  54.8324525
   5.9202055  57.5516438  54.4937484   5.4658308  58.1876946  54.5559738
  10.0107323  67.1577259  39.9513903  10.7780308  67.2177384  39.5419755
   9.5638632  66.5857701  39.4670221  10.0580750  67.0813835  39.8191613
  10.9085119  65.9631915  52.2366635  10.2330120  65.7317147  52.7380022
  10.9177495  65.3553098  51.6108740  10.8103623  65.8390840  52.2182787
   8.0379263  60.8049744  58.9930688   7.9738404  61.6659701  58.8650825
   8.1776450  60.4881737  58.1926239   8.0494733  60.8849911  58.8558901
  12.9101853  68.8197048  44.4676813  12.9921691  69.6264034  44.1438264
  13.3951595  68.8393007  45.1917587  12.9939011  68.9417710  44.5263712
   6.7198356  63.4981883  53.1346891   6.2960606  63.6986383  52.3985909
   6.5443212  62.6510731  53.2471191   6.6309237  63.4030665  53.0420581
   2.0080801  63.9933935  48.5674863   2.1645421  63.9280738  49.4230856
   2.3481395  64.7682487  48.3553543   2.0814036  64.0983133  48.6629458
   8.5459946  63.3691818  47.4368227   9.0875492  62.8662200  47.9006847
   8.8606505  63.3157013  46.6257712   8.6724343  63.2871239  47.3852039
  12.4177053  67.5794466  64.5495139  13.2311919  67.3079615  64.7100271
  12.2572020  67.2802006  63.7455335  12.5147002  67.4949392  64.4540545
   6.7146396  68.7609170  44.7208255   6.7839216  67.9023708  44.8601255
   7.4934851  68.9781051  44.3927279   6.8399246  68.6662034  44.6925412
   9.6949215  58.2628123  57.4890527   9.9091185  57.6239037  56.9353881
   9.0783115  58.7073947  57.0598389   9.6354545  58.2338267  57.3440958
  11.8588303  59.8717188  58.4273834  11.0464985  59.5643079  58.5087007
  12.3178238  59.3916188  58.9916546  11.8068688  59.7553681  58.5228428
  11.2693558  67.7496860  48.8750779  10.9108213  67.9211503  49.6514811
  10.7832269  68.2110066  48.3178777  11.1452255  67.8435831  48.9076048
   9.0863944  51.3728059  52.4777870   8.2157502  51.3466780  52.4311179
   9.3404285  51.2005251  51.6603716   8.9957504  51.3438202  52.3498007
   6.0581924  63.4296026  41.4151013   6.3474448  64.2060908  41.6894587
   6.1453722  62.9184757  42.1165512   6.1136180  63.4687944  41.5593511
   8.9541811  61.2777260  63.2102537   9.4241442  61.9019376  63.5970411
   9.0003691  60.6094235  63.7695751   9.0309687  61.2711940  63.3502608
   6.1113085  53.3834287  53.9351340   5.5951573  52.6914479  54.0602919
   5.5507013  54.0505064  53.8813939   5.9519598  53.3797545  53.9457406
   8.1805318  53.9227247  55.7644193   7.7937071  53.9476279  56.5457723
   7.6938255  53.3568926  55.3118710   8.0517827  53.8422998  55.8132097
  12.4298297  68.6400756  59.8217979  13.0678018  68.1460952  59.4880436
  11.7872389  68.5678157  59.2370206  12.4292524  68.5559765  59.6860334
  14.1555298  60.4889902  54.3883895  13.7282906  60.4016251  53.6331995
  13.5181351  60.5967678  54.9738739  13.9984905  60.4922562  54.3629337
   7.8462460  50.8094233  58.0554453   8.4755578  51.3454533  57.7775523
   8.0148322  50.7171592  58.9068018   7.9640254  50.8755595  58.1402981
   7.6476375  55.5965427  60.3280864   8.4749804  55.3250576  60.3839479
   7.6684221  56.3926269  60.6844683   7.7729225  55.6745182  60.3896047
  12.4852554  69.3320564  56.4623336  13.2744932  68.9809629  56.5825418
  12.6596152  70.1456953  56.1999970  12.6272836  69.4006422  56.4411204
   2.2245864  62.7429290  53.5151125   1.3833871  62.6433164  53.7230019
   2.4335872  63.5124770  53.8665446   2.1310557  62.8421333  53.5978440
  11.3386378  53.3430121  51.0239755  11.5435972  53.2752429  51.8696752
  11.0112802  54.1488942  50.9560932  11.3201626  53.4516062  51.1399410
   6.0362529  60.6710689  52.7648723   5.7325667  60.1166678  53.3659130
   5.3341950  60.8502899  52.2776757   5.8878739  60.6155472  52.7818428
   5.0928626  57.9811209  47.3293424   5.3688361  57.2630122  46.9170992
   5.6927296  58.5796129  47.1214531   5.2221891  57.9631580  47.2374186
  14.5920066  53.8961885  50.5042520  13.9794380  54.3832287  50.8896252
  14.6884241  53.2205376  51.0480171  14.5157964  53.8680194  50.6421378
   8.5939147  55.6524726  45.6040019   9.0482893  55.8235287  46.3287864
   9.0679193  55.0392837  45.2037795   8.7307467  55.5875612  45.6513781
   2.1154672  65.1373052  54.9342758   1.5242606  65.7782551  54.9045773
   2.8775696  65.5610670  54.9074057   2.1402933  65.2948891  54.9257905
   2.5115295  56.2975050  55.6010776   2.9716777  56.3713980  56.3385899
   2.5571402  57.0956304  55.2510597   2.5865850  56.4269197  55.6583532
   4.1598645  56.9641745  60.1682803   3.7684210  56.3175092  60.6038580
   4.3284508  57.5553180  60.7877058   4.1269555  56.9556013  60.3245509
  18.2345094  64.9678822  55.9320036  18.2928218  65.4165471  56.6780013
  17.6011561  65.3777635  55.4950116  18.1496389  65.0952557  55.9772585
  11.8744189  70.5882364  52.3674782  11.6763877  71.0773178  51.6730994
  11.2531900  70.7923605  52.9458916  11.7531753  70.6898902  52.3498006
   5.9352167  62.3567261  46.7085027   6.6794212  62.7441537  46.9467977
   6.0812863  61.5124686  46.8725515   6.0662752  62.2897734  46.7678996
   7.8531742  54.1517520  51.7416888   7.0067787  54.3240328  51.6158238
   7.8502875  53.3466863  52.0782716   7.7278892  54.0578549  51.7728015
   8.9230043  57.9292734  52.6078946   8.4489997  57.4034496  53.1184257
   9.2948179  57.3822207  52.0393808   8.9079932  57.7708731  52.5994093
  15.1866773  62.9895110  54.0185727  14.9464996  62.1501525  54.0228153
  15.6658781  63.0695277  54.7426500  15.2218957  62.8776509  54.1260529
  10.8513542  58.8229289  45.6704700  10.3236561  58.9058033  44.9810409
  11.3109251  59.5647160  45.6669345  10.8415393  58.9449951  45.5679395
  17.1871960  59.7696567  51.9714986  16.9481730  59.7292401  51.1335770
  17.3505862  60.6167719  52.0980707  17.1762264  59.8888652  51.8668468
  13.7917991  64.1546516  57.9020031  14.5152189  63.7019043  57.7231051
  13.5267953  64.4351182  57.1192359  13.8599264  64.1297485  57.7598746
   2.6604859  58.7506690  54.6372910   2.0357929  58.7625082  54.0298863
   2.3250454  59.2266865  55.2864150   2.5190351  58.8225207  54.6429479
   2.8446608  57.0931808  40.6945595   2.4959412  57.7451534  41.1577144
   2.3643053  57.0788921  39.9669466   2.7216852  57.1874862  40.6556686
  10.4050625  67.3932852  44.8014357  11.1284824  67.8590965  44.6578930
   9.9651216  67.4606462  44.0511954  10.4466317  67.4716689  44.6699138
   9.5736780  64.2530395  56.0515046   8.9593773  63.7088445  56.3463681
  10.0904065  63.7394631  55.5720862   9.5592442  64.0966804  56.0239274
   8.8133077  65.3234665  53.7859345   8.3860685  64.6984383  53.3524780
   8.8058022  65.0409586  54.6118352   8.7492218  65.1887445  53.8439172
   1.9295604  60.3599838  56.8547778   2.0889091  59.6043162  57.2599500
   1.7488498  60.9090777  57.5088516   1.9260963  60.3293651  57.0110484
   9.8715907  52.5261073  57.4098568   9.3756469  52.7224747  56.7190135
  10.6284969  52.9253741  57.2387370   9.9102732  52.6138807  57.2818705
   7.1418787  56.2003419  54.0001879   7.1661274  55.6663531  53.3114658
   7.3930260  55.6920728  54.6627469   7.1828706  56.0464323  53.9966523
   3.4220109  54.9274237  53.3807623   3.4618481  55.4283444  54.0942330
   2.5969774  55.0184631  53.1113546   3.3059635  55.0156054  53.4458161
   4.8434472  61.4434747  55.6781522   4.0126402  61.6108565  55.4716770
   4.7885990  61.0670698  56.4630407   4.7123887  61.4124478  55.7630050
   2.6518256  54.9343640  61.3137933   3.2770959  54.3905773  61.5867365
   2.1968736  54.4538558  60.7445723   2.6766516  54.7833121  61.2699526
   3.2170516  59.7190339  46.2071640   3.3573477  60.2162803  46.9100281
   3.7153049  59.0176633  46.3485853   3.3111597  59.6892317  46.3323219
   3.2470739  60.5857450  43.5364216   3.8815818  61.1817875  43.4713678
   3.3296350  60.2860907  44.3510087   3.3527290  60.6298358  43.6467303
  16.2253304  63.1172927  56.4050581  16.8171145  63.7570178  56.4368779
  16.6612299  62.4195964  56.6942647  16.3771736  63.1091277  56.4531413
   4.8249722  56.5171425  43.5109658   5.1465563  56.0374508  42.8568921
   5.0876665  57.3271071  43.3200470   4.9115747  56.5661323  43.3865150
   8.0546694  67.5390299  57.0308474   7.5471785  68.0926146  57.4749105
   7.7573341  67.5998589  56.2127249   7.9351579  67.6296611  56.9756931
  10.2208877  55.9043619  55.8733137  10.6463948  55.4516146  55.2616664
   9.6065870  55.3503690  56.1497925  10.1937522  55.7557595  55.8238163
   8.6603099  52.3758719  49.2823714   8.0171417  52.2256365  49.8508853
   8.3202506  52.1301064  48.5172819   8.5148177  52.3170841  49.2526730
  13.2502446  60.3318146  48.7053723  12.5793636  60.8747848  48.5766789
  13.9442196  60.8013001  48.4635418  13.2531313  60.4816417  48.6509251
  13.4130573  56.7874029  51.6144096  13.7658183  56.3603752  52.2889895
  12.5545375  56.7024873  51.7445173  13.3380018  56.7118770  51.7339107
   2.1114258  59.4181549  49.6726943   1.3926247  59.8345682  49.9399806
   2.4826621  59.9835788  49.1218581   2.0606190  59.5630830  49.6309750
  11.4113839  60.0509398  55.5628939  11.3911766  59.8692693  56.4163717
  11.4593040  60.9221416  55.5388522  11.4148480  60.1525936  55.6852233
   9.3560169  66.6396590  61.4877415   9.3156024  65.9946267  60.9022571
  10.1683487  66.5833207  61.8002827   9.4703323  66.5355557  61.4474364
   7.8860833  58.4579549  45.0100322   7.2925672  58.7796545  44.4584889
   7.9236110  57.6120644  44.8021428   7.8035222  58.3803877  44.8983094
  14.8454633  51.9092441  52.5428409  14.3385498  51.2021581  52.4749586
  15.6422067  51.5785630  52.6729485  14.8881873  51.7565593  52.5527404
  10.7618649  58.4159053  48.4402072  10.5332342  58.4391755  47.5980431
  11.0216725  57.5916520  48.5597083  10.7664837  58.2975133  48.3327270
   5.0437878  60.2693526  58.0427173   4.5316781  59.6614709  58.4012204
   4.8717374  60.9850119  58.5101148   4.9427515  60.2856826  58.1643396
   3.8163412  56.9535600  49.7356268   4.2920778  57.3152680  49.1006449
   3.3152011  57.6092067  50.0156411   3.8128771  57.1029789  49.6833009
  17.0474773  66.4257368  45.5269273  17.4308379  67.1748724  45.7567370
  16.2518887  66.6723188  45.2681262  16.9868556  66.5727062  45.5226847
   8.9206948  58.1917771  60.4829428   9.4778378  57.9631581  59.8507894
   8.5968013  58.9523437  60.2064641   8.9553358  58.2701608  60.3485925
   6.6390065  61.2785424  61.4481435   7.3901392  61.5937101  61.7620990
   6.8312642  61.0764595  60.6215357   6.7781479  61.2952806  61.3724831
   5.8590065  59.0976800  43.1029652   6.2389030  59.1156429  42.3180767
   5.1182661  59.5430788  42.9820499   5.8058903  59.1658574  42.9693220
  13.4875355  57.4058991  48.6905231  13.4869582  57.2507647  49.5489507
  13.2831536  58.2521978  48.6346616  13.4575133  57.5079611  48.8093170
  11.2116207  62.0856493  52.3441438  11.7069873  61.3679488  52.3045458
  10.4015983  61.7827290  52.2295925  11.1660101  61.9354139  52.3215164
   6.6574819  65.9354306  44.4938442   5.8486142  65.6120979  44.4471752
   7.1649728  65.2287528  44.4266691   6.6124486  65.7835622  44.4768737
  13.2768026  64.8360180  55.0318566  13.7023098  64.3134602  54.4788991
  12.9124946  65.4341017  54.5107189  13.2854629  64.8470407  54.8727576
   9.8646626  68.5494444  51.3619724  10.3357804  69.2634707  51.5309709
  10.2006804  67.9493194  51.8979593   9.9841741  68.5665909  51.4652100
   6.7816121  53.3221915  58.3177819   6.9144026  52.5252908  58.6458794
   7.1661274  53.8488318  58.8976094   6.8572450  53.2821832  58.4521322
  10.5020572  68.3412378  58.1247417   9.9541518  67.7170262  57.8567482
  10.9633601  68.5306650  57.4091496  10.4887782  68.2771429  57.9797848
   9.8548476  50.2452241  54.9158912   9.0494440  50.1349971  55.2326750
   9.7255211  50.3464697  54.0588778   9.7168609  50.2435911  54.8366952
  13.3114436  56.4097733  55.5098609  12.7277425  56.9106939  55.0976176
  13.6318731  55.9027289  54.8762932  13.2727612  56.4089568  55.3557116
   5.8509236  55.3238328  45.7857284   6.6724930  55.4936641  45.5438979
   5.3878887  55.4785589  45.0623581   5.9040398  55.3720061  45.6428928
   4.4404568  53.3181090  56.5655712   4.9848981  52.9772217  57.1560054
   4.4941503  54.1766552  56.7076997   4.5293687  53.3936349  56.6737586
  10.0678898  69.3463451  54.6556758  10.8877272  69.2026417  54.9173053
   9.7872976  69.9709650  55.1973196  10.1475642  69.4173803  54.7744697
  16.4668021  70.9383020  51.3442948  16.1371351  71.3894163  50.6746646
  15.7913022  70.8599183  51.8915954  16.3178457  70.9934155  51.3266171
  23.6744428  66.9268542  49.5892558  23.3597869  67.6172021  50.0212981
  23.1571370  66.8713325  48.8878059  23.5508899  67.0203431  49.5489507
  14.6723975  68.9995308  46.8265895  15.4269943  69.3673625  46.5882946
  14.4951509  69.3734862  47.5945075  14.7578453  69.1093496  46.9050784
  27.9658873  75.1489748  54.8713435  27.1287294  75.2191936  55.1061029
  27.9347104  75.1514243  53.9987737  27.8377156  75.1599975  54.7772983
  13.0281039  71.4065627  43.5244008  12.8456612  71.6237508  42.6985001
  13.8906652  71.5204640  43.5802623  13.1285629  71.4555525  43.4098495
  18.7080758  68.4092038  46.5593032  19.4366919  68.2307993  46.1131188
  18.7975651  69.2510117  46.7700210  18.8287420  68.5075916  46.5246550
  25.6466713  70.2132530  53.4557157  26.2892622  70.2830635  54.0419072
  25.8989734  69.5461753  52.9536699  25.7788845  70.1258879  53.4684436
  20.8817996  71.3069502  51.1668110  20.1774322  70.8178687  51.3252029
  20.9302970  71.3191976  50.2956555  20.7848047  71.2359150  51.0607450
  28.0848215  74.9877167  49.1869121  27.8284780  74.1757109  48.9967003
  28.9277529  74.9954734  48.9599308  28.1714241  74.8689165  49.1253938
  22.2651308  68.9276791  53.9245275  22.6461820  68.2454962  54.3113149
  21.4614592  68.6386393  53.7420939  22.2027770  68.7843840  53.9549331
  16.2243148  71.4330990  63.7907883  15.9096589  72.2030552  63.5277446
  15.9033081  70.8701246  63.2060110  16.1302067  71.4641258  63.6649233
  13.7775045  69.8221511  49.4054080  12.9097471  69.8944111  49.4711689
  14.0650249  70.6243590  49.5942055  13.6914793  69.9515658  49.4428846
  22.9007934  69.9699371  57.7365401  23.6461526  69.7809181  57.3228827
  22.4845239  70.4957608  57.1779258  22.9492908  70.0201516  57.5929975
  30.2770205  77.3408599  52.6870906  30.8278126  76.7076668  52.9267998
  30.2614320  77.8723992  53.3786411  30.3555401  77.3257547  52.8249765
  23.9798611  75.5804933  51.7975503  23.6363377  74.8595268  52.1482752
  24.0791654  75.3718784  50.9553861  23.9440654  75.4429136  51.7247183
  22.4989576  73.4996517  53.6735045  21.6600677  73.5257796  53.4373309
  22.5693944  74.1467253  54.2540392  22.3857970  73.5992643  53.7244162
  20.9458855  70.3981894  48.4062661  21.6485207  70.1989643  47.9282620
  20.6803043  69.6257837  48.7131505  21.0105487  70.2544860  48.3808103
  15.7087411  71.6617180  57.4593542  15.5170608  71.6772314  58.3092966
  16.5586007  71.8580854  57.4360197  15.8063133  71.6931531  57.5816837
  18.6191638  71.8572689  57.6665365  19.0764252  72.5896663  57.7938157
  18.6947967  71.4339154  58.4252621  18.6982608  71.9029927  57.7966442
  23.0918964  65.0362564  51.5359208  23.2102532  65.4939027  50.8026511
  22.9181140  64.2307825  51.2495426  23.0838135  64.9856336  51.3860142
  20.6681799  73.7813431  57.4890527  20.8823769  73.1424345  56.9353881
  20.0515698  74.2259255  57.0598389  20.6087128  73.7523575  57.3440958
  22.8320887  75.3902496  58.4273834  22.0197569  75.0828386  58.5087007
  23.2910822  74.9101496  58.9916546  22.7801272  75.2738988  58.5228428
  20.0596528  66.8913367  52.4777870  19.1890086  66.8652088  52.4311179
  20.3136869  66.7190559  51.6603716  19.9690088  66.8623510  52.3498007
  17.0845668  68.9019595  53.9351340  16.5684157  68.2099786  54.0602919
  16.5239597  69.5690372  53.8813939  16.9252181  68.8982853  53.9457406
  19.1537902  69.4412555  55.7644193  18.7669655  69.4661587  56.5457723
  18.6670839  68.8754234  55.3118710  19.0250411  69.3608306  55.8132097
  18.8195043  66.3279541  58.0554453  19.4488161  66.8639841  57.7775523
  18.9880906  66.2356899  58.9068018  18.9372838  66.3940903  58.1402981
  18.6208958  71.1150735  60.3280864  19.4482388  70.8435884  60.3839479
  18.6416804  71.9111577  60.6844683  18.7461808  71.1930489  60.3896047
  22.3118962  68.8615429  51.0239755  22.5168555  68.7937737  51.8696752
  21.9845386  69.6674250  50.9560932  22.2934210  68.9701369  51.1399410
  25.5652650  69.4147193  50.5042520  24.9526963  69.9017595  50.8896252
  25.6616824  68.7390684  51.0480171  25.4890547  69.3865502  50.6421378
  19.5671731  71.1710034  45.6040019  20.0215477  71.3420595  46.3287864
  20.0411776  70.5578145  45.2037795  19.7040051  71.1060920  45.6513781
  18.8264326  69.6702828  51.7416888  17.9800371  69.8425635  51.6158238
  18.8235458  68.8652171  52.0782716  18.7011476  69.5763857  51.7728015
  19.8962626  73.4478042  52.6078946  19.4222581  72.9219804  53.1184257
  20.2680762  72.9007515  52.0393808  19.8812515  73.2894039  52.5994093
  21.8246126  74.3414597  45.6704700  21.2969145  74.4243341  44.9810409
  22.2841834  75.0832468  45.6669345  21.8147976  74.4635259  45.5679395
  28.1604544  75.2881875  51.9714986  27.9214314  75.2477709  51.1335770
  28.3238445  76.1353027  52.0980707  28.1494847  75.4073960  51.8668468
  20.8448491  68.0446381  57.4098568  20.3489052  68.2410055  56.7190135
  21.6017553  68.4439049  57.2387370  20.8835316  68.1324115  57.2818705
  18.1151370  71.7188727  54.0001879  18.1393858  71.1848839  53.3114658
  18.3662844  71.2106036  54.6627469  18.1561289  71.5649631  53.9966523
  14.3952693  70.4459545  53.3807623  14.4351064  70.9468752  54.0942330
  13.5702357  70.5369939  53.1113546  14.2792219  70.5341362  53.4458161
  13.6250839  70.4528948  61.3137933  14.2503543  69.9091081  61.5867365
  13.1701319  69.9723866  60.7445723  13.6499100  70.3018429  61.2699526
  15.7982305  72.0356733  43.5109658  16.1198146  71.5559816  42.8568921
  16.0609249  72.8456379  43.3200470  15.8848331  72.0846631  43.3865150
  21.1941460  71.4228927  55.8733137  21.6196532  70.9701453  55.2616664
  20.5798453  70.8688998  56.1497925  21.1670105  71.2742903  55.8238163
  19.6335683  67.8944027  49.2823714  18.9904001  67.7441673  49.8508853
  19.2935090  67.6486372  48.5172819  19.4880760  67.8356149  49.2526730
  24.3863157  72.3059337  51.6144096  24.7390767  71.8789060  52.2889895
  23.5277958  72.2210181  51.7445173  24.3112602  72.2304078  51.7339107
  25.8187217  67.4277749  52.5428409  25.3118082  66.7206889  52.4749586
  26.6154651  67.0970938  52.6729485  25.8614456  67.2750901  52.5527404
  21.7351233  73.9344361  48.4402072  21.5064926  73.9577063  47.5980431
  21.9949309  73.1101828  48.5597083  21.7397421  73.8160441  48.3327270
  24.4607939  72.9244299  48.6905231  24.4602165  72.7692955  49.5489507
  24.2564119  73.7707286  48.6346616  24.4307717  73.0264919  48.8093170
  17.7548704  68.8407223  58.3177819  17.8876610  68.0438216  58.6458794
  18.1393857  69.3673626  58.8976094  17.8305033  68.8007140  58.4521322
  20.8281060  65.7637549  54.9158912  20.0227023  65.6535279  55.2326750
  20.6987795  65.8650005  54.0588778  20.6901192  65.7621219  54.8366952
  24.2847020  71.9283041  55.5098609  23.7010009  72.4292247  55.0976176
  24.6051314  71.4212597  54.8762932  24.2460195  71.9274876  55.3557116
  16.8241819  70.8423636  45.7857284  17.6457514  71.0121949  45.5438979
  16.3611470  70.9970897  45.0623581  16.8772981  70.8905369  45.6428928
  15.4137151  68.8366398  56.5655712  15.9581564  68.4957525  57.1560054
  15.4674087  69.6951859  56.7076997  15.5026271  68.9121657  56.6737586
   4.2878206  22.9035818  34.5539681   4.2572210  23.7580455  34.7257950
   4.8859554  22.6031111  35.1125825   4.3715363  22.9852315  34.6614483
   0.7971607  28.2597995  48.9153067   1.5038374  27.7650026  49.0440002
   0.9859542  28.7007076  48.1855725   0.9299513  28.2516345  48.8262113
   2.1094780  25.4788120  32.8257991   1.9934306  26.2295806  33.2550129
   2.9050667  25.2212074  33.0754078   2.2099370  25.5522967  32.9262082
   1.4230085  12.8276058  36.5232605   1.1083526  13.5179536  36.9553028
   0.9057027  12.7720840  35.8218106   1.2994555  12.9210946  36.4829554
   6.2190572  28.4026863  38.0103060   5.3888275  28.6137507  38.1736477
   6.1699824  27.5763918  37.7345344   6.0897307  28.3116469  37.9940426
   5.7144530  21.0497264  41.8053482   4.8772951  21.1199451  42.0401076
   5.6832761  21.0521759  40.9327784   5.5862812  21.0607491  41.7113030
   0.4374716  25.2452940  37.3965373   1.1932231  25.6784455  37.4354282
   0.5437040  24.5957710  37.9700009   0.5644886  25.2130424  37.4863399
   3.4754887  29.0726218  38.1467776   3.0390119  29.0762960  38.9026747
   3.1417802  29.7531717  37.7147353   3.3617507  29.1738673  38.1948609
   3.3952370  16.1140045  40.3897204   4.0378278  16.1838150  40.9759119
   3.6475391  15.4469268  39.8876746   3.5274502  16.0266394  40.4024483
   6.6099233  25.7907137  37.0387413   7.2715667  25.2297806  36.9383322
   5.9690645  25.2959168  37.3640104   6.6128101  25.6343546  37.0719753
   2.8964064  26.8072520  36.7799402   3.1319653  26.9517719  35.9526253
   3.0453628  27.5714928  37.1730916   2.9529867  26.9411574  36.7163006
   4.7254521  25.6474186  34.6169006   5.0562738  26.1801826  34.0109101
   5.2987609  25.7013074  35.2730957   4.8588200  25.7343755  34.6246788
   5.8333872  20.8884683  36.1209167   5.5770437  20.0764624  35.9307050
   6.6763186  20.8962250  35.8939355   5.9199898  20.7696680  36.0593985
   3.5159031  28.0434279  45.9567720   3.2797669  27.2122343  45.8379781
   4.1602260  27.9919886  46.5422564   3.5753702  27.9131967  46.0253614
   4.5395452  27.8278727  42.0196015   4.2341269  28.5606784  42.3809330
   3.8201668  27.4216657  41.7388801   4.3882794  27.8760460  42.0309152
  10.2397244  24.4671728  41.3464359  10.1721744  24.4867687  40.4766945
  10.2252907  25.3102055  41.5720029  10.2276001  24.5945463  41.2516836
   8.0255862  23.2416114  39.6210953   8.5763783  22.6084183  39.8608045
   8.0099977  23.7731507  40.3126457   8.1041058  23.2265062  39.7589811
   1.7284268  21.4812448  38.7315549   1.3849034  20.7602783  39.0822799
   1.8277310  21.2726299  37.8893908   1.6926311  21.3436651  38.6587229
   2.1897297  27.9438152  34.2739538   2.7555330  28.6031362  34.1898080
   1.5425200  28.2887850  34.7455940   2.1776053  28.0920093  34.3312294
   4.1232757  24.6072020  37.8936334   4.0366732  24.7627446  38.7471113
   3.6683237  25.2510095  37.5195739   4.0436014  24.7247775  37.9643441
   1.8906622  28.6366126  40.3048675   1.7520981  29.3347172  40.8097417
   1.1106620  28.4814782  39.9484857   1.7549849  28.7166293  40.3274949
   3.3859995  27.9944380  31.0665174   3.0066803  27.2081518  31.0594463
   2.7226240  28.5431237  30.9236818   3.2318470  27.9589204  31.0445971
   1.6320094  30.2389871  31.4016860   1.7139931  31.0456857  31.0778311
   2.1169836  30.2585830  32.1257633   1.7157251  30.3610533  31.4603758
   1.1395294  28.9987289  51.4835186   1.9530159  28.7272438  51.6440318
   0.9790260  28.6994829  50.6795382   1.2365242  28.9142215  51.3880592
   1.1516538  30.0593579  46.7558026   1.7896258  29.5653775  46.4220482
   0.5090629  29.9870980  46.1710253   1.1510764  29.9752588  46.6200381
   2.8773538  21.9082725  41.3223942   2.4501146  21.8209074  40.5672041
   2.2399591  22.0160501  41.9078786   2.7203145  21.9115385  41.2969383
   1.2070794  30.7513388  43.3963383   1.9963173  30.4002452  43.5165465
   1.3814392  31.5649776  43.1340017   1.3491076  30.8199245  43.3751251
   3.3138306  15.3154709  37.4382567   2.7012620  15.8025111  37.8236299
   3.4102481  14.6398199  37.9820218   3.2376204  15.2873017  37.5761425
   6.9563334  26.3871645  42.8660083   7.0146458  26.8358294  43.6120060
   6.3229802  26.7970458  42.4290163   6.8714629  26.5145380  42.9112631
   3.9085014  24.4087933  40.9525773   3.6683237  23.5694348  40.9568200
   4.3877021  24.4888100  41.6766547   3.9437197  24.2969333  41.0600576
   5.9090201  21.1889390  38.9055032   5.6699971  21.1485224  38.0675817
   6.0724102  22.0360542  39.0320754   5.8980504  21.3081475  38.8008514
   2.5136231  25.5739340  44.8360078   3.2370430  25.1211866  44.6571098
   2.2486193  25.8544005  44.0532405   2.5817504  25.5490308  44.6938793
   4.9471545  24.5365750  43.3390627   5.5389385  25.1763001  43.3708825
   5.3830539  23.8388787  43.6282694   5.0989976  24.5284101  43.3871460
   1.9720686  21.7510969  35.6393770   1.3011876  22.2940671  35.5106835
   2.6660436  22.2205824  35.3975465   1.9749554  21.9009240  35.5849298
   2.1348814  18.2066853  38.5484143   2.4876424  17.7796576  39.2229942
   1.2763615  18.1217696  38.6785219   2.0598258  18.1311593  38.6679154
   3.5672874  13.3285264  39.4768456   3.0603738  12.6214404  39.4089633
   4.3640307  12.9978453  39.6069532   3.6100113  13.1758416  39.4867451
   5.7693014  27.8450191  32.4609320   6.1526619  28.5941547  32.6907417
   4.9737127  28.0916011  32.2021309   5.7086796  27.9919885  32.4566894
   2.2093596  18.8251814  35.6245278   2.2087822  18.6700471  36.4829554
   2.0049776  19.6714801  35.5686663   2.1793374  18.9272435  35.7433217
   1.9986267  26.2553003  41.9658613   2.4241338  25.7327425  41.4129038
   1.6343187  26.8533841  41.4447236   2.0072869  26.2663230  41.8067623
   0.6741851  31.5788581  50.4751843   0.7838816  30.7897142  50.8308590
   1.0032747  31.4894517  49.6726181   0.7394257  31.4494434  50.4094234
   2.0332677  17.8290556  42.4438656   1.4495666  18.3299763  42.0316223
   2.3536971  17.3220112  41.8102979   1.9945852  17.8282391  42.2897163
  15.2610789  38.4221126  34.5539681  15.2304794  39.2765763  34.7257950
  15.8592138  38.1216419  35.1125825  15.3447947  38.5037623  34.6614483
   8.4610474  37.5096777  39.3092611   7.6048370  37.6705275  39.3601728
   8.5078128  36.6388841  39.3297672   8.3409585  37.4047579  39.3198677
   2.8451614  47.0459495  35.0729843   2.0934513  46.6675033  34.8445888
   3.2937625  47.0777929  34.3248653   2.8001281  46.9945102  34.9287345
  11.7704191  43.7783303  48.9153067  12.4770958  43.2835333  49.0440002
  11.9592126  44.2192384  48.1855725  11.9032096  43.7701653  48.8262113
   8.2976574  47.4684864  30.5015390   7.9627942  48.1461786  30.0659612
   8.8103444  47.0790176  29.9132262   8.3242155  47.5109443  30.3502181
   7.8380865  49.4199133  36.4426502   8.2220244  49.9886032  35.9031277
   7.7740006  48.6948644  35.9632318   7.8854292  49.3974597  36.2920364
  11.3062295  39.5688821  41.9524263  11.8518255  40.2473908  42.0118233
  11.2479171  39.4276282  41.0925845  11.3778209  39.6480823  41.8336324
   4.4236370  47.0577887  37.3392615   4.5246733  46.2478241  37.6489743
   3.8278115  46.9634834  36.7092294   4.3508909  46.9242915  37.2918854
  13.0827364  40.9973428  32.8257991  12.9666890  41.7481114  33.2550129
  13.8783250  40.7397381  33.0754078  13.1831953  41.0708275  32.9262082
   4.2637110  51.9755476  38.7407471   4.9074565  52.4168640  39.1303630
   4.5893365  51.1708903  38.6537730   4.4068938  51.9220671  38.7852949
   4.9657689  44.9867451  34.1127333   5.2873530  45.5272658  33.5088641
   5.6129786  44.4164223  34.2449623   5.1083744  44.9826626  34.0434369
   7.0159397  36.9883446  34.1961720   7.7139562  37.1671574  34.6883183
   7.3311730  36.4653785  33.5732109   7.1654734  36.9377218  34.1763730
   7.2047333  43.3753891  34.1841511   7.6440968  42.7670992  34.6296284
   7.0551996  42.9961264  33.4126976   7.2468798  43.2292362  34.1360679
   4.6718976  41.9697903  41.3860337   5.3167978  41.4770346  41.0671285
   4.9120753  42.1122690  42.2126415   4.8029561  41.9175345  41.4609870
   7.2105067  44.8152809  41.0367229   7.4928310  44.0204215  40.8153985
   7.9391227  45.2933396  41.0572290   7.3594631  44.7687406  41.0070245
   5.1886261  32.3575843  38.2782995   4.8589591  32.8086986  37.6086693
   4.5131263  32.2792006  38.8256001   5.0396697  32.4126978  38.2606218
  10.8056669  41.7281072  31.1372281  10.7207964  42.5842039  31.2821849
  11.2941052  41.4525397  31.8054440  10.8645567  41.8138394  31.2574362
  12.3962669  28.3461366  36.5232605  12.0816110  29.0364844  36.9553028
  11.8789610  28.2906148  35.8218106  12.2727139  28.4396254  36.4829554
  11.7375102  38.3465867  32.6370016  11.2086574  38.5625500  33.2967322
  12.2600122  39.0402005  32.5570985  11.7363555  38.4809003  32.7225615
  17.1923155  43.9212171  38.0103060  16.3620858  44.1322815  38.1736477
  17.1432408  43.0949226  37.7345344  17.0629891  43.8301777  37.9940426
   3.6274710  42.2429083  31.4377484   3.0431925  42.7479115  31.8443348
   3.2244805  42.0171470  30.6974076   3.4814014  42.2837332  31.3882509
   5.2532893  46.7516025  40.8450970   4.7359835  46.3923440  40.2412278
   5.9507284  46.2278200  40.8557036   5.2798474  46.6213713  40.7581228
   8.9096485  47.2010839  46.8067143   8.9979831  47.0136980  47.6545353
   9.3386197  46.5548269  46.4071990   8.9858587  47.0773847  46.8738894
   6.4766945  46.4841999  45.7884805   5.9137779  46.0714609  46.3124466
   7.2387968  46.4094905  46.2077948   6.5061393  46.4119400  45.9277805
   8.0851925  38.4894735  29.9146404   8.3247928  38.6972719  29.1021747
   8.4067766  37.6852244  30.0235349   8.1689083  38.4008837  29.8106957
   3.3942215  30.4188131  33.7605942   4.1488183  30.7866448  33.5222992
   3.2169750  30.7927686  34.5285122   3.4796693  30.5286319  33.8390831
   2.0362936  48.4740020  38.3921435   2.7383515  47.9592009  38.4494192
   1.9560419  48.8014172  39.1968310   2.1286697  48.4454247  38.5194227
  16.6877114  36.5682572  41.8053482  15.8505535  36.6384759  42.0401076
  16.6565345  36.5707067  40.9327784  16.5595396  36.5792799  41.7113030
   3.0841843  38.7115607  47.5201850   3.2562346  38.6021502  48.3687132
   3.6211200  39.3570013  47.2833042   3.1886847  38.7907609  47.6106947
   1.7499280  32.8258450  30.4584055   1.5674853  33.0430331  29.6325048
   2.6124893  32.9397463  30.5142670   1.8503869  32.8748348  30.3438542
   1.3613712  44.6646372  37.9007043   2.2002611  44.8969305  37.9480805
   1.3925481  43.7950684  37.8314079   1.4895429  44.5703319  37.8971688
   1.9866415  45.0847248  42.2020349   2.5264640  44.9418379  42.8723721
   1.3036361  45.4843998  42.5704375   1.9658568  45.1226919  42.3554770
  11.4107299  40.7638248  37.3965373  12.1664814  41.1969763  37.4354282
  11.5169624  40.1143018  37.9700009  11.5377470  40.7315732  37.4863399
  14.4487471  44.5911525  38.1467776  14.0122702  44.5948268  38.9026747
  14.1150386  45.2717024  37.7147353  14.3350091  44.6923981  38.1948609
   9.0216544  46.6319858  49.4710926   9.8056961  46.7450706  49.8366668
   8.8213139  45.8060995  49.6669612   9.1082570  46.5266578  49.5545312
  14.3684953  31.6325353  40.3897204  15.0110862  31.7023458  40.9759119
  14.6207974  30.9654576  39.8876746  14.5007086  31.5451702  40.4024483
   1.2961307  36.1032623  28.9706528   0.5819484  35.8170802  29.3828961
   1.7805275  36.4429249  29.6112916   1.2620670  36.1114272  29.1262163
   2.1402166  34.8425917  45.0021778   1.4473963  34.3722896  45.2482509
   2.7562493  34.6164221  45.5763485   2.1286696  34.7393049  45.1230930
   9.1786938  48.5429960  43.1177382   8.3802183  48.3029460  43.3751251
   9.6272949  48.5944353  43.8644430   9.1261549  48.5152352  43.2662306
   8.4708625  44.6062577  29.3468336   8.8859773  44.2747601  28.6552832
   7.6400554  44.3731479  29.2188473   8.4096633  44.5233833  29.2259184
  13.8696647  42.3257828  36.7799402  14.1052237  42.4703027  35.9526253
  14.0186211  43.0900236  37.1730916  13.9262451  42.4596882  36.7163006
   0.8642725  38.8091321  46.1448623   1.5882697  38.7944351  46.6313518
   0.9658861  39.5186676  45.6470591   0.9860934  38.9116024  46.1427410
  15.6987104  41.1659494  34.6169006  16.0295321  41.6987134  34.0109101
  16.2720192  41.2198381  35.2730957  15.8320783  41.2529063  34.6246788
   8.2387674  42.2890405  51.0097570   7.4460655  42.6033917  51.1950190
   8.3536602  42.5041874  50.1718355   8.1383085  42.3674242  50.9135905
  10.9118993  39.0124396  35.2992586  11.0065848  39.7513691  35.7532211
  10.2877837  38.5841872  35.7327150  10.8328023  39.0585717  35.4300733
   9.1671467  42.1910609  45.9482867   9.7410329  41.5537853  46.1031431
   9.0886271  42.1914691  45.0792524   9.2404702  42.0975720  45.8429278
  11.1642015  40.8573136  28.5329538  11.0822177  40.9275323  29.3984525
  11.8021735  41.4202880  28.3413279  11.2461852  40.9512107  28.6319487
   4.5235186  40.6233874  38.0004064   4.2654430  39.7905609  37.9735364
   4.5783669  40.8491487  37.1596565   4.4934964  40.5331645  37.8724201
   9.6036236  32.7262325  38.1008157   8.8992563  32.2371510  38.2592076
   9.6521210  32.7384799  37.2296601   9.5066288  32.6551973  37.9947497
   3.4969898  38.1771637  38.4868959   2.9219489  38.3363805  39.1232920
   3.1205574  37.5407046  38.0237410   3.3572710  38.1069450  38.5123517
   7.1643187  36.6494986  43.3461337   6.7757619  36.2249204  42.6913529
   6.4997885  36.8977136  43.8538364   7.0090114  36.6233707  43.3249205
  16.8066456  36.4069991  36.1209167  16.5503021  35.5949932  35.9307050
  17.6495770  36.4147558  35.8939355  16.8932481  36.2881988  36.0593985
  10.9869548  30.3469615  40.8585322  11.3680060  29.6647786  41.2453196
  10.1832832  30.0579217  40.6760986  10.9246010  30.2036663  40.8889378
   8.2682125  40.8793590  31.5438144   9.0822764  41.1708483  31.4320916
   8.2041266  40.2253453  30.9696437   8.3784864  40.8258785  31.4426982
  14.4891615  43.5619587  45.9567720  14.2530252  42.7307651  45.8379781
  15.1334844  43.5105194  46.5422564  14.5486286  43.4317275  46.0253614
   4.1390033  44.3515108  36.6710456   4.7763980  44.1126855  37.2162250
   4.5645105  44.5552267  35.9363617   4.2966199  44.3466118  36.6427614
   4.7792848  39.5717398  31.0085346   5.1638001  39.3525104  31.7601891
   4.5304468  40.3980343  31.1386422   4.7994921  39.6615544  31.1386422
   4.9461389  32.8523813  50.7247930   4.6314830  33.6223376  50.4617493
   4.6251321  32.2894069  50.1400157   4.8520308  32.8834082  50.5989280
  15.5128036  43.3464035  42.0196015  15.2073853  44.0792092  42.3809330
  14.7934251  42.9401965  41.7388801  15.3615378  43.3945768  42.0309152
   6.5211505  44.8287531  38.3504243   6.5950513  44.6662702  39.2046093
   7.3381011  45.0177720  38.1064724   6.6527864  44.8324273  38.4402268
   2.4993286  31.2414334  36.3394126   1.6315711  31.3136934  36.4051736
   2.7868490  32.0436413  36.5282101   2.4133034  31.3708481  36.3768893
  11.6226174  31.3892194  44.6705448  12.3679766  31.2002004  44.2568874
  11.2063479  31.9150432  44.1119305  11.6711149  31.4394339  44.5270021
   5.0616091  47.7922274  33.0817716   5.3514389  47.4011255  32.3576943
   5.7919572  47.9738979  33.5222991   5.2122975  47.7616087  33.0400523
   5.6510836  42.5940020  44.1670847   5.1522530  43.3055787  44.2455735
   6.4611060  42.9140686  44.1289009   5.6966943  42.7466868  44.1727415
   3.0022006  49.7689656  36.1477866   2.7822302  49.4787011  36.9404533
   2.7816528  49.1104611  35.6195778   2.9369601  49.6289364  36.1866775
   1.9138954  41.8562973  38.4133568   1.6252202  41.2300444  38.9479295
   2.7822302  41.7983260  38.4798248   1.9999205  41.7550517  38.5024522
  12.7016851  36.9997756  38.7315549  12.3581617  36.2788091  39.0822799
  12.8009894  36.7911607  37.8893908  12.6658894  36.8621959  38.6587229
   5.1689962  51.1419046  34.9308558   5.8214020  50.6095488  35.1599584
   4.4715571  50.7887698  35.3176432   5.1620680  51.0108569  35.0220726
   2.1171227  43.4958224  34.3375933   2.8717195  43.8771263  34.5511395
   1.5241840  43.9469367  34.7922629   2.1407941  43.6187051  34.4358811
   4.5777894  35.4521064  49.4633145   3.7677670  35.7578844  49.3522987
   5.0552581  36.1726646  49.5785729   4.5281373  35.6035665  49.4640216
   3.4369454  44.6666785  39.7116048   2.9150207  44.8067077  40.3967913
   3.8243474  43.9077449  39.9018165   3.4173154  44.5752309  39.8417124
   9.6336459  46.4062244  33.6976617   9.3923134  45.6730105  33.2903682
   9.8137791  46.9549101  33.0442950   9.6244083  46.3784635  33.5406840
   4.8635779  41.6970804  35.1097539   4.6678562  42.3045539  34.5157842
   5.0870125  41.0038748  34.6289213   4.8670420  41.6848329  34.9513620
   3.2614309  38.5825542  35.2278407   3.9836961  38.7466700  34.7682213
   2.7822302  39.3035207  35.1217747   3.2978040  38.7123771  35.1444021
  11.2207817  34.9189341  40.6075092  10.3818917  34.9450620  40.3713356
  11.2912184  35.5660076  41.1880439  11.1076210  35.0185467  40.6584209
   0.9121926  40.9883614  44.3332547   1.4243023  41.2667868  43.6841307
   0.6258268  41.7272908  44.6995360   0.9456789  41.1385968  44.2922425
   9.6677095  31.8174718  35.3402708  10.3703448  31.6182466  34.8622666
   9.4021284  31.0450660  35.6471552   9.7323727  31.6737684  35.3148150
  15.0965341  40.1257327  37.8936334  15.0099315  40.2812754  38.7471113
  14.6415821  40.7695403  37.5195739  15.0168597  40.2433083  37.9643441
   4.4305651  33.0810003  44.3933589   4.2388848  33.0965137  45.2433012
   5.2804247  33.2773677  44.3700244   4.5281373  33.1124354  44.5156884
   8.9691157  37.4468075  36.5161894   8.7225871  37.3663825  37.3498682
   9.2976280  36.6621542  36.3224421   8.9812400  37.3194340  36.6109417
  12.8639205  44.1551434  40.3048675  12.7253565  44.8532480  40.8097417
  12.0839203  44.0000090  39.9484857  12.7282432  44.2351601  40.3274949
  11.2017291  40.4547809  46.5571056  11.1965329  39.5827626  46.5613483
  11.9078284  40.6535978  46.0840512  11.3062295  40.3551683  46.4878092
   4.9288184  40.1824793  45.9284877   5.0731560  40.7626001  45.2927987
   5.2763832  40.5601090  46.6334731   5.0015645  40.3245497  45.9383872
   7.1008101  39.3814962  43.7110008   6.3531415  39.5745976  43.3058286
   7.2549627  38.5560181  43.4734130   7.0130529  39.2880073  43.6155414
   4.0015939  48.3727565  42.7945903   4.1505503  47.8130481  42.1419308
   4.7815941  48.4519567  43.1778422   4.1390033  48.3013130  42.7542853
  14.3592578  43.5129688  31.0665174  13.9799387  42.7266826  31.0594463
  13.6958824  44.0616545  30.9236818  14.2051053  43.4774512  31.0445971
   6.5269240  48.5442208  44.0730394   6.4512911  47.8751018  44.6281183
   6.4559099  49.2459996  44.5871061   6.5049846  48.5487115  44.2307242
   7.3409878  33.2765512  44.6005412   7.7982492  34.0089487  44.7278204
   7.4166207  32.8531978  45.3592668   7.4200848  33.3222750  44.7306488
  11.8137204  26.4555387  38.4699255  11.9320772  26.9131851  37.7366558
  11.6399380  25.6500649  38.1835472  11.8056375  26.4049160  38.3200189
   7.1839486  47.0643207  34.9054000   7.9489378  46.7952850  34.5836664
   7.0817576  46.5793217  35.6224063   7.2820982  46.9532771  34.9633828
   5.2192256  35.2667616  41.4447236   4.4288331  35.0859076  41.7664572
   5.6152879  34.4894569  41.4277530   5.1609132  35.1255077  41.4899784
  10.6035943  42.9010046  39.1706682   9.9280944  42.6695279  39.6720069
  10.6128319  42.2931229  38.5448787  10.5054447  42.7768972  39.1522834
   7.7330087  37.7427875  45.9270735   7.6689228  38.6037832  45.7990872
   7.8727274  37.4259869  45.1266286   7.7445557  37.8228042  45.7898948
  12.6052677  45.7575179  31.4016860  12.6872515  46.5642165  31.0778311
  13.0902419  45.7771138  32.1257633  12.6889835  45.8795841  31.4603758
   6.4149180  40.4360015  40.0686938   5.9911430  40.6364514  39.3325956
   6.2394036  39.5888863  40.1811238   6.3260061  40.3408796  39.9760628
   1.7031625  40.9312066  35.5014910   1.8596245  40.8658869  36.3570902
   2.0432218  41.7060619  35.2893590   1.7764860  41.0361264  35.5969504
   8.2410770  40.3069950  34.3708274   8.7826315  39.8040331  34.8346894
   8.5557329  40.2535144  33.5597759   8.3675167  40.2249371  34.3192086
  12.1127877  44.5172597  51.4835186  12.9262743  44.2457746  51.6440318
  11.9522844  44.2180137  50.6795382  12.2097826  44.4327523  51.3880592
   6.4097220  45.6987301  31.6548302   6.4790040  44.8401840  31.7941302
   7.1885675  45.9159182  31.3267326   6.5350070  45.6040165  31.6265459
   9.3900039  35.2006254  44.4230574   9.6042009  34.5617168  43.8693928
   8.7733939  35.6452078  43.9938436   9.3305369  35.1716398  44.2781005
  10.8004707  48.1225002  35.8684795  10.4084499  47.8191718  35.1507661
  10.9557780  48.9594092  35.6789749  10.7658297  48.2008839  35.7341292
  11.5539127  36.8095319  45.3613881  10.7415809  36.5021210  45.4427054
  12.0129062  36.3294319  45.9256593  11.5019512  36.6931812  45.4568475
  10.9644382  44.6874991  35.8090825  10.6059037  44.8589634  36.5854858
  10.4783093  45.1488197  35.2518824  10.8403079  44.7813962  35.8416095
   8.7814768  28.3106190  39.4117917   7.9108326  28.2844911  39.3651226
   9.0355109  28.1383382  38.5943762   8.6908328  28.2816334  39.2838054
   5.7532747  40.3674157  28.3491060   6.0425272  41.1439039  28.6234634
   5.8404546  39.8562888  29.0505559   5.8087004  40.4066075  28.4933558
   8.6492635  38.2155391  50.1442583   9.1192266  38.8397507  50.5310457
   8.6954515  37.5472366  50.7035798   8.7260511  38.2090071  50.2842655
   5.8063909  30.3212418  40.8691387   5.2902397  29.6292610  40.9942966
   5.2457837  30.9883195  40.8153986   5.6470422  30.3175676  40.8797453
   7.8756142  30.8605378  42.6984240   7.4887895  30.8854410  43.4797770
   7.3889079  30.2947057  42.2458756   7.7468651  30.7801129  42.7472143
  12.1249121  45.5778887  46.7558026  12.7628842  45.0839083  46.4220482
  11.4823213  45.5056288  46.1710253  12.1243348  45.4937896  46.6200381
  13.8506121  37.4268033  41.3223942  13.4233730  37.3394382  40.5672041
  13.2132174  37.5345809  41.9078786  13.6935729  37.4300693  41.2969383
   7.5413284  27.7472364  44.9894500   8.1706402  28.2832664  44.7115570
   7.7099146  27.6549723  45.8408065   7.6591078  27.8133726  45.0743028
   7.3427199  32.5343558  47.2620911   8.1700628  32.2628707  47.3179526
   7.3635045  33.3304400  47.6184729   7.4680049  32.6123313  47.3236094
  12.1803378  46.2698696  43.3963383  12.9695756  45.9187760  43.5165465
  12.3546976  47.0835084  43.1340017  12.3223660  46.3384553  43.3751251
   1.9196688  39.6807421  40.4491172   1.0784695  39.5811295  40.6570066
   2.1286696  40.4502902  40.8005493   1.8261381  39.7799465  40.5318487
  11.0337202  30.2808252  37.9579801  11.2386796  30.2130560  38.8036799
  10.7063626  31.0867073  37.8900979  11.0152450  30.3894193  38.0739457
   5.7313353  37.6088820  39.6988769   5.4276491  37.0544809  40.2999177
   5.0292774  37.7881030  39.2116804   5.5829563  37.5533603  39.7158475
   4.7879450  34.9189340  34.2633471   5.0639185  34.2008253  33.8511039
   5.3878120  35.5174260  34.0554577   4.9172715  34.9009711  34.1714232
   3.7931704  44.8238541  44.4060867   3.6852059  44.8340603  45.2722925
   4.0027486  45.6493322  44.2165821   3.8081815  44.9479616  44.5064959
  14.2870890  30.8340017  37.4382567  13.6745203  31.3210419  37.8236299
  14.3835065  30.1583507  37.9820218  14.2108788  30.8058325  37.5761425
   8.2889971  32.5902858  32.5380066   8.7433717  32.7613418  33.2627911
   8.7630017  31.9770968  32.1377842   8.4258291  32.5253743  32.5853828
   1.8105496  42.0751184  41.8682805   1.2193430  42.7160682  41.8385820
   2.5726520  42.4988801  41.8414104   1.8353757  42.2327022  41.8597952
   2.2066119  33.2353181  42.5350822   2.6667601  33.3092111  43.2725946
   2.2522226  34.0334435  42.1850644   2.2816674  33.3647328  42.5923579
   3.8549469  33.9019876  47.1022850   3.4635034  33.2553223  47.5378627
   4.0235332  34.4931311  47.7217105   3.8220379  33.8934144  47.2585555
  17.9295918  41.9056953  42.8660083  17.9879042  42.3543602  43.6120060
  17.2962385  42.3155766  42.4290163  17.8447213  42.0330688  42.9112631
  11.5695013  47.5260495  39.3014829  11.3714701  48.0151310  38.6071041
  10.9482724  47.7301737  39.8798963  11.4482577  47.6277033  39.2838053
   5.6302991  39.2945392  33.6425074   6.3745036  39.6819668  33.8808023
   5.7763687  38.4502817  33.8065561   5.7613576  39.2275865  33.7019043
   7.5482566  31.0895651  38.6756935   6.7018611  31.2618459  38.5498285
   7.5453699  30.2844995  39.0122763   7.4229716  30.9956680  38.7068062
   8.6180867  34.8670865  39.5418993   8.1440821  34.3412627  40.0524304
   8.9899003  34.3200338  38.9733854   8.6030756  34.7086862  39.5334140
  14.8817597  39.9273241  40.9525773  14.6415820  39.0879656  40.9568200
  15.3609604  40.0073408  41.6766547  14.9169781  39.8154641  41.0600576
  10.5464366  35.7607420  32.6044747  10.0187385  35.8436164  31.9150455
  11.0060075  36.5025291  32.6009391  10.5366217  35.8828082  32.5019442
  16.8822784  36.7074698  38.9055032  16.6432554  36.6670532  38.0675817
  17.0456686  37.5545850  39.0320754  16.8713088  36.8266783  38.8008514
  13.4868814  41.0924647  44.8360078  14.2103013  40.6397174  44.6571098
  13.2218777  41.3729313  44.0532405  13.5550088  41.0675616  44.6938793
   2.3555683  35.6884821  41.5712957   1.7308753  35.7003213  40.9638910
   2.0201278  36.1644996  42.2204197   2.2141175  35.7603338  41.5769525
   2.5397432  34.0309939  27.6285642   2.1910236  34.6829665  28.0917191
   2.0593877  34.0167053  26.9009513   2.4167675  34.1252993  27.5896733
  10.1001449  44.3310983  31.7354404  10.8235648  44.7969096  31.5918977
   9.6602040  44.3984593  30.9852001  10.1417141  44.4094820  31.6039185
   9.2687604  41.1908526  42.9855093   8.6544597  40.6466576  43.2803728
   9.7854889  40.6772762  42.5060909   9.2543266  41.0344935  42.9579321
   8.5083901  42.2612796  40.7199391   8.0811509  41.6362514  40.2864827
   8.5008846  41.9787718  41.5458399   8.4443042  42.1265576  40.7779219
   1.6246428  37.2977969  43.7887825   1.7839915  36.5421293  44.1939547
   1.4439322  37.8468908  44.4428563   1.6211787  37.2671783  43.9450531
   9.5666731  29.4639204  44.3438615   9.0707292  29.6602879  43.6530181
  10.3235793  29.8631873  44.1727416   9.6053556  29.5516938  44.2158752
   6.8369611  33.1381550  40.9341925   6.8612098  32.6041663  40.2454705
   7.0881084  32.6298859  41.5967516   6.8779529  32.9842454  40.9306570
   3.1170933  31.8652369  40.3147670   3.1569305  32.3661575  41.0282377
   2.2920598  31.9562762  40.0453593   3.0010459  31.9534185  40.3798208
   5.3000546  41.4313109  48.4167964   4.4496176  41.5684823  48.5525609
   5.4628674  40.6976887  48.8615666   5.1984409  41.3427210  48.5023563
   4.5385296  38.3812878  42.6121569   3.7077226  38.5486696  42.4056817
   4.4836814  38.0048829  43.3970454   4.4074711  38.3502610  42.6970097
   2.3469080  31.8721771  48.2477979   2.9721783  31.3283904  48.5207412
   1.8919560  31.3916689  47.6785770   2.3717340  31.7211253  48.2039573
   2.9121340  36.6568470  33.1411686   3.0524301  37.1540934  33.8440328
   3.4103873  35.9554764  33.2825900   3.0062421  36.6270449  33.2663265
   2.9421563  37.5235581  30.4704263   3.5766642  38.1196006  30.4053725
   3.0247173  37.2239039  31.2850133   3.0478114  37.5676489  30.5807350
  15.9204128  40.0551058  43.3390627  16.5121969  40.6948309  43.3708825
  16.3563123  39.3574095  43.6282694  16.0722560  40.0469409  43.3871460
   4.5200545  33.4549556  30.4449705   4.8416387  32.9752639  29.7908967
   4.7827489  34.2649202  30.2540517   4.6066571  33.5039454  30.3205197
   7.7497518  44.4768431  43.9648521   7.2422609  45.0304278  44.4089152
   7.4524164  44.5376721  43.1467296   7.6302403  44.5674742  43.9096978
   9.9159700  32.8421750  42.8073184  10.3414772  32.3894277  42.1956711
   9.3016694  32.2881821  43.0837972   9.8888346  32.6935727  42.7578210
  10.3605299  48.3931688  31.8952465   9.6434608  48.2192551  31.4299702
  11.0112036  48.1584261  31.3627951  10.3507149  48.3327481  31.7481683
   8.3553923  29.3136850  36.2163761   7.7122241  29.1634496  36.7848900
   8.0153330  29.0679195  35.4512866   8.2099001  29.2548973  36.1866776
  12.9453270  37.2696277  35.6393770  12.2744460  37.8125979  35.5106835
  13.6393020  37.7391132  35.3975465  12.9482137  37.4194548  35.5849298
   6.9940004  49.4092989  40.8705528   6.7705658  48.6511818  41.2389554
   6.5049847  49.4391010  40.1485968   6.8883453  49.3015213  40.8182269
  13.1081397  33.7252161  38.5484143  13.4609007  33.2981883  39.2229942
  12.2496199  33.6403004  38.6785219  13.0330842  33.6496901  38.6679154
   1.8065082  36.3559680  36.6066990   1.0877071  36.7723813  36.8739853
   2.1777445  36.9213919  36.0558628   1.7557014  36.5008962  36.5649797
  11.1064663  36.9887529  42.4968985  11.0862590  36.8070824  43.3503764
  11.1543864  37.8599548  42.4728569  11.1099304  37.0904067  42.6192280
   9.0510993  43.5774721  48.4217462   9.0106848  42.9324398  47.8362618
   9.8634311  43.5211339  48.7342874   9.1654146  43.4733688  48.3814411
   5.6418460  49.6293447  38.3242613   5.2278859  48.9667577  37.9346454
   6.3265835  49.7771306  37.8038307   5.6816832  49.5534105  38.1899110
   9.0083755  48.7883532  39.0766229   8.6100038  48.8985803  38.3087050
   8.3934974  48.9965599  39.6592789   8.8582644  48.8357100  39.0497529
   7.5811657  35.3957680  31.9440369   6.9876496  35.7174677  31.3924936
   7.6186934  34.5498776  31.7361475   7.4986046  35.3182008  31.8323140
  14.5405457  28.8470572  39.4768456  14.0336322  28.1399712  39.4089633
  15.3372891  28.5163761  39.6069532  14.5832697  28.6943724  39.4867451
  10.4569473  35.3537185  35.3742119  10.2283166  35.3769886  34.5320478
  10.7167549  34.5294652  35.4937130  10.4615661  35.2353265  35.2667317
   4.7388702  37.2071658  44.9767220   4.2267605  36.5992841  45.3352251
   4.5668198  37.9228250  45.4441195   4.6378339  37.2234957  45.0983443
   3.5114236  33.8913731  36.6696315   3.9871602  34.2530811  36.0346496
   3.0102835  34.5470199  36.9496458   3.5079595  34.0407920  36.6173056
  16.7425597  43.3635499  32.4609320  17.1259203  44.1126855  32.6907417
  15.9469711  43.6101319  32.2021309  16.6819380  43.5105193  32.4566894
   8.6157772  35.1295902  47.4169475   9.1729202  34.9009712  46.7847940
   8.2918837  35.8901568  47.1404687   8.6504182  35.2079739  47.2825972
   6.3340889  38.2163556  48.3821482   7.0852216  38.5315232  48.6961036
   6.5263466  38.0142727  47.5555404   6.4732303  38.2330937  48.3064878
   5.5540889  36.0354931  30.0369699   5.9339854  36.0534560  29.2520814
   4.8133485  36.4808920  29.9160546   5.5009727  36.1036705  29.9033267
  13.1826179  34.3437122  35.6245278  13.1820406  34.1885778  36.4829554
  12.9782359  35.1900109  35.5686663  13.1525957  34.4457743  35.7433217
  10.9067031  39.0234624  39.2781484  11.4020697  38.3057619  39.2385505
  10.0966807  38.7205421  39.1635971  10.8610925  38.8732270  39.2555210
   6.3525643  42.8732437  31.4278489   5.5436966  42.5499111  31.3811798
   6.8600552  42.1665659  31.3606738   6.3075310  42.7213753  31.4108783
  12.9718850  41.7738311  41.9658613  13.3973922  41.2512733  41.4129038
  12.6075770  42.3719149  41.4447236  12.9805453  41.7848538  41.8067623
   2.6072930  50.0702529  40.7255959   2.9219489  50.8838917  40.7333740
   3.0166343  49.6852747  41.3938118   2.7141028  50.1331231  40.8260050
   9.5597450  45.4872575  38.2959771  10.0308628  46.2012838  38.4649756
   9.8957628  44.8871326  38.8319640   9.6792565  45.5044040  38.3992147
  11.6474434  47.0973889  50.4751843  11.7571400  46.3082449  50.8308590
  11.9765331  47.0079825  49.6726181  11.7126840  46.9679742  50.4094234
   6.4766945  30.2600046  45.2517866   6.6094850  29.4631039  45.5798841
   6.8612097  30.7866449  45.8316141   6.5523274  30.2199963  45.3861368
  10.1971396  45.2790510  45.0587463   9.6492342  44.6548393  44.7907529
  10.6584425  45.4684782  44.3431543  10.1838606  45.2149560  44.9137894
   9.5499300  27.1830372  41.8498959   8.7445264  27.0728102  42.1666797
   9.4206035  27.2842828  40.9928825   9.4119433  27.1814042  41.7706999
  13.0065260  33.3475864  42.4438656  12.4228249  33.8485071  42.0316223
  13.3269554  32.8405420  41.8102979  12.9678436  33.3467699  42.2897163
   5.5460060  32.2616459  32.7197330   6.3675754  32.4314772  32.4779025
   5.0829710  32.4163720  31.9963628   5.5991222  32.3098192  32.5768975
   4.1355391  30.2559221  43.4995759   4.6799804  29.9150348  44.0900101
   4.1892327  31.1144683  43.6417044   4.2244511  30.3314480  43.6077633
   9.7629722  46.2841582  41.5896805  10.5828096  46.1404548  41.8513100
   9.4823800  46.9087781  42.1313242   9.8426466  46.3551934  41.7084744
  19.4343058  53.0282085  39.3092611  18.5780953  53.1890583  39.3601728
  19.4810711  52.1574149  39.3297672  19.3142169  52.9232887  39.3198677
  13.8184197  62.5644803  35.0729843  13.0667097  62.1860341  34.8445888
  14.2670209  62.5963237  34.3248653  13.7733864  62.5130410  34.9287345
  22.7436774  59.2968611  48.9153067  23.4503541  58.8020641  49.0440002
  22.9324710  59.7377692  48.1855725  22.8764680  59.2886961  48.8262113
  19.2709157  62.9870172  30.5015390  18.9360526  63.6647094  30.0659612
  19.7836028  62.5975484  29.9132262  19.2974738  63.0294751  30.3502181
  18.8113448  64.9384441  36.4426502  19.1952828  65.5071340  35.9031277
  18.7472590  64.2133951  35.9632318  18.8586876  64.9159905  36.2920364
  22.2794879  55.0874129  41.9524263  22.8250839  55.7659216  42.0118233
  22.2211755  54.9461590  41.0925845  22.3510793  55.1666131  41.8336324
  15.3968953  62.5763195  37.3392615  15.4979316  61.7663549  37.6489743
  14.8010699  62.4820141  36.7092294  15.3241492  62.4428223  37.2918854
  24.0559947  56.5158736  32.8257991  23.9399473  57.2666422  33.2550129
  24.8515834  56.2582689  33.0754078  24.1564537  56.5893583  32.9262082
  15.2369693  67.4940784  38.7407471  15.8807149  67.9353948  39.1303630
  15.5625949  66.6894210  38.6537730  15.3801522  67.4405979  38.7852949
   8.5933998  58.5983482  36.9644949   8.3584182  57.7651134  36.8577218
   8.7319639  58.8788147  36.1506150   8.5789660  58.5166985  36.8287304
  10.8924085  50.7669212  39.8629257  10.2729117  50.1761859  39.6939272
  10.7907949  51.3580647  39.2293580  10.7861761  50.7673295  39.7434246
  15.9390273  60.5052759  34.1127333  16.2606114  61.0457966  33.5088641
  16.5862369  59.9349530  34.2449623  16.0816328  60.5011934  34.0434369
  17.9891981  52.5068754  34.1961720  18.6872146  52.6856882  34.6883183
  18.3044313  51.9839093  33.5732109  18.1387318  52.4562526  34.1763730
  10.6193218  54.3121494  42.1072826  10.4951915  54.8983939  42.7422645
  11.2711503  53.8181690  42.4085101  10.6966868  54.3260298  42.2458755
  18.1779916  58.8939199  34.1841511  18.6173552  58.2856300  34.6296284
  18.0284579  58.5146572  33.4126976  18.2201382  58.7477670  34.1360679
  15.6451559  57.4883211  41.3860337  16.2900562  56.9955654  41.0671285
  15.8853336  57.6307997  42.2126415  15.7762144  57.4360653  41.4609870
  18.1837651  60.3338117  41.0367229  18.4660893  59.5389523  40.8153985
  18.9123811  60.8118704  41.0572290  18.3327214  60.2872714  41.0070245
  16.1618844  47.8761151  38.2782995  15.8322174  48.3272294  37.6086693
  15.4863846  47.7977314  38.8256001  16.0129281  47.9312286  38.2606218
  21.7789253  57.2466380  31.1372281  21.6940548  58.1027347  31.2821849
  22.2673636  56.9710704  31.8054440  21.8378150  57.3323702  31.2574362
  22.7107686  53.8651175  32.6370016  22.1819157  54.0810808  33.2967322
  23.2332706  54.5587313  32.5570985  22.7096139  53.9994311  32.7225615
  14.6007294  57.7614391  31.4377484  14.0164509  58.2664423  31.8443348
  14.1977389  57.5356778  30.6974076  14.4546598  57.8022640  31.3882509
  10.1551322  63.4769152  38.2401155   9.6718901  64.2019642  38.2160739
  10.9674641  63.7745282  38.3511313  10.2042070  63.6271506  38.2528434
  16.2265477  62.2701333  40.8450970  15.7092418  61.9108748  40.2412278
  16.9239868  61.7463508  40.8557036  16.2531058  62.1399021  40.7581228
  19.8829068  62.7196147  46.8067143  19.9712414  62.5322288  47.6545353
  20.3118781  62.0733577  46.4071990  19.9591171  62.5959155  46.8738894
  17.4499528  62.0027307  45.7884805  16.8870363  61.5899917  46.3124466
  18.2120552  61.9280213  46.2077948  17.4793977  61.9304708  45.9277805
  19.0584508  54.0080043  29.9146404  19.2980512  54.2158027  29.1021747
  19.3800349  53.2037552  30.0235349  19.1421666  53.9194145  29.8106957
  14.3674799  45.9373439  33.7605942  15.1220767  46.3051756  33.5222992
  14.1902333  46.3112993  34.5285122  14.4529277  46.0471627  33.8390831
  13.0095520  63.9925328  38.3921435  13.7116099  63.4777317  38.4494192
  12.9293003  64.3199480  39.1968310  13.1019280  63.9639555  38.5194227
  27.6609697  52.0867880  41.8053482  26.8238118  52.1570067  42.0401076
  27.6297928  52.0892374  40.9327784  27.5327980  52.0978107  41.7113030
  14.0574426  54.2300915  47.5201850  14.2294930  54.1206810  48.3687132
  14.5943784  54.8755321  47.2833042  14.1619430  54.3092917  47.6106947
  12.3346295  60.1831680  37.9007043  13.1735195  60.4154613  37.9480805
  12.3658064  59.3135992  37.8314079  12.4628013  60.0888627  37.8971688
  12.9598998  60.6032556  42.2020349  13.4997223  60.4603687  42.8723721
  12.2768944  61.0029306  42.5704375  12.9391152  60.6412226  42.3554770
  18.4031582  45.3470169  33.4933079  19.1317743  45.1686124  33.0471235
  18.4926475  46.1888249  33.7040257  18.5238244  45.4454047  33.4586597
  22.3839883  56.2823556  37.3965373  23.1397398  56.7155071  37.4354282
  22.4902207  55.6328326  37.9700009  22.5110054  56.2501040  37.4863399
  25.4220054  60.1096833  38.1467776  24.9855286  60.1133576  38.9026747
  25.0882970  60.7902332  37.7147353  25.3082674  60.2109289  38.1948609
  19.9949128  62.1505166  49.4710926  20.7789544  62.2636014  49.8366668
  19.7945722  61.3246303  49.6669612  20.0815153  62.0451886  49.5545312
   8.3636143  56.8232846  42.3554770   8.0974558  56.0071963  42.5145760
   8.3774707  56.8686002  41.4850286   8.3260866  56.7089751  42.2508252
  12.2693890  51.6217931  28.9706528  11.5552067  51.3356110  29.3828961
  12.7537859  51.9614557  29.6112916  12.2353254  51.6299580  29.1262163
  13.1134750  50.3611225  45.0021778  12.4206546  49.8908204  45.2482509
  13.7295077  50.1349529  45.5763485  13.1019280  50.2578356  45.1230930
  20.1519521  64.0615268  43.1177382  19.3534767  63.8214768  43.3751251
  20.6005533  64.1129661  43.8644430  20.0994132  64.0337659  43.2662306
  19.4441208  60.1247885  29.3468336  19.8592357  59.7932909  28.6552832
  18.6133138  59.8916787  29.2188473  19.3829217  60.0419141  29.2259184
   8.7729557  57.6091626  39.6366514   8.5905130  57.5838512  38.7838807
   9.5079226  58.0790564  39.6755423   8.8543621  57.6752988  39.5164433
  11.8375309  54.3276629  46.1448623  12.5615281  54.3129659  46.6313518
  11.9391445  55.0371984  45.6470591  11.9593518  54.4301332  46.1427410
  19.2120258  57.8075713  51.0097570  18.4193239  58.1219225  51.1950190
  19.3269185  58.0227182  50.1718355  19.1115669  57.8859550  50.9135905
  21.8851577  54.5309704  35.2992586  21.9798431  55.2698998  35.7532211
  21.2610420  54.1027180  35.7327150  21.8060607  54.5771025  35.4300733
  20.1404051  57.7095917  45.9482867  20.7142912  57.0723161  46.1031431
  20.0618854  57.7099999  45.0792524  20.2137286  57.6161028  45.8429278
   8.7400467  54.4885126  39.7865581   9.3173970  54.3521577  40.4257826
   8.0414529  54.0320911  40.0411165   8.7221489  54.4007393  39.9187871
  22.1374598  56.3758444  28.5329538  22.0554761  56.4460631  29.3984525
  22.7754319  56.9388188  28.3413279  22.2194436  56.4697415  28.6319487
  15.4967769  56.1419182  38.0004064  15.2387014  55.3090917  37.9735364
  15.5516252  56.3676795  37.1596565  15.4667547  56.0516953  37.8724201
  20.5768820  48.2447633  38.1008157  19.8725146  47.7556818  38.2592076
  20.6253794  48.2570107  37.2296601  20.4798871  48.1737281  37.9947497
  14.4702482  53.6956945  38.4868959  13.8952073  53.8549113  39.1232920
  14.0938158  53.0592354  38.0237410  14.3305294  53.6254757  38.5123517
  18.1375770  52.1680294  43.3461337  17.7490203  51.7434512  42.6913529
  17.4730469  52.4162443  43.8538364  17.9822698  52.1419015  43.3249205
   4.2159300  53.3397019  36.5013400   4.3019552  52.9628888  37.2826930
   4.8435098  52.9657465  36.0233358   4.3215851  53.2282501  36.5458877
  21.9602132  45.8654923  40.8585322  22.3412643  45.1833094  41.2453196
  21.1565416  45.5764525  40.6760986  21.8978593  45.7221971  40.8889378
  19.2414708  56.3978898  31.5438144  20.0555347  56.6893791  31.4320916
  19.1773850  55.7438761  30.9696437  19.3517447  56.3444093  31.4426982
  25.4624199  59.0804895  45.9567720  25.2262836  58.2492959  45.8379781
  26.1067428  59.0290502  46.5422564  25.5218869  58.9502583  46.0253614
  15.1122617  59.8700416  36.6710456  15.7496564  59.6312163  37.2162250
  15.5377688  60.0737575  35.9363617  15.2698783  59.8651426  36.6427614
   9.8035259  62.1088752  40.5544760   9.8439404  62.3803603  39.7264540
  10.3629783  62.6330660  40.9702548   9.8918605  62.2264507  40.4936648
  15.7525432  55.0902706  31.0085346  16.1370584  54.8710412  31.7601891
  15.5037052  55.9165651  31.1386422  15.7727504  55.1800852  31.1386422
  15.9193972  48.3709121  50.7247930  15.6047413  49.1408684  50.4617493
  15.5983905  47.8079377  50.1400157  15.8252891  48.4019390  50.5989280
  26.4860619  58.8649343  42.0196015  26.1806436  59.5977400  42.3809330
  25.7666835  58.4587273  41.7388801  26.3347962  58.9131076  42.0309152
  17.4944089  60.3472838  38.3504243  17.5683097  60.1848010  39.2046093
  18.3113595  60.5363028  38.1064724  17.6260447  60.3509581  38.4402268
  32.1862411  55.5042344  41.3464359  32.1186912  55.5238303  40.4766945
  32.1718074  56.3472671  41.5720029  32.1741168  55.6316079  41.2516836
  11.2549845  60.6930701  35.3798686  10.4287963  60.9392438  35.2532965
  11.3161837  60.6142782  36.2460744  11.1424012  60.7175650  35.4887631
  13.4725869  46.7599642  36.3394126  12.6048295  46.8322242  36.4051736
  13.7601073  47.5621721  36.5282101  13.3865617  46.8893789  36.3768893
  22.5958758  46.9077502  44.6705448  23.3412350  46.7187312  44.2568874
  22.1796062  47.4335740  44.1119305  22.6443732  46.9579647  44.5270021
  16.0348674  63.3107582  33.0817716  16.3246973  62.9196563  32.3576943
  16.7652155  63.4924286  33.5222991  16.1855559  63.2801395  33.0400523
  16.6243420  58.1125327  44.1670847  16.1255113  58.8241095  44.2455735
  17.4343644  58.4325994  44.1289009  16.6699526  58.2652176  44.1727415
  13.9754590  65.2874964  36.1477866  13.7554885  64.9972319  36.9404533
  13.7549112  64.6289919  35.6195778  13.9102184  65.1474672  36.1866775
  12.8871537  57.3748280  38.4133568  12.5984786  56.7485752  38.9479295
  13.7554885  57.3168568  38.4798248  12.9731789  57.2735825  38.5024522
  23.6749435  52.5183064  38.7315549  23.3314201  51.7973399  39.0822799
  23.7742477  52.3096915  37.8893908  23.6391478  52.3807267  38.6587229
  16.1422546  66.6604354  34.9308558  16.7946604  66.1280796  35.1599584
  15.4448154  66.3073006  35.3176432  16.1353264  66.5293877  35.0220726
  13.0903811  59.0143532  34.3375933  13.8449778  59.3956571  34.5511395
  12.4974423  59.4654675  34.7922629  13.1140524  59.1372359  34.4358811
  24.1362464  58.9808768  34.2739538  24.7020497  59.6401978  34.1898080
  23.4890367  59.3258466  34.7455940  24.1241220  59.1290709  34.3312294
  15.5510478  50.9706372  49.4633145  14.7410253  51.2764152  49.3522987
  16.0285164  51.6911954  49.5785729  15.5013956  51.1220973  49.4640216
  14.4102037  60.1852093  39.7116048  13.8882791  60.3252385  40.3967913
  14.7976057  59.4262757  39.9018165  14.3905738  60.0937617  39.8417124
  11.3993221  50.2357902  33.7811003  11.1118017  49.8659172  33.0442950
  12.0863689  50.7052757  33.5194708  11.4582118  50.2504871  33.6326078
  20.6069042  61.9247552  33.6976617  20.3655718  61.1915413  33.2903682
  20.7870375  62.4734409  33.0442950  20.5976666  61.8969943  33.5406840
  15.8368363  57.2156112  35.1097539  15.6411145  57.8230846  34.5157842
  16.0602708  56.5224056  34.6289213  15.8403004  57.2033637  34.9513620
  14.2346893  54.1010850  35.2278407  14.9569545  54.2652008  34.7682213
  13.7554886  54.8220515  35.1217747  14.2710623  54.2309079  35.1444021
  22.1940400  50.4374649  40.6075092  21.3551501  50.4635928  40.3713356
  22.2644768  51.0845384  41.1880439  22.0808794  50.5370774  40.6584209
  11.8854509  56.5068922  44.3332547  12.3975606  56.7853176  43.6841307
  11.5990852  57.2458216  44.6995360  11.9189373  56.6571276  44.2922425
  20.6409679  47.3360026  35.3402708  21.3436031  47.1367774  34.8622666
  20.3753867  46.5635968  35.6471552  20.7056311  47.1922992  35.3148150
   8.9721416  51.0139114  34.6296284   9.0737552  51.8165275  34.9577259
   9.7677303  50.8126450  34.3319364   9.1049321  51.1025013  34.6331639
  15.4038235  48.5995311  44.3933589  15.2121432  48.6150445  45.2433012
  16.2536831  48.7958985  44.3700244  15.5013957  48.6309662  44.5156884
   9.7885148  51.1286292  42.3717405   9.6470640  50.2770233  42.4961913
  10.0725711  51.1714953  41.5479611   9.8092994  51.0086042  42.2685029
  19.9423740  52.9653382  36.5161894  19.6958455  52.8849133  37.3498682
  20.2708863  52.1806850  36.3224421  19.9544984  52.8379648  36.6109417
  23.8371789  59.6736742  40.3048675  23.6986148  60.3717788  40.8097417
  23.0571787  59.5185398  39.9484857  23.7015016  59.7536908  40.3274949
  22.1749874  55.9733117  46.5571056  22.1697913  55.1012934  46.5613483
  22.8810868  56.1721286  46.0840512  22.2794878  55.8736991  46.4878092
  15.9020768  55.7010101  45.9284877  16.0464143  56.2811309  45.2927987
  16.2496416  56.0786398  46.6334731  15.9748229  55.8430805  45.9383872
  18.0740685  54.9000269  43.7110008  17.3263999  55.0931284  43.3058286
  18.2282210  54.0745489  43.4734130  17.9863112  54.8065381  43.6155414
  14.9748522  63.8912873  42.7945903  15.1238086  63.3315789  42.1419308
  15.7548525  63.9704875  43.1778422  15.1122616  63.8198438  42.7542853
  25.3325162  59.0314996  31.0665174  24.9531971  58.2452134  31.0594463
  24.6691407  59.5801853  30.9236818  25.1783637  58.9959820  31.0445971
  17.5001823  64.0627516  44.0730394  17.4245494  63.3936326  44.6281183
  17.4291682  64.7645304  44.5871061  17.4782430  64.0672423  44.2307242
  18.3142462  48.7950820  44.6005412  18.7715076  49.5274794  44.7278204
  18.3898791  48.3717285  45.3592668  18.3933432  48.8408058  44.7306488
  10.5575453  49.0416640  45.6894856  10.0217643  48.4296998  46.0055623
  10.6193218  49.6164776  46.3428522  10.4871086  49.0363568  45.8330282
  18.1572070  62.5828515  34.9054000  18.9221961  62.3138158  34.5836664
  18.0550160  62.0978525  35.6224063  18.2553566  62.4718079  34.9633828
  16.1924840  50.7852924  41.4447236  15.4020915  50.6044384  41.7664572
  16.5885463  50.0079877  41.4277530  16.1341716  50.6440385  41.4899784
  20.6790731  59.6140698  26.8853950  21.4463716  59.6740823  26.4759801
  20.2322040  59.0421140  26.4010268  20.7264158  59.5377274  26.7531660
  21.5768526  58.4195354  39.1706682  20.9013528  58.1880586  39.6720069
  21.5860902  57.8116537  38.5448787  21.4787031  58.2954279  39.1522834
  18.7062670  53.2613183  45.9270735  18.6421811  54.1223140  45.7990872
  18.8459858  52.9445176  45.1266286  18.7178140  53.3413350  45.7898948
  23.5785261  61.2760487  31.4016860  23.6605098  62.0827473  31.0778311
  24.0635003  61.2956446  32.1257633  23.6622419  61.3981149  31.4603758
  17.3881764  55.9545323  40.0686938  16.9644013  56.1549822  39.3325956
  17.2126619  55.1074171  40.1811238  17.2992645  55.8594104  39.9760628
  16.8893457  67.4695836  42.5308395  17.3789388  66.7706625  42.3484060
  16.3177690  67.1719706  43.1184452  16.8777987  67.3222059  42.5909436
  12.6764209  56.4497374  35.5014910  12.8328828  56.3844177  36.3570902
  13.0164802  57.2245927  35.2893590  12.7497444  56.5546572  35.5969504
  19.2143354  55.8255258  34.3708274  19.7558899  55.3225639  34.8346894
  19.5289913  55.7720452  33.5597759  19.3407751  55.7434679  34.3192086
  23.0860461  60.0357905  51.4835186  23.8995326  59.7643054  51.6440318
  22.9255427  59.7365445  50.6795382  23.1830409  59.9512831  51.3880592
  17.3829803  61.2172609  31.6548302  17.4522624  60.3587148  31.7941302
  18.1618258  61.4344490  31.3267326  17.5082653  61.1225473  31.6265459
  20.3632623  50.7191562  44.4230574  20.5774593  50.0802476  43.8693928
  19.7466522  51.1637386  43.9938436  20.3037952  50.6901706  44.2781005
  21.7737291  63.6410310  35.8684795  21.3817083  63.3377026  35.1507661
  21.9290363  64.4779400  35.6789749  21.7390881  63.7194147  35.7341292
   9.2498470  53.6332324  35.8175677   9.6297435  54.0516869  35.1535945
   8.6753835  54.2145780  36.1244521   9.2209795  53.7810183  35.7652418
  22.5271711  52.3280627  45.3613881  21.7148393  52.0206518  45.4427054
  22.9861646  51.8479627  45.9256593  22.4752096  52.2117120  45.4568475
  21.9376966  60.2060299  35.8090825  21.5791620  60.3774942  36.5854858
  21.4515676  60.6673505  35.2518824  21.8135663  60.2999270  35.8416095
  19.7547352  43.8291498  39.4117917  18.8840910  43.8030219  39.3651226
  20.0087693  43.6568690  38.5943762  19.6640912  43.8001641  39.2838054
  16.7265331  55.8859465  28.3491060  17.0157856  56.6624347  28.6234634
  16.8137130  55.3748196  29.0505559  16.7819587  55.9251383  28.4933558
  19.6225218  53.7340699  50.1442583  20.0924850  54.3582815  50.5310457
  19.6687099  53.0657674  50.7035798  19.6993094  53.7275379  50.2842655
  16.7796492  45.8397726  40.8691387  16.2634981  45.1477918  40.9942966
  16.2190421  46.5068503  40.8153986  16.6203005  45.8360984  40.8797453
  18.8488726  46.3790686  42.6984240  18.4620479  46.4039718  43.4797770
  18.3621663  45.8132365  42.2458756  18.7201234  46.2986437  42.7472143
  23.0981705  61.0964195  46.7558026  23.7361425  60.6024391  46.4220482
  22.4555797  61.0241596  46.1710253  23.0975931  61.0123204  46.6200381
  24.8238705  52.9453341  41.3223942  24.3966313  52.8579690  40.5672041
  24.1864758  53.0531117  41.9078786  24.6668312  52.9486001  41.2969383
  18.5145867  43.2657672  44.9894500  19.1438985  43.8017972  44.7115570
  18.6831730  43.1735031  45.8408065  18.6323662  43.3319034  45.0743028
  18.3159782  48.0528866  47.2620911  19.1433211  47.7814015  47.3179526
  18.3367628  48.8489708  47.6184729  18.4412632  48.1308621  47.3236094
  23.1535962  61.7884003  43.3963383  23.9428340  61.4373068  43.5165465
  23.3279559  62.6020392  43.1340017  23.2956243  61.8569861  43.3751251
  12.8929272  55.1992729  40.4491172  12.0517279  55.0996603  40.6570066
  13.1019280  55.9688210  40.8005493  12.7993965  55.2984773  40.5318487
  10.3704839  52.8212266  38.2775923   9.9761537  52.8955278  37.5026032
   9.8144956  53.2070213  38.8284284  10.2307651  52.8894041  38.2443582
  16.7045937  53.1274128  39.6988769  16.4009074  52.5730117  40.2999177
  16.0025358  53.3066338  39.2116804  16.5562147  53.0718911  39.7158475
  15.7612034  50.4374648  34.2633471  16.0371768  49.7193561  33.8511039
  16.3610703  51.0359568  34.0554577  15.8905299  50.4195019  34.1714232
  14.7664288  60.3423849  44.4060867  14.6584643  60.3525911  45.2722925
  14.9760069  61.1678630  44.2165821  14.7814399  60.4664924  44.5064959
  19.2622554  48.1088166  32.5380066  19.7166301  48.2798726  33.2627911
  19.7362600  47.4956276  32.1377842  19.3990875  48.0439051  32.5853828
  12.7838080  57.5936492  41.8682805  12.1926013  58.2345990  41.8385820
  13.5459103  58.0174109  41.8414104  12.8086340  57.7512330  41.8597952
  13.1798703  48.7538489  42.5350822  13.6400184  48.8277419  43.2725946
  13.2254809  49.5519743  42.1850644  13.2549258  48.8832636  42.5923579
  14.8282052  49.4205184  47.1022850  14.4367618  48.7738531  47.5378627
  14.9967915  50.0116619  47.7217105  14.7952963  49.4119452  47.2585555
  28.9028501  57.4242261  42.8660083  28.9611625  57.8728910  43.6120060
  28.2694969  57.8341074  42.4290163  28.8179797  57.5515996  42.9112631
  22.5427596  63.0445803  39.3014829  22.3447285  63.5336618  38.6071041
  21.9215307  63.2487045  39.8798963  22.4215161  63.1462341  39.2838053
  16.6035574  54.8130700  33.6425074  17.3477619  55.2004976  33.8808023
  16.7496271  53.9688125  33.8065561  16.7346160  54.7461173  33.7019043
  18.5215150  46.6080959  38.6756935  17.6751195  46.7803767  38.5498285
  18.5186282  45.8030303  39.0122763  18.3962300  46.5141988  38.7068062
  19.5913450  50.3856173  39.5418993  19.1173405  49.8597935  40.0524304
  19.9631586  49.8385646  38.9733854  19.5763339  50.2272170  39.5334140
   9.9686480  52.3827680  44.9102539  10.8312093  52.2823389  44.8239868
   9.6378263  51.8022389  44.3488111  10.0471677  52.2819307  44.8147944
  25.8550181  55.4458549  40.9525773  25.6148404  54.6064964  40.9568200
  26.3342188  55.5258716  41.6766547  25.8902365  55.3339949  41.0600576
  21.5196950  51.2792728  32.6044747  20.9919969  51.3621472  31.9150455
  21.9792658  52.0210599  32.6009391  21.5098800  51.4013390  32.5019442
  27.8555368  52.2260006  38.9055032  27.6165138  52.1855840  38.0675817
  28.0189269  53.0731158  39.0320754  27.8445671  52.3452091  38.8008514
  24.4601398  56.6109955  44.8360078  25.1835597  56.1582482  44.6571098
  24.1951360  56.8914621  44.0532405  24.5282671  56.5860924  44.6938793
  13.3288266  51.2070129  41.5712957  12.7041337  51.2188521  40.9638910
  12.9933861  51.6830304  42.2204197  13.1873758  51.2788646  41.5769525
  13.5130015  49.5495247  27.6285642  13.1642819  50.2014973  28.0917191
  13.0326461  49.5352360  26.9009513  13.3900259  49.6438301  27.5896733
  10.0413942  59.2670589  43.0116721   9.5113866  58.5763028  43.0611696
  10.3139035  59.2580774  42.1829430  10.0038664  59.1637721  42.8964137
  21.0734032  59.8496291  31.7354404  21.7968231  60.3154404  31.5918977
  20.6334623  59.9169901  30.9852001  21.1149725  59.9280128  31.6039185
  20.2420188  56.7093834  42.9855093  19.6277181  56.1651884  43.2803728
  20.7587472  56.1958070  42.5060909  20.2275850  56.5530243  42.9579321
  19.4816485  57.7798104  40.7199391  19.0544093  57.1547822  40.2864827
  19.4741429  57.4973026  41.5458399  19.4175626  57.6450884  40.7779219
  12.5979012  52.8163277  43.7887825  12.7572499  52.0606601  44.1939547
  12.4171905  53.3654216  44.4428563  12.5944371  52.7857091  43.9450531
  20.5399315  44.9824512  44.3438615  20.0439876  45.1788187  43.6530181
  21.2968377  45.3817181  44.1727416  20.5786139  45.0702246  44.2158752
  17.8102194  48.6566858  40.9341925  17.8344682  48.1226971  40.2454705
  18.0613668  48.1484167  41.5967516  17.8512113  48.5027762  40.9306570
   5.3209784  55.9398353  40.3685069   5.2153233  55.8945198  39.5037153
   4.5710004  56.2852134  40.6499354   5.1945387  55.9839261  40.2822399
  14.0903517  47.3837676  40.3147670  14.1301888  47.8846883  41.0282377
  13.2653181  47.4748070  40.0453593  13.9743043  47.4719493  40.3798208
  16.2733130  56.9498416  48.4167964  15.4228760  57.0870131  48.5525609
  16.4361257  56.2162195  48.8615666  16.1716993  56.8612518  48.5023563
  15.5117880  53.8998186  42.6121569  14.6809810  54.0672004  42.4056817
  15.4569397  53.5234137  43.3970454  15.3807295  53.8687918  42.6970097
  13.3201663  47.3907079  48.2477979  13.9454367  46.8469212  48.5207412
  12.8652143  46.9101997  47.6785770  13.3449924  47.2396561  48.2039573
  13.8853924  52.1753778  33.1411686  14.0256885  52.6726242  33.8440328
  14.3836457  51.4740072  33.2825900  13.9795005  52.1455757  33.2663265
  13.9154146  53.0420889  30.4704263  14.5499226  53.6381314  30.4053725
  13.9979757  52.7424346  31.2850133  14.0210697  53.0861797  30.5807350
  26.8936712  55.5736366  43.3390627  27.4854552  56.2133617  43.3708825
  27.3295707  54.8759403  43.6282694  27.0455143  55.5654717  43.3871460
  15.4933129  48.9734864  30.4449705  15.8148970  48.4937947  29.7908967
  15.7560073  49.7834510  30.2540517  15.5799154  49.0224762  30.3205197
  18.7230102  59.9953739  43.9648521  18.2155193  60.5489585  44.4089152
  18.4256748  60.0562028  43.1467296  18.6034987  60.0860050  43.9096978
  20.8892284  48.3607058  42.8073184  21.3147356  47.9079585  42.1956711
  20.2749277  47.8067129  43.0837972  20.8620929  48.2121034  42.7578210
  10.4207134  55.2388730  33.7393809  10.9299363  55.8353237  34.1205115
  10.8941406  54.9714703  33.0570229  10.5650510  55.2874545  33.6948332
  21.3337882  63.9116996  31.8952465  20.6167192  63.7377859  31.4299702
  21.9844620  63.6769569  31.3627951  21.3239733  63.8512789  31.7481683
  19.3286507  44.8322158  36.2163761  18.6854825  44.6819804  36.7848900
  18.9885914  44.5864503  35.4512866  19.1831584  44.7734280  36.1866776
  23.9185853  52.7881585  35.6393770  23.2477043  53.3311287  35.5106835
  24.6125604  53.2576440  35.3975465  23.9214721  52.9379856  35.5849298
  17.9672587  64.9278297  40.8705528  17.7438242  64.1697126  41.2389554
  17.4782430  64.9576318  40.1485968  17.8616036  64.8200521  40.8182269
  24.0813981  49.2437468  38.5484143  24.4341591  48.8167191  39.2229942
  23.2228782  49.1588312  38.6785219  24.0063425  49.1682209  38.6679154
  12.7797666  51.8744988  36.6066990  12.0609655  52.2909121  36.8739853
  13.1510028  52.4399227  36.0558628  12.7289598  52.0194270  36.5649797
  22.0797247  52.5072837  42.4968985  22.0595174  52.3256132  43.3503764
  22.1276447  53.3784856  42.4728569  22.0831888  52.6089375  42.6192280
  20.0243576  59.0960029  48.4217462  19.9839431  58.4509706  47.8362618
  20.8366895  59.0396646  48.7342874  20.1386730  58.9918996  48.3814411
  16.6151044  65.1478755  38.3242613  16.2011443  64.4852885  37.9346454
  17.2998418  65.2956614  37.8038307  16.6549416  65.0719413  38.1899110
  19.9816338  64.3068840  39.0766229  19.5832621  64.4171111  38.3087050
  19.3667558  64.5150907  39.6592789  19.8315227  64.3542408  39.0497529
  18.5544240  50.9142988  31.9440369  17.9609079  51.2359985  31.3924936
  18.5919518  50.0684083  31.7361475  18.4718629  50.8367316  31.8323140
  21.4302057  50.8722493  35.3742119  21.2015750  50.8955194  34.5320478
  21.6900133  50.0479960  35.4937130  21.4348245  50.7538573  35.2667317
  15.7121285  52.7256966  44.9767220  15.2000188  52.1178149  45.3352251
  15.5400781  53.4413558  45.4441195  15.6110922  52.7420265  45.0983443
  10.5587000  51.1694541  47.6269581  10.3889590  51.8295916  47.0817788
  10.1152950  51.3801102  48.3482070  10.4686334  51.2980523  47.6531211
  14.4846819  49.4099039  36.6696315  14.9604186  49.7716119  36.0346496
  13.9835419  50.0655506  36.9496458  14.4812178  49.5593228  36.6173056
  19.5890356  50.6481210  47.4169475  20.1461786  50.4195020  46.7847940
  19.2651421  51.4086876  47.1404687  19.6236766  50.7265047  47.2825972
   7.4589064  54.0741406  42.8858071   6.9115784  53.4042052  43.0038939
   8.2481443  53.7071254  42.9501538   7.4941248  53.9206393  42.9126772
  17.3073473  53.7348864  48.3821482  18.0584800  54.0500540  48.6961036
  17.4996049  53.5328034  47.5555404  17.4464887  53.7516245  48.3064878
  16.5273472  51.5540239  30.0369699  16.9072437  51.5719868  29.2520814
  15.7866068  51.9994227  29.9160546  16.4742310  51.6222013  29.9033267
   6.2176034  53.2862214  40.0404094   6.0397795  52.8338823  40.7659010
   5.9295056  54.0888376  40.2242572   6.1488987  53.3384772  40.1747597
  21.8799615  54.5419932  39.2781484  22.3753280  53.8242927  39.2385505
  21.0699391  54.2390729  39.1635971  21.8343508  54.3917578  39.2555210
  17.3258227  58.3917745  31.4278489  16.5169549  58.0684418  31.3811798
  17.8333135  57.6850967  31.3606738  17.2807893  58.2399061  31.4108783
   7.9548504  55.8189938  37.1525853   7.0894023  55.8075629  37.0408624
   8.0547320  55.6320161  37.9996993   7.8422671  55.7895999  37.2614798
  23.9451434  57.2923619  41.9658613  24.3706505  56.7698041  41.4129038
  23.5808354  57.8904457  41.4447236  23.9538036  57.3033846  41.8067623
  13.5805514  65.5887837  40.7255959  13.8952073  66.4024225  40.7333740
  13.9898927  65.2038055  41.3938118  13.6873612  65.6516539  40.8260050
  20.5330033  61.0057883  38.2959771  21.0041212  61.7198146  38.4649756
  20.8690212  60.4056634  38.8319640  20.6525148  61.0229348  38.3992147
  22.6207018  62.6159197  50.4751843  22.7303983  61.8267757  50.8308590
  22.9497915  62.5265133  49.6726181  22.6859424  62.4865050  50.4094234
  17.4499528  45.7785354  45.2517866  17.5827434  44.9816347  45.5798841
  17.8344681  46.3051757  45.8316141  17.5255857  45.7385271  45.3861368
  21.1703980  60.7975818  45.0587463  20.6224926  60.1733701  44.7907529
  21.6317008  60.9870090  44.3431543  21.1571189  60.7334868  44.9137894
  20.5231883  42.7015680  41.8498959  19.7177847  42.5913410  42.1666797
  20.3938619  42.8028136  40.9928825  20.3852016  42.6999350  41.7706999
  23.9797844  48.8661172  42.4438656  23.3960833  49.3670379  42.0316223
  24.3002138  48.3590728  41.8102979  23.9411019  48.8653007  42.2897163
  16.5192643  47.7801767  32.7197330  17.3408337  47.9500080  32.4779025
  16.0562294  47.9349028  31.9963628  16.5723805  47.8283500  32.5768975
  15.1087975  45.7744529  43.4995759  15.6532388  45.4335656  44.0900101
  15.1624911  46.6329991  43.6417044  15.1977094  45.8499788  43.6077633
  10.9218534  59.5360945  40.3734567  11.5263391  59.4956779  39.7448388
  10.7145846  60.3832097  40.4038623  10.9807431  59.6548948  40.2850684
  20.7362306  61.8026890  41.5896805  21.5560680  61.6589856  41.8513100
  20.4556384  62.4273089  42.1313242  20.8159049  61.8737242  41.7084744
   6.1569816  58.5195563  40.2433490   6.0594094  57.7091834  40.5523547
   6.9398686  58.4987356  39.8579758   6.2585953  58.3962653  40.2320353
  37.2075956  69.4591742  34.5539681  37.1769961  70.3136379  34.7257950
  37.8057305  69.1587035  35.1125825  37.2913114  69.5408239  34.6614483
  30.4075641  68.5467393  39.3092611  29.5513537  68.7075891  39.3601728
  30.4543295  67.6759457  39.3297672  30.2874753  68.4418195  39.3198677
  33.7169358  74.8153919  48.9153067  34.4236125  74.3205949  49.0440002
  33.9057293  75.2563000  48.1855725  33.8497263  74.8072269  48.8262113
  33.2527462  70.6059437  41.9524263  33.7983422  71.2844524  42.0118233
  33.1944339  70.4646898  41.0925845  33.3243377  70.6851439  41.8336324
  35.0292531  72.0344044  32.8257991  34.9132057  72.7851730  33.2550129
  35.8248418  71.7767997  33.0754078  35.1297120  72.1078891  32.9262082
  21.8656669  66.2854520  39.8629257  21.2461700  65.6947167  39.6939272
  21.7640532  66.8765955  39.2293580  21.7594344  66.2858603  39.7434246
  26.9122856  76.0238067  34.1127333  27.2338697  76.5643274  33.5088641
  27.5594953  75.4534838  34.2449623  27.0548912  76.0197242  34.0434369
  28.9624564  68.0254062  34.1961720  29.6604729  68.2042189  34.6883183
  29.2776897  67.5024401  33.5732109  29.1119902  67.9747834  34.1763730
  21.5925802  69.8306802  42.1072826  21.4684499  70.4169247  42.7422645
  22.2444086  69.3366998  42.4085101  21.6699451  69.8445606  42.2458755
  29.1512500  74.4124507  34.1841511  29.5906135  73.8041607  34.6296284
  29.0017163  74.0331880  33.4126976  29.1933966  74.2662978  34.1360679
  26.6184143  73.0068519  41.3860337  27.2633145  72.5140962  41.0671285
  26.8585920  73.1493305  42.2126415  26.7494728  72.9545961  41.4609870
  29.1570234  75.8523425  41.0367229  29.4393477  75.0574830  40.8153985
  29.8856395  76.3304012  41.0572290  29.3059798  75.8058022  41.0070245
  27.1351428  63.3946459  38.2782995  26.8054758  63.8457602  37.6086693
  26.4596430  63.3162622  38.8256001  26.9861864  63.4497594  38.2606218
  32.7521836  72.7651688  31.1372281  32.6673131  73.6212655  31.2821849
  33.2406220  72.4896012  31.8054440  32.8110734  72.8509010  31.2574362
  33.6840270  69.3836482  32.6370016  33.1551741  69.5996116  33.2967322
  34.2065290  70.0772621  32.5570985  33.6828723  69.5179619  32.7225615
  39.1388323  74.9582787  38.0103060  38.3086026  75.1693431  38.1736477
  39.0897575  74.1319841  37.7345344  39.0095058  74.8672393  37.9940426
  25.5739877  73.2799699  31.4377484  24.9897093  73.7849731  31.8443348
  25.1709973  73.0542086  30.6974076  25.4279181  73.3207948  31.3882509
  30.8561652  78.2381455  46.8067143  30.9444998  78.0507596  47.6545353
  31.2851365  77.5918885  46.4071990  30.9323754  78.1144463  46.8738894
  30.0317092  69.5265351  29.9146404  30.2713096  69.7343335  29.1021747
  30.3532933  68.7222860  30.0235349  30.1154250  69.4379453  29.8106957
  25.3407382  61.4558747  33.7605942  26.0953350  61.8237064  33.5222992
  25.1634917  61.8298301  34.5285122  25.4261860  61.5656935  33.8390831
  38.6342281  67.6053188  41.8053482  37.7970702  67.6755375  42.0401076
  38.6030512  67.6077682  40.9327784  38.5060563  67.6163415  41.7113030
  25.0307010  69.7486223  47.5201850  25.2027514  69.6392118  48.3687132
  25.5676367  70.3940629  47.2833042  25.1352014  69.8278225  47.6106947
  23.6964447  63.8629066  30.4584055  23.5140020  64.0800947  29.6325048
  24.5590060  63.9768079  30.5142670  23.7969036  63.9118964  30.3438542
  33.3572467  71.8008864  37.3965373  34.1129982  72.2340378  37.4354282
  33.4634791  71.1513634  37.9700009  33.4842637  71.7686348  37.4863399
  36.3952638  75.6282141  38.1467776  35.9587870  75.6318884  38.9026747
  36.0615553  76.3087640  37.7147353  36.2815258  75.7294597  38.1948609
  30.9681711  77.6690474  49.4710926  31.7522128  77.7821322  49.8366668
  30.7678306  76.8431611  49.6669612  31.0547737  77.5637194  49.5545312
  19.3368727  72.3418154  42.3554770  19.0707142  71.5257271  42.5145760
  19.3507291  72.3871310  41.4850286  19.2993449  72.2275059  42.2508252
  36.3150121  62.6695969  40.3897204  36.9576029  62.7394074  40.9759119
  36.5673141  62.0025192  39.8876746  36.4472253  62.5822318  40.4024483
  23.2426474  67.1403239  28.9706528  22.5284651  66.8541418  29.3828961
  23.7270442  67.4799864  29.6112916  23.2085837  67.1484888  29.1262163
  24.0867333  65.8796533  45.0021778  23.3939130  65.4093512  45.2482509
  24.7027660  65.6534837  45.5763485  24.0751863  65.7763664  45.1230930
  39.5296984  72.3463061  37.0387413  40.1913418  71.7853730  36.9383322
  38.8888396  71.8515092  37.3640104  39.5325851  72.1899470  37.0719753
  30.4173792  75.6433193  29.3468336  30.8324940  75.3118216  28.6552832
  29.5865721  75.4102095  29.2188473  30.3561800  75.5604449  29.2259184
  19.7462140  73.1276934  39.6366514  19.5637714  73.1023820  38.7838807
  20.4811809  73.5975871  39.6755423  19.8276204  73.1938296  39.5164433
  35.8161815  73.3628444  36.7799402  36.0517404  73.5073643  35.9526253
  35.9651378  74.1270852  37.1730916  35.8727618  73.4967498  36.7163006
  22.8107892  69.8461937  46.1448623  23.5347864  69.8314967  46.6313518
  22.9124029  70.5557292  45.6470591  22.9326101  69.9486640  46.1427410
  37.6452271  72.2030110  34.6169006  37.9760488  72.7357750  34.0109101
  38.2185359  72.2568997  35.2730957  37.7785950  72.2899678  34.6246788
  30.1852842  73.3261021  51.0097570  29.3925822  73.6404533  51.1950190
  30.3001769  73.5412490  50.1718355  30.0848252  73.4044858  50.9135905
  32.8584160  70.0495012  35.2992586  32.9531015  70.7884306  35.7532211
  32.2343004  69.6212488  35.7327150  32.7793191  70.0956333  35.4300733
  31.1136634  73.2281225  45.9482867  31.6875496  72.5908469  46.1031431
  31.0351438  73.2285307  45.0792524  31.1869869  73.1346336  45.8429278
  19.7133051  70.0070434  39.7865581  20.2906553  69.8706885  40.4257826
  19.0147112  69.5506218  40.0411165  19.6954072  69.9192701  39.9187871
  33.1107182  71.8943752  28.5329538  33.0287344  71.9645939  29.3984525
  33.7486902  72.4573496  28.3413279  33.1927019  71.9882723  28.6319487
  26.4700353  71.6604490  38.0004064  26.2119597  70.8276225  37.9735364
  26.5248836  71.8862103  37.1596565  26.4400131  71.5702261  37.8724201
  31.5501403  63.7632941  38.1008157  30.8457730  63.2742126  38.2592076
  31.5986377  63.7755415  37.2296601  31.4531455  63.6922589  37.9947497
  25.4435065  69.2142252  38.4868959  24.8684656  69.3734421  39.1232920
  25.0670741  68.5777662  38.0237410  25.3037877  69.1440065  38.5123517
  29.1108354  67.6865602  43.3461337  28.7222787  67.2619819  42.6913529
  28.4463052  67.9347751  43.8538364  28.9555282  67.6604323  43.3249205
  38.7531623  67.4440606  36.1209167  38.4968188  66.6320548  35.9307050
  39.5960937  67.4518174  35.8939355  38.8397648  67.3252604  36.0593985
  15.1891884  68.8582327  36.5013400  15.2752136  68.4814196  37.2826930
  15.8167681  68.4842773  36.0233358  15.2948435  68.7467809  36.5458877
  32.9334715  61.3840231  40.8585322  33.3145227  60.7018402  41.2453196
  32.1298000  61.0949833  40.6760986  32.8711177  61.2407279  40.8889378
  30.2147292  71.9164206  31.5438144  31.0287931  72.2079099  31.4320916
  30.1506433  71.2624069  30.9696437  30.3250031  71.8629401  31.4426982
  36.4356782  74.5990202  45.9567720  36.1995420  73.7678267  45.8379781
  37.0800011  74.5475810  46.5422564  36.4951453  74.4687890  46.0253614
  26.0855200  75.3885724  36.6710456  26.7229147  75.1497471  37.2162250
  26.5110272  75.5922883  35.9363617  26.2431367  75.3836734  36.6427614
  26.7258015  70.6088014  31.0085346  27.1103168  70.3895720  31.7601891
  26.4769636  71.4350959  31.1386422  26.7460088  70.6986160  31.1386422
  26.8926556  63.8894429  50.7247930  26.5779997  64.6593991  50.4617493
  26.5716488  63.3264685  50.1400157  26.7985475  63.9204697  50.5989280
  37.4593203  74.3834651  42.0196015  37.1539020  75.1162708  42.3809330
  36.7399418  73.9772581  41.7388801  37.3080545  74.4316384  42.0309152
  28.4676672  75.8658146  38.3504243  28.5415680  75.7033318  39.2046093
  29.2846179  76.0548336  38.1064724  28.5993031  75.8694889  38.4402268
  43.1594995  71.0227652  41.3464359  43.0919495  71.0423611  40.4766945
  43.1450657  71.8657979  41.5720029  43.1473751  71.1501387  41.2516836
  24.4458453  62.2784950  36.3394126  23.5780878  62.3507550  36.4051736
  24.7333657  63.0807029  36.5282101  24.3598201  62.4079097  36.3768893
  33.5691341  62.4262810  44.6705448  34.3144933  62.2372620  44.2568874
  33.1528646  62.9521048  44.1119305  33.6176316  62.4764955  44.5270021
  40.9453612  69.7972038  39.6210953  41.4961534  69.1640107  39.8608045
  40.9297728  70.3287431  40.3126457  41.0238809  69.7820986  39.7589811
  27.5976003  73.6310635  44.1670847  27.0987697  74.3426403  44.2455735
  28.4076227  73.9511302  44.1289009  27.6432110  73.7837484  44.1727415
  23.8604121  72.8933588  38.4133568  23.5717369  72.2671060  38.9479295
  24.7287469  72.8353876  38.4798248  23.9464373  72.7921133  38.5024522
  34.6482019  68.0368372  38.7315549  34.3046784  67.3158707  39.0822799
  34.7475061  67.8282223  37.8893908  34.6124061  67.8992575  38.6587229
  24.0636394  74.5328839  34.3375933  24.8182362  74.9141879  34.5511395
  23.4707007  74.9839983  34.7922629  24.0873108  74.6557667  34.4358811
  35.1095048  74.4994076  34.2739538  35.6753080  75.1587286  34.1898080
  34.4622951  74.8443774  34.7455940  35.0973804  74.6476017  34.3312294
  26.5243061  66.4891680  49.4633145  25.7142837  66.7949459  49.3522987
  27.0017748  67.2097262  49.5785729  26.4746540  66.6406281  49.4640216
  25.3834621  75.7037401  39.7116048  24.8615374  75.8437692  40.3967913
  25.7708641  74.9448065  39.9018165  25.3638322  75.6122925  39.8417124
  22.3725805  65.7543210  33.7811003  22.0850600  65.3844480  33.0442950
  23.0596273  66.2238065  33.5194708  22.4314702  65.7690179  33.6326078
  31.5801626  77.4432860  33.6976617  31.3388302  76.7100721  33.2903682
  31.7602959  77.9919717  33.0442950  31.5709250  77.4155251  33.5406840
  26.8100946  72.7341420  35.1097539  26.6143729  73.3416154  34.5157842
  27.0335292  72.0409364  34.6289213  26.8135587  72.7218945  34.9513620
  25.2079476  69.6196158  35.2278407  25.9302128  69.7837316  34.7682213
  24.7287469  70.3405823  35.1217747  25.2443207  69.7494387  35.1444021
  33.1672984  65.9559957  40.6075092  32.3284085  65.9821235  40.3713356
  33.2377351  66.6030692  41.1880439  33.0541377  66.0556082  40.6584209
  22.8587093  72.0254230  44.3332547  23.3708190  72.3038483  43.6841307
  22.5723436  72.7643524  44.6995360  22.8921956  72.1756584  44.2922425
  37.0430508  71.1627943  37.8936334  36.9564482  71.3183369  38.7471113
  36.5880988  71.8066019  37.5195739  36.9633764  71.2803698  37.9643441
  19.9453999  66.5324422  34.6296284  20.0470136  67.3350583  34.9577259
  20.7409886  66.3311758  34.3319364  20.0781905  66.6210321  34.6331639
  26.3770818  64.1180619  44.3933589  26.1854015  64.1335753  45.2433012
  27.2269414  64.3144293  44.3700244  26.4746540  64.1494970  44.5156884
  20.7617731  66.6471600  42.3717405  20.6203223  65.7955541  42.4961913
  21.0458295  66.6900261  41.5479611  20.7825578  66.5271350  42.2685029
  30.9156324  68.4838690  36.5161894  30.6691038  68.4034441  37.3498682
  31.2441447  67.6992158  36.3224421  30.9277567  68.3564956  36.6109417
  34.8104373  75.1922050  40.3048675  34.6718732  75.8903096  40.8097417
  34.0304371  75.0370706  39.9484857  34.6747599  75.2722216  40.3274949
  33.1482458  71.4918425  46.5571056  33.1430496  70.6198242  46.5613483
  33.8543452  71.6906594  46.0840512  33.2527462  71.3922299  46.4878092
  26.8753351  71.2195409  45.9284877  27.0196727  71.7996617  45.2927987
  27.2229000  71.5971706  46.6334731  26.9480812  71.3616113  45.9383872
  29.0473268  70.4185577  43.7110008  28.2996582  70.6116592  43.3058286
  29.2014794  69.5930797  43.4734130  28.9595696  70.3250689  43.6155414
  36.3057745  74.5500304  31.0665174  35.9264554  73.7637441  31.0594463
  35.6423991  75.0987161  30.9236818  36.1516220  74.5145128  31.0445971
  29.2875045  64.3136128  44.6005412  29.7447660  65.0460102  44.7278204
  29.3631374  63.8902593  45.3592668  29.3666015  64.3593366  44.7306488
  21.5308037  64.5601948  45.6894856  20.9950226  63.9482306  46.0055623
  21.5925801  65.1350084  46.3428522  21.4603669  64.5548876  45.8330282
  33.7602371  57.4926003  38.4699255  33.8785940  57.9502467  37.7366558
  33.5864547  56.6871265  38.1835472  33.7521542  57.4419775  38.3200189
  27.1657423  66.3038232  41.4447236  26.3753498  66.1229692  41.7664572
  27.5618046  65.5265185  41.4277530  27.1074300  66.1625693  41.4899784
  31.6523314  75.1326006  26.8853950  32.4196299  75.1926131  26.4759801
  31.2054623  74.5606448  26.4010268  31.6996741  75.0562582  26.7531660
  32.5501110  73.9380662  39.1706682  31.8746111  73.7065894  39.6720069
  32.5593486  73.3301845  38.5448787  32.4519614  73.8139587  39.1522834
  29.6795254  68.7798491  45.9270735  29.6154395  69.6408448  45.7990872
  29.8192441  68.4630484  45.1266286  29.6910724  68.8598658  45.7898948
  34.5517844  76.7945795  31.4016860  34.6337682  77.6012781  31.0778311
  35.0367586  76.8141754  32.1257633  34.6355002  76.9166457  31.4603758
  28.3614348  71.4730630  40.0686938  27.9376597  71.6735130  39.3325956
  28.1859203  70.6259478  40.1811238  28.2725228  71.3779412  39.9760628
  23.6496793  71.9682682  35.5014910  23.8061412  71.9029485  36.3570902
  23.9897386  72.7431234  35.2893590  23.7230027  72.0731880  35.5969504
  30.1875937  71.3440565  34.3708274  30.7291483  70.8410947  34.8346894
  30.5022496  71.2905760  33.5597759  30.3140334  71.2619986  34.3192086
  34.0593045  75.5543213  51.4835186  34.8727910  75.2828362  51.6440318
  33.8988011  75.2550753  50.6795382  34.1562993  75.4698139  51.3880592
  28.3562387  76.7357917  31.6548302  28.4255207  75.8772455  31.7941302
  29.1350842  76.9529798  31.3267326  28.4815237  76.6410781  31.6265459
  31.3365207  66.2376870  44.4230574  31.5507176  65.5987784  43.8693928
  30.7199106  66.6822694  43.9938436  31.2770536  66.2087014  44.2781005
  20.2231054  69.1517632  35.8175677  20.6030019  69.5702177  35.1535945
  19.6486419  69.7331088  36.1244521  20.1942379  69.2995491  35.7652418
  33.5004295  67.8465935  45.3613881  32.6880976  67.5391826  45.4427054
  33.9594229  67.3664935  45.9256593  33.4484679  67.7302428  45.4568475
  32.9109549  75.7245607  35.8090825  32.5524204  75.8960250  36.5854858
  32.4248260  76.1858813  35.2518824  32.7868246  75.8184578  35.8416095
  27.6997915  71.4044773  28.3491060  27.9890439  72.1809655  28.6234634
  27.7869713  70.8933504  29.0505559  27.7552171  71.4436691  28.4933558
  30.5957802  69.2526007  50.1442583  31.0657433  69.8768123  50.5310457
  30.6419682  68.5842982  50.7035798  30.6725678  69.2460687  50.2842655
  27.7529076  61.3583034  40.8691387  27.2367564  60.6663226  40.9942966
  27.1923005  62.0253811  40.8153986  27.5935589  61.3546292  40.8797453
  29.8221309  61.8975994  42.6984240  29.4353062  61.9225026  43.4797770
  29.3354246  61.3317673  42.2458756  29.6933818  61.8171745  42.7472143
  34.0714289  76.6149503  46.7558026  34.7094009  76.1209699  46.4220482
  33.4288380  76.5426904  46.1710253  34.0708515  76.5308512  46.6200381
  35.7971289  68.4638649  41.3223942  35.3698897  68.3764998  40.5672041
  35.1597342  68.5716425  41.9078786  35.6400896  68.4671309  41.2969383
  29.4878451  58.7842980  44.9894500  30.1171569  59.3203280  44.7115570
  29.6564314  58.6920339  45.8408065  29.6056245  58.8504342  45.0743028
  29.2892366  63.5714174  47.2620911  30.1165795  63.2999323  47.3179526
  29.3100212  64.3675016  47.6184729  29.4145216  63.6493929  47.3236094
  34.1268545  77.3069311  43.3963383  34.9160923  76.9558376  43.5165465
  34.3012143  78.1205700  43.1340017  34.2688827  77.3755169  43.3751251
  23.8661856  70.7178037  40.4491172  23.0249862  70.6181911  40.6570066
  24.0751864  71.4873517  40.8005493  23.7726548  70.8170080  40.5318487
  21.3437423  68.3397574  38.2775923  20.9494120  68.4140586  37.5026032
  20.7877539  68.7255520  38.8284284  21.2040235  68.4079349  38.2443582
  27.6778520  68.6459436  39.6988769  27.3741658  68.0915425  40.2999177
  26.9757941  68.8251646  39.2116804  27.5294730  68.5904219  39.7158475
  26.7344618  65.9559956  34.2633471  27.0104352  65.2378869  33.8511039
  27.3343287  66.5544876  34.0554577  26.8637882  65.9380327  34.1714232
  23.7570663  73.1121799  41.8682805  23.1658597  73.7531298  41.8385820
  24.5191687  73.5359417  41.8414104  23.7818924  73.2697638  41.8597952
  24.1531286  64.2723797  42.5350822  24.6132768  64.3462727  43.2725946
  24.1987393  65.0705051  42.1850644  24.2281842  64.4017944  42.5923579
  25.8014636  64.9390492  47.1022850  25.4100201  64.2923839  47.5378627
  25.9700499  65.5301927  47.7217105  25.7685546  64.9304760  47.2585555
  39.8761085  72.9427569  42.8660083  39.9344209  73.3914218  43.6120060
  39.2427553  73.3526382  42.4290163  39.7912380  73.0701304  42.9112631
  33.5160180  78.5631111  39.3014829  33.3179868  79.0521926  38.6071041
  32.8947891  78.7672353  39.8798963  33.3947744  78.6647649  39.2838053
  27.5768158  70.3316008  33.6425074  28.3210203  70.7190284  33.8808023
  27.7228854  69.4873433  33.8065561  27.7078743  70.2646481  33.7019043
  29.4947733  62.1266267  38.6756935  28.6483779  62.2989075  38.5498285
  29.4918866  61.3215611  39.0122763  29.3694883  62.0327296  38.7068062
  30.5646034  65.9041481  39.5418993  30.0905988  65.3783243  40.0524304
  30.9364170  65.3570954  38.9733854  30.5495923  65.7457478  39.5334140
  20.9419064  67.9012988  44.9102539  21.8044677  67.8008697  44.8239868
  20.6110847  67.3207697  44.3488111  21.0204260  67.8004615  44.8147944
  36.8282764  70.9643857  40.9525773  36.5880987  70.1250272  40.9568200
  37.3074772  71.0444024  41.6766547  36.8634948  70.8525257  41.0600576
  32.4929534  66.7978036  32.6044747  31.9652552  66.8806780  31.9150455
  32.9525242  67.5395907  32.6009391  32.4831384  66.9198698  32.5019442
  38.8287951  67.7445314  38.9055032  38.5897721  67.7041148  38.0675817
  38.9921853  68.5916466  39.0320754  38.8178255  67.8637399  38.8008514
  35.4333982  72.1295263  44.8360078  36.1568180  71.6767790  44.6571098
  35.1683944  72.4099929  44.0532405  35.5015255  72.1046232  44.6938793
  24.3020850  66.7255437  41.5712957  23.6773920  66.7373829  40.9638910
  23.9666445  67.2015612  42.2204197  24.1606342  66.7973954  41.5769525
  24.4862599  65.0680555  27.6285642  24.1375403  65.7200281  28.0917191
  24.0059045  65.0537668  26.9009513  24.3632843  65.1623609  27.5896733
  21.0146526  74.7855897  43.0116721  20.4846450  74.0948336  43.0611696
  21.2871619  74.7766082  42.1829430  20.9771248  74.6823029  42.8964137
  32.0466616  75.3681599  31.7354404  32.7700815  75.8339712  31.5918977
  31.6067207  75.4355209  30.9852001  32.0882308  75.4465436  31.6039185
  31.2152771  72.2279142  42.9855093  30.6009764  71.6837192  43.2803728
  31.7320056  71.7143378  42.5060909  31.2008434  72.0715551  42.9579321
  30.4549068  73.2983412  40.7199391  30.0276676  72.6733130  40.2864827
  30.4474013  73.0158333  41.5458399  30.3908209  73.1636192  40.7779219
  23.5711595  68.3348585  43.7887825  23.7305082  67.5791909  44.1939547
  23.3904489  68.8839524  44.4428563  23.5676954  68.3042398  43.9450531
  31.5131898  60.5009820  44.3438615  31.0172460  60.6973494  43.6530181
  32.2700960  60.9002488  44.1727416  31.5518723  60.5887554  44.2158752
  28.7834778  64.1752166  40.9341925  28.8077265  63.6412278  40.2454705
  29.0346252  63.6669475  41.5967516  28.8244697  64.0213070  40.9306570
  16.2942368  71.4583661  40.3685069  16.1885817  71.4130505  39.5037153
  15.5442588  71.8037442  40.6499354  16.1677971  71.5024569  40.2822399
  25.0636100  62.9022984  40.3147670  25.1034472  63.4032191  41.0282377
  24.2385765  62.9933378  40.0453593  24.9475626  62.9904801  40.3798208
  27.2465713  72.4683724  48.4167964  26.3961344  72.6055439  48.5525609
  27.4093841  71.7347503  48.8615666  27.1449577  72.3797826  48.5023563
  26.4850464  69.4183494  42.6121569  25.6542393  69.5857312  42.4056817
  26.4301981  69.0419445  43.3970454  26.3539878  69.3873225  42.6970097
  24.2934247  62.9092387  48.2477979  24.9186950  62.3654520  48.5207412
  23.8384727  62.4287305  47.6785770  24.3182507  62.7581868  48.2039573
  24.8586507  67.6939086  33.1411686  24.9989468  68.1911550  33.8440328
  25.3569040  66.9925380  33.2825900  24.9527588  67.6641065  33.2663265
  24.8886730  68.5606197  30.4704263  25.5231809  69.1566622  30.4053725
  24.9712341  68.2609654  31.2850133  24.9943281  68.6047105  30.5807350
  37.8669296  71.0921674  43.3390627  38.4587136  71.7318925  43.3708825
  38.3028290  70.3944711  43.6282694  38.0187727  71.0840024  43.3871460
  26.4665713  64.4920172  30.4449705  26.7881554  64.0123255  29.7908967
  26.7292656  65.3019818  30.2540517  26.5531738  64.5410070  30.3205197
  29.6962685  75.5139047  43.9648521  29.1887777  76.0674893  44.4089152
  29.3989332  75.5747336  43.1467296  29.5767570  75.6045358  43.9096978
  31.8624868  63.8792366  42.8073184  32.2879939  63.4264893  42.1956711
  31.2481861  63.3252437  43.0837972  31.8353513  63.7306342  42.7578210
  21.3939718  70.7574038  33.7393809  21.9031947  71.3538545  34.1205115
  21.8673990  70.4900011  33.0570229  21.5383093  70.8059853  33.6948332
  34.8918437  68.3066893  35.6393770  34.2209627  68.8496595  35.5106835
  35.5858187  68.7761748  35.3975465  34.8947304  68.4565164  35.5849298
  35.0546564  64.7622776  38.5484143  35.4074175  64.3352499  39.2229942
  34.1961366  64.6773620  38.6785219  34.9796009  64.6867517  38.6679154
  23.7530249  67.3930296  36.6066990  23.0342239  67.8094429  36.8739853
  24.1242612  67.9584535  36.0558628  23.7022181  67.5379578  36.5649797
  33.0529830  68.0258145  42.4968985  33.0327758  67.8441440  43.3503764
  33.1009031  68.8970164  42.4728569  33.0564471  68.1274683  42.6192280
  30.9976160  74.6145337  48.4217462  30.9572015  73.9695014  47.8362618
  31.8099478  74.5581954  48.7342874  31.1119314  74.5104304  48.3814411
  29.5276824  66.4328296  31.9440369  28.9341663  66.7545292  31.3924936
  29.5652101  65.5869391  31.7361475  29.4451213  66.3552624  31.8323140
  36.4870625  59.8841188  39.4768456  35.9801489  59.1770328  39.4089633
  37.2838058  59.5534377  39.6069532  36.5297864  59.7314340  39.4867451
  32.4034640  66.3907800  35.3742119  32.1748333  66.4140502  34.5320478
  32.6632717  65.5665268  35.4937130  32.4080828  66.2723880  35.2667317
  26.6853869  68.2442274  44.9767220  26.1732772  67.6363456  45.3352251
  26.5133365  68.9598866  45.4441195  26.5843506  68.2605573  45.0983443
  21.5319584  66.6879849  47.6269581  21.3622174  67.3481224  47.0817788
  21.0885533  66.8986410  48.3482070  21.4418917  66.8165831  47.6531211
  25.4579403  64.9284347  36.6696315  25.9336769  65.2901427  36.0346496
  24.9568002  65.5840814  36.9496458  25.4544762  65.0778536  36.6173056
  38.6890764  74.4006115  32.4609320  39.0724370  75.1497471  32.6907417
  37.8934878  74.6471935  32.2021309  38.6284547  74.5475809  32.4566894
  30.5622939  66.1666518  47.4169475  31.1194369  65.9380328  46.7847940
  30.2384004  66.9272184  47.1404687  30.5969349  66.2450355  47.2825972
  18.4321648  69.5926714  42.8858071  17.8848367  68.9227360  43.0038939
  19.2214026  69.2256562  42.9501538  18.4673832  69.4391701  42.9126772
  28.2806056  69.2534171  48.3821482  29.0317383  69.5685848  48.6961036
  28.4728633  69.0513342  47.5555404  28.4197471  69.2701553  48.3064878
  27.5006056  67.0725547  30.0369699  27.8805021  67.0905176  29.2520814
  26.7598652  67.5179535  29.9160546  27.4474894  67.1407321  29.9033267
  35.1291347  65.3807738  35.6245278  35.1285573  65.2256394  36.4829554
  34.9247527  66.2270725  35.5686663  35.0991124  65.4828359  35.7433217
  17.1908617  68.8047522  40.0404094  17.0130379  68.3524131  40.7659010
  16.9027640  69.6073684  40.2242572  17.1221571  68.8570080  40.1747597
  32.8532199  70.0605240  39.2781484  33.3485864  69.3428235  39.2385505
  32.0431974  69.7576037  39.1635971  32.8076092  69.9102886  39.2555210
  28.2990810  73.9103053  31.4278489  27.4902133  73.5869726  31.3811798
  28.8065719  73.2036275  31.3606738  28.2540477  73.7584369  31.4108783
  18.9281087  71.3375246  37.1525853  18.0626607  71.3260936  37.0408624
  19.0279903  71.1505469  37.9996993  18.8155254  71.3081307  37.2614798
  31.5062617  76.5243191  38.2959771  31.9773795  77.2383454  38.4649756
  31.8422795  75.9241942  38.8319640  31.6257732  76.5414656  38.3992147
  33.5939601  78.1344505  50.4751843  33.7036567  77.3453065  50.8308590
  33.9230498  78.0450441  49.6726181  33.6592007  78.0050358  50.4094234
  28.4232112  61.2970662  45.2517866  28.5560017  60.5001655  45.5798841
  28.8077265  61.8237065  45.8316141  28.4988441  61.2570579  45.3861368
  32.1436563  76.3161126  45.0587463  31.5957509  75.6919009  44.7907529
  32.6049592  76.5055398  44.3431543  32.1303773  76.2520176  44.9137894
  31.4964467  58.2200988  41.8498959  30.6910431  58.1098718  42.1666797
  31.3671203  58.3213444  40.9928825  31.3584600  58.2184658  41.7706999
  34.9530428  64.3846480  42.4438656  34.3693416  64.8855686  42.0316223
  35.2734722  63.8776036  41.8102979  34.9143603  64.3838315  42.2897163
  27.4925227  63.2987075  32.7197330  28.3140921  63.4685388  32.4779025
  27.0294878  63.4534336  31.9963628  27.5456389  63.3468808  32.5768975
  26.0820559  61.2929837  43.4995759  26.6264972  60.9520964  44.0900101
  26.1357494  62.1515299  43.6417044  26.1709678  61.3685096  43.6077633
  31.7094890  77.3212198  41.5896805  32.5293263  77.1775164  41.8513100
  31.4288967  77.9458397  42.1313242  31.7891633  77.3922550  41.7084744
  38.1084012  78.9131767  38.2782995  37.7787342  79.3642910  37.6086693
  37.4329013  78.8347930  38.8256001  37.9594448  78.9682902  38.2606218
  45.3160419  74.9017289  36.5232605  45.0013860  75.5920768  36.9553028
  44.7987361  74.8462072  35.8218106  45.1924890  74.9952178  36.4829554
  36.3139966  76.9744055  33.7605942  37.0685934  77.3422372  33.5222992
  36.1367500  77.3483609  34.5285122  36.3994444  77.0842243  33.8390831
  49.6074864  83.1238495  41.8053482  48.7703285  83.1940683  42.0401076
  49.5763095  83.1262990  40.9327784  49.4793147  83.1348723  41.7113030
  40.3496750  76.3840785  33.4933079  41.0782910  76.2056740  33.0471235
  40.4391642  77.2258864  33.7040257  40.4703412  76.4824663  33.4586597
  47.2882704  78.1881277  40.3897204  47.9308613  78.2579382  40.9759119
  47.5405725  77.5210500  39.8876746  47.4204836  78.1007626  40.4024483
  42.5233987  79.2818249  38.1008157  41.8190313  78.7927434  38.2592076
  42.5718961  79.2940723  37.2296601  42.4264038  79.2107897  37.9947497
  49.7264206  82.9625914  36.1209167  49.4700771  82.1505856  35.9307050
  50.5693520  82.9703482  35.8939355  49.8130232  82.8437912  36.0593985
  43.9067299  76.9025538  40.8585322  44.2877811  76.2203710  41.2453196
  43.1030583  76.6135141  40.6760986  43.8443761  76.7592587  40.8889378
  37.8659139  79.4079737  50.7247930  37.5512580  80.1779299  50.4617493
  37.5449072  78.8449993  50.1400157  37.7718058  79.4390005  50.5989280
  35.4191036  77.7970258  36.3394126  34.5513462  77.8692858  36.4051736
  35.7066241  78.5992337  36.5282101  35.3330784  77.9264405  36.3768893
  44.5423925  77.9448118  44.6705448  45.2877517  77.7557928  44.2568874
  44.1261230  78.4706355  44.1119305  44.5908899  77.9950263  44.5270021
  44.1405568  81.4745264  40.6075092  43.3016668  81.5006543  40.3713356
  44.2109935  82.1216000  41.1880439  44.0273961  81.5741390  40.6584209
  42.5874846  78.3730641  35.3402708  43.2901199  78.1738390  34.8622666
  42.3219034  77.6006584  35.6471552  42.6521478  78.2293608  35.3148150
  37.3503402  79.6365927  44.3933589  37.1586599  79.6521061  45.2433012
  38.2001998  79.8329601  44.3700244  37.4479124  79.6680278  44.5156884
  40.2607629  79.8321436  44.6005412  40.7180243  80.5645410  44.7278204
  40.3363958  79.4087901  45.3592668  40.3398599  79.8778674  44.7306488
  44.7334955  73.0111311  38.4699255  44.8518523  73.4687775  37.7366558
  44.5597131  72.2056572  38.1835472  44.7254126  72.9605083  38.3200189
  41.7012519  74.8662114  39.4117917  40.8306077  74.8400835  39.3651226
  41.9552860  74.6939306  38.5943762  41.6106079  74.8372257  39.2838054
  38.7261659  76.8768342  40.8691387  38.2100148  76.1848533  40.9942966
  38.1655588  77.5439119  40.8153986  38.5668172  76.8731600  40.8797453
  40.7953893  77.4161302  42.6984240  40.4085646  77.4410334  43.4797770
  40.3086830  76.8502981  42.2458756  40.6666402  77.3357053  42.7472143
  40.4611034  74.3028288  44.9894500  41.0904152  74.8388588  44.7115570
  40.6296897  74.2105646  45.8408065  40.5788829  74.3689650  45.0743028
  40.2624949  79.0899482  47.2620911  41.0898379  78.8184631  47.3179526
  40.2832795  79.8860324  47.6184729  40.3877799  79.1679237  47.3236094
  43.9534953  76.8364176  37.9579801  44.1584546  76.7686484  38.8036799
  43.6261377  77.6422997  37.8900979  43.9350201  76.9450116  38.0739457
  47.2068641  77.3895940  37.4382567  46.5942954  77.8766342  37.8236299
  47.3032816  76.7139431  37.9820218  47.1306538  77.3614249  37.5761425
  41.2087722  79.1458781  32.5380066  41.6631468  79.3169342  33.2627911
  41.6827767  78.5326892  32.1377842  41.3456042  79.0809667  32.5853828
  40.4680317  77.6451575  38.6756935  39.6216362  77.8174382  38.5498285
  40.4651450  76.8400918  39.0122763  40.3427467  77.5512604  38.7068062
  41.5378617  81.4226789  39.5418993  41.0638572  80.8968551  40.0524304
  41.9096753  80.8756262  38.9733854  41.5228506  81.2642786  39.5334140
  49.8020535  83.2630622  38.9055032  49.5630305  83.2226456  38.0675817
  49.9654436  84.1101774  39.0320754  49.7910839  83.3822707  38.8008514
  42.4864482  76.0195128  44.3438615  41.9905043  76.2158802  43.6530181
  43.2433544  76.4187796  44.1727416  42.5251307  76.1072862  44.2158752
  39.7567362  79.6937474  40.9341925  39.7809849  79.1597586  40.2454705
  40.0078835  79.1854783  41.5967516  39.7977280  79.5398378  40.9306570
  36.0368684  78.4208292  40.3147670  36.0767055  78.9217499  41.0282377
  35.2118348  78.5118686  40.0453593  35.9208210  78.5090109  40.3798208
  35.2666830  78.4277695  48.2477979  35.8919534  77.8839828  48.5207412
  34.8117310  77.9472613  47.6785770  35.2915091  78.2767176  48.2039573
  42.8357451  79.3977674  42.8073184  43.2612523  78.9450200  42.1956711
  42.2214444  78.8437745  43.0837972  42.8086097  79.2491650  42.7578210
  41.2751674  75.8692774  36.2163761  40.6319992  75.7190420  36.7848900
  40.9351081  75.6235119  35.4512866  41.1296751  75.8104896  36.1866776
  46.0279148  80.2808084  38.5484143  46.3806758  79.8537807  39.2229942
  45.1693949  80.1958928  38.6785219  45.9528593  80.2052825  38.6679154
  47.4603208  75.4026496  39.4768456  46.9534073  74.6955636  39.4089633
  48.2570642  75.0719685  39.6069532  47.5030447  75.2499648  39.4867451
  43.3767224  81.9093108  35.3742119  43.1480917  81.9325810  34.5320478
  43.6365300  81.0850575  35.4937130  43.3813412  81.7909188  35.2667317
  46.1023930  80.8993046  35.6245278  46.1018157  80.7441702  36.4829554
  45.8980110  81.7456033  35.5686663  46.0723708  81.0013666  35.7433217
  39.3964695  76.8155970  45.2517866  39.5292601  76.0186963  45.5798841
  39.7809848  77.3422373  45.8316141  39.4721024  76.7755887  45.3861368
  42.4697051  73.7386296  41.8498959  41.6643014  73.6284026  42.1666797
  42.3403786  73.8398752  40.9928825  42.3317183  73.7369966  41.7706999
  45.9263011  79.9031788  42.4438656  45.3426000  80.4040994  42.0316223
  46.2467305  79.3961344  41.8102979  45.8876186  79.9023623  42.2897163
  38.4657810  78.8172383  32.7197330  39.2873505  78.9870696  32.4779025
  38.0027461  78.9719644  31.9963628  38.5188973  78.8654116  32.5768975
  37.0553142  76.8115145  43.4995759  37.5997555  76.4706272  44.0900101
  37.1090078  77.6700606  43.6417044  37.1442262  76.8870404  43.6077633
  14.9561613  15.3599257  21.4879728  14.9255617  16.2143894  21.6597997
  15.5542962  15.0594550  22.0465871  15.0398771  15.4415754  21.5954530
   8.1561298  14.4474908  26.2432658   7.2999193  14.6083407  26.2941775
   8.2028952  13.5766972  26.2637719   8.0360409  14.3425710  26.2538724
   2.5402438  23.9837626  22.0069890   1.7885337  23.6053165  21.7785935
   2.9888449  24.0156060  21.2588700   2.4952104  23.9323233  21.8627392
  11.4655014  20.7161434  35.8493114  12.1721782  20.2213465  35.9780049
  11.6542950  21.1570515  35.1195772  11.5982920  20.7079784  35.7602160
   7.9927398  24.4062996  17.4355437   7.6578766  25.0839917  16.9999659
   8.5054268  24.0168307  16.8472308   8.0192979  24.4487574  17.2842228
   7.5331689  26.3577264  23.3766548   7.9171068  26.9264163  22.8371324
   7.4690830  25.6326775  22.8972364   7.5805116  26.3352728  23.2260411
  11.0013119  16.5066952  28.8864310  11.5469079  17.1852039  28.9458279
  10.9429995  16.3654413  28.0265891  11.0729033  16.5858954  28.7676370
   4.1187194  23.9956018  24.2732662   4.2197557  23.1856372  24.5829790
   3.5228939  23.9012965  23.6432341   4.0459733  23.8621046  24.2258901
  12.7778188  17.9351559  19.7598038  12.6617714  18.6859245  20.1890176
  13.5734074  17.6775513  20.0094125  12.8782777  18.0086406  19.8602129
   3.9587933  28.9133607  25.6747518   4.6025389  29.3546772  26.0643677
   4.2844189  28.1087034  25.5877777   4.1019762  28.8598802  25.7192996
   4.6608513  21.9245582  21.0467380   4.9824354  22.4650790  20.4428688
   5.3080610  21.3542354  21.1789670   4.8034568  21.9204758  20.9774415
   6.7110221  13.9261577  21.1301767   7.4090386  14.1049705  21.6223230
   7.0262554  13.4031917  20.5072156   6.8605558  13.8755349  21.1103777
   6.8998157  20.3132022  21.1181558   7.3391792  19.7049123  21.5636331
   6.7502819  19.9339396  20.3467023   6.9419622  20.1670493  21.0700726
   4.3669800  18.9076034  28.3200384   5.0118802  18.4148477  28.0011332
   4.6071577  19.0500821  29.1466462   4.4980385  18.8553476  28.3949917
   6.9055891  21.7530940  27.9707276   7.1879134  20.9582346  27.7494032
   7.6342051  22.2311527  27.9912337   7.0545455  21.7065537  27.9410291
  10.5007493  18.6659204  18.0712327  10.4158788  19.5220170  18.2161896
  10.9891876  18.3903528  18.7394487  10.5596390  18.7516525  18.1914409
  11.4325926  15.2843998  19.5710063  10.9037398  15.5003631  20.2307369
  11.9550946  15.9780136  19.4911032  11.4314379  15.4187135  19.6565662
  16.8873979  20.8590302  24.9443107  16.0571682  21.0700946  25.1076524
  16.8383232  20.0327357  24.6685391  16.7580715  20.7679909  24.9280472
   4.9483717  23.6894156  27.7791017   4.4310659  23.3301571  27.1752325
   5.6458108  23.1656331  27.7897083   4.9749298  23.5591844  27.6921275
   8.6047309  24.1388970  33.7407190   8.6930655  23.9515111  34.5885400
   9.0337021  23.4926400  33.3412036   8.6809411  24.0151978  33.8078941
   6.1717769  23.4220130  32.7224852   5.6088603  23.0092740  33.2464513
   6.9338792  23.3473036  33.1417995   6.2012217  23.3497531  32.8617852
   1.7313760  25.4118152  25.3261482   2.4334339  24.8970141  25.3834238
   1.6511243  25.7392303  26.1308357   1.8237521  25.3832378  25.4534274
  16.3827938  13.5060703  28.7393528  15.5456359  13.5762890  28.9741123
  16.3516169  13.5085198  27.8667831  16.2546220  13.5170930  28.6453076
   2.7792667  15.6493739  34.4541897   2.9513170  15.5399633  35.3027178
   3.3162024  16.2948144  34.2173089   2.8837671  15.7285740  34.5446994
   1.0564536  21.6024504  24.8347090   1.8953435  21.8347436  24.8820852
   1.0876305  20.7328815  24.7654125   1.1846253  21.5081450  24.8311735
   1.6817239  22.0225379  29.1360395   2.2215463  21.8796510  29.8063768
   0.9987185  22.4222130  29.5044422   1.6609392  22.0605050  29.2894817
  11.1058123  17.7016379  24.3305420  11.8615638  18.1347894  24.3694329
  11.2120448  17.0521149  24.9040056  11.2328294  17.6693863  24.4203445
  14.1438295  21.5289657  25.0807823  13.7073526  21.5326399  25.8366794
  13.8101210  22.2095156  24.6487400  14.0300914  21.6302112  25.1288655
   8.7167368  23.5697989  36.4050973   9.5007785  23.6828837  36.7706715
   8.5163963  22.7439127  36.6009659   8.8033394  23.4644709  36.4885359
  14.0635777   8.5703484  27.3237251  14.7061686   8.6401589  27.9099166
  14.3158798   7.9032707  26.8216793  14.1957910   8.4829833  27.3364530
   8.8737761  25.4808092  30.0517429   8.0753007  25.2407592  30.3091297
   9.3223773  25.5322484  30.7984476   8.8212373  25.4530483  30.2002353
  17.2782641  18.2470577  23.9727460  17.9399075  17.6861245  23.8723368
  16.6374053  17.7522607  24.2980151  17.2811508  18.0906986  24.0059800
   8.1659448  21.5440708  16.2808383   8.5810597  21.2125732  15.5892879
   7.3351378  21.3109610  16.1528520   8.1047457  21.4611964  16.1599231
  13.5647471  19.2635959  23.7139449  13.8003061  19.4081158  22.8866299
  13.7137035  20.0278367  24.1070962  13.6213275  19.3975013  23.6503053
   0.5593549  15.7469452  33.0788670   1.2833521  15.7322482  33.5653565
   0.6609685  16.4564807  32.5810638   0.6811758  15.8494155  33.0767457
  15.3937928  18.1037625  21.5509053  15.7246145  18.6365265  20.9449147
  15.9671016  18.1576513  22.2071004  15.5271607  18.1907194  21.5586834
   7.9338498  19.2268536  37.9437617   7.1411479  19.5412048  38.1290237
   8.0487425  19.4420005  37.1058402   7.8333909  19.3052373  37.8475952
  10.6069817  15.9502528  22.2332633  10.7016672  16.6891822  22.6872258
   9.9828661  15.5220003  22.6667197  10.5278847  15.9963848  22.3640780
   8.8622291  19.1288740  32.8822914   9.4361153  18.4915984  33.0371478
   8.7837095  19.1292823  32.0132571   8.9355526  19.0353852  32.7769325
   4.2186010  17.5612005  24.9344111   3.9605254  16.7283740  24.9075411
   4.2734493  17.7869618  24.0936611   4.1885788  17.4709777  24.8064248
   9.2987060   9.6640456  25.0348204   8.5943387   9.1749642  25.1932123
   9.3472034   9.6762930  24.1636648   9.2017111   9.5930104  24.9287544
   3.1920722  15.1149768  25.4209006   2.6170313  15.2741936  26.0572967
   2.8156398  14.4785177  24.9577456   3.0523534  15.0447581  25.4463564
   6.8594011  13.5873117  30.2801384   6.4708443  13.1627335  29.6253575
   6.1948709  13.8355267  30.7878411   6.7040938  13.5611838  30.2589252
  16.5017280  13.3448122  23.0549214  16.2453845  12.5328063  22.8647097
  17.3446594  13.3525689  22.8279402  16.5883305  13.2260119  22.9934031
  10.6820372   7.2847746  27.7925368  11.0630884   6.6025917  28.1793243
   9.8783656   6.9957348  27.6101033  10.6196834   7.1414794  27.8229424
   7.9632949  17.8171722  18.4778191   8.7773588  18.1086614  18.3660963
   7.8992090  17.1631584  17.9036484   8.0735688  17.7636916  18.3767029
  14.1842439  20.4997718  32.8907767  13.9481076  19.6685783  32.7719827
  14.8285668  20.4483325  33.4762611  14.2437110  20.3695406  32.9593660
   3.8340857  21.2893239  23.6050503   4.4714804  21.0504987  24.1502297
   4.2595929  21.4930398  22.8703664   3.9917023  21.2844249  23.5767661
  15.2078860  20.2842167  28.9536061  14.9024677  21.0170223  29.3149377
  14.4885075  19.8780096  28.6728847  15.0566202  20.3323900  28.9649198
   6.2162329  21.7665662  25.2844290   6.2901337  21.6040834  26.1386139
   7.0331835  21.9555851  25.0404771   6.3478688  21.7702404  25.3742315
  20.9080652  16.9235167  28.2804406  20.8405152  16.9431126  27.4106992
  20.8936314  17.7665494  28.5060076  20.8959408  17.0508902  28.1856882
  11.3176998   8.3270325  31.6045495  12.0630590   8.1380135  31.1908920
  10.9014303   8.8528563  31.0459351  11.3661972   8.3772470  31.4610068
   4.7566915  24.7300405  20.0157763   5.0465213  24.3389386  19.2916990
   5.4870396  24.9117110  20.4563038   4.9073799  24.6994219  19.9740570
  18.6939269  15.6979553  26.5551000  19.2447191  15.0647622  26.7948092
  18.6783384  16.2294946  27.2466504  18.7724465  15.6828502  26.6929858
   5.3461660  19.5318151  31.1010893   4.8473354  20.2433918  31.1795782
   6.1561884  19.8518817  31.0629056   5.3917767  19.6844999  31.1067462
   2.6972830  26.7067787  23.0817913   2.4773126  26.4165142  23.8744580
   2.4767352  26.0482742  22.5535825   2.6320425  26.5667496  23.1206821
   1.6089778  18.7941104  25.3473614   1.3203026  18.1678575  25.8819342
   2.4773126  18.7361391  25.4138295   1.6950029  18.6928648  25.4364569
  12.3967675  13.9375887  25.6655596  12.0532441  13.2166222  26.0162846
  12.4960718  13.7289738  24.8233954  12.3609718  13.8000090  25.5927276
   4.8640786  28.0797177  21.8648605   5.5164844  27.5473619  22.0939631
   4.1666395  27.7265829  22.2516479   4.8571504  27.9486700  21.9560773
   1.8122051  20.4336355  21.2715979   2.5668019  20.8149394  21.4851442
   1.2192664  20.8847498  21.7262676   1.8358764  20.5565182  21.3698858
  12.8580704  20.4001591  21.2079584  13.4238737  21.0594801  21.1238127
  12.2108608  20.7451289  21.6795986  12.8459461  20.5483532  21.2652341
   4.2728718  12.3899195  36.3973192   3.4628494  12.6956975  36.2863034
   4.7503405  13.1104777  36.5125776   4.2232197  12.5413796  36.3980263
   3.1320278  21.6044916  26.6456095   2.6101031  21.7445208  27.3307959
   3.5194298  20.8455580  26.8358212   3.1123978  21.5130440  26.7757171
   9.3287282  23.3440375  20.6316664   9.0873958  22.6108236  20.2243728
   9.5088615  23.8927232  19.9782997   9.3194906  23.3162767  20.4746886
   4.5586603  18.6348935  22.0437586   4.3629386  19.2423670  21.4497889
   4.7820949  17.9416879  21.5629260   4.5621244  18.6226461  21.8853667
   2.9565133  15.5203673  22.1618454   3.6787785  15.6844831  21.7022260
   2.4773126  16.2413338  22.0557794   2.9928864  15.6501903  22.0784068
  10.9158641  11.8567472  27.5415139  10.0769741  11.8828751  27.3053402
  10.9863008  12.5038207  28.1220486  10.8027034  11.9563598  27.5924256
   9.3627919   8.7552849  22.2742755  10.0654272   8.5560597  21.7962713
   9.0972108   7.9828791  22.5811598   9.4274551   8.6115815  22.2488197
  14.7916165  17.0635459  24.8276381  14.7050139  17.2190885  25.6811160
  14.3366644  17.7073534  24.4535786  14.7119421  17.1811214  24.8983488
   4.1256475  10.0188134  31.3273636   3.9339672  10.0343268  32.1773059
   4.9755071  10.2151808  31.3040290   4.2232197  10.0502485  31.4496930
   8.6641981  14.3846206  23.4501940   8.4176695  14.3041957  24.2838729
   8.9927104  13.5999674  23.2564468   8.6763224  14.2572471  23.5449463
  12.5590029  21.0929565  27.2388722  12.4204389  21.7910611  27.7437464
  11.7790027  20.9378222  26.8824903  12.4233256  21.1729732  27.2614996
  10.8968115  17.3925940  33.4911103  10.8916153  16.5205757  33.4953530
  11.6029108  17.5914110  33.0180559  11.0013119  17.2929815  33.4218139
   4.6239008  17.1202924  32.8624923   4.7682384  17.7004132  32.2268033
   4.9714656  17.4979221  33.5674778   4.6966469  17.2623628  32.8723918
   6.7958925  16.3193093  30.6450055   6.0482239  16.5124107  30.2398333
   6.9500450  15.4938312  30.4074176   6.7081353  16.2258204  30.5495461
   3.6966763  25.3105696  29.7285950   3.8456327  24.7508612  29.0759355
   4.4766765  25.3897698  30.1118469   3.8340856  25.2391262  29.6882899
  14.0543402  20.4507819  18.0005221  13.6750211  19.6644957  17.9934510
  13.3909648  20.9994676  17.8576865  13.9001877  20.4152643  17.9786018
   6.2220064  25.4820339  31.0070441   6.1463735  24.8129150  31.5621229
   6.1509923  26.1838127  31.5211107   6.2000670  25.4865246  31.1647289
   7.0360702  10.2143643  31.5345459   7.4933316  10.9467618  31.6618251
   7.1117031   9.7910109  32.2932715   7.1151672  10.2600881  31.6646535
   6.8790310  24.0021338  21.8394047   7.6440202  23.7330982  21.5176711
   6.7768400  23.5171348  22.5564110   6.9771806  23.8910903  21.8973875
   4.9143080  12.2045747  28.3787283   4.1239155  12.0237207  28.7004619
   5.3103703  11.4272700  28.3617577   4.8559956  12.0633208  28.4239831
  10.2986766  19.8388178  26.1046729   9.6231768  19.6073410  26.6060116
  10.3079143  19.2309360  25.4788834  10.2005271  19.7147103  26.0862881
   7.4280910  14.6806006  32.8610782   7.3640052  15.5415963  32.7330918
   7.5678098  14.3638000  32.0606333   7.4396381  14.7606173  32.7238995
  12.3003501  22.6953310  18.3356907  12.3823338  23.5020296  18.0118358
  12.7853243  22.7149269  19.0597680  12.3840659  22.8173972  18.3943805
   6.1100004  17.3738146  27.0026985   5.6862253  17.5742645  26.2666003
   5.9344860  16.5266994  27.1151284   6.0210885  17.2786927  26.9100675
   5.6111698  28.8888659  29.4648442   6.1007628  28.1899448  29.2824106
   5.0395930  28.5912529  30.0524499   5.5996228  28.7414882  29.5249483
   1.3982449  17.8690197  22.4354957   1.5547068  17.8037000  23.2910949
   1.7383042  18.6438750  22.2233637   1.4715684  17.9739395  22.5309551
   7.9361594  17.2448081  21.3048320   8.4777139  16.7418462  21.7686941
   8.2508153  17.1913276  20.4937806   8.0625991  17.1627502  21.2532132
  11.8078701  21.4550728  38.4175233  12.6213567  21.1835877  38.5780365
  11.6473668  21.1558268  37.6135428  11.9048650  21.3705654  38.3220638
   6.1048044  22.6365432  18.5888348   6.1740864  21.7779971  18.7281349
   6.8836499  22.8537313  18.2607373   6.2300894  22.5418296  18.5605506
   9.0850863  12.1384385  31.3570621   9.2992833  11.4995300  30.8033975
   8.4684762  12.5830209  30.9278483   9.0256193  12.1094529  31.2121052
  10.4955531  25.0603134  22.8024842  10.1035323  24.7569849  22.0847708
  10.6508603  25.8972224  22.6129795  10.4609121  25.1386970  22.6681339
  11.2489951  13.7473451  32.2953928  10.4366633  13.4399341  32.3767101
  11.7079886  13.2672451  32.8596640  11.1970336  13.6309943  32.3908522
  10.6595206  21.6253122  22.7430872  10.3009861  21.7967765  23.5194905
  10.1733917  22.0866328  22.1858871  10.5353903  21.7192094  22.7756141
   8.3443459  15.1533522  37.0782630   8.8143090  15.7775638  37.4650504
   8.3905339  14.4850497  37.6375845   8.4211335  15.1468202  37.2182702
  11.8199945  22.5157018  33.6898073  12.4579666  22.0217214  33.3560529
  11.1774037  22.4434419  33.1050300  11.8194172  22.4316027  33.5540428
  13.5456945  14.3646164  28.2563989  13.1184553  14.2772513  27.5012088
  12.9082998  14.4723940  28.8418833  13.3886553  14.3678824  28.2309430
   7.0378023   9.4721690  34.1960958   7.8651452   9.2006839  34.2519573
   7.0585869  10.2682531  34.5524776   7.1630873   9.5501444  34.2576141
  11.8754202  23.2076827  30.3303430  12.6646580  22.8565891  30.4505512
  12.0497800  24.0213215  30.0680064  12.0174484  23.2762684  30.3091298
   1.6147512  16.6185552  27.3831219   0.7735519  16.5189427  27.5910113
   1.8237520  17.3881033  27.7345539   1.5212205  16.7177596  27.4658534
  10.7288026   7.2186383  24.8919848  10.9337619   7.1508691  25.7376845
  10.4014450   8.0245205  24.8241026  10.7103274   7.3272324  25.0079503
   5.4264177  14.5466952  26.6328816   5.1227315  13.9922940  27.2339224
   4.7243598  14.7259162  26.1456850   5.2780387  14.4911734  26.6498522
   3.4882528  21.7616672  31.3400914   3.3802883  21.7718734  32.2062972
   3.6978310  22.5871453  31.1505868   3.5032639  21.8857747  31.4405006
  13.9821714   7.7718148  24.3722614  13.3696027   8.2588550  24.7576346
  14.0785889   7.0961639  24.9160265  13.9059611   7.7436456  24.5101472
   1.5056320  19.0129315  28.8022852   0.9144253  19.6538813  28.7725867
   2.2677344  19.4366932  28.7754151   1.5304581  19.1705153  28.7937999
   3.5500293  10.8398007  34.0362896   3.1585858  10.1931354  34.4718674
   3.7186155  11.4309443  34.6557152   3.5171203  10.8312275  34.1925602
  17.6246742  18.8435084  29.8000130  17.6829865  19.2921733  30.5460106
  16.9913209  19.2533897  29.3630210  17.5398037  18.9708819  29.8452678
  11.2645836  24.4638626  26.2354876  11.0665525  24.9529441  25.5411087
  10.6433548  24.6679868  26.8139009  11.1433401  24.5655165  26.2178099
   5.3253815  16.2323523  20.5765120   6.0695860  16.6197799  20.8148070
   5.4714511  15.3880949  20.7405608   5.4564400  16.1653996  20.6359090
   8.3131691  11.8048996  26.4759040   7.8391645  11.2790759  26.9864351
   8.6849826  11.2578469  25.9073901   8.2981580  11.6464993  26.4674187
  14.5768421  16.8651372  27.8865820  14.3366644  16.0257787  27.8908247
  15.0560428  16.9451539  28.6106594  14.6120605  16.7532772  27.9940623
  16.5773608  13.6452829  25.8395079  16.3383378  13.6048663  25.0015864
  16.7407510  14.4923981  25.9660800  16.5663912  13.7644914  25.7348561
  13.1819638  18.0302779  31.7700124  13.9053837  17.5775305  31.5911144
  12.9169601  18.3107444  30.9872452  13.2500912  18.0053747  31.6278840
   2.0506507  12.6262952  28.5053004   1.4259577  12.6381344  27.8978956
   1.7152102  13.1023127  29.1544244   1.9091999  12.6981469  28.5109572
   9.7952273  21.2689115  18.6694451  10.5186472  21.7347228  18.5259024
   9.3552864  21.3362724  17.9192048   9.8367965  21.3472951  18.5379232
   8.9638428  18.1286657  29.9195140   8.3495421  17.5844707  30.2143775
   9.4805713  17.6150893  29.4400956   8.9494090  17.9723066  29.8919368
   8.2034725  19.1990927  27.6539438   7.7762333  18.5740646  27.2204874
   8.1959669  18.9165849  28.4798445   8.1393866  19.0643708  27.7119266
   1.3197252  14.2356100  30.7227872   1.4790739  13.4799424  31.1279594
   1.1390146  14.7847040  31.3768610   1.3162611  14.2049914  30.8790578
   9.2617555   6.4017336  31.2778662   8.7658116   6.5981010  30.5870228
  10.0186617   6.8010004  31.1067463   9.3004380   6.4895069  31.1498798
   6.5320435  10.0759681  27.8681972   6.5562922   9.5419794  27.1794752
   6.7831908   9.5676990  28.5307563   6.5730353   9.9220585  27.8646617
   4.9951370  18.3691240  35.3508011   4.1447000  18.5062954  35.4865656
   5.1579498  17.6355018  35.7955713   4.8935233  18.2805341  35.4363610
   4.2336120  15.3191010  29.5461615   3.4028050  15.4864827  29.3396864
   4.1787638  14.9426960  30.3310501   4.1025535  15.2880741  29.6310144
  15.6154952  16.9929189  30.2730674  16.2072793  17.6326440  30.3048872
  16.0513947  16.2952226  30.5622741  15.7673384  16.9847540  30.3211507
   7.4448342  21.4146562  30.8988568   6.9373433  21.9682409  31.3429199
   7.1474988  21.4754852  30.0807343   7.3253227  21.5052873  30.8437025
   9.6110524   9.7799881  29.7413231  10.0365596   9.3272408  29.1296757
   8.9967518   9.2259952  30.0178019   9.5839170   9.6313858  29.6918256
  10.0556123  25.3309820  18.8292512   9.3385432  25.1570682  18.3639749
  10.7062860  25.0962392  18.2967998  10.0457973  25.2705612  18.6821730
  12.6404094  14.2074408  22.5733817  11.9695284  14.7504110  22.4446882
  13.3343844  14.6769263  22.3315511  12.6432961  14.3572679  22.5189344
   6.6890827  26.3471120  27.8045575   6.4656482  25.5889949  28.1729601
   6.2000671  26.3769141  27.0826015   6.5834276  26.2393345  27.7522316
  12.8032221  10.6630292  25.4824190  13.1559831  10.2360015  26.1569989
  11.9447023  10.5781135  25.6125266  12.7281666  10.5875032  25.6019200
   1.5015906  13.2937811  23.5407036   0.7827895  13.7101944  23.8079900
   1.8728268  13.8592050  22.9898675   1.4507838  13.4387093  23.4989843
  10.8015487  13.9265660  29.4309032  10.7813414  13.7448955  30.2843811
  10.8494688  14.7977679  29.4068616  10.8050128  14.0282199  29.5532327
   8.7461817  20.5152852  35.3557509   8.7057672  19.8702529  34.7702665
   9.5585135  20.4589470  35.6682921   8.8604970  20.4111819  35.3154458
   5.3369284  26.5671578  25.2582660   4.9229683  25.9045708  24.8686501
   6.0216659  26.7149437  24.7378354   5.3767656  26.4912236  25.1239157
   8.7034579  25.7261663  26.0106276   8.3050862  25.8363934  25.2427096
   8.0885798  25.9343730  26.5932836   8.5533468  25.7735231  25.9837576
  14.2356281   5.7848704  26.4108502  13.7287146   5.0777843  26.3429680
  15.0323715   5.4541892  26.5409579  14.2783521   5.6321855  26.4207497
  10.1520297  12.2915316  22.3082166   9.9233990  12.3148017  21.4660524
  10.4118373  11.4672783  22.4277177  10.1566485  12.1731396  22.2007364
   4.4339526  14.1449789  31.9107266   3.9218429  13.5370972  32.2692298
   4.2619022  14.8606381  32.3781242   4.3329163  14.1613088  32.0323490
   3.2065060  10.8291862  23.6036362   3.6822426  11.1908942  22.9686543
   2.7053659  11.4848330  23.8836505   3.2030419  10.9786051  23.5513103
  16.4376421  20.3013630  19.3949367  16.8210027  21.0504986  19.6247464
  15.6420535  20.5479450  19.1361356  16.3770203  20.4483324  19.3906940
   8.3108596  12.0674033  34.3509522   8.8680026  11.8387843  33.7187987
   7.9869661  12.8279699  34.0744734   8.3455006  12.1457870  34.2166019
   6.0291713  15.1541687  35.3161529   6.7803040  15.4693364  35.6301083
   6.2214290  14.9520858  34.4895451   6.1683127  15.1709069  35.2404925
  12.8777003  11.2815253  22.5585324  12.8771230  11.1263910  23.4169601
  12.6733183  12.1278240  22.5026710  12.8476781  11.3835874  22.6773264
  10.6017855  15.9612755  26.2121531  11.0971521  15.2435750  26.1725552
   9.7917631  15.6583553  26.0976018  10.5561749  15.8110401  26.1895257
   6.0476467  19.8110568  18.3618536   5.2387790  19.4877242  18.3151845
   6.5551376  19.1043790  18.2946784   6.0026134  19.6591885  18.3448830
  12.6669674  18.7116442  28.8998660  13.0924746  18.1890864  28.3469085
  12.3026594  19.3097280  28.3787283  12.6756277  18.7226669  28.7407670
   2.3023754  27.0080660  27.6596006   2.6170313  27.8217048  27.6673787
   2.7117167  26.6230879  28.3278165   2.4091852  27.0709362  27.7600097
   9.2548274  22.4250707  25.2299818   9.7259452  23.1390969  25.3989803
   9.5908452  21.8249457  25.7659687   9.3743389  22.4422171  25.3332193
  11.3425258  24.0352020  37.4091890  11.4522224  23.2460581  37.7648637
  11.6716155  23.9457956  36.6066228  11.4077664  23.9057873  37.3434280
   9.8922220  22.2168641  31.9927510   9.3443166  21.5926524  31.7247575
  10.3535249  22.4062913  31.2771590   9.8789429  22.1527691  31.8477941
  12.7016084  10.2853995  29.3778702  12.1179073  10.7863202  28.9656270
  13.0220378   9.7783551  28.7443026  12.6629260  10.2845830  29.2237210
   9.4580546  23.2219714  28.5236851  10.2778920  23.0782680  28.7853147
   9.1774624  23.8465912  29.0653289   9.5377290  23.2930066  28.6424791
  19.1293882  29.9660216  26.2432658  18.2731777  30.1268714  26.2941775
  19.1761535  29.0952280  26.2637719  19.0092993  29.8611018  26.2538724
  13.5135021  39.5022934  22.0069890  12.7617921  39.1238472  21.7785935
  13.9621033  39.5341368  21.2588700  13.4684688  39.4508541  21.8627392
  18.9659981  39.9248304  17.4355437  18.6311350  40.6025225  16.9999659
  19.4786852  39.5353615  16.8472308  18.9925562  39.9672882  17.2842228
  18.5064272  41.8762572  23.3766548  18.8903652  42.4449471  22.8371324
  18.4423414  41.1512083  22.8972364  18.5537700  41.8538036  23.2260411
  15.0919777  39.5141326  24.2732662  15.1930140  38.7041680  24.5829790
  14.4961523  39.4198273  23.6432341  15.0192316  39.3806354  24.2258901
  23.7510771  33.4536867  19.7598038  23.6350297  34.2044553  20.1890176
  24.5466658  33.1960821  20.0094125  23.8515361  33.5271714  19.8602129
  14.9320517  44.4318915  25.6747518  15.5757972  44.8732079  26.0643677
  15.2576773  43.6272342  25.5877777  15.0752346  44.3784110  25.7192996
   8.2884822  35.5361613  23.8984996   8.0535006  34.7029265  23.7917265
   8.4270462  35.8166279  23.0846197   8.2740484  35.4545116  23.7627351
  10.5874909  27.7047343  26.7969304   9.9679941  27.1139991  26.6279318
  10.4858773  28.2958779  26.1633627  10.4812585  27.7051426  26.6774293
  15.6341097  37.4430890  21.0467380  15.9556938  37.9836098  20.4428688
  16.2813193  36.8727662  21.1789670  15.7767152  37.4390065  20.9774415
  17.6842805  29.4446885  21.1301767  18.3822970  29.6235013  21.6223230
  17.9995137  28.9217225  20.5072156  17.8338142  29.3940657  21.1103777
  10.3144042  31.2499625  29.0412873  10.1902739  31.8362071  29.6762691
  10.9662327  30.7559821  29.3425148  10.3917692  31.2638430  29.1798802
  17.8730740  35.8317330  21.1181558  18.3124376  35.2234431  21.5636331
  17.7235403  35.4524704  20.3467023  17.9152206  35.6855801  21.0700726
  15.3402383  34.4261342  28.3200384  15.9851386  33.9333785  28.0011332
  15.5804160  34.5686129  29.1466462  15.4712968  34.3738784  28.3949917
  17.8788475  37.2716248  27.9707276  18.1611717  36.4767654  27.7494032
  18.6074635  37.7496835  27.9912337  18.0278038  37.2250845  27.9410291
  15.8569668  24.8139282  25.2123041  15.5272998  25.2650425  24.5426740
  15.1814670  24.7355445  25.7596048  15.7080105  24.8690417  25.1946265
  21.4740077  34.1844512  18.0712327  21.3891372  35.0405478  18.2161896
  21.9624460  33.9088836  18.7394487  21.5328974  34.2701833  18.1914409
  23.0646076  20.8024805  23.4572652  22.7499517  21.4928283  23.8893074
  22.5473018  20.7469587  22.7558153  22.9410547  20.8959693  23.4169601
  22.4058510  30.8029306  19.5710063  21.8769981  31.0188939  20.2307369
  22.9283530  31.4965444  19.4911032  22.4046963  30.9372443  19.6565662
  14.2958118  34.6992522  18.3717531  13.7115333  35.2042554  18.7783394
  13.8928213  34.4734909  17.6314122  14.1497422  34.7400771  18.3222556
   9.8502146  40.4147284  25.1741202   9.3669725  41.1397773  25.1500786
  10.6625465  40.7123414  25.2851360   9.8992894  40.5649637  25.1868481
  15.9216300  39.2079464  27.7791017  15.4043242  38.8486879  27.1752325
  16.6190692  38.6841639  27.7897083  15.9481882  39.0777152  27.6921275
  18.7535332  30.9458175  16.8486451  18.9931336  31.1536158  16.0361794
  19.0751173  30.1415683  16.9575396  18.8372490  30.8572276  16.7447004
  14.0625622  22.8751570  20.6945989  14.8171590  23.2429887  20.4563039
  13.8853157  23.2491125  21.4625169  14.1480101  22.9849758  20.7730878
  12.7046344  40.9303460  25.3261482  13.4066923  40.4155449  25.3834238
  12.6243827  41.2577611  26.1308357  12.7970104  40.9017686  25.4534274
  13.7525250  31.1679046  34.4541897  13.9245754  31.0584941  35.3027178
  14.2894608  31.8133452  34.2173089  13.8570254  31.2471048  34.5446994
  12.4182687  25.2821889  17.3924102  12.2358260  25.4993770  16.5665095
  13.2808300  25.3960902  17.4482716  12.5187277  25.3311787  17.2778589
  12.0297119  37.1209812  24.8347090  12.8686018  37.3532744  24.8820852
  12.0608888  36.2514123  24.7654125  12.1578837  37.0266758  24.8311735
  12.6549822  37.5410687  29.1360395  13.1948047  37.3981818  29.8063768
  11.9719768  37.9407437  29.5044422  12.6341976  37.5790358  29.2894817
  18.0982406  22.2848300  20.4273126  18.8268567  22.1064255  19.9811282
  18.1877299  23.1266380  20.6380304  18.2189068  22.3832178  20.3926644
   8.0586967  33.7610978  29.2894817   7.7925382  32.9450094  29.4485807
   8.0725531  33.8064133  28.4190333   8.0211689  33.6467882  29.1848299
  11.9644714  28.5596062  15.9046575  11.2502891  28.2734241  16.3169008
  12.4488683  28.8992688  16.5452963  11.9304077  28.5677712  16.0602210
  12.8085574  27.2989356  31.9361825  12.1157370  26.8286335  32.1822556
  13.4245901  27.0727660  32.5103532  12.7970103  27.1956488  32.0570977
  19.1392032  37.0626016  16.2808383  19.5543181  36.7311040  15.5892879
  18.3083962  36.8294918  16.1528520  19.0780041  36.9797272  16.1599231
   8.4680381  34.5469757  26.5706561   8.2855954  34.5216643  25.7178853
   9.2030050  35.0168695  26.6095470   8.5494445  34.6131119  26.4504480
  11.5326132  31.2654760  33.0788670  12.2566105  31.2507790  33.5653565
  11.6342269  31.9750115  32.5810638  11.6544342  31.3679463  33.0767457
  26.3670512  33.6222933  21.5509053  26.6978729  34.1550573  20.9449147
  26.9403600  33.6761821  22.2071004  26.5004191  33.7092502  21.5586834
  18.9071082  34.7453844  37.9437617  18.1144063  35.0597356  38.1290237
  19.0220009  34.9605313  37.1058402  18.8066492  34.8237681  37.8475952
  21.5802401  31.4687836  22.2332633  21.6749255  32.2077130  22.6872258
  20.9561244  31.0405311  22.6667197  21.5011431  31.5149156  22.3640780
   8.4351291  31.4263258  26.7205628   9.0124794  31.2899708  27.3597873
   7.7365353  30.9699042  26.9751212   8.4172313  31.3385524  26.8527918
  21.8325422  33.3136575  15.4669585  21.7505585  33.3838762  16.3324572
  22.4705143  33.8766319  15.2753325  21.9145260  33.4075546  15.5659534
  15.1918593  33.0797313  24.9344111  14.9337838  32.2469048  24.9075411
  15.2467076  33.3054926  24.0936611  15.1618371  32.9895085  24.8064248
  20.2719643  25.1825764  25.0348204  19.5675970  24.6934949  25.1932123
  20.3204618  25.1948238  24.1636648  20.1749695  25.1115412  24.9287544
  14.1653305  30.6335076  25.4209006  13.5902897  30.7927244  26.0572967
  13.7888982  29.9970485  24.9577456  14.0256118  30.5632889  25.4463564
  17.8326594  29.1058425  30.2801384  17.4441027  28.6812643  29.6253575
  17.1681292  29.3540575  30.7878411  17.6773522  29.0797146  30.2589252
   3.9110124  30.2775150  23.4353446   3.9970376  29.9007019  24.2166976
   4.5385922  29.9035596  22.9573405   4.0166675  30.1660633  23.4798924
  18.9365532  33.3357030  18.4778191  19.7506171  33.6271922  18.3660963
  18.8724674  32.6816892  17.9036484  19.0468271  33.2822224  18.3767029
  14.8073441  36.8078547  23.6050503  15.4447388  36.5690295  24.1502297
  15.2328512  37.0115706  22.8703664  14.9649607  36.8029557  23.5767661
   9.4986083  39.0466884  27.4884807   9.5390228  39.3181735  26.6604587
  10.0580607  39.5708792  27.9042595   9.5869429  39.1642639  27.4276695
  15.4476256  32.0280837  17.9425393  15.8321408  31.8088544  18.6941938
  15.1987876  32.8543782  18.0726469  15.4678328  32.1178983  18.0726469
  15.6144796  25.3087252  37.6587977  15.2998237  26.0786815  37.3957540
  15.2934729  24.7457508  37.0740204  15.5203715  25.3397521  37.5329327
  17.1894913  37.2850970  25.2844290  17.2633921  37.1226142  26.1386139
  18.0064419  37.4741159  25.0404771  17.3211271  37.2887712  25.3742315
  10.9500669  37.6308832  22.3138733  10.1238787  37.8770570  22.1873012
  11.0112660  37.5520913  23.1800791  10.8374836  37.6553781  22.4227677
  13.1676693  23.6977773  23.2734173  12.2999118  23.7700373  23.3391782
  13.4551897  24.4999852  23.4622148  13.0816441  23.8271921  23.3108940
  15.7299498  40.2485713  20.0157763  16.0197797  39.8574694  19.2916990
  16.4602979  40.4302418  20.4563038  15.8806382  40.2179526  19.9740570
  16.3194243  35.0503459  31.1010893  15.8205937  35.7619226  31.1795782
  17.1294468  35.3704125  31.0629056  16.3650350  35.2030307  31.1067462
  13.6705414  42.2253095  23.0817913  13.4505709  41.9350450  23.8744580
  13.4499936  41.5668050  22.5535825  13.6053008  42.0852804  23.1206821
  12.5822361  34.3126412  25.3473614  12.2935610  33.6863883  25.8819342
  13.4505709  34.2546699  25.4138295  12.6682613  34.2113956  25.4364569
  15.8373370  43.5982485  21.8648605  16.4897428  43.0658927  22.0939631
  15.1398978  43.2451137  22.2516479  15.8304088  43.4672008  21.9560773
  12.7854634  35.9521663  21.2715979  13.5400602  36.3334702  21.4851442
  12.1925247  36.4032806  21.7262676  12.8091348  36.0750490  21.3698858
  23.8313288  35.9186899  21.2079584  24.3971321  36.5780109  21.1238127
  23.1841191  36.2636597  21.6795986  23.8192044  36.0668840  21.2652341
  15.2461301  27.9084503  36.3973192  14.4361077  28.2142283  36.2863034
  15.7235988  28.6290085  36.5125776  15.1964780  28.0599104  36.3980263
  14.1052861  37.1230224  26.6456095  13.5833615  37.2630516  27.3307959
  14.4926881  36.3640888  26.8358212  14.0856562  37.0315748  26.7757171
  11.0944045  27.1736033  20.7151049  10.8068841  26.8037303  19.9782997
  11.7814513  27.6430888  20.4534754  11.1532942  27.1883002  20.5666125
  20.3019866  38.8625683  20.6316664  20.0606542  38.1293544  20.2243728
  20.4821199  39.4112540  19.9782997  20.2927490  38.8348074  20.4746886
  15.5319187  34.1534243  22.0437586  15.3361969  34.7608978  21.4497889
  15.7553532  33.4602187  21.5629260  15.5353828  34.1411769  21.8853667
  13.9297717  31.0388981  22.1618454  14.6520369  31.2030139  21.7022260
  13.4505709  31.7598646  22.0557794  13.9661447  31.1687211  22.0784068
  11.5805333  33.4447053  31.2672594  12.0926430  33.7231307  30.6181354
  11.2941676  34.1836347  31.6335407  11.6140197  33.5949407  31.2262472
  20.3360503  24.2738157  22.2742755  21.0386855  24.0745905  21.7962713
  20.0704691  23.5014099  22.5811598  20.4007135  24.1301123  22.2488197
   8.6672240  27.9517245  21.5636331   8.7688376  28.7543407  21.8917306
   9.4628126  27.7504581  21.2659411   8.8000145  28.0403144  21.5671686
  15.0989059  25.5373442  31.3273636  14.9072256  25.5528576  32.1773059
  15.9487655  25.7337116  31.3040290  15.1964781  25.5687793  31.4496930
   9.4835972  28.0664423  29.3057452   9.3421464  27.2148364  29.4301960
   9.7676535  28.1093084  28.4819658   9.5043818  27.9464173  29.2025076
  19.6374564  29.9031514  23.4501940  19.3909278  29.8227265  24.2838729
  19.9659687  29.1184982  23.2564468  19.6495808  29.7757779  23.5449463
  15.5971591  32.6388232  32.8624923  15.7414967  33.2189440  32.2268033
  15.9447240  33.0164529  33.5674778  15.6699053  32.7808936  32.8723918
  14.6699346  40.8291004  29.7285950  14.8188910  40.2693920  29.0759355
  15.4499349  40.9083006  30.1118469  14.8073440  40.7576570  29.6882899
  25.0275986  35.9693127  18.0005221  24.6482795  35.1830265  17.9934510
  24.3642231  36.5179984  17.8576865  24.8734461  35.9337951  17.9786018
  18.0093286  25.7328951  31.5345459  18.4665900  26.4652926  31.6618251
  18.0849615  25.3095417  32.2932715  18.0884256  25.7786189  31.6646535
  10.2526277  25.9794771  32.6234902   9.7168467  25.3675129  32.9395670
  10.3144042  26.5542907  33.2768569  10.1821910  25.9741699  32.7670329
  22.4820612  18.9118827  25.4039302  22.6004180  19.3695290  24.6706604
  22.3082787  18.1064088  25.1175519  22.4739783  18.8612599  25.2540235
  17.8522894  39.5206646  21.8394047  18.6172785  39.2516290  21.5176711
  17.7500984  39.0356656  22.5564110  17.9504389  39.4096210  21.8973875
  15.8875664  27.7231055  28.3787283  15.0971739  27.5422515  28.7004619
  16.2836287  26.9458008  28.3617577  15.8292540  27.5818516  28.4239831
  20.3741555  36.5518830  13.8193996  21.1414540  36.6118955  13.4099848
  19.9272863  35.9799271  13.3350315  20.4214982  36.4755405  13.6871707
  21.2719350  35.3573485  26.1046729  20.5964352  35.1258718  26.6060116
  21.2811726  34.7494668  25.4788834  21.1737855  35.2332411  26.0862881
  23.2736085  38.2138618  18.3356907  23.3555922  39.0205604  18.0118358
  23.7585827  38.2334577  19.0597680  23.3573243  38.3359280  18.3943805
  17.0832588  32.8923454  27.0026985  16.6594837  33.0927953  26.2666003
  16.9077443  32.0452302  27.1151284  16.9943469  32.7972235  26.9100675
  16.5844281  44.4073967  29.4648442  17.0740212  43.7084756  29.2824106
  16.0128514  44.1097837  30.0524499  16.5728811  44.2600190  29.5249483
  12.3715033  33.3875505  22.4354957  12.5279652  33.3222308  23.2910949
  12.7115626  34.1624058  22.2233637  12.4448268  33.4924703  22.5309551
  18.9094177  32.7633389  21.3048320  19.4509723  32.2603770  21.7686941
  19.2240737  32.7098583  20.4937806  19.0358575  32.6812810  21.2532132
  17.0780627  38.1550740  18.5888348  17.1473448  37.2965279  18.7281349
  17.8569082  38.3722621  18.2607373  17.2033477  38.0603604  18.5605506
  21.4688115  40.5788442  22.8024842  21.0767907  40.2755157  22.0847708
  21.6241187  41.4157532  22.6129795  21.4341705  40.6572278  22.6681339
   8.9449294  30.5710456  22.7515724   9.3248259  30.9895001  22.0875992
   8.3704659  31.1523911  23.0584568   8.9160619  30.7188314  22.6992465
  21.6327790  37.1438430  22.7430872  21.2742444  37.3153073  23.5194905
  21.1466500  37.6051636  22.1858871  21.5086486  37.2377401  22.7756141
  19.4498176  20.7669629  26.3457964  18.5791733  20.7408350  26.2991273
  19.7038517  20.5946821  25.5283809  19.3591736  20.7379773  26.2178100
  16.4216155  32.8237596  15.2831107  16.7108680  33.6002478  15.5574681
  16.5087954  32.3126327  15.9845606  16.4770411  32.8629514  15.4273604
  19.3176042  30.6718830  37.0782630  19.7875674  31.2960946  37.4650504
  19.3637923  30.0035805  37.6375845  19.3943918  30.6653510  37.2182702
  16.4747316  22.7775857  27.8031434  15.9585805  22.0856049  27.9283013
  15.9141245  23.4446634  27.7494033  16.3153829  22.7739115  27.8137500
  18.5439549  23.3168817  29.6324287  18.1571303  23.3417849  30.4137816
  18.0572487  22.7510496  29.1798803  18.4152058  23.2364568  29.6812190
  18.2096691  20.2035803  31.9234546  18.8389809  20.7396103  31.6455617
  18.3782554  20.1113162  32.7748112  18.3274486  20.2697165  32.0083075
  18.0110606  24.9906998  34.1960958  18.8384035  24.7192146  34.2519573
  18.0318452  25.7867839  34.5524776  18.1363456  25.0686752  34.2576141
  12.5880096  32.1370860  27.3831219  11.7468103  32.0374735  27.5910113
  12.7970104  32.9066341  27.7345539  12.4944788  32.2362904  27.4658534
  10.0655663  29.7590397  25.2115969   9.6712361  29.8333409  24.4366079
   9.5095780  30.1448344  25.7624331   9.9258475  29.8272172  25.1783629
  21.7020610  22.7371691  24.8919848  21.9070203  22.6693999  25.7376845
  21.3747034  23.5430513  24.8241026  21.6835858  22.8457632  25.0079503
  16.3996761  30.0652260  26.6328816  16.0959898  29.5108248  27.2339224
  15.6976182  30.2444470  26.1456850  16.2512971  30.0097042  26.6498522
  15.4562858  27.3752779  21.1973518  15.7322592  26.6571692  20.7851086
  16.0561527  27.9737699  20.9894624  15.5856123  27.3573150  21.1054279
  14.4615112  37.2801980  31.3400914  14.3535467  37.2904042  32.2062972
  14.6710893  38.1056761  31.1505868  14.4765223  37.4043055  31.4405006
  24.9554297  23.2903456  24.3722614  24.3428611  23.7773858  24.7576346
  25.0518472  22.6146946  24.9160265  24.8792195  23.2621764  24.5101472
  18.9573378  25.0466297  19.4720113  19.4117125  25.2176857  20.1967958
  19.4313424  24.4334407  19.0717889  19.0941699  24.9817182  19.5193875
  12.4788904  34.5314623  28.8022852  11.8876837  35.1724121  28.7725867
  13.2409927  34.9552240  28.7754151  12.5037164  34.6890461  28.7937999
  12.8749527  25.6916620  29.4690869  13.3351008  25.7655550  30.2065993
  12.9205633  26.4897874  29.1190691  12.9500082  25.8210768  29.5263626
  14.5232876  26.3583315  34.0362896  14.1318441  25.7116662  34.4718674
  14.6918739  26.9494751  34.6557152  14.4903787  26.3497583  34.1925602
  22.2378420  39.9823934  26.2354876  22.0398109  40.4714749  25.5411087
  21.6166131  40.1865176  26.8139009  22.1165984  40.0840473  26.2178099
  16.2986398  31.7508831  20.5765120  17.0428443  32.1383107  20.8148070
  16.4447095  30.9066256  20.7405608  16.4296983  31.6839304  20.6359090
  18.2165974  23.5459090  25.6096982  17.3702019  23.7181898  25.4838332
  18.2137106  22.7408434  25.9462810  18.0913124  23.4520119  25.6408109
  19.2864274  27.3234304  26.4759040  18.8124229  26.7976066  26.9864351
  19.6582410  26.7763777  25.9073901  19.2714163  27.1650301  26.4674187
   9.6637304  29.3205811  31.8442585  10.5262917  29.2201520  31.7579915
   9.3329087  28.7400520  31.2828158   9.7422501  29.2197438  31.7487991
  21.2147774  28.2170859  19.5384793  20.6870793  28.2999603  18.8490502
  21.6743482  28.9588730  19.5349438  21.2049624  28.3391521  19.4359489
  13.0239090  28.1448260  28.5053004  12.3992161  28.1566652  27.8978956
  12.6884685  28.6208435  29.1544244  12.8824582  28.2166777  28.5109572
  13.2080839  26.4873379  14.5625689  12.8593643  27.1393104  15.0257238
  12.7277285  26.4730492  13.8349560  13.0851083  26.5816432  14.5236780
   9.7364766  36.2048720  29.9456768   9.2064690  35.5141159  29.9951743
  10.0089859  36.1958906  29.1169476   9.6989488  36.1015852  29.8304184
  20.7684856  36.7874423  18.6694451  21.4919055  37.2532536  18.5259024
  20.3285447  36.8548032  17.9192048  20.8100549  36.8658259  18.5379232
  19.1767309  34.7176235  27.6539438  18.7494917  34.0925953  27.2204874
  19.1692253  34.4351157  28.4798445  19.1126450  34.5829015  27.7119266
  12.2929836  29.7541408  30.7227872  12.4523322  28.9984732  31.1279594
  12.1122729  30.3032347  31.3768610  12.2895195  29.7235222  30.8790578
  20.2350139  21.9202643  31.2778662  19.7390700  22.1166318  30.5870228
  20.9919201  22.3195312  31.1067463  20.2736963  22.0080377  31.1498798
  17.5053018  25.5944989  27.8681972  17.5295506  25.0605102  27.1794752
  17.7564492  25.0862298  28.5307563  17.5462937  25.4405893  27.8646617
   5.0160608  32.8776484  27.3025116   4.9104057  32.8323329  26.4377200
   4.2660828  33.2230265  27.5839401   4.8896211  32.9217393  27.2162446
  13.7854341  24.3215808  27.2487716  13.8252712  24.8225014  27.9622424
  12.9604005  24.4126201  26.9793640  13.6693866  24.4097624  27.3138255
  15.9683953  33.8876548  35.3508011  15.1179584  34.0248262  35.4865656
  16.1312081  33.1540326  35.7955713  15.8667817  33.7990649  35.4363610
  15.2068704  30.8376317  29.5461615  14.3760634  31.0050135  29.3396864
  15.1520221  30.4612268  30.3310501  15.0758119  30.8066049  29.6310144
  13.0152487  24.3285210  35.1818026  13.6405191  23.7847343  35.4547458
  12.5602967  23.8480128  34.6125817  13.0400748  24.1774692  35.1379620
  13.5804748  29.1131909  20.0751733  13.7207709  29.6104373  20.7780375
  14.0787281  28.4118203  20.2165947  13.6745829  29.0833888  20.2003312
  13.6104970  29.9799020  17.4044310  14.2450050  30.5759445  17.3393772
  13.6930581  29.6802478  18.2190180  13.7161521  30.0239928  17.5147397
  15.1883953  25.9112995  17.3789752  15.5099794  25.4316078  16.7249014
  15.4510897  26.7212641  17.1880564  15.2749978  25.9602893  17.2545244
  18.4180926  36.9331870  30.8988568  17.9106017  37.4867717  31.3429199
  18.1207572  36.9940160  30.0807343  18.2985811  37.0238181  30.8437025
  10.1157958  32.1766861  20.6733856  10.6250187  32.7731368  21.0545162
  10.5892230  31.9092834  19.9910276  10.2601334  32.2252676  20.6288379
  21.0288706  40.8495127  18.8292512  20.3118016  40.6755990  18.3639749
  21.6795444  40.6147700  18.2967998  21.0190557  40.7890920  18.6821730
  19.0237331  21.7700289  23.1503808  18.3805649  21.6197936  23.7188947
  18.6836738  21.5242634  22.3852913  18.8782408  21.7112412  23.1206823
  17.6623411  41.8656428  27.8045575  17.4389065  41.1075257  28.1729601
  17.1733254  41.8954449  27.0826015  17.5566860  41.7578653  27.7522316
  23.7764805  26.1815600  25.4824190  24.1292415  25.7545323  26.1569989
  22.9179606  26.0966443  25.6125266  23.7014249  26.1060340  25.6019200
  12.4748490  28.8123119  23.5407036  11.7560479  29.2287252  23.8079900
  12.8460852  29.3777358  22.9898675  12.4240422  28.9572401  23.4989843
  16.3101868  42.0856886  25.2582660  15.8962267  41.4231016  24.8686501
  16.9949242  42.2334745  24.7378354  16.3500240  42.0097544  25.1239157
  19.6767162  41.2446971  26.0106276  19.2783445  41.3549242  25.2427096
  19.0618382  41.4529038  26.5932836  19.5266051  41.2920539  25.9837576
  18.2495064  27.8521119  18.8780416  17.6559903  28.1738116  18.3264983
  18.2870342  27.0062215  18.6701522  18.1669453  27.7745447  18.7663187
  25.2088865  21.3034011  26.4108502  24.7019730  20.5963151  26.3429680
  26.0056299  20.9727200  26.5409579  25.2516104  21.1507163  26.4207497
  21.1252881  27.8100624  22.3082166  20.8966574  27.8333325  21.4660524
  21.3850957  26.9858091  22.4277177  21.1299069  27.6916704  22.2007364
  15.4072109  29.6635097  31.9107266  14.8951012  29.0556280  32.2692298
  15.2351605  30.3791689  32.3781242  15.3061746  29.6798396  32.0323490
  10.2537824  28.1072672  34.5609628  10.0840414  28.7674047  34.0157835
   9.8103774  28.3179233  35.2822117  10.1637157  28.2358654  34.5871258
  14.1797643  26.3477170  23.6036362  14.6555010  26.7094250  22.9686543
  13.6786243  27.0033638  23.8836505  14.1763002  26.4971359  23.5513103
  27.4109005  35.8198938  19.3949367  27.7942611  36.5690294  19.6247464
  26.6153118  36.0664758  19.1361356  27.3502787  35.9668632  19.3906940
  19.2841180  27.5859341  34.3509522  19.8412610  27.3573151  33.7187987
  18.9602245  28.3465007  34.0744734  19.3187590  27.6643178  34.2166019
   7.1539888  31.0119538  29.8198118   6.6066608  30.3420183  29.9378986
   7.9432267  30.6449386  29.8841585   7.1892072  30.8584524  29.8466819
  17.0024297  30.6726995  35.3161529  17.7535624  30.9878672  35.6301083
  17.1946873  30.4706166  34.4895451  17.1415711  30.6894377  35.2404925
  16.2224296  28.4918370  16.9709746  16.6023261  28.5097999  16.1860861
  15.4816892  28.9372359  16.8500593  16.1693134  28.5600144  16.8373314
  23.8509587  26.8000561  22.5585324  23.8503813  26.6449218  23.4169601
  23.6465767  27.6463548  22.5026710  23.8209365  26.9021182  22.6773264
   5.9126858  30.2240345  26.9744141   5.7348619  29.7716954  27.6999057
   5.6245880  31.0266507  27.1582619   5.8439811  30.2762903  27.1087644
  17.0209050  35.3295876  18.3618536  16.2120373  35.0062550  18.3151845
  17.5283959  34.6229098  18.2946784  16.9758717  35.1777192  18.3448830
   7.6499328  32.7568069  24.0865900   6.7844847  32.7453760  23.9748671
   7.7498144  32.5698292  24.9337039   7.5373495  32.7274130  24.1954844
  13.2756338  42.5265968  27.6596006  13.5902897  43.3402356  27.6673787
  13.6849751  42.1416187  28.3278165  13.3824436  42.5894670  27.7600097
  20.2280857  37.9436015  25.2299818  20.6992035  38.6576277  25.3989803
  20.5641036  37.3434765  25.7659687  20.3475972  37.9607479  25.3332193
  17.1450352  22.7163485  32.1857912  17.2778258  21.9194479  32.5138888
  17.5295505  23.2429888  32.7656188  17.2206681  22.6763402  32.3201415
  20.2182707  19.6393811  28.7839006  19.4128671  19.5291541  29.1006844
  20.0889443  19.7406267  27.9268871  20.0802840  19.6377481  28.7047046
  16.2143467  24.7179898  19.6537377  17.0359161  24.8878211  19.4119072
  15.7513118  24.8727159  18.9303675  16.2674629  24.7661631  19.5109022
  14.8038799  22.7122660  30.4335806  15.3483212  22.3713787  31.0240148
  14.8575735  23.5708122  30.5757091  14.8927918  22.7877920  30.5417679
  10.6169358  36.4739076  27.3074614  11.2214215  36.4334910  26.6788435
  10.4096670  37.3210228  27.3378670  10.6758255  36.5927079  27.2190730
   5.8520640  35.4573694  27.1773537   5.7544918  34.6469965  27.4863594
   6.6349510  35.4365487  26.7919805   5.9536777  35.3340784  27.1660400
  36.9026780  46.3969873  21.4879728  36.8720785  47.2514510  21.6597997
  37.5008129  46.0965166  22.0465871  36.9863938  46.4786370  21.5954530
  30.1026465  45.4845524  26.2432658  29.2464361  45.6454022  26.2941775
  30.1494119  44.6137588  26.2637719  29.9825577  45.3796326  26.2538724
  24.4867605  55.0208242  22.0069890  23.7350504  54.6423780  21.7785935
  24.9353617  55.0526676  21.2588700  24.4417272  54.9693849  21.8627392
  29.9392565  55.4433612  17.4355437  29.6043933  56.1210533  16.9999659
  30.4519435  55.0538923  16.8472308  29.9658146  55.4858190  17.2842228
  32.9478286  47.5437568  28.8864310  33.4934246  48.2222655  28.9458279
  32.8895162  47.4025029  28.0265891  33.0194200  47.6229570  28.7676370
  26.0652361  55.0326634  24.2732662  26.1662724  54.2226988  24.5829790
  25.4694106  54.9383581  23.6432341  25.9924900  54.8991662  24.2258901
  34.7243355  48.9722175  19.7598038  34.6082881  49.7229861  20.1890176
  35.5199241  48.7146128  20.0094125  34.8247944  49.0457022  19.8602129
  25.9053101  59.9504223  25.6747518  26.5490556  60.3917387  26.0643677
  26.2309356  59.1457650  25.5877777  26.0484929  59.8969418  25.7192996
  19.2617405  51.0546921  23.8984996  19.0267590  50.2214573  23.7917265
  19.4003046  51.3351586  23.0846197  19.2473068  50.9730424  23.7627351
  21.5607493  43.2232651  26.7969304  20.9412524  42.6325299  26.6279318
  21.4591356  43.8144087  26.1633627  21.4545168  43.2236734  26.6774293
  26.6073680  52.9616198  21.0467380  26.9289521  53.5021406  20.4428688
  27.2545777  52.3912970  21.1789670  26.7499735  52.9575373  20.9774415
  28.6575388  44.9632193  21.1301767  29.3555553  45.1420321  21.6223230
  28.9727721  44.4402532  20.5072156  28.8070726  44.9125965  21.1103777
  21.2876626  46.7684933  29.0412873  21.1635323  47.3547379  29.6762691
  21.9394910  46.2745129  29.3425148  21.3650275  46.7823737  29.1798802
  28.8463324  51.3502638  21.1181558  29.2856959  50.7419739  21.5636331
  28.6967987  50.9710012  20.3467023  28.8884789  51.2041109  21.0700726
  26.3134967  49.9446650  28.3200384  26.9583969  49.4519093  28.0011332
  26.5536744  50.0871437  29.1466462  26.4445552  49.8924092  28.3949917
  28.8521058  52.7901556  27.9707276  29.1344301  51.9952962  27.7494032
  29.5807219  53.2682143  27.9912337  29.0010622  52.7436153  27.9410291
  26.8302252  40.3324590  25.2123041  26.5005582  40.7835733  24.5426740
  26.1547254  40.2540753  25.7596048  26.6812688  40.3875725  25.1946265
  32.4472660  49.7029819  18.0712327  32.3623955  50.5590786  18.2161896
  32.9357044  49.4274144  18.7394487  32.5061558  49.7887141  18.1914409
  33.3791094  46.3214614  19.5710063  32.8502565  46.5374247  20.2307369
  33.9016113  47.0150752  19.4911032  33.3779547  46.4557751  19.6565662
  25.2690701  50.2177830  18.3717531  24.6847917  50.7227862  18.7783394
  24.8660797  49.9920217  17.6314122  25.1230005  50.2586079  18.3222556
  20.8234730  55.9332592  25.1741202  20.3402308  56.6583081  25.1500786
  21.6358048  56.2308722  25.2851360  20.8725478  56.0834945  25.1868481
  26.8948884  54.7264772  27.7791017  26.3775826  54.3672187  27.1752325
  27.5923275  54.2026947  27.7897083  26.9214465  54.5962460  27.6921275
  29.7267916  46.4643482  16.8486451  29.9663919  46.6721466  16.0361794
  30.0483757  45.6600991  16.9575396  29.8105074  46.3757584  16.7447004
  25.0358206  38.3936878  20.6945989  25.7904174  38.7615195  20.4563039
  24.8585741  38.7676433  21.4625169  25.1212684  38.5035066  20.7730878
  23.6778927  56.4488767  25.3261482  24.3799507  55.9340757  25.3834238
  23.5976410  56.7762919  26.1308357  23.7702688  56.4202994  25.4534274
  23.3915271  40.8007197  17.3924102  23.2090844  41.0179078  16.5665095
  24.2540884  40.9146210  17.4482716  23.4919860  40.8497095  17.2778589
  23.0029703  52.6395119  24.8347090  23.8418602  52.8718052  24.8820852
  23.0341472  51.7699431  24.7654125  23.1311420  52.5452066  24.8311735
  23.6282406  53.0595995  29.1360395  24.1680631  52.9167126  29.8063768
  22.9452352  53.4592745  29.5044422  23.6074560  53.0975666  29.2894817
  29.0714990  37.8033608  20.4273126  29.8001150  37.6249563  19.9811282
  29.1609883  38.6451688  20.6380304  29.1921652  37.9017486  20.3926644
  19.0319551  49.2796285  29.2894817  18.7657966  48.4635402  29.4485807
  19.0458115  49.3249441  28.4190333  18.9944273  49.1653190  29.1848299
  22.9377298  44.0781370  15.9046575  22.2235475  43.7919549  16.3169008
  23.4221266  44.4177996  16.5452963  22.9036661  44.0863020  16.0602210
  30.1124616  52.5811324  16.2808383  30.5275764  52.2496348  15.5892879
  29.2816545  52.3480226  16.1528520  30.0512624  52.4982580  16.1599231
  19.4412964  50.0655065  26.5706561  19.2588538  50.0401951  25.7178853
  20.1762633  50.5354003  26.6095470  19.5227028  50.1316427  26.4504480
  22.5058716  46.7840068  33.0788670  23.2298688  46.7693098  33.5653565
  22.6074853  47.4935423  32.5810638  22.6276925  46.8864771  33.0767457
  32.5534984  46.9873143  22.2332633  32.6481839  47.7262438  22.6872258
  31.9293828  46.5590619  22.6667197  32.4744015  47.0334464  22.3640780
  19.4083875  46.9448566  26.7205628  19.9857377  46.8085016  27.3597873
  18.7097936  46.4884350  26.9751212  19.3904896  46.8570832  26.8527918
  32.8058006  48.8321883  15.4669585  32.7238168  48.9024070  16.3324572
  33.4437726  49.3951627  15.2753325  32.8877843  48.9260854  15.5659534
  26.1651177  48.5982621  24.9344111  25.9070421  47.7654356  24.9075411
  26.2199660  48.8240234  24.0936611  26.1350955  48.5080392  24.8064248
  31.2452227  40.7011072  25.0348204  30.5408554  40.2120257  25.1932123
  31.2937201  40.7133546  24.1636648  31.1482279  40.6300720  24.9287544
  25.1385889  46.1520384  25.4209006  24.5635480  46.3112552  26.0572967
  24.7621565  45.5155793  24.9577456  24.9988701  46.0818197  25.4463564
  28.8059178  44.6243733  30.2801384  28.4173610  44.1997951  29.6253575
  28.1413876  44.8725883  30.7878411  28.6506105  44.5982454  30.2589252
  38.4482447  44.3818738  23.0549214  38.1919012  43.5698679  22.8647097
  39.2911761  44.3896305  22.8279402  38.5348472  44.2630735  22.9934031
  14.8842708  45.7960458  23.4353446  14.9702960  45.4192327  24.2166976
  15.5118505  45.4220904  22.9573405  14.9899259  45.6845941  23.4798924
  32.6285539  38.3218362  27.7925368  33.0096051  37.6396533  28.1793243
  31.8248824  38.0327964  27.6101033  32.5662001  38.1785410  27.8229424
  29.9098116  48.8542338  18.4778191  30.7238755  49.1457230  18.3660963
  29.8457257  48.2002200  17.9036484  30.0200855  48.8007532  18.3767029
  25.7806024  52.3263855  23.6050503  26.4179971  52.0875603  24.1502297
  26.2061096  52.5301014  22.8703664  25.9382190  52.3214865  23.5767661
  20.4718667  54.5652191  27.4884807  20.5122812  54.8367043  26.6604587
  21.0313191  55.0894100  27.9042595  20.5602013  54.6827947  27.4276695
  26.4208839  47.5466145  17.9425393  26.8053992  47.3273851  18.6941938
  26.1720460  48.3729090  18.0726469  26.4410912  47.6364291  18.0726469
  28.1627496  52.8036278  25.2844290  28.2366504  52.6411449  26.1386139
  28.9797003  52.9926467  25.0404771  28.2943855  52.8073020  25.3742315
  21.9233253  53.1494140  22.3138733  21.0971371  53.3955878  22.1873012
  21.9845244  53.0706221  23.1800791  21.8107420  53.1739089  22.4227677
  24.1409277  39.2163081  23.2734173  23.2731702  39.2885681  23.3391782
  24.4284481  40.0185160  23.4622148  24.0549025  39.3457229  23.3108940
  26.7032082  55.7671021  20.0157763  26.9930380  55.3760002  19.2916990
  27.4335563  55.9487726  20.4563038  26.8538966  55.7364834  19.9740570
  24.6437997  57.7438403  23.0817913  24.4238293  57.4535758  23.8744580
  24.4232519  57.0853358  22.5535825  24.5785592  57.6038111  23.1206821
  23.5554945  49.8311720  25.3473614  23.2668193  49.2049191  25.8819342
  24.4238293  49.7732007  25.4138295  23.6415197  49.7299264  25.4364569
  26.8105953  59.1167793  21.8648605  27.4630011  58.5844235  22.0939631
  26.1131562  58.7636445  22.2516479  26.8036671  58.9857316  21.9560773
  23.7587218  51.4706971  21.2715979  24.5133186  51.8520010  21.4851442
  23.1657831  51.9218114  21.7262676  23.7823932  51.5935798  21.3698858
  34.8045872  51.4372207  21.2079584  35.3703904  52.0965417  21.1238127
  34.1573775  51.7821905  21.6795986  34.7924628  51.5854148  21.2652341
  25.0785445  52.6415532  26.6456095  24.5566198  52.7815824  27.3307959
  25.4659465  51.8826196  26.8358212  25.0589146  52.5501056  26.7757171
  22.0676629  42.6921341  20.7151049  21.7801424  42.3222611  19.9782997
  22.7547097  43.1616196  20.4534754  22.1265526  42.7068310  20.5666125
  31.2752450  54.3810991  20.6316664  31.0339126  53.6478852  20.2243728
  31.4553783  54.9297848  19.9782997  31.2660074  54.3533382  20.4746886
  26.5051770  49.6719551  22.0437586  26.3094553  50.2794286  21.4497889
  26.7286116  48.9787495  21.5629260  26.5086411  49.6597077  21.8853667
  24.9030300  46.5574289  22.1618454  25.6252952  46.7215447  21.7022260
  24.4238293  47.2783954  22.0557794  24.9394031  46.6872519  22.0784068
  32.8623808  42.8938088  27.5415139  32.0234908  42.9199367  27.3053402
  32.9328175  43.5408823  28.1220486  32.7492201  42.9934214  27.5924256
  22.5537917  48.9632361  31.2672594  23.0659014  49.2416615  30.6181354
  22.2674260  49.7021655  31.6335407  22.5872780  49.1134715  31.2262472
  31.3093086  39.7923465  22.2742755  32.0119439  39.5931213  21.7962713
  31.0437275  39.0199407  22.5811598  31.3739718  39.6486431  22.2488197
  19.6404823  43.4702553  21.5636331  19.7420960  44.2728715  21.8917306
  20.4360710  43.2689889  21.2659411  19.7732729  43.5588452  21.5671686
  30.6107148  45.4216822  23.4501940  30.3641862  45.3412573  24.2838729
  30.9392271  44.6370289  23.2564468  30.6228391  45.2943087  23.5449463
  34.5055197  52.1300181  27.2388722  34.3669556  52.8281227  27.7437464
  33.7255194  51.9748837  26.8824903  34.3698423  52.2100348  27.2614996
  25.6431930  56.3476312  29.7285950  25.7921494  55.7879228  29.0759355
  26.4231932  56.4268314  30.1118469  25.7806024  56.2761877  29.6882899
  36.0008569  51.4878435  18.0005221  35.6215378  50.7015573  17.9934510
  35.3374815  52.0365292  17.8576865  35.8467044  51.4523259  17.9786018
  28.1685231  56.5190955  31.0070441  28.0928902  55.8499765  31.5621229
  28.0975090  57.2208743  31.5211107  28.1465838  56.5235862  31.1647289
  28.8255478  55.0391954  21.8394047  29.5905369  54.7701597  21.5176711
  28.7233568  54.5541964  22.5564110  28.9236973  54.9281518  21.8973875
  26.8608247  43.2416363  28.3787283  26.0704322  43.0607823  28.7004619
  27.2568870  42.4643316  28.3617577  26.8025124  43.1003824  28.4239831
  31.3474138  52.0704138  13.8193996  32.1147123  52.1304262  13.4099848
  30.9005447  51.4984579  13.3350315  31.3947565  51.9940713  13.6871707
  32.2451934  50.8758793  26.1046729  31.5696935  50.6444026  26.6060116
  32.2544310  50.2679976  25.4788834  32.1470438  50.7517719  26.0862881
  34.2468668  53.7323926  18.3356907  34.3288506  54.5390912  18.0118358
  34.7318410  53.7519885  19.0597680  34.3305826  53.8544588  18.3943805
  28.0565172  48.4108762  27.0026985  27.6327421  48.6113261  26.2666003
  27.8810027  47.5637610  27.1151284  27.9676052  48.3157543  26.9100675
  27.5576865  59.9259275  29.4648442  28.0472795  59.2270064  29.2824106
  26.9861097  59.6283145  30.0524499  27.5461395  59.7785498  29.5249483
  23.3447616  48.9060813  22.4354957  23.5012236  48.8407616  23.2910949
  23.6848210  49.6809366  22.2233637  23.4180851  49.0110011  22.5309551
  29.8826761  48.2818697  21.3048320  30.4242307  47.7789078  21.7686941
  30.1973320  48.2283891  20.4937806  30.0091158  48.1998118  21.2532132
  28.0513211  53.6736048  18.5888348  28.1206031  52.8150587  18.7281349
  28.8301666  53.8907929  18.2607373  28.1766061  53.5788912  18.5605506
  32.4420698  56.0973750  22.8024842  32.0500490  55.7940465  22.0847708
  32.5973771  56.9342839  22.6129795  32.4074288  56.1757586  22.6681339
  19.9181878  46.0895764  22.7515724  20.2980843  46.5080309  22.0875992
  19.3437243  46.6709219  23.0584568  19.8893203  46.2373622  22.6992465
  32.6060373  52.6623738  22.7430872  32.2475028  52.8338381  23.5194905
  32.1199084  53.1236944  22.1858871  32.4819070  52.7562709  22.7756141
  27.3948739  48.3422904  15.2831107  27.6841263  49.1187786  15.5574681
  27.4820537  47.8311635  15.9845606  27.4502995  48.3814822  15.4273604
  23.5612680  47.6556168  27.3831219  22.7200686  47.5560042  27.5910113
  23.7702687  48.4251649  27.7345539  23.4677372  47.7548212  27.4658534
  21.0388246  45.2775705  25.2115969  20.6444944  45.3518717  24.4366079
  20.4828363  45.6633652  25.7624331  20.8991059  45.3457480  25.1783629
  27.3729344  45.5837568  26.6328816  27.0692482  45.0293556  27.2339224
  26.6708765  45.7629777  26.1456850  27.2245554  45.5282350  26.6498522
  26.4295441  42.8938087  21.1973518  26.7055176  42.1757000  20.7851086
  27.0294111  43.4923007  20.9894624  26.5588706  42.8758458  21.1054279
  25.4347695  52.7987288  31.3400914  25.3268050  52.8089350  32.2062972
  25.6443477  53.6242069  31.1505868  25.4497806  52.9228363  31.4405006
  35.9286881  38.8088764  24.3722614  35.3161195  39.2959166  24.7576346
  36.0251056  38.1332254  24.9160265  35.8524779  38.7807072  24.5101472
  29.9305962  40.5651605  19.4720113  30.3849709  40.7362165  20.1967958
  30.4046008  39.9519715  19.0717889  30.0674282  40.5002490  19.5193875
  23.4521487  50.0499931  28.8022852  22.8609421  50.6909429  28.7725867
  24.2142511  50.4737548  28.7754151  23.4769748  50.2075769  28.7937999
  27.2718982  47.2694139  20.5765120  28.0161027  47.6568415  20.8148070
  27.4179678  46.4251564  20.7405608  27.4029567  47.2024612  20.6359090
  30.2596858  42.8419612  26.4759040  29.7856812  42.3161374  26.9864351
  30.6314994  42.2949085  25.9073901  30.2446747  42.6835609  26.4674187
  32.1880357  43.7356167  19.5384793  31.6603376  43.8184911  18.8490502
  32.6476066  44.4774038  19.5349438  32.1782208  43.8576829  19.4359489
  23.9971674  43.6633568  28.5053004  23.3724744  43.6751960  27.8978956
  23.6617269  44.1393743  29.1544244  23.8557166  43.7352085  28.5109572
  24.1813423  42.0058687  14.5625689  23.8326227  42.6578412  15.0257238
  23.7009868  41.9915800  13.8349560  24.0583667  42.1001740  14.5236780
  20.7097349  51.7234028  29.9456768  20.1797274  51.0326467  29.9951743
  20.9822443  51.7144213  29.1169476  20.6722072  51.6201160  29.8304184
  31.7417440  52.3059730  18.6694451  32.4651639  52.7717843  18.5259024
  31.3018031  52.3733340  17.9192048  31.7833132  52.3843567  18.5379232
  30.9103595  49.1657273  29.9195140  30.2960588  48.6215323  30.2143775
  31.4270880  48.6521509  29.4400956  30.8959257  49.0093682  29.8919368
  30.1499892  50.2361543  27.6539438  29.7227500  49.6111261  27.2204874
  30.1424837  49.9536465  28.4798445  30.0859033  50.1014323  27.7119266
  23.2662419  45.2726716  30.7227872  23.4255906  44.5170040  31.1279594
  23.0855313  45.8217655  31.3768610  23.2627778  45.2420530  30.8790578
  28.4785602  41.1130297  27.8681972  28.5028089  40.5790410  27.1794752
  28.7297076  40.6047606  28.5307563  28.5195521  40.9591201  27.8646617
  15.9893192  48.3961792  27.3025116  15.8836641  48.3508637  26.4377200
  15.2393412  48.7415573  27.5839401  15.8628795  48.4402700  27.2162446
  24.7586924  39.8401116  27.2487716  24.7985296  40.3410322  27.9622424
  23.9336589  39.9311509  26.9793640  24.6426450  39.9282932  27.3138255
  26.1801288  46.3561625  29.5461615  25.3493217  46.5235443  29.3396864
  26.1252805  45.9797576  30.3310501  26.0490702  46.3251357  29.6310144
  24.5537331  44.6317217  20.0751733  24.6940292  45.1289681  20.7780375
  25.0519864  43.9303511  20.2165947  24.6478412  44.6019196  20.2003312
  24.5837554  45.4984328  17.4044310  25.2182633  46.0944753  17.3393772
  24.6663165  45.1987786  18.2190180  24.6894105  45.5425236  17.5147397
  26.1616537  41.4298303  17.3789752  26.4832378  40.9501386  16.7249014
  26.4243480  42.2397949  17.1880564  26.2482562  41.4788201  17.2545244
  21.0890542  47.6952169  20.6733856  21.5982771  48.2916676  21.0545162
  21.5624814  47.4278142  19.9910276  21.2333917  47.7437984  20.6288379
  32.0021290  56.3680435  18.8292512  31.2850599  56.1941298  18.3639749
  32.6528027  56.1333008  18.2967998  31.9923140  56.3076228  18.6821730
  34.5869261  45.2445024  22.5733817  33.9160451  45.7874726  22.4446882
  35.2809011  45.7139879  22.3315511  34.5898128  45.3943295  22.5189344
  28.6355995  57.3841736  27.8045575  28.4121649  56.6260565  28.1729601
  28.1465838  57.4139757  27.0826015  28.5299444  57.2763960  27.7522316
  34.7497388  41.7000908  25.4824190  35.1024998  41.2730630  26.1569989
  33.8912190  41.6151751  25.6125266  34.6746833  41.6245648  25.6019200
  23.4481073  44.3308427  23.5407036  22.7293062  44.7472560  23.8079900
  23.8193436  44.8962666  22.9898675  23.3973005  44.4757709  23.4989843
  27.2834452  57.6042194  25.2582660  26.8694850  56.9416324  24.8686501
  27.9681826  57.7520053  24.7378354  27.3232823  57.5282852  25.1239157
  30.6499746  56.7632279  26.0106276  30.2516029  56.8734550  25.2427096
  30.0350965  56.9714346  26.5932836  30.4998635  56.8105847  25.9837576
  29.2227648  43.3706427  18.8780416  28.6292487  43.6923424  18.3264983
  29.2602925  42.5247523  18.6701522  29.1402037  43.2930755  18.7663187
  32.0985464  43.3285932  22.3082166  31.8699157  43.3518633  21.4660524
  32.3583541  42.5043399  22.4277177  32.1031652  43.2102012  22.2007364
  25.1530227  41.8662478  23.6036362  25.6287593  42.2279558  22.9686543
  24.6518826  42.5218946  23.8836505  25.1495586  42.0156667  23.5513103
  18.1272472  46.5304846  29.8198118  17.5799191  45.8605491  29.9378986
  18.9164850  46.1634693  29.8841585  18.1624656  46.3769832  29.8466819
  27.1956880  44.0103678  16.9709746  27.5755845  44.0283307  16.1860861
  26.4549476  44.4557667  16.8500593  27.1425718  44.0785452  16.8373314
  34.8242170  42.3185869  22.5585324  34.8236397  42.1634526  23.4169601
  34.6198351  43.1648856  22.5026710  34.7941948  42.4206490  22.6773264
  16.8859441  45.7425653  26.9744141  16.7081203  45.2902262  27.6999057
  16.5978464  46.5451815  27.1582619  16.8172395  45.7948211  27.1087644
  32.5483023  46.9983371  26.2121531  33.0436688  46.2806366  26.1725552
  31.7382798  46.6954168  26.0976018  32.5026916  46.8481017  26.1895257
  27.9941634  50.8481184  18.3618536  27.1852957  50.5247858  18.3151845
  28.5016543  50.1414406  18.2946784  27.9491301  50.6962500  18.3448830
  18.6231911  48.2753377  24.0865900  17.7577431  48.2639068  23.9748671
  18.7230727  48.0883600  24.9337039  18.5106078  48.2459438  24.1954844
  24.2488921  58.0451276  27.6596006  24.5635480  58.8587664  27.6673787
  24.6582335  57.6601494  28.3278165  24.3557019  58.1079978  27.7600097
  31.2013441  53.4621323  25.2299818  31.6724619  54.1761585  25.3989803
  31.5373619  52.8620073  25.7659687  31.3208556  53.4792787  25.3332193
  27.1876051  40.2365206  19.6537377  28.0091745  40.4063519  19.4119072
  26.7245702  40.3912467  18.9303675  27.2407213  40.2846939  19.5109022
  21.5901941  51.9924384  27.3074614  22.1946799  51.9520218  26.6788435
  21.3829254  52.8395536  27.3378670  21.6490839  52.1112387  27.2190730
  16.8253224  50.9759002  27.1773537  16.7277502  50.1655273  27.4863594
  17.6082093  50.9550795  26.7919805  16.9269360  50.8526092  27.1660400
  35.4600188  70.5393550  22.0069890  34.7083088  70.1609088  21.7785935
  35.9086200  70.5711984  21.2588700  35.4149855  70.4879157  21.8627392
  40.9125148  70.9618919  17.4355437  40.5776517  71.6395841  16.9999659
  41.4252019  70.5724231  16.8472308  40.9390729  71.0043498  17.2842228
  40.4529440  72.9133188  23.3766548  40.8368819  73.4820087  22.8371324
  40.3888581  72.1882698  22.8972364  40.5002867  72.8908652  23.2260411
  43.9210870  63.0622876  28.8864310  44.4666830  63.7407963  28.9458279
  43.8627746  62.9210337  28.0265891  43.9926784  63.1414878  28.7676370
  37.0384945  70.5511942  24.2732662  37.1395308  69.7412296  24.5829790
  36.4426690  70.4568889  23.6432341  36.9657483  70.4176970  24.2258901
  45.6975938  64.4907483  19.7598038  45.5815464  65.2415169  20.1890176
  46.4931825  64.2331436  20.0094125  45.7980528  64.5642330  19.8602129
  36.8785684  75.4689531  25.6747518  37.5223140  75.9102695  26.0643677
  37.2041940  74.6642957  25.5877777  37.0217513  75.4154726  25.7192996
  30.2349989  66.5732229  23.8984996  30.0000173  65.7399881  23.7917265
  30.3735630  66.8536894  23.0846197  30.2205651  66.4915732  23.7627351
  37.5806264  68.4801506  21.0467380  37.9022105  69.0206713  20.4428688
  38.2278360  67.9098278  21.1789670  37.7232319  68.4760681  20.9774415
  39.6307972  60.4817501  21.1301767  40.3288137  60.6605629  21.6223230
  39.9460304  59.9587840  20.5072156  39.7803309  60.4311273  21.1103777
  39.8195907  66.8687946  21.1181558  40.2589543  66.2605047  21.5636331
  39.6700570  66.4895319  20.3467023  39.8617373  66.7226417  21.0700726
  39.8253642  68.3086864  27.9707276  40.1076885  67.5138270  27.7494032
  40.5539802  68.7867451  27.9912337  39.9743205  68.2621461  27.9410291
  43.4205244  65.2215127  18.0712327  43.3356539  66.0776094  18.2161896
  43.9089627  64.9459451  18.7394487  43.4794141  65.3072449  18.1914409
  44.3523677  61.8399922  19.5710063  43.8235149  62.0559555  20.2307369
  44.8748697  62.5336060  19.4911032  44.3512130  61.9743058  19.6565662
  36.2423285  65.7363138  18.3717531  35.6580500  66.2413170  18.7783394
  35.8393380  65.5105525  17.6314122  36.0962589  65.7771387  18.3222556
  31.7967314  71.4517899  25.1741202  31.3134892  72.1768389  25.1500786
  32.6090632  71.7494030  25.2851360  31.8458061  71.6020253  25.1868481
  37.8681468  70.2450080  27.7791017  37.3508409  69.8857495  27.1752325
  38.5655859  69.7212255  27.7897083  37.8947049  70.1147768  27.6921275
  41.5245060  70.6944894  33.7407190  41.6128405  70.5071035  34.5885400
  41.9534772  70.0482324  33.3412036  41.6007162  70.5707902  33.8078941
  39.0915519  69.9776054  32.7224852  38.5286354  69.5648664  33.2464513
  39.8536543  69.9028960  33.1417995  39.1209968  69.9053455  32.8617852
  40.7000499  61.9828790  16.8486451  40.9396503  62.1906774  16.0361794
  41.0216340  61.1786299  16.9575396  40.7837657  61.8942892  16.7447004
  36.0090790  53.9122186  20.6945989  36.7636758  54.2800503  20.4563039
  35.8318324  54.2861741  21.4625169  36.0945268  54.0220374  20.7730878
  34.6511511  71.9674075  25.3261482  35.3532090  71.4526064  25.3834238
  34.5708994  72.2948227  26.1308357  34.7435271  71.9388302  25.4534274
  34.3647854  56.3192505  17.3924102  34.1823427  56.5364386  16.5665095
  35.2273467  56.4331518  17.4482716  34.4652444  56.3682403  17.2778589
  33.9762286  68.1580427  24.8347090  34.8151186  68.3903360  24.8820852
  34.0074055  67.2884739  24.7654125  34.1044004  68.0637374  24.8311735
  34.6014989  68.5781303  29.1360395  35.1413214  68.4352434  29.8063768
  33.9184936  68.9778053  29.5044422  34.5807143  68.6160973  29.2894817
  44.0255874  64.2572303  24.3305420  44.7813389  64.6903818  24.3694329
  44.1318199  63.6077073  24.9040056  44.1526045  64.2249787  24.4203445
  47.0636045  68.0845580  25.0807823  46.6271277  68.0882323  25.8366794
  46.7298961  68.7651079  24.6487400  46.9498665  68.1858036  25.1288655
  41.6365119  70.1253913  36.4050973  42.4205535  70.2384761  36.7706715
  41.4361713  69.2995050  36.6009659  41.7231144  70.0200633  36.4885359
  33.9109881  59.5966678  15.9046575  33.1968058  59.3104857  16.3169008
  34.3953850  59.9363304  16.5452963  33.8769245  59.6048327  16.0602210
  41.7935512  72.0364015  30.0517429  40.9950758  71.7963515  30.3091297
  42.2421524  72.0878408  30.7984476  41.7410123  72.0086406  30.2002353
  41.0857199  68.0996632  16.2808383  41.5008348  67.7681656  15.5892879
  40.2549129  67.8665534  16.1528520  41.0245208  68.0167888  16.1599231
  30.4145548  65.5840373  26.5706561  30.2321121  65.5587259  25.7178853
  31.1495217  66.0539311  26.6095470  30.4959612  65.6501735  26.4504480
  46.4845222  65.8191883  23.7139449  46.7200811  65.9637082  22.8866299
  46.6334786  66.5834291  24.1070962  46.5411025  65.9530937  23.6503053
  48.3135679  64.6593549  21.5509053  48.6443896  65.1921189  20.9449147
  48.8868767  64.7132436  22.2071004  48.4469358  64.7463118  21.5586834
  40.8536249  65.7824460  37.9437617  40.0609230  66.0967972  38.1290237
  40.9685176  65.9975929  37.1058402  40.7531660  65.8608297  37.8475952
  43.5267568  62.5058451  22.2332633  43.6214422  63.2447745  22.6872258
  42.9026412  62.0775927  22.6667197  43.4476598  62.5519772  22.3640780
  41.7820042  65.6844664  32.8822914  42.3558904  65.0471908  33.0371478
  41.7034846  65.6848746  32.0132571  41.8553277  65.5909775  32.7769325
  43.7790589  64.3507191  15.4669585  43.6970752  64.4209378  16.3324572
  44.4170310  64.9136935  15.2753325  43.8610427  64.4446162  15.5659534
  37.1383760  64.1167929  24.9344111  36.8803005  63.2839664  24.9075411
  37.1932243  64.3425542  24.0936611  37.1083538  64.0265700  24.8064248
  25.8575292  61.3145766  23.4353446  25.9435543  60.9377635  24.2166976
  26.4851089  60.9406212  22.9573405  25.9631843  61.2031249  23.4798924
  40.8830700  64.3727645  18.4778191  41.6971338  64.6642538  18.3660963
  40.8189841  63.7187508  17.9036484  40.9933439  64.3192840  18.3767029
  47.1040190  67.0553642  32.8907767  46.8678827  66.2241706  32.7719827
  47.7483419  67.0039249  33.4762611  47.1634860  66.9251330  32.9593660
  36.7538608  67.8449163  23.6050503  37.3912555  67.6060910  24.1502297
  37.1793679  68.0486322  22.8703664  36.9114774  67.8400173  23.5767661
  31.4451250  70.0837499  27.4884807  31.4855395  70.3552350  26.6604587
  32.0045774  70.6079407  27.9042595  31.5334596  70.2013254  27.4276695
  37.3941423  63.0651453  17.9425393  37.7786576  62.8459159  18.6941938
  37.1453043  63.8914398  18.0726469  37.4143495  63.1549599  18.0726469
  39.1360080  68.3221586  25.2844290  39.2099088  68.1596757  26.1386139
  39.9529586  68.5111775  25.0404771  39.2676438  68.3258328  25.3742315
  32.8965836  68.6679448  22.3138733  32.0703954  68.9141186  22.1873012
  32.9577828  68.5891529  23.1800791  32.7840003  68.6924397  22.4227677
  37.6764665  71.2856329  20.0157763  37.9662964  70.8945310  19.2916990
  38.4068146  71.4673033  20.4563038  37.8271550  71.2550142  19.9740570
  38.2659411  66.0874074  31.1010893  37.7671104  66.7989842  31.1795782
  39.0759635  66.4074741  31.0629056  38.3115517  66.2400923  31.1067462
  35.6170581  73.2623711  23.0817913  35.3970876  72.9721066  23.8744580
  35.3965103  72.6038666  22.5535825  35.5518175  73.1223419  23.1206821
  34.5287528  65.3497027  25.3473614  34.2400777  64.7234499  25.8819342
  35.3970876  65.2917315  25.4138295  34.6147780  65.2484572  25.4364569
  37.7838537  74.6353101  21.8648605  38.4362595  74.1029543  22.0939631
  37.0864145  74.2821753  22.2516479  37.7769255  74.5042624  21.9560773
  34.7319802  66.9892279  21.2715979  35.4865770  67.3705318  21.4851442
  34.1390414  67.4403422  21.7262676  34.7556515  67.1121106  21.3698858
  45.7778455  66.9557515  21.2079584  46.3436488  67.6150725  21.1238127
  45.1306359  67.3007213  21.6795986  45.7657212  67.1039456  21.2652341
  36.0518028  68.1600840  26.6456095  35.5298782  68.3001132  27.3307959
  36.4392049  67.4011504  26.8358212  36.0321729  68.0686364  26.7757171
  33.0409212  58.2106649  20.7151049  32.7534008  57.8407919  19.9782997
  33.7279680  58.6801504  20.4534754  33.0998110  58.2253618  20.5666125
  42.2485033  69.8996299  20.6316664  42.0071709  69.1664160  20.2243728
  42.4286366  70.4483156  19.9782997  42.2392657  69.8718690  20.4746886
  37.4784354  65.1904859  22.0437586  37.2827136  65.7979593  21.4497889
  37.7018699  64.4972803  21.5629260  37.4818995  65.1782384  21.8853667
  35.8762884  62.0759597  22.1618454  36.5985536  62.2400755  21.7022260
  35.3970877  62.7969262  22.0557794  35.9126615  62.2057826  22.0784068
  30.6137407  58.9887861  21.5636331  30.7153543  59.7914023  21.8917306
  31.4093294  58.7875197  21.2659411  30.7465312  59.0773760  21.5671686
  41.5839731  60.9402130  23.4501940  41.3374446  60.8597880  24.2838729
  41.9124854  60.1555597  23.2564468  41.5960975  60.8128395  23.5449463
  45.4787780  67.6485489  27.2388722  45.3402139  68.3466535  27.7437464
  44.6987778  67.4934145  26.8824903  45.3431007  67.7285656  27.2614996
  43.8165865  63.9481864  33.4911103  43.8113904  63.0761681  33.4953530
  44.5226859  64.1470033  33.0180559  43.9210869  63.8485738  33.4218139
  36.6164514  71.8661620  29.7285950  36.7654077  71.3064536  29.0759355
  37.3964516  71.9453622  30.1118469  36.7538607  71.7947185  29.6882899
  46.9741153  67.0063743  18.0005221  46.5947962  66.2200881  17.9934510
  46.3107398  67.5550600  17.8576865  46.8199628  66.9708567  17.9786018
  39.1417814  72.0376263  31.0070441  39.0661485  71.3685073  31.5621229
  39.0707673  72.7394051  31.5211107  39.1198421  72.0421170  31.1647289
  39.7988061  70.5577262  21.8394047  40.5637952  70.2886905  21.5176711
  39.6966151  70.0727272  22.5564110  39.8969557  70.4466826  21.8973875
  42.3206722  67.5889445  13.8193996  43.0879707  67.6489570  13.4099848
  41.8738031  67.0169887  13.3350315  42.3680149  67.5126021  13.6871707
  43.2184517  66.3944101  26.1046729  42.5429519  66.1629334  26.6060116
  43.2276893  65.7865284  25.4788834  43.1203022  66.2703026  26.0862881
  45.2201252  69.2509234  18.3356907  45.3021089  70.0576220  18.0118358
  45.7050994  69.2705193  19.0597680  45.3038410  69.3729896  18.3943805
  39.0297755  63.9294070  27.0026985  38.6060004  64.1298569  26.2666003
  38.8542610  63.0822918  27.1151284  38.9408636  63.8342851  26.9100675
  38.5309449  75.4444583  29.4648442  39.0205379  74.7455372  29.2824106
  37.9593681  75.1468453  30.0524499  38.5193978  75.2970806  29.5249483
  34.3180200  64.4246121  22.4354957  34.4744819  64.3592924  23.2910949
  34.6580793  65.1994674  22.2233637  34.3913435  64.5295319  22.5309551
  40.8559345  63.8004005  21.3048320  41.3974890  63.2974386  21.7686941
  41.1705904  63.7469199  20.4937806  40.9823742  63.7183426  21.2532132
  44.7276452  68.0106652  38.4175233  45.5411317  67.7391801  38.5780365
  44.5671418  67.7114192  37.6135428  44.8246401  67.9261578  38.3220638
  39.0245794  69.1921356  18.5888348  39.0938615  68.3335895  18.7281349
  39.8034250  69.4093237  18.2607373  39.1498644  69.0974220  18.5605506
  43.4153282  71.6159057  22.8024842  43.0233074  71.3125773  22.0847708
  43.5706354  72.4528147  22.6129795  43.3806872  71.6942894  22.6681339
  30.8914462  61.6081072  22.7515724  31.2713426  62.0265616  22.0875992
  30.3169826  62.1894527  23.0584568  30.8625786  61.7558930  22.6992465
  43.5792957  68.1809046  22.7430872  43.2207611  68.3523689  23.5194905
  43.0931667  68.6422252  22.1858871  43.4551654  68.2748017  22.7756141
  38.3681322  63.8608212  15.2831107  38.6573847  64.6373094  15.5574681
  38.4553121  63.3496943  15.9845606  38.4235578  63.9000130  15.4273604
  44.7397696  69.0712942  33.6898073  45.3777417  68.5773138  33.3560529
  44.0971788  68.9990343  33.1050300  44.7391923  68.9871951  33.5540428
  44.7951953  69.7632751  30.3303430  45.5844331  69.4121815  30.4505512
  44.9695550  70.5769139  30.0680064  44.9372234  69.8318608  30.3091298
  32.0120830  60.7961013  25.2115969  31.6177528  60.8704025  24.4366079
  31.4560947  61.1818960  25.7624331  31.8723642  60.8642788  25.1783629
  37.4028025  58.4123395  21.1973518  37.6787759  57.6942308  20.7851086
  38.0026694  59.0108315  20.9894624  37.5321290  58.3943766  21.1054279
  36.4080279  68.3172596  31.3400914  36.3000634  68.3274658  32.2062972
  36.6176060  69.1427377  31.1505868  36.4230390  68.4413671  31.4405006
  44.1843587  71.0194550  26.2354876  43.9863276  71.5085365  25.5411087
  43.5631298  71.2235792  26.8139009  44.0631152  71.1211088  26.2178099
  38.2451566  62.7879447  20.5765120  38.9893610  63.1753723  20.8148070
  38.3912262  61.9436872  20.7405608  38.3762151  62.7209920  20.6359090
  46.1017389  64.5858702  31.7700124  46.8251588  64.1331229  31.5911144
  45.8367351  64.8663368  30.9872452  46.1698662  64.5609671  31.6278840
  35.1546006  57.5243994  14.5625689  34.8058811  58.1763720  15.0257238
  34.6742452  57.5101108  13.8349560  35.0316250  57.6187048  14.5236780
  31.6829933  67.2419336  29.9456768  31.1529858  66.5511775  29.9951743
  31.9555026  67.2329521  29.1169476  31.6454655  67.1386468  29.8304184
  42.7150024  67.8245038  18.6694451  43.4384222  68.2903151  18.5259024
  42.2750615  67.8918648  17.9192048  42.7565716  67.9028875  18.5379232
  41.1232476  65.7546851  27.6539438  40.6960084  65.1296569  27.2204874
  41.1157420  65.4721773  28.4798445  41.0591617  65.6199631  27.7119266
  26.9625775  63.9147100  27.3025116  26.8569224  63.8693945  26.4377200
  26.2125995  64.2600881  27.5839401  26.8361378  63.9588008  27.2162446
  37.9149121  64.9247163  35.3508011  37.0644751  65.0618878  35.4865656
  38.0777248  64.1910942  35.7955713  37.8132984  64.8361265  35.4363610
  35.5269915  60.1502525  20.0751733  35.6672876  60.6474989  20.7780375
  36.0252448  59.4488819  20.2165947  35.6210996  60.1204504  20.2003312
  35.5570137  61.0169636  17.4044310  36.1915217  61.6130061  17.3393772
  35.6395748  60.7173094  18.2190180  35.6626688  61.0610544  17.5147397
  37.1349120  56.9483611  17.3789752  37.4564961  56.4686694  16.7249014
  37.3976064  57.7583257  17.1880564  37.2215146  56.9973509  17.2545244
  40.3646093  67.9702486  30.8988568  39.8571184  68.5238332  31.3429199
  40.0672739  68.0310776  30.0807343  40.2450978  68.0608797  30.8437025
  32.0623125  63.2137477  20.6733856  32.5715355  63.8101984  21.0545162
  32.5357397  62.9463450  19.9910276  32.2066501  63.2623292  20.6288379
  42.9753873  71.8865743  18.8292512  42.2583183  71.7126606  18.3639749
  43.6260611  71.6518316  18.2967998  42.9655724  71.8261536  18.6821730
  39.6088578  72.9027044  27.8045575  39.3854233  72.1445873  28.1729601
  39.1198422  72.9325065  27.0826015  39.5032027  72.7949268  27.7522316
  34.4213657  59.8493735  23.5407036  33.7025646  60.2657868  23.8079900
  34.7926019  60.4147974  22.9898675  34.3705589  59.9943017  23.4989843
  41.6659568  67.0708776  35.3557509  41.6255422  66.4258453  34.7702665
  42.4782886  67.0145393  35.6682921  41.7802721  66.9667743  35.3154458
  38.2567035  73.1227502  25.2582660  37.8427434  72.4601632  24.8686501
  38.9414409  73.2705361  24.7378354  38.2965407  73.0468160  25.1239157
  41.6232329  72.2817587  26.0106276  41.2248612  72.3919858  25.2427096
  41.0083549  72.4899654  26.5932836  41.4731219  72.3291155  25.9837576
  40.1960231  58.8891735  18.8780416  39.6025071  59.2108732  18.3264983
  40.2335509  58.0432831  18.6701522  40.1134620  58.8116063  18.7663187
  49.3574172  66.8569554  19.3949367  49.7407778  67.6060910  19.6247464
  48.5618285  67.1035374  19.1361356  49.2967954  67.0039248  19.3906940
  29.1005056  62.0490154  29.8198118  28.5531775  61.3790799  29.9378986
  29.8897434  61.6820001  29.8841585  29.1357239  61.8955140  29.8466819
  38.1689464  59.5288986  16.9709746  38.5488428  59.5468615  16.1860861
  37.4282060  59.9742975  16.8500593  38.1158301  59.5970760  16.8373314
  27.8592025  61.2610961  26.9744141  27.6813786  60.8087570  27.6999057
  27.5711047  62.0637123  27.1582619  27.7904978  61.3133519  27.1087644
  43.5215606  62.5168679  26.2121531  44.0169271  61.7991674  26.1725552
  42.7115382  62.2139476  26.0976018  43.4759499  62.3666325  26.1895257
  38.9674218  66.3666492  18.3618536  38.1585540  66.0433165  18.3151845
  39.4749126  65.6599714  18.2946784  38.9223884  66.2147808  18.3448830
  29.5964495  63.7938685  24.0865900  28.7310014  63.7824376  23.9748671
  29.6963311  63.6068908  24.9337039  29.4838662  63.7644746  24.1954844
  35.2221505  73.5636584  27.6596006  35.5368064  74.3772972  27.6673787
  35.6314918  73.1786802  28.3278165  35.3289603  73.6265286  27.7600097
  42.1746024  68.9806630  25.2299818  42.6457203  69.6946893  25.3989803
  42.5106203  68.3805381  25.7659687  42.2941139  68.9978095  25.3332193
  44.2623009  70.5907944  37.4091890  44.3719974  69.8016504  37.7648637
  44.5913906  70.5013880  36.6066228  44.3275415  70.4613797  37.3434280
  42.8119971  68.7724565  31.9927510  42.2640917  68.1482448  31.7247575
  43.2732999  68.9618837  31.2771590  42.7987180  68.7083615  31.8477941
  38.1608634  55.7550514  19.6537377  38.9824329  55.9248827  19.4119072
  37.6978285  55.9097775  18.9303675  38.2139796  55.8032247  19.5109022
  32.5634525  67.5109692  27.3074614  33.1679382  67.4705526  26.6788435
  32.3561837  68.3580844  27.3378670  32.6223422  67.6297695  27.2190730
  42.3778297  69.7775637  28.5236851  43.1976671  69.6338603  28.7853147
  42.0972375  70.4021836  29.0653289  42.4575040  69.8485989  28.6424791
  27.7985807  66.4944310  27.1773537  27.7010085  65.6840581  27.4863594
  28.5814677  66.4736103  26.7919805  27.9001944  66.3711400  27.1660400
  58.8491947  77.4340489  21.4879728  58.8185952  78.2885126  21.6597997
  59.4473296  77.1335782  22.0465871  58.9329105  77.5156986  21.5954530
  52.0491632  76.5216140  26.2432658  51.1929528  76.6824638  26.2941775
  52.0959286  75.6508204  26.2637719  51.9290744  76.4166942  26.2538724
  55.3585349  82.7902666  35.8493114  56.0652116  82.2954696  35.9780049
  55.5473284  83.2311747  35.1195772  55.4913254  82.7821016  35.7602160
  54.8943453  78.5808184  28.8864310  55.4399413  79.2593271  28.9458279
  54.8360330  78.4395645  28.0265891  54.9659368  78.6600186  28.7676370
  43.5072660  74.2603267  26.7969304  42.8877692  73.6695914  26.6279318
  43.4056523  74.8514702  26.1633627  43.4010335  74.2607350  26.6774293
  50.6040556  76.0002809  21.1301767  51.3020720  76.1790937  21.6223230
  50.9192888  75.4773148  20.5072156  50.7535893  75.9496581  21.1103777
  43.2341793  77.8055549  29.0412873  43.1100490  78.3917994  29.6762691
  43.8860077  77.3115745  29.3425148  43.3115442  77.8194353  29.1798802
  48.2600134  80.9817266  28.3200384  48.9049136  80.4889709  28.0011332
  48.5001911  81.1242052  29.1466462  48.3910719  80.9294708  28.3949917
  50.7986225  83.8272172  27.9707276  51.0809468  83.0323577  27.7494032
  51.5272386  84.3052759  27.9912337  50.9475789  83.7806769  27.9410291
  48.7767419  71.3695206  25.2123041  48.4470749  71.8206349  24.5426740
  48.1012421  71.2911369  25.7596048  48.6277855  71.4246341  25.1946265
  55.9843827  67.3580729  23.4572652  55.6697268  68.0484207  23.8893074
  55.4670769  67.3025511  22.7558153  55.8608297  67.4515617  23.4169601
  46.9823373  69.4307494  20.6945989  47.7369341  69.7985811  20.4563039
  46.8050908  69.8047048  21.4625169  47.0677852  69.5405682  20.7730878
  60.2758272  75.5801935  28.7393528  59.4386693  75.6504122  28.9741123
  60.2446503  75.5826429  27.8667831  60.1476554  75.5912162  28.6453076
  46.6723001  77.7234970  34.4541897  46.8443505  77.6140865  35.3027178
  47.2092358  78.3689376  34.2173089  46.7768005  77.8026972  34.5446994
  45.3380438  71.8377813  17.3924102  45.1556011  72.0549694  16.5665095
  46.2006051  71.9516826  17.4482716  45.4385027  71.8867711  17.2778589
  51.0180157  68.8404224  20.4273126  51.7466317  68.6620179  19.9811282
  51.1075050  69.6822304  20.6380304  51.1386819  68.9388102  20.3926644
  54.9988458  79.7757611  24.3305420  55.7545973  80.2089125  24.3694329
  55.1050782  79.1262381  24.9040056  55.1258628  79.7435095  24.4203445
  40.9784718  80.3166901  29.2894817  40.7123133  79.5006018  29.4485807
  40.9923282  80.3620057  28.4190333  40.9409440  80.2023806  29.1848299
  57.9566112  70.6444716  27.3237251  58.5992020  70.7142821  27.9099166
  58.2089132  69.9773939  26.8216793  58.0888244  70.5571065  27.3364530
  44.8842465  75.1151986  15.9046575  44.1700642  74.8290165  16.3169008
  45.3686434  75.4548612  16.5452963  44.8501828  75.1233635  16.0602210
  45.7283324  73.8545280  31.9361825  45.0355121  73.3842259  32.1822556
  46.3443652  73.6283584  32.5103532  45.7167854  73.7512411  32.0570977
  41.3878132  81.1025681  26.5706561  41.2053705  81.0772567  25.7178853
  42.1227800  81.5724619  26.6095470  41.4692195  81.1687043  26.4504480
  44.4523883  77.8210684  33.0788670  45.1763856  77.8063714  33.5653565
  44.5540020  78.5306039  32.5810638  44.5742092  77.9235387  33.0767457
  51.8268833  81.3009768  37.9437617  51.0341813  81.6153280  38.1290237
  51.9417760  81.5161237  37.1058402  51.7264243  81.3793605  37.8475952
  54.5000152  78.0243759  22.2332633  54.5947006  78.7633053  22.6872258
  53.8758995  77.5961235  22.6667197  54.4209182  78.0705080  22.3640780
  52.7552625  81.2029972  32.8822914  53.3291487  80.5657216  33.0371478
  52.6767429  81.2034054  32.0132571  52.8285860  81.1095083  32.7769325
  41.3549042  77.9819181  26.7205628  41.9322545  77.8455632  27.3597873
  40.6563104  77.5254966  26.9751212  41.3370063  77.8941448  26.8527918
  48.1116344  79.6353237  24.9344111  47.8535588  78.8024972  24.9075411
  48.1664827  79.8610850  24.0936611  48.0816122  79.5451008  24.8064248
  53.1917394  71.7381688  25.0348204  52.4873721  71.2490873  25.1932123
  53.2402369  71.7504162  24.1636648  53.0947446  71.6671336  24.9287544
  47.0851056  77.1890999  25.4209006  46.5100647  77.3483168  26.0572967
  46.7086733  76.5526409  24.9577456  46.9453869  77.1188812  25.4463564
  50.7524345  75.6614349  30.2801384  50.3638778  75.2368567  29.6253575
  50.0879043  75.9096498  30.7878411  50.5971273  75.6353070  30.2589252
  60.3947614  75.4189353  23.0549214  60.1384179  74.6069295  22.8647097
  61.2376928  75.4266921  22.8279402  60.4813639  75.3001351  22.9934031
  36.8307875  76.8331074  23.4353446  36.9168127  76.4562943  24.2166976
  37.4583673  76.4591520  22.9573405  36.9364426  76.7216556  23.4798924
  54.5750706  69.3588978  27.7925368  54.9561218  68.6767149  28.1793243
  53.7713991  69.0698580  27.6101033  54.5127168  69.2156026  27.8229424
  47.7271191  83.3634471  23.6050503  48.3645138  83.1246218  24.1502297
  48.1526263  83.5671630  22.8703664  47.8847358  83.3585481  23.5767661
  48.3674006  78.5836761  17.9425393  48.7519159  78.3644467  18.6941938
  48.1185627  79.4099706  18.0726469  48.3876079  78.6734907  18.0726469
  48.5342547  71.8643176  37.6587977  48.2195988  72.6342739  37.3957540
  48.2132479  71.3013432  37.0740204  48.4401466  71.8953444  37.5329327
  50.1092663  83.8406893  25.2844290  50.1831672  83.6782065  26.1386139
  50.9262170  84.0297083  25.0404771  50.2409022  83.8443636  25.3742315
  46.0874444  70.2533697  23.2734173  45.2196869  70.3256297  23.3391782
  46.3749648  71.0555776  23.4622148  46.0014192  70.3827844  23.3108940
  55.2107333  70.4011557  31.6045495  55.9560925  70.2121367  31.1908920
  54.7944637  70.9269795  31.0459351  55.2592307  70.4513702  31.4610068
  62.5869603  77.7720785  26.5551000  63.1377525  77.1388854  26.7948092
  62.5713719  78.3036178  27.2466504  62.6654800  77.7569733  26.6929858
  49.2391994  81.6059382  31.1010893  48.7403688  82.3175150  31.1795782
  50.0492218  81.9260049  31.0629056  49.2848101  81.7586231  31.1067462
  45.5020112  80.8682335  25.3473614  45.2133360  80.2419807  25.8819342
  46.3703460  80.8102623  25.4138295  45.5880364  80.7669880  25.4364569
  56.2898010  76.0117119  25.6655596  55.9462775  75.2907454  26.0162846
  56.3891052  75.8030970  24.8233954  56.2540052  75.8741322  25.5927276
  45.7052385  82.5077586  21.2715979  46.4598353  82.8890626  21.4851442
  45.1122998  82.9588730  21.7262676  45.7289099  82.6306414  21.3698858
  48.1659052  74.4640427  36.3973192  47.3558828  74.7698207  36.2863034
  48.6433739  75.1846009  36.5125776  48.1162531  74.6155028  36.3980263
  44.0141796  73.7291957  20.7151049  43.7266592  73.3593227  19.9782997
  44.7012264  74.1986812  20.4534754  44.0730693  73.7438926  20.5666125
  48.4516937  80.7090167  22.0437586  48.2559720  81.3164901  21.4497889
  48.6751283  80.0158111  21.5629260  48.4551578  80.6967692  21.8853667
  46.8495467  77.5944905  22.1618454  47.5718119  77.7586063  21.7022260
  46.3703460  78.3154570  22.0557794  46.8859198  77.7243134  22.0784068
  54.8088975  73.9308704  27.5415139  53.9700076  73.9569982  27.3053402
  54.8793342  74.5779439  28.1220486  54.6957368  74.0304829  27.5924256
  44.5003084  80.0002977  31.2672594  45.0124181  80.2787230  30.6181354
  44.2139427  80.7392271  31.6335407  44.5337947  80.1505331  31.2262472
  53.2558253  70.8294081  22.2742755  53.9584606  70.6301829  21.7962713
  52.9902442  70.0570023  22.5811598  53.3204886  70.6857047  22.2488197
  58.6846499  79.1376690  24.8276381  58.5980473  79.2932116  25.6811160
  58.2296979  79.7814766  24.4535786  58.6049755  79.2552445  24.8983488
  41.5869990  74.5073169  21.5636331  41.6886127  75.3099330  21.8917306
  42.3825877  74.3060505  21.2659411  41.7197896  74.5959068  21.5671686
  48.0186810  72.0929366  31.3273636  47.8270007  72.1084500  32.1773059
  48.8685405  72.2893040  31.3040290  48.1162531  72.1243717  31.4496930
  42.4033723  74.6220347  29.3057452  42.2619214  73.7704288  29.4301960
  42.6874286  74.6649008  28.4819658  42.4241569  74.5020097  29.2025076
  52.5572315  76.4587437  23.4501940  52.3107029  76.3783188  24.2838729
  52.8857438  75.6740905  23.2564468  52.5693558  76.3313703  23.5449463
  54.7898449  79.4667172  33.4911103  54.7846487  78.5946989  33.4953530
  55.4959443  79.6655341  33.0180559  54.8943453  79.3671046  33.4218139
  48.5169342  79.1944156  32.8624923  48.6612718  79.7745364  32.2268033
  48.8644991  79.5720453  33.5674778  48.5896804  79.3364860  32.8723918
  50.6889260  78.3934324  30.6450055  49.9412574  78.5865339  30.2398333
  50.8430785  77.5679544  30.4074176  50.6011687  78.2999436  30.5495461
  50.9291037  72.2884875  31.5345459  51.3863651  73.0208849  31.6618251
  51.0047365  71.8651340  32.2932715  51.0082006  72.3342113  31.6646535
  43.1724028  72.5350695  32.6234902  42.6366217  71.9231053  32.9395670
  43.2341793  73.1098831  33.2768569  43.1019660  72.5297623  32.7670329
  55.4018362  65.4674750  25.4039302  55.5201931  65.9251214  24.6706604
  55.2280538  64.6620012  25.1175519  55.3937533  65.4168522  25.2540235
  48.8073414  74.2786979  28.3787283  48.0169489  74.0978439  28.7004619
  49.2034037  73.5013932  28.3617577  48.7490291  74.1374440  28.4239831
  54.1917101  81.9129409  26.1046729  53.5162103  81.6814641  26.6060116
  54.2009477  81.3050592  25.4788834  54.0935605  81.7888334  26.0862881
  51.3211245  76.7547238  32.8610782  51.2570386  77.6157195  32.7330918
  51.4608432  76.4379231  32.0606333  51.3326715  76.8347405  32.7238995
  50.0030339  79.4479378  27.0026985  49.5792588  79.6483877  26.2666003
  49.8275194  78.6008225  27.1151284  49.9141219  79.3528159  26.9100675
  45.2912784  79.9431429  22.4354957  45.4477403  79.8778232  23.2910949
  45.6313377  80.7179982  22.2233637  45.3646018  80.0480627  22.5309551
  51.8291928  79.3189313  21.3048320  52.3707474  78.8159694  21.7686941
  52.1438487  79.2654507  20.4937806  51.9556325  79.2368733  21.2532132
  52.9781198  74.2125617  31.3570621  53.1923167  73.5736531  30.8033975
  52.3615097  74.6571441  30.9278483  52.9186527  74.1835761  31.2121052
  41.8647045  77.1266379  22.7515724  42.2446010  77.5450924  22.0875992
  41.2902410  77.7079835  23.0584568  41.8358370  77.2744238  22.6992465
  55.1420286  75.8214682  32.2953928  54.3296967  75.5140573  32.3767101
  55.6010220  75.3413682  32.8596640  55.0900670  75.7051175  32.3908522
  52.2373793  77.2274754  37.0782630  52.7073424  77.8516870  37.4650504
  52.2835673  76.5591729  37.6375845  52.3141669  77.2209434  37.2182702
  49.3945067  69.3331781  27.8031434  48.8783555  68.6411973  27.9283013
  48.8338996  70.0002558  27.7494033  49.2351580  69.3295039  27.8137500
  51.4637300  69.8724741  29.6324287  51.0769053  69.8973773  30.4137816
  50.9770238  69.3066420  29.1798803  51.3349809  69.7920492  29.6812190
  57.4387280  76.4387396  28.2563989  57.0114888  76.3513745  27.5012088
  56.8013333  76.5465172  28.8418833  57.2816887  76.4420056  28.2309430
  50.9308357  71.5462921  34.1960958  51.7581786  71.2748070  34.2519573
  50.9516203  72.3423763  34.5524776  51.0561207  71.6242676  34.2576141
  45.5077847  78.6926784  27.3831219  44.6665853  78.5930658  27.5910113
  45.7167855  79.4622264  27.7345539  45.4142539  78.7918828  27.4658534
  42.9853414  76.3146321  25.2115969  42.5910111  76.3889333  24.4366079
  42.4293530  76.7004267  25.7624331  42.8456226  76.3828096  25.1783629
  54.6218360  69.2927615  24.8919848  54.8267954  69.2249923  25.7376845
  54.2944784  70.0986436  24.8241026  54.6033608  69.4013556  25.0079503
  49.3194512  76.6208183  26.6328816  49.0157649  76.0664172  27.2339224
  48.6173932  76.8000393  26.1456850  49.1710721  76.5652966  26.6498522
  48.3760609  73.9308703  21.1973518  48.6520343  73.2127616  20.7851086
  48.9759278  74.5293623  20.9894624  48.5053873  73.9129074  21.1054279
  57.8752048  69.8459379  24.3722614  57.2626362  70.3329782  24.7576346
  57.9716223  69.1702870  24.9160265  57.7989946  69.8177688  24.5101472
  51.8771129  71.6022221  19.4720113  52.3314876  71.7732781  20.1967958
  52.3511175  70.9890331  19.0717889  52.0139449  71.5373106  19.5193875
  45.3986655  81.0870546  28.8022852  44.8074588  81.7280045  28.7725867
  46.1607678  81.5108164  28.7754151  45.4234915  81.2446385  28.7937999
  45.7947277  72.2472544  29.4690869  46.2548759  72.3211474  30.2065993
  45.8403384  73.0453798  29.1190691  45.8697833  72.3766691  29.5263626
  47.4430627  72.9139239  34.0362896  47.0516192  72.2672586  34.4718674
  47.6116490  73.5050674  34.6557152  47.4101537  72.9053507  34.1925602
  51.1363725  70.1015014  25.6096982  50.2899770  70.2737822  25.4838332
  51.1334857  69.2964358  25.9462810  51.0110874  70.0076043  25.6408109
  52.2062025  73.8790228  26.4759040  51.7321979  73.3531990  26.9864351
  52.5780161  73.3319701  25.9073901  52.1911914  73.7206225  26.4674187
  42.5835055  75.8761735  31.8442585  43.4460668  75.7757444  31.7579915
  42.2526838  75.2956444  31.2828158  42.6620251  75.7753362  31.7487991
  58.4698756  78.9392604  27.8865820  58.2296978  78.0999019  27.8908247
  58.9490763  79.0192771  28.6106594  58.5050939  78.8274004  27.9940623
  54.1345525  74.7726783  19.5384793  53.6068543  74.8555527  18.8490502
  54.5941233  75.5144654  19.5349438  54.1247375  74.8947445  19.4359489
  60.4703943  75.7194061  25.8395079  60.2313713  75.6789895  25.0015864
  60.6337844  76.5665213  25.9660800  60.4594246  75.8386146  25.7348561
  57.0749973  80.1044010  31.7700124  57.7984172  79.6516537  31.5911144
  56.8099935  80.3848676  30.9872452  57.1431246  80.0794979  31.6278840
  45.9436841  74.7004184  28.5053004  45.3189911  74.7122576  27.8978956
  45.6082436  75.1764359  29.1544244  45.8022333  74.7722701  28.5109572
  46.1278590  73.0429302  14.5625689  45.7791394  73.6949028  15.0257238
  45.6475036  73.0286415  13.8349560  46.0048834  73.1372356  14.5236780
  52.8568762  80.2027889  29.9195140  52.2425755  79.6585939  30.2143775
  53.3736047  79.6892125  29.4400956  52.8424425  80.0464298  29.8919368
  52.0965059  81.2732159  27.6539438  51.6692667  80.6481877  27.2204874
  52.0890004  80.9907081  28.4798445  52.0324201  81.1384939  27.7119266
  45.2127586  76.3097332  30.7227872  45.3721073  75.5540656  31.1279594
  45.0320480  76.8588271  31.3768610  45.2092945  76.2791145  30.8790578
  53.1547889  68.4758567  31.2778662  52.6588451  68.6722241  30.5870228
  53.9116952  68.8751236  31.1067463  53.1934714  68.5636301  31.1498798
  50.4250769  72.1500913  27.8681972  50.4493256  71.6161025  27.1794752
  50.6762243  71.6418222  28.5307563  50.4660688  71.9961817  27.8646617
  37.9358359  79.4332408  27.3025116  37.8301808  79.3879252  26.4377200
  37.1858579  79.7786189  27.5839401  37.8093962  79.4773316  27.2162446
  46.7052091  70.8771731  27.2487716  46.7450463  71.3780938  27.9622424
  45.8801756  70.9682125  26.9793640  46.5891617  70.9653548  27.3138255
  48.8881704  80.4432471  35.3508011  48.0377335  80.5804186  35.4865656
  49.0509832  79.7096250  35.7955713  48.7865568  80.3546573  35.4363610
  48.1266455  77.3932241  29.5461615  47.2958384  77.5606059  29.3396864
  48.0717972  77.0168192  30.3310501  47.9955870  77.3621973  29.6310144
  45.9350238  70.8841134  35.1818026  46.5602941  70.3403267  35.4547458
  45.4800718  70.4036052  34.6125817  45.9598499  70.7330615  35.1379620
  46.5002498  75.6687833  20.0751733  46.6405460  76.1660297  20.7780375
  46.9985031  74.9674127  20.2165947  46.5943579  75.6389812  20.2003312
  46.5302721  76.5354944  17.4044310  47.1647800  77.1315369  17.3393772
  46.6128332  76.2358401  18.2190180  46.6359272  76.5795852  17.5147397
  59.5085287  79.0670421  30.2730674  60.1003127  79.7067672  30.3048872
  59.9444281  78.3693458  30.5622741  59.6603718  79.0588772  30.3211507
  48.1081704  72.4668919  17.3789752  48.4297545  71.9872002  16.7249014
  48.3708647  73.2768565  17.1880564  48.1947729  72.5158817  17.2545244
  51.3378677  83.4887794  30.8988568  50.8303768  84.0423640  31.3429199
  51.0405323  83.5496083  30.0807343  51.2183561  83.5794105  30.8437025
  53.5040859  71.8541113  29.7413231  53.9295930  71.4013640  29.1296757
  52.8897852  71.3001184  30.0178019  53.4769504  71.7055089  29.6918256
  43.0355709  78.7322785  20.6733856  43.5447938  79.3287292  21.0545162
  43.5089981  78.4648758  19.9910276  43.1799084  78.7808600  20.6288379
  51.9435082  68.3256213  23.1503808  51.3003400  68.1753859  23.7188947
  51.6034489  68.0798558  22.3852913  51.7980159  68.2668335  23.1206823
  56.5334428  76.2815640  22.5733817  55.8625618  76.8245342  22.4446882
  57.2274178  76.7510495  22.3315511  56.5363296  76.4313911  22.5189344
  56.6962556  72.7371523  25.4824190  57.0490166  72.3101246  26.1569989
  55.8377357  72.6522367  25.6125266  56.6212000  72.6616264  25.6019200
  45.3946241  75.3679043  23.5407036  44.6758230  75.7843176  23.8079900
  45.7658603  75.9333282  22.9898675  45.3438172  75.5128325  23.4989843
  54.6945821  76.0006892  29.4309032  54.6743749  75.8190187  30.2843811
  54.7425022  76.8718911  29.4068616  54.6980462  76.1023430  29.5532327
  52.6392151  82.5894084  35.3557509  52.5988006  81.9443761  34.7702665
  53.4515469  82.5330701  35.6682921  52.7535305  82.4853051  35.3154458
  51.1692815  74.4077043  18.8780416  50.5757654  74.7294040  18.3264983
  51.2068093  73.5618138  18.6701522  51.0867204  74.3301371  18.7663187
  58.1286616  67.8589935  26.4108502  57.6217480  67.1519075  26.3429680
  58.9254049  67.5283124  26.5409579  58.1713855  67.7063087  26.4207497
  54.0450631  74.3656548  22.3082166  53.8164324  74.3889249  21.4660524
  54.3048708  73.5414015  22.4277177  54.0496819  74.2472627  22.2007364
  48.3269860  76.2191021  31.9107266  47.8148763  75.6112204  32.2692298
  48.1549356  76.9347613  32.3781242  48.2259497  76.2354320  32.0323490
  43.1735575  74.6628596  34.5609628  43.0038165  75.3229971  34.0157835
  42.7301524  74.8735157  35.2822117  43.0834908  74.7914578  34.5871258
  47.0995394  72.9033094  23.6036362  47.5752760  73.2650174  22.9686543
  46.5983994  73.5589561  23.8836505  47.0960753  73.0527283  23.5513103
  52.2038930  74.1415265  34.3509522  52.7610360  73.9129075  33.7187987
  51.8799995  74.9020931  34.0744734  52.2385340  74.2199102  34.2166019
  40.0737639  77.5675461  29.8198118  39.5264359  76.8976107  29.9378986
  40.8630017  77.2005309  29.8841585  40.1089823  77.4140448  29.8466819
  49.9222048  77.2282919  35.3161529  50.6733374  77.5434595  35.6301083
  50.1144624  77.0262089  34.4895451  50.0613462  77.2450300  35.2404925
  49.1422047  75.0474294  16.9709746  49.5221012  75.0653923  16.1860861
  48.4014643  75.4928282  16.8500593  49.0890885  75.1156068  16.8373314
  56.7707338  73.3556485  22.5585324  56.7701564  73.2005141  23.4169601
  56.5663518  74.2019472  22.5026710  56.7407115  73.4577106  22.6773264
  38.8324609  76.7796269  26.9744141  38.6546370  76.3272878  27.6999057
  38.5443631  77.5822431  27.1582619  38.7637562  76.8318827  27.1087644
  54.4948190  78.0353987  26.2121531  54.9901855  77.3176982  26.1725552
  53.6847965  77.7324784  26.0976018  54.4492083  77.8851633  26.1895257
  40.5697078  79.3123993  24.0865900  39.7042598  79.3009683  23.9748671
  40.6695894  79.1254216  24.9337039  40.4571245  79.2830054  24.1954844
  56.5600009  80.7857674  28.8998660  56.9855080  80.2632096  28.3469085
  56.1956928  81.3838512  28.3787283  56.5686611  80.7967901  28.7407670
  53.1478608  84.4991938  25.2299818  53.6189786  85.2132201  25.3989803
  53.4838787  83.8990689  25.7659687  53.2673723  84.5163403  25.3332193
  50.0648103  69.2719409  32.1857912  50.1976009  68.4750402  32.5138888
  50.4493256  69.7985812  32.7656188  50.1404432  69.2319326  32.3201415
  53.7852554  84.2909873  31.9927510  53.2373500  83.6667756  31.7247575
  54.2465583  84.4804145  31.2771590  53.7719764  84.2268923  31.8477941
  56.5946419  72.3595227  29.3778702  56.0109407  72.8604433  28.9656270
  56.9150713  71.8524783  28.7443026  56.5559594  72.3587062  29.2237210
  49.1341218  71.2735822  19.6537377  49.9556912  71.4434135  19.4119072
  48.6710869  71.4283083  18.9303675  49.1872380  71.3217555  19.5109022
  47.7236550  69.2678584  30.4335806  48.2680963  68.9269711  31.0240148
  47.7773485  70.1264046  30.5757091  47.8125669  69.3433843  30.5417679
  22.1338422  13.1724873  22.7833161  22.8405189  12.6776904  22.9120096
  22.3226357  13.6133955  22.0535819  22.2666328  13.1643223  22.6942207
  19.2730716  16.5952410  20.6747236  19.3614062  16.4078550  21.5225447
  19.7020429  15.9489839  20.2752083  19.3492819  16.4715417  20.7418988
  16.8401176  15.8783570  19.6564899  16.2772011  15.4656179  20.1804560
  17.6022200  15.8036475  20.0758042  16.8695625  15.8060970  19.7957899
  13.4476074   8.1057178  21.3881944  13.6196578   7.9963072  22.2367225
  13.9845432   8.7511583  21.1513136  13.5521078   8.1849179  21.4787040
  19.3850776  16.0261429  23.3391020  20.1691192  16.1392276  23.7046762
  19.1847370  15.2002566  23.5349706  19.4716801  15.9208148  23.4225406
  19.5421169  17.9371531  16.9857476  18.7436415  17.6971031  17.2431344
  19.9907180  17.9885924  17.7324523  19.4895780  17.9093922  17.1342400
  18.6021906  11.6831976  24.8777664  17.8094887  11.9975487  25.0630283
  18.7170833  11.8983444  24.0398448  18.5017316  11.7615812  24.7815998
  19.5305699  11.5852179  19.8162960  20.1044560  10.9479424  19.9711524
  19.4520502  11.5856262  18.9472618  19.6038934  11.4917291  19.7109371
  24.8525846  12.9561157  19.8247814  24.6164484  12.1249222  19.7059874
  25.4969075  12.9046764  20.4102658  24.9120517  12.8258845  19.8933707
  25.8762267  12.7405606  15.8876108  25.5708084  13.4733662  16.2489424
  25.1568483  12.3343535  15.6068894  25.7249609  12.7887339  15.8989245
  31.5764059   9.3798606  15.2144452  31.5088560   9.3994565  14.3447039
  31.5619722  10.2228934  15.4400123  31.5642816   9.5072341  15.1196929
  16.0145067  11.9881590  18.0350940  15.5156761  12.6997358  18.1135829
  16.8245292  12.3082256  17.9969103  16.0601174  12.1408438  18.0407509
  14.9412125   4.8462634  23.3313239  14.1311901   5.1520414  23.2203081
  15.4186812   5.5668217  23.4465823  14.8915604   4.9977235  23.3320310
  21.5651522   9.8489380  20.4251150  21.5599561   8.9769196  20.4293577
  22.2712516  10.0477549  19.9520606  21.6696526   9.7493254  20.3558185
  15.2922415   9.5766363  19.7964970  15.4365791  10.1567572  19.1608080
  15.6398064   9.9542660  20.5014825  15.3649877   9.7187067  19.8063965
  14.3650170  17.7669135  16.6625997  14.5139734  17.2072051  16.0099402
  15.1450172  17.8461137  17.0458516  14.5024264  17.6954701  16.6222946
  16.8903471  17.9383778  17.9410488  16.8147142  17.2692589  18.4961276
  16.8193330  18.6401566  18.4551154  16.8684078  17.9428685  18.0987336
  16.2795105  21.3452098  16.3988489  16.7691036  20.6462887  16.2164153
  15.7079338  21.0475968  16.9864546  16.2679635  21.1978322  16.4589529
  22.4762109  13.9114167  25.3515279  23.2896974  13.6399316  25.5120412
  22.3157075  13.6121707  24.5475475  22.5732057  13.8269093  25.2560685
  21.9173359   6.2036890  19.2293975  21.1050041   5.8962780  19.3107147
  22.3763293   5.7235890  19.7936687  21.8653744   6.0873382  19.3248569
  19.0126866   7.6096961  24.0122677  19.4826497   8.2339077  24.3990551
  19.0588747   6.9413937  24.5715892  19.0894742   7.6031641  24.1522748
  22.4883353  14.9720458  20.6238120  23.1263073  14.4780653  20.2900576
  21.8457444  14.8997858  20.0390347  22.4877579  14.8879466  20.4880475
  22.5437609  15.6640266  17.2643477  23.3329988  15.3129331  17.3845558
  22.7181207  16.4776654  17.0020110  22.6857891  15.7326123  17.2431345
  14.1565936  14.2180111  18.2740961  14.0486291  14.2282174  19.1403019
  14.3661717  15.0434892  18.0845915  14.1716047  14.3421186  18.3745052
  28.2930149  11.2998524  16.7340177  28.3513273  11.7485172  17.4800153
  27.6596617  11.7097336  16.2970257  28.2081444  11.4272258  16.7792725
  21.9329244  16.9202065  13.1694923  21.7348933  17.4092880  12.4751134
  21.3116955  17.1243307  13.7479056  21.8116808  17.0218604  13.1518146
  23.8503046  10.4866218  18.7040171  24.5737245  10.0338744  18.5251191
  23.5853008  10.7670883  17.9212499  23.9184319  10.4617186  18.5618887
  15.6634777  10.8254679  22.2848058  14.8130408  10.9626393  22.4205703
  15.8262905  10.0918457  22.7295760  15.5618641  10.7368780  22.3703657
  26.2838360   9.4492629  17.2070721  26.8756200  10.0889879  17.2388919
  26.7197354   8.7515665  17.4962788  26.4356791   9.4410979  17.2551554
  18.1131750  13.8710001  17.8328615  17.6056841  14.4245848  18.2769245
  17.8158396  13.9318291  17.0147389  17.9936635  13.9616312  17.7777072
  17.3574235  18.8034559  14.7385622  17.1339889  18.0453388  15.1069648
  16.8684078  18.8332580  14.0166061  17.2517684  18.6956784  14.6862363
  19.4145224  12.9716291  22.2897556  19.3741079  12.3265968  21.7042711
  20.2268543  12.9152909  22.6022968  19.5288378  12.8675258  22.2494505
  18.9792003   4.5237473  21.2849569  19.5363434   4.2951282  20.6528034
  18.6553068   5.2843138  21.0084781  19.0138414   4.6021309  21.1506066
  16.6975121   7.6105126  22.2501576  17.4486448   7.9256803  22.5641130
  16.8897697   7.4084297  21.4235498  16.8366535   7.6272508  22.1744972
  23.3353082  11.1679882  15.8338707  23.7608153  10.6454303  15.2809132
  22.9710002  11.7660719  15.3127330  23.3439684  11.1790109  15.6747717
  12.9707162  19.4644099  14.5936052  13.2853721  20.2780487  14.6013834
  13.3800575  19.0794318  15.2618212  13.0775260  19.5272801  14.6940144
  22.0108666  16.4915459  24.3431936  22.1205631  15.7024020  24.6988684
  22.3399562  16.4021395  23.5406275  22.0761072  16.3621312  24.2774327
  20.5605628  14.6732080  18.9267557  20.0126574  14.0489964  18.6587622
  21.0218656  14.8626352  18.2111636  20.5472837  14.6091130  18.7817988
  20.1263954  15.6783153  15.4576898  20.9462328  15.5346119  15.7193193
  19.8458031  16.3029351  15.9993336  20.2060697  15.7493505  15.5764838
  36.5977604  23.3348004   8.4219775  36.5671609  24.1892641   8.5938044
  37.1958953  23.0343297   8.9805918  36.6814762  23.4164501   8.5294577
  29.7977289  22.4223655  13.1772705  28.9415185  22.5832154  13.2281822
  29.8444943  21.5515719  13.1977766  29.6776401  22.3174457  13.1878771
  24.1818429  31.9586373   8.9409937  23.4301328  31.5801912   8.7125982
  24.6304440  31.9904807   8.1928747  24.1368096  31.9071980   8.7967439
  29.6343389  32.3811743   4.3695484  29.2994757  33.0588664   3.9339706
  30.1470259  31.9917054   3.7812355  29.6608970  32.4236321   4.2182275
  29.1747680  34.3326011  10.3106595  29.5587059  34.9012910   9.7711370
  29.1106821  33.6075522   9.8312411  29.2221107  34.3101475  10.1600458
  32.6429110  24.4815699  15.8204357  33.1885070  25.1600786  15.8798326
  32.5845986  24.3403160  14.9605938  32.7145024  24.5607701  15.7016417
  25.7603185  31.9704765  11.2072709  25.8613548  31.1605119  11.5169837
  25.1644930  31.8761712  10.5772388  25.6875724  31.8369793  11.1598947
  34.4194179  25.9100306   6.6938084  34.3033705  26.6607992   7.1230223
  35.2150065  25.6524260   6.9434171  34.5198768  25.9835153   6.7942176
  25.6003925  36.8882355  12.6087565  26.2441380  37.3295519  12.9983723
  25.9260180  36.0835781  12.5217824  25.7435753  36.8347549  12.6533042
  18.9568229  27.9925052  10.8325043  18.7218414  27.1592704  10.7257312
  19.0953870  28.2729718  10.0186244  18.9423892  27.9108555  10.6967398
  21.2558317  20.1610783  13.7309350  20.6363348  19.5703430  13.5619365
  21.1542180  20.7522218  13.0973674  21.1495992  20.1614865  13.6114340
  26.3024504  29.8994329   7.9807427  26.6240345  30.4399537   7.3768735
  26.9496601  29.3291101   8.1129717  26.4450559  29.8953505   7.9114462
  28.3526212  21.9010324   8.0641814  29.0506377  22.0798452   8.5563277
  28.6678545  21.3780664   7.4412203  28.5021550  21.8504096   8.0443824
  20.9827450  23.7063064  15.9752919  20.8586147  24.2925510  16.6102738
  21.6345734  23.2123260  16.2765194  21.0601099  23.7201869  16.1138849
  28.5414148  28.2880769   8.0521605  28.9807783  27.6797870   8.4976378
  28.3918811  27.9088143   7.2807070  28.5835613  28.1419240   8.0040772
  26.0085791  26.8824781  15.2540430  26.6534793  26.3897224  14.9351379
  26.2487568  27.0249568  16.0806509  26.1396376  26.8302223  15.3289964
  28.5471882  29.7279687  14.9047323  28.8295125  28.9331093  14.6834079
  29.2758042  30.2060274  14.9252384  28.6961446  29.6814284  14.8750338
  26.5253076  17.2702721  12.1463088  26.1956406  17.7213865  11.4766787
  25.8498078  17.1918884  12.6936095  26.3763512  17.3253856  12.1286311
  32.1423484  26.6407951   5.0052374  32.0574779  27.4968917   5.1501943
  32.6307867  26.3652275   5.6734533  32.2012382  26.7265272   5.1254456
  33.7329484  13.2588244  10.3912699  33.4182925  13.9491722  10.8233121
  33.2156425  13.2033026   9.6898199  33.6093954  13.3523132  10.3509648
  33.0741917  23.2592745   6.5050109  32.5453389  23.4752378   7.1647416
  33.5966937  23.9528883   6.4251079  33.0730370  23.3935882   6.5905709
  38.5289970  28.8339049  11.8783154  37.6987674  29.0449693  12.0416570
  38.4799223  28.0076104  11.6025437  38.3996706  28.7428656  11.8620519
  20.5185554  32.8710723  12.1081249  20.0353132  33.5961212  12.0840832
  21.3308872  33.1686853  12.2191407  20.5676302  33.0213076  12.1208528
  26.5899708  31.6642903  14.7131063  26.0726650  31.3050318  14.1092371
  27.2874099  31.1405078  14.7237129  26.6165289  31.5340591  14.6261322
  27.8133760  31.3968877  19.6564899  27.2504595  30.9841487  20.1804560
  28.5754783  31.3221783  20.0758042  27.8428208  31.3246278  19.7957899
  23.3729751  33.3866899  12.2601529  24.0750330  32.8718888  12.3174285
  23.2927234  33.7141050  13.0648404  23.4653512  33.3581125  12.3874321
  38.0243929  21.4809450  15.6733575  37.1872350  21.5511637  15.9081170
  37.9932160  21.4833945  14.8007878  37.8962211  21.4919677  15.5793123
  24.4208658  23.6242486  21.3881944  24.5929161  23.5148380  22.2367225
  24.9578015  24.2696891  21.1513136  24.5253662  23.7034487  21.4787040
  22.6980527  29.5773251  11.7687137  23.5369426  29.8096183  11.8160898
  22.7292296  28.7077562  11.6994172  22.8262244  29.4830197  11.7651781
  23.3233230  29.9974126  16.0700442  23.8631455  29.8545257  16.7403815
  22.6403176  30.3970877  16.4384469  23.3025383  30.0353797  16.2234864
  32.7474115  25.6765126  11.2645467  33.5031630  26.1096641  11.3034375
  32.8536439  25.0269896  11.8380103  32.8744285  25.6442610  11.3543492
  35.7854286  29.5038404  12.0147870  35.3489517  29.5075146  12.7706841
  35.4517201  30.1843903  11.5827447  35.6716906  29.6050859  12.0628702
  18.7270375  26.2174417  16.2234864  18.4608790  25.4013533  16.3825854
  18.7408939  26.2627572  15.3530379  18.6895097  26.1031321  16.1188346
  35.7051769  16.5452231  14.2577298  36.3477677  16.6150336  14.8439213
  35.9574789  15.8781454  13.7556839  35.8373901  16.4578580  14.2704577
  23.4768981  19.7552795  18.8701872  22.7840778  19.2849775  19.1162603
  24.0929308  19.5291099  19.4443579  23.4653511  19.6519927  18.9911024
  30.5153753  33.4556839  16.9857476  29.7168998  33.2156339  17.2431344
  30.9639764  33.5071231  17.7324523  30.4628364  33.4279230  17.1342400
  38.9198632  26.2219324  10.9067507  39.5815066  25.6609992  10.8063415
  38.2790044  25.7271354  11.2320198  38.9227499  26.0655733  10.9399847
  29.8075440  29.5189455   3.2148430  30.2226588  29.1874479   2.5232926
  28.9767369  29.2858357   3.0868567  29.7463448  29.4360711   3.0939277
  19.1363788  27.0033196  13.5046608  18.9539362  26.9780082  12.6518900
  19.8713457  27.4732134  13.5435517  19.2177852  27.0694558  13.3844527
  35.2063463  27.2384706  10.6479496  35.4419052  27.3829905   9.8206346
  35.3553026  28.0027114  11.0411009  35.2629266  27.3723760  10.5843099
  22.2009540  23.7218199  20.0128717  22.9249512  23.7071230  20.4993611
  22.3025677  24.4313554  19.5150685  22.3227749  23.8242902  20.0107504
  37.0353919  26.0786372   8.4849099  37.3662136  26.6114012   7.8789194
  37.6087007  26.1325260   9.1411050  37.1687598  26.1655941   8.4926881
  32.2485808  23.9251275   9.1672680  32.3432663  24.6640569   9.6212305
  31.6244652  23.4968750   9.6007244  32.1694838  23.9712595   9.2980827
  30.5038282  27.1037487  19.8162960  31.0777144  26.4664731  19.9711524
  30.4253086  27.1041570  18.9472618  30.5771517  27.0102599  19.7109371
  19.1034699  23.8826697  13.6545675  19.6808201  23.7463147  14.2937920
  18.4048760  23.4262481  13.9091259  19.0855720  23.7948963  13.7867964
  25.8602001  25.5360752  11.8684158  25.6021245  24.7032487  11.8415457
  25.9150484  25.7618365  11.0276658  25.8301779  25.4458524  11.7404295
  30.9403051  17.6389203  11.9688251  30.2359378  17.1498389  12.1272170
  30.9888025  17.6511677  11.0976695  30.8433103  17.5678851  11.8627590
  24.8336713  23.0898515  12.3549053  24.2586304  23.2490683  12.9913014
  24.4572389  22.4533924  11.8917503  24.6939525  23.0196328  12.3803611
  28.5010002  21.5621864  17.2141431  28.1124434  21.1376082  16.5593622
  27.8364700  21.8104014  17.7218458  28.3456929  21.5360585  17.1929299
  38.1433271  21.3196869   9.9889261  37.8869836  20.5076810   9.7987144
  38.9862585  21.3274436   9.7619448  38.2299296  21.2008866   9.9274078
  32.3236363  15.2596493  14.7265415  32.7046875  14.5774664  15.1133289
  31.5199647  14.9706095  14.5441080  32.2612825  15.1163541  14.7569471
  29.6048940  25.7920469   5.4118238  30.4189579  26.0835361   5.3001009
  29.5408081  25.1380331   4.8376531  29.7151679  25.7385663   5.3107075
  35.8258430  28.4746465  19.8247814  35.5897067  27.6434530  19.7059874
  36.4701659  28.4232072  20.4102658  35.8853101  28.3444153  19.8933707
  25.4756848  29.2641986  10.5390550  26.1130795  29.0253734  11.0842343
  25.9011920  29.4679145   9.8043711  25.6333014  29.2592996  10.5107707
  20.1669491  31.5030323  14.4224854  20.2073636  31.7745174  13.5944633
  20.7264015  32.0272231  14.8382642  20.2552836  31.6206078  14.3616742
  26.2828204  17.7650691  24.5928024  25.9681645  18.5350254  24.3297586
  25.9618136  17.2020947  24.0080251  26.1887123  17.7960960  24.4669374
  36.8494851  28.2590914  15.8876108  36.5440668  28.9918970  16.2489424
  36.1301066  27.8528843  15.6068894  36.6982193  28.3072647  15.8989245
  27.8578320  29.7414409  12.2184336  27.9317328  29.5789581  13.0726186
  28.6747826  29.9304598  11.9744818  27.9894679  29.7451151  12.3082362
  42.5496643  24.8983914  15.2144452  42.4821143  24.9179873  14.3447039
  42.5352305  25.7414241  15.4400123  42.5375399  25.0257649  15.1196929
  21.6184077  30.0872272   9.2478780  20.7922194  30.3334009   9.1213059
  21.6796068  30.0084352  10.1140838  21.5058244  30.1117221   9.3567724
  32.9592989  16.3019072  18.5385542  33.7046581  16.1128882  18.1248967
  32.5430294  16.8277310  17.9799398  33.0077964  16.3521217  18.3950115
  26.3982906  32.7049152   6.9497810  26.6881204  32.3138133   6.2257036
  27.1286387  32.8865857   7.3903085  26.5489790  32.6742966   6.9080617
  40.3355260  23.6728300  13.4891047  40.8863182  23.0396370  13.7288139
  40.3199376  24.2043693  14.1806551  40.4140457  23.6577249  13.6269905
  26.9877651  27.5066898  18.0350940  26.4889345  28.2182665  18.1135829
  27.7977875  27.8267564  17.9969103  27.0333758  27.6593746  18.0407509
  24.3388821  34.6816534  10.0157959  24.1189117  34.3913889  10.8084626
  24.1183343  34.0231489   9.4875872  24.2736416  34.5416243  10.0546868
  23.2505769  26.7689851  12.2813661  22.9619017  26.1427322  12.8159388
  24.1189117  26.7110138  12.3478342  23.3366021  26.6677395  12.3704616
  34.0383666  21.9124634  12.5995643  33.6948432  21.1914969  12.9502893
  34.1376709  21.7038485  11.7574001  34.0025709  21.7748837  12.5267323
  26.5056777  36.0545924   8.7988652  27.1580835  35.5222366   9.0279678
  25.8082386  35.7014576   9.1856526  26.4987495  35.9235447   8.8900820
  23.4538042  28.4085102   8.2056026  24.2084010  28.7898141   8.4191489
  22.8608655  28.8596245   8.6602723  23.4774756  28.5313929   8.3038905
  34.4996695  28.3750338   8.1419631  35.0654728  29.0343548   8.0578174
  33.8524599  28.7200036   8.6136033  34.4875452  28.5232280   8.1992388
  25.9144709  20.3647942  23.3313239  25.1044485  20.6705722  23.2203081
  26.3919396  21.0853524  23.4465823  25.8648188  20.5162543  23.3320310
  24.7736269  29.5793663  13.5796142  24.2517022  29.7193955  14.2648006
  25.1610289  28.8204327  13.7698259  24.7539970  29.4879187  13.7097218
  30.9703274  31.3189122   7.5656710  30.7289949  30.5856983   7.1583775
  31.1504606  31.8675979   6.9123044  30.9610898  31.2911514   7.4086933
  26.2002594  26.6097682   8.9777633  26.0045377  27.2172417   8.3837936
  26.4236940  25.9165626   8.4969307  26.2037235  26.5975208   8.8193713
  24.5981124  23.4952420   9.0958501  25.3203776  23.6593578   8.6362307
  24.1189117  24.2162085   8.9897841  24.6344855  23.6250650   9.0124115
  32.5574632  19.8316219  14.4755186  31.7185732  19.8577498  14.2393449
  32.6278999  20.4786954  15.0560533  32.4443025  19.9312345  14.5264303
  22.2488741  25.9010492  18.2012641  22.7609838  26.1794746  17.5521401
  21.9625084  26.6399787  18.5675454  22.2823604  26.0512846  18.1602519
  31.0043910  16.7301596   9.2082802  31.7070263  16.5309344   8.7302760
  30.7388099  15.9577538   9.5151645  31.0690542  16.5864562   9.1828243
  36.4332156  25.0384206  11.7616428  36.3466130  25.1939632  12.6151206
  35.9782636  25.6822281  11.3875833  36.3535412  25.1559961  11.8323534
  25.7672466  17.9936881  18.2613682  25.5755663  18.0092016  19.1113106
  26.6171062  18.1900555  18.2380337  25.8648188  18.0251232  18.3836977
  20.1519379  20.5227863  16.2397499  20.0104871  19.6711803  16.3642007
  20.4359943  20.5656523  15.4159705  20.1727225  20.4027613  16.1365123
  30.3057972  22.3594953  10.3841987  30.0592686  22.2790704  11.2178776
  30.6343095  21.5748421  10.1904515  30.3179215  22.2321218  10.4789510
  34.2006021  29.0678312  14.1728768  34.0620380  29.7659358  14.6777511
  33.4206018  28.9126969  13.8164950  34.0649247  29.1478479  14.1955043
  26.2654999  25.0951671  19.7964970  26.4098375  25.6752880  19.1608080
  26.6130648  25.4727968  20.5014825  26.3382460  25.2372375  19.8063965
  28.4374916  24.2941840  17.5790102  27.6898230  24.4872854  17.1738380
  28.5916442  23.4687059  17.3414223  28.3497344  24.2006951  17.4835508
  25.3382754  33.2854443  16.6625997  25.4872318  32.7257359  16.0099402
  26.1182756  33.3646445  17.0458516  25.4756848  33.2140009  16.6222946
  35.6959393  28.4256566   4.9345268  35.3166202  27.6393704   4.9274557
  35.0325639  28.9743423   4.7916912  35.5417868  28.3901390   4.9126065
  27.8636055  33.4569086  17.9410488  27.7879726  32.7877897  18.4961276
  27.7925914  34.1586874  18.4551154  27.8416661  33.4613993  18.0987336
  28.6776693  18.1892390  18.4685506  29.1349307  18.9216365  18.5958298
  28.7533022  17.7658856  19.2272761  28.7567663  18.2349629  18.5986582
  20.9209685  18.4358210  19.5574949  20.3851874  17.8238568  19.8735717
  20.9827449  19.0106346  20.2108616  20.8505317  18.4305138  19.7010376
  33.1504019  11.3682266  12.3379349  33.2687587  11.8258729  11.6046651
  32.9766195  10.5627527  12.0515566  33.1423190  11.3176038  12.1880282
  28.5206302  31.9770085   8.7734094  29.2856193  31.7079729   8.4516758
  28.4184391  31.4920095   9.4904157  28.6187797  31.8659650   8.8313921
  26.5559071  20.1794494  15.3127330  25.7655146  19.9985954  15.6344665
  26.9519694  19.4021447  15.2957624  26.4975947  20.0381955  15.3579878
  31.9402758  27.8136925  13.0386776  31.2647759  27.5822157  13.5400163
  31.9495134  27.2058107  12.4128881  31.8421262  27.6895850  13.0202928
  29.0696902  22.6554754  19.7950829  29.0056043  23.5164710  19.6670965
  29.2094089  22.3386747  18.9946380  29.0812372  22.7354920  19.6579041
  33.9419492  30.6702057   5.2696953  34.0239330  31.4769043   4.9458404
  34.4269234  30.6898016   5.9937727  34.0256650  30.7922719   5.3283852
  27.7515995  25.3486893  13.9367031  27.3278245  25.5491392  13.2006050
  27.5760851  24.5015741  14.0491331  27.6626876  25.2535674  13.8440722
  27.2527689  36.8637406  16.3988489  27.7423619  36.1648195  16.2164153
  26.6811921  36.5661276  16.9864546  27.2412219  36.7163629  16.4589529
  23.0398440  25.8438944   9.3695004  23.1963060  25.7785747  10.2250996
  23.3799034  26.6187497   9.1573684  23.1131675  25.9488142   9.4649598
  29.5777585  25.2196828   8.2388367  30.1193130  24.7167209   8.7026988
  29.8924144  25.1662023   7.4277852  29.7041982  25.1376249   8.1872179
  27.7464035  30.6114179   5.5228395  27.8156855  29.7528718   5.6621396
  28.5252490  30.8286060   5.1947420  27.8716885  30.5167043   5.4945552
  30.7266854  20.1133132  18.2910668  30.9408824  19.4744047  17.7374022
  30.1100754  20.5578956  17.8618529  30.6672184  20.0843276  18.1461099
  32.1371522  33.0351881   9.7364889  31.7451314  32.7318596   9.0187755
  32.2924595  33.8720971   9.5469842  32.1025112  33.1135717   9.6021386
  32.8905942  21.7222198  19.2293975  32.0782624  21.4148088  19.3107147
  33.3495877  21.2421198  19.7936687  32.8386327  21.6058690  19.3248569
  32.3011197  29.6001870   9.6770919  31.9425852  29.7716512  10.4534951
  31.8149908  30.0615075   9.1198918  32.1769894  29.6940841   9.7096188
  30.1181583  13.2233068  13.2798010  29.2475141  13.1971789  13.2331320
  30.3721924  13.0510260  12.4623856  30.0275143  13.1943212  13.1518147
  29.9859450  23.1282269  24.0122677  30.4559081  23.7524385  24.3990551
  30.0321330  22.4599245  24.5715892  30.0627326  23.1216949  24.1522748
  27.1430724  15.2339296  14.7371481  26.6269212  14.5419488  14.8623060
  26.5824652  15.9010074  14.6834080  26.9837237  15.2302554  14.7477547
  29.2122957  15.7732256  16.5664333  28.8254710  15.7981288  17.3477863
  28.7255894  15.2073935  16.1138850  29.0835466  15.6928007  16.6152237
  35.1872937  22.3394911  15.1904036  34.7600545  22.2521260  14.4352135
  34.5498989  22.4472687  15.7758880  35.0302544  22.3427571  15.1649477
  28.8780099  12.6599242  18.8574593  29.5073217  13.1959542  18.5795664
  29.0465961  12.5676601  19.7088159  28.9957893  12.7260604  18.9423121
  28.6794014  17.4470437  21.1301005  29.5067443  17.1755586  21.1859619
  28.7001860  18.2431278  21.4864823  28.8046864  17.5250191  21.1916188
  33.5170193  31.1825574  17.2643477  34.3062571  30.8314638  17.3845558
  33.6913791  31.9961962  17.0020110  33.6590475  31.2511431  17.2431345
  23.2563503  24.5934299  14.3171266  22.4151510  24.4938174  14.5250159
  23.4653511  25.3629780  14.6685586  23.1628196  24.6926343  14.3998580
  20.7339070  22.2153836  12.1456016  20.3395768  22.2896848  11.3706126
  20.1779187  22.6011783  12.6964378  20.5941883  22.2835611  12.1123676
  32.3704017  15.1935130  11.8259895  32.5753611  15.1257438  12.6716892
  32.0430441  15.9993952  11.7581073  32.3519265  15.3021071  11.9419550
  27.0680168  22.5215699  13.5668863  26.7643306  21.9671687  14.1679271
  26.3659589  22.7007909  13.0796897  26.9196378  22.4660481  13.5838569
  25.1298519  29.7365419  18.2740961  25.0218874  29.7467482  19.1403019
  25.3394301  30.5620200  18.0845915  25.1448630  29.8606494  18.3745052
  35.6237705  15.7466895  11.3062661  35.0112019  16.2337297  11.6916392
  35.7201880  15.0710386  11.8500312  35.5475603  15.7185203  11.4441519
  23.1472311  26.9878062  15.7362898  22.5560245  27.6287560  15.7065914
  23.9093335  27.4115679  15.7094198  23.1720572  27.1453900  15.7278046
  23.5432934  18.1480060  16.4030916  24.0034416  18.2218989  17.1406040
  23.5889041  18.9461314  16.0530737  23.6183489  18.2774207  16.4603673
  25.1916284  18.8146754  20.9702943  24.8001849  18.1680102  21.4058721
  25.3602147  19.4058190  21.5897199  25.1587194  18.8061022  21.1265649
  39.2662733  26.8183831  16.7340177  39.3245857  27.2670480  17.4800153
  38.6329200  27.2282644  16.2970257  39.1814028  26.9457566  16.7792725
  32.9061828  32.4387373  13.1694923  32.7081516  32.9278188  12.4751134
  32.2849539  32.6428615  13.7479056  32.7849392  32.5403912  13.1518146
  26.9669806  24.2072270   7.5105167  27.7111851  24.5946546   7.7488117
  27.1130502  23.3629696   7.6745655  27.0980391  24.1402743   7.5699137
  28.8849381  16.0022529  12.5437029  28.0385426  16.1745337  12.4178378
  28.8820514  15.1971873  12.8802857  28.7596531  15.9083558  12.5748156
  29.9547682  19.7797743  13.4099086  29.4807636  19.2539506  13.9204397
  30.3265818  19.2327216  12.8413948  29.9397571  19.6213740  13.4014234
  20.3320712  21.7769250  18.7782632  21.1946325  21.6764959  18.6919962
  20.0012495  21.1963959  18.2168204  20.4105908  21.6760877  18.6828038
  36.2184412  24.8400119  14.8205867  35.9782635  24.0006534  14.8248293
  36.6976420  24.9200286  15.5446640  36.2536596  24.7281519  14.9280669
  38.2189599  21.6201576  12.7735126  37.9799369  21.5797411  11.9355911
  38.3823501  22.4672728  12.9000847  38.2079903  21.7393661  12.6688608
  34.8235629  26.0051526  18.7040171  35.5469828  25.5524052  18.5251191
  34.5585592  26.2856191  17.9212499  34.8916903  25.9802494  18.5618887
  23.6922498  20.6011699  15.4393050  23.0675568  20.6130091  14.8319003
  23.3568093  21.0771874  16.0884291  23.5507990  20.6730216  15.4449619
  20.4048173  28.6612159  16.8796815  19.8748098  27.9704598  16.9291789
  20.6773267  28.6522345  16.0509523  20.3672896  28.5579291  16.7644231
  31.4368264  29.2437862   5.6034497  32.1602463  29.7095975   5.4599071
  30.9968855  29.3111471   4.8532094  31.4783956  29.3221698   5.4719279
  30.6054419  26.1035404  16.8535186  29.9911412  25.5593454  17.1483822
  31.1221704  25.5899640  16.3741002  30.5910081  25.9471813  16.8259415
  29.8450716  27.1739674  14.5879485  29.4178324  26.5489393  14.1544920
  29.8375661  26.8914596  15.4138492  29.7809857  27.0392455  14.6459313
  22.9613243  22.2104847  17.6567919  23.1206730  21.4548171  18.0619641
  22.7806137  22.7595787  18.3108657  22.9578602  22.1798661  17.8130625
  30.9033546  14.3766083  18.2118708  30.4074107  14.5729757  17.5210275
  31.6602608  14.7758751  18.0407510  30.9420371  14.4643816  18.0838845
  28.1736426  18.0508428  14.8022019  28.1978913  17.5168541  14.1134799
  28.4247899  17.5425737  15.4647610  28.2146345  17.8969332  14.7986664
  15.6844016  25.3339923  14.2365163  15.5787465  25.2886768  13.3717247
  14.9344236  25.6793704  14.5179448  15.5579619  25.3780832  14.1502493
  24.4537748  16.7779247  14.1827763  24.4936120  17.2788453  14.8962471
  23.6287413  16.8689640  13.9133686  24.3377274  16.8661063  14.2478301
  26.6367361  26.3439987  22.2848058  25.7862991  26.4811701  22.4205703
  26.7995489  25.6103765  22.7295760  26.5351224  26.2554088  22.3703657
  25.8752111  23.2939757  16.4801662  25.0444041  23.4613575  16.2736910
  25.8203629  22.9175707  17.2650548  25.7441526  23.2629488  16.5650190
  23.6835895  16.7848649  22.1158073  24.3088598  16.2410782  22.3887505
  23.2286375  16.3043567  21.5465863  23.7084155  16.6338131  22.0719667
  37.2570943  24.9677937  17.2070721  37.8488784  25.6075187  17.2388919
  37.6929938  24.2700973  17.4962788  37.4089375  24.9596287  17.2551554
  29.0864333  29.3895309  17.8328615  28.5789424  29.9431156  18.2769245
  28.7890980  29.4503599  17.0147389  28.9669218  29.4801620  17.7777072
  31.2526516  17.7548629  16.6753278  31.6781587  17.3021155  16.0636804
  30.6383509  17.2008699  16.9518065  31.2255161  17.6062605  16.6258303
  31.6972114  33.3058567   5.7632558  30.9801423  33.1319429   5.2979796
  32.3478851  33.0711139   5.2308044  31.6873964  33.2454359   5.6161776
  34.2820085  22.1823155   9.5073863  33.6111275  22.7252857   9.3786929
  34.9759835  22.6518010   9.2655558  34.2848952  22.3321426   9.4529391
  28.3306819  34.3219867  14.7385622  28.1072473  33.5638696  15.1069648
  27.8416662  34.3517888  14.0166061  28.2250268  34.2142092  14.6862363
  34.4448212  18.6379039  12.4164237  34.7975822  18.2108762  13.0910035
  33.5863014  18.5529882  12.5465313  34.3697657  18.5623779  12.5359247
  23.1431897  21.2686558  10.4747083  22.4243886  21.6850691  10.7419947
  23.5144260  21.8340797   9.9238721  23.0923829  21.4135840  10.4329890
  32.4431478  21.9014407  16.3649079  32.4229405  21.7197703  17.2183858
  32.4910679  22.7726426  16.3408663  32.4466119  22.0030946  16.4872374
  30.3877808  28.4901599  22.2897556  30.3473663  27.8451276  21.7042711
  31.2001126  28.4338217  22.6022968  30.5020961  28.3860566  22.2494505
  26.9785276  34.5420325  12.1922706  26.5645674  33.8794455  11.8026548
  27.6632650  34.6898184  11.6718401  27.0183647  34.4660983  12.0579204
  30.3450570  33.7010411  12.9446323  29.9466853  33.8112681  12.1767143
  29.7301789  33.9092477  13.5272883  30.1949459  33.7483979  12.9177622
  35.8772272  13.7597451  13.3448549  35.3703137  13.0526590  13.2769727
  36.6739706  13.4290639  13.4749626  35.9199512  13.6070602  13.3547544
  31.7936288  20.2664063   9.2422213  31.5649981  20.2896764   8.4000571
  32.0534364  19.4421530   9.3617223  31.7982476  20.1480143   9.1347411
  26.0755517  22.1198536  18.8447313  25.5634420  21.5119719  19.2032345
  25.9035013  22.8355128  19.3121289  25.9745154  22.1361835  18.9663537
  20.9221231  20.5636111  21.4949675  20.7523822  21.2237486  20.9497882
  20.4787181  20.7742672  22.2162164  20.8320565  20.6922093  21.5211304
  24.8481051  18.8040609  10.5376409  25.3238417  19.1657689   9.9026590
  24.3469650  19.4597077  10.8176551  24.8446410  18.9534798  10.4853150
  38.0792412  28.2762377   6.3289414  38.4626018  29.0253733   6.5587511
  37.2836526  28.5228197   6.0701403  38.0186195  28.4232071   6.3246987
  29.9524587  20.0422781  21.2849569  30.5096017  19.8136590  20.6528034
  29.6285652  20.8028446  21.0084781  29.9870997  20.1206617  21.1506066
  17.8223296  23.4682977  16.7538165  17.2750015  22.7983622  16.8719033
  18.6115674  23.1012825  16.8181632  17.8575480  23.3147963  16.7806865
  27.6707704  23.1290434  22.2501576  28.4219031  23.4442111  22.5641130
  27.8630281  22.9269605  21.4235498  27.8099118  23.1457816  22.1744972
  34.5192994  19.2564000   9.4925371  34.5187221  19.1012657  10.3509648
  34.3149174  20.1026987   9.4366757  34.4892772  19.3584621   9.6113311
  16.5810265  22.6803785  13.9084188  16.4032026  22.2280394  14.6339103
  16.2929288  23.4829946  14.0922665  16.5123219  22.7326342  14.0427691
  32.2433846  23.9361502  13.1461578  32.7387512  23.2184497  13.1065598
  31.4333622  23.6332300  13.0316065  32.1977740  23.7859148  13.1235304
  27.6892458  27.7859315   5.2958583  26.8803781  27.4625989   5.2491892
  28.1967367  27.0792537   5.2286831  27.6442125  27.6340632   5.2788877
  18.3182735  25.2131508  11.0205947  17.4528255  25.2017199  10.9088718
  18.4181551  25.0261731  11.8677086  18.2056902  25.1837570  11.1294891
  34.3085665  26.6865189  15.8338707  34.7340737  26.1639611  15.2809132
  33.9442585  27.2846027  15.3127330  34.3172268  26.6975416  15.6747717
  23.9439745  34.9829407  14.5936052  24.2586304  35.7965795  14.6013834
  24.3533158  34.5979626  15.2618212  24.0507843  35.0458109  14.6940144
  30.8964265  30.3999454  12.1639864  31.3675443  31.1139716  12.3329850
  31.2324443  29.7998204  12.6999734  31.0159380  30.4170918  12.2672240
  27.8133760  15.1726924  19.1197959  27.9461665  14.3757918  19.4478935
  28.1978912  15.6993327  19.6996235  27.8890089  15.1326841  19.2541462
  31.5338211  30.1917388  18.9267557  30.9859157  29.5675271  18.6587622
  31.9951240  30.3811660  18.2111636  31.5205421  30.1276438  18.7817988
  30.8866115  12.0957250  15.7179052  30.0812079  11.9854980  16.0346891
  30.7572850  12.1969706  14.8608918  30.7486248  12.0940920  15.6387093
  34.3432075  18.2602742  16.3118749  33.7595064  18.7611949  15.8996317
  34.6636370  17.7532299  15.6783073  34.3045251  18.2594577  16.1577257
  25.4722207  15.1686099  17.3675853  26.0166619  14.8277226  17.9580195
  25.5259142  16.0271561  17.5097137  25.5611326  15.2441359  17.4757726
  21.2852765  28.9302515  14.2414661  21.8897623  28.8898350  13.6128482
  21.0780078  29.7773667  14.2718717  21.3441663  29.0490518  14.1530777
  31.0996537  31.1968461  15.4576898  31.9194911  31.0531427  15.7193193
  30.8190615  31.8214659  15.9993336  31.1793281  31.2678813  15.5764838
  16.5204048  27.9137133  14.1113584  16.4228326  27.1033404  14.4203641
  17.3032917  27.8928926  13.7259852  16.6220184  27.7904223  14.1000447
  47.5710188  38.8533312   8.4219775  47.5404192  39.7077949   8.5938044
  48.1691537  38.5528605   8.9805918  47.6547346  38.9349809   8.5294577
  40.7709873  37.9408963  13.1772705  39.9147768  38.1017462  13.2281822
  40.8177526  37.0701027  13.1977766  40.6508984  37.8359765  13.1878771
  35.1551012  47.4771681   8.9409937  34.4033912  47.0987219   8.7125982
  35.6037024  47.5090115   8.1928747  35.1100679  47.4257288   8.7967439
  40.6075972  47.8997051   4.3695484  40.2727341  48.5773972   3.9339706
  41.1202843  47.5102362   3.7812355  40.6341553  47.9421629   4.2182275
  40.1480264  49.8511319  10.3106595  40.5319643  50.4198218   9.7711370
  40.0839405  49.1260830   9.8312411  40.1953691  49.8286783  10.1600458
  43.6161694  40.0001007  15.8204357  44.1617654  40.6786094  15.8798326
  43.5578570  39.8588468  14.9605938  43.6877608  40.0793009  15.7016417
  36.7335769  47.4890073  11.2072709  36.8346131  46.6790427  11.5169837
  36.1377514  47.3947020  10.5772388  36.6608307  47.3555101  11.1598947
  36.5736508  52.4067662  12.6087565  37.2173964  52.8480826  12.9983723
  36.8992764  51.6021089  12.5217824  36.7168337  52.3532857  12.6533042
  29.9300813  43.5110360  10.8325043  29.6950997  42.6778012  10.7257312
  30.0686454  43.7915026  10.0186244  29.9156475  43.4293863  10.6967398
  32.2290900  35.6796090  13.7309350  31.6095932  35.0888738  13.5619365
  32.1274764  36.2707526  13.0973674  32.1228576  35.6800173  13.6114340
  37.2757088  45.4179637   7.9807427  37.5972929  45.9584845   7.3768735
  37.9229184  44.8476409   8.1129717  37.4183143  45.4138812   7.9114462
  39.3258796  37.4195632   8.0641814  40.0238961  37.5983760   8.5563277
  39.6411128  36.8965972   7.4412203  39.4754133  37.3689404   8.0443824
  31.9560033  39.2248372  15.9752919  31.8318730  39.8110818  16.6102738
  32.6078318  38.7308568  16.2765194  32.0333683  39.2387177  16.1138849
  39.5146731  43.8066077   8.0521605  39.9540367  43.1983178   8.4976378
  39.3651394  43.4273451   7.2807070  39.5568197  43.6604548   8.0040772
  36.9818374  42.4010089  15.2540430  37.6267377  41.9082532  14.9351379
  37.2220151  42.5434876  16.0806509  37.1128959  42.3487531  15.3289964
  39.5204466  45.2464995  14.9047323  39.8027708  44.4516401  14.6834079
  40.2490626  45.7245582  14.9252384  39.6694029  45.1999592  14.8750338
  37.4985659  32.7888029  12.1463088  37.1688990  33.2399172  11.4766787
  36.8230661  32.7104192  12.6936095  37.3496096  32.8439164  12.1286311
  43.1156068  42.1593259   5.0052374  43.0307363  43.0154225   5.1501943
  43.6040451  41.8837583   5.6734533  43.1744965  42.2450580   5.1254456
  44.7062067  28.7773552  10.3912699  44.3915508  29.4677030  10.8233121
  44.1889009  28.7218334   9.6898199  44.5826538  28.8708440  10.3509648
  44.0474501  38.7778053   6.5050109  43.5185973  38.9937686   7.1647416
  44.5699521  39.4714191   6.4251079  44.0462954  38.9121190   6.5905709
  49.5022554  44.3524357  11.8783154  48.6720257  44.5635001  12.0416570
  49.4531806  43.5261412  11.6025437  49.3729289  44.2613963  11.8620519
  35.9374109  42.6741270   5.3057577  35.3531324  43.1791301   5.7123441
  35.5344204  42.4483656   4.5654169  35.7913413  42.7149518   5.2562603
  31.4918137  48.3896031  12.1081249  31.0085716  49.1146520  12.0840832
  32.3041456  48.6872161  12.2191407  31.5408885  48.5398384  12.1208528
  37.5632292  47.1828211  14.7131063  37.0459233  46.8235626  14.1092371
  38.2606683  46.6590386  14.7237129  37.5897873  47.0525899  14.6261322
  38.7866343  46.9154185  19.6564899  38.2237178  46.5026795  20.1804560
  39.5487367  46.8407091  20.0758042  38.8160792  46.8431586  19.7957899
  40.3951323  38.9206922   3.7826498  40.6347327  39.1284905   2.9701841
  40.7167164  38.1164430   3.8915442  40.4788481  38.8321023   3.6787051
  35.7041614  30.8500317   7.6286036  36.4587582  31.2178634   7.3903086
  35.5269148  31.2239872   8.3965215  35.7896092  30.9598505   7.7070924
  34.3462335  48.9052207  12.2601529  35.0482914  48.3904196  12.3174285
  34.2659818  49.2326358  13.0648404  34.4386095  48.8766433  12.3874321
  48.9976512  36.9994758  15.6733575  48.1604933  37.0696945  15.9081170
  48.9664743  37.0019253  14.8007878  48.8694795  37.0104985  15.5793123
  35.3941241  39.1427793  21.3881944  35.5661745  39.0333688  22.2367225
  35.9310599  39.7882199  21.1513136  35.4986245  39.2219795  21.4787040
  34.0598678  33.2570636   4.3264149  33.8774251  33.4742517   3.5005142
  34.9224291  33.3709649   4.3822763  34.1603268  33.3060534   4.2118636
  33.6713110  45.0958559  11.7687137  34.5102010  45.3281491  11.8160898
  33.7024879  44.2262870  11.6994172  33.7994828  45.0015505  11.7651781
  34.2965813  45.5159434  16.0700442  34.8364038  45.3730565  16.7403815
  33.6135759  45.9156185  16.4384469  34.2757967  45.5539105  16.2234864
  39.7398397  30.2597047   7.3613173  40.4684558  30.0813002   6.9151329
  39.8293290  31.1015127   7.5720351  39.8605059  30.3580925   7.3266690
  43.7206698  41.1950434  11.2645467  44.4764213  41.6281949  11.3034375
  43.8269023  40.5455204  11.8380103  43.8476869  41.1627918  11.3543492
  46.7586869  45.0223712  12.0147870  46.3222101  45.0260454  12.7706841
  46.4249785  45.7029211  11.5827447  46.6449489  45.1236167  12.0628702
  29.7002958  41.7359725  16.2234864  29.4341373  40.9198841  16.3825854
  29.7141522  41.7812880  15.3530379  29.6627681  41.6216629  16.1188346
  46.6784352  32.0637539  14.2577298  47.3210261  32.1335644  14.8439213
  46.9307373  31.3966762  13.7556839  46.8106484  31.9763888  14.2704577
  33.6060705  36.5344809   2.8386622  32.8918882  36.2482988   3.2509054
  34.0904674  36.8741435   3.4793009  33.5720069  36.5426459   2.9942257
  34.4501565  35.2738103  18.8701872  33.7573361  34.8035083  19.1162603
  35.0661892  35.0476407  19.4443579  34.4386095  35.1705235  18.9911024
  41.4886336  48.9742146  16.9857476  40.6901582  48.7341647  17.2431344
  41.9372348  49.0256539  17.7324523  41.4360947  48.9464538  17.1342400
  49.8931215  41.7404631  10.9067507  50.5547649  41.1795300  10.8063415
  49.2522627  41.2456662  11.2320198  49.8960083  41.5841041  10.9399847
  40.7808023  45.0374763   3.2148430  41.1959172  44.7059787   2.5232926
  39.9499953  44.8043665   3.0868567  40.7196032  44.9546019   3.0939277
  30.1096372  42.5218504  13.5046608  29.9271945  42.4965390  12.6518900
  30.8446041  42.9917442  13.5435517  30.1910436  42.5879866  13.3844527
  46.1796046  42.7570014  10.6479496  46.4151635  42.9015213   9.8206346
  46.3285610  43.5212422  11.0411009  46.2361849  42.8909068  10.5843099
  33.1742124  39.2403507  20.0128717  33.8982096  39.2256537  20.4993611
  33.2758260  39.9498862  19.5150685  33.2960333  39.3428210  20.0107504
  48.0086503  41.5971680   8.4849099  48.3394720  42.1299320   7.8789194
  48.5819591  41.6510568   9.1411050  48.1420182  41.6841249   8.4926881
  43.2218392  39.4436583   9.1672680  43.3165246  40.1825877   9.6212305
  42.5977235  39.0154058   9.6007244  43.1427422  39.4897903   9.2980827
  41.4770866  42.6222795  19.8162960  42.0509727  41.9850039  19.9711524
  41.3985670  42.6226878  18.9472618  41.5504101  42.5287907  19.7109371
  30.0767282  39.4012005  13.6545675  30.6540785  39.2648455  14.2937920
  29.3781344  38.9447789  13.9091259  30.0588304  39.3134271  13.7867964
  43.4741413  41.2885322   2.4009632  43.3921576  41.3587509   3.2664619
  44.1121134  41.8515066   2.2093372  43.5561251  41.3824293   2.4999581
  36.8334584  41.0546060  11.8684158  36.5753829  40.2217795  11.8415457
  36.8883067  41.2803673  11.0276658  36.8034362  40.9643832  11.7404295
  41.9135635  33.1574511  11.9688251  41.2091961  32.6683696  12.1272170
  41.9620609  33.1696985  11.0976695  41.8165686  33.0864159  11.8627590
  35.8069297  38.6083823  12.3549053  35.2318888  38.7675991  12.9913014
  35.4304973  37.9719232  11.8917503  35.6672109  38.5381636  12.3803611
  39.4742585  37.0807172  17.2141431  39.0857018  36.6561390  16.5593622
  38.8097284  37.3289322  17.7218458  39.3189513  37.0545893  17.1929299
  49.1165854  36.8382177   9.9889261  48.8602419  36.0262118   9.7987144
  49.9595168  36.8459744   9.7619448  49.2031880  36.7194174   9.9274078
  25.5526115  38.2523898  10.3693493  25.6386367  37.8755766  11.1507023
  26.1801913  37.8784343   9.8913451  25.6582666  38.1409380  10.4138971
  43.2968947  30.7781801  14.7265415  43.6779459  30.0959972  15.1133289
  42.4932231  30.4891403  14.5441080  43.2345408  30.6348849  14.7569471
  40.5781523  41.3105777   5.4118238  41.3922162  41.6020669   5.3001009
  40.5140665  40.6565639   4.8376531  40.6884263  41.2570971   5.3107075
  46.7991014  43.9931773  19.8247814  46.5629651  43.1619838  19.7059874
  47.4434243  43.9417380  20.4102658  46.8585684  43.8629461  19.8933707
  36.4489432  44.7827294  10.5390550  37.0863379  44.5439042  11.0842343
  36.8744503  44.9864453   9.8043711  36.6065598  44.7778304  10.5107707
  31.1402074  47.0215631  14.4224854  31.1806219  47.2930482  13.5944633
  31.6996598  47.5457539  14.8382642  31.2285420  47.1391386  14.3616742
  37.0892247  40.0029584   4.8765439  37.4737399  39.7837291   5.6281985
  36.8403867  40.8292529   5.0066516  37.1094319  40.0927730   5.0066516
  47.8227434  43.7776222  15.8876108  47.5173251  44.5104278  16.2489424
  47.1033650  43.3714151  15.6068894  47.6714777  43.8257955  15.8989245
  38.8310904  45.2599717  12.2184336  38.9049912  45.0974889  13.0726186
  39.6480410  45.4489906  11.9744818  38.9627262  45.2636459  12.3082362
  53.5229226  40.4169222  15.2144452  53.4553727  40.4365181  14.3447039
  53.5084889  41.2599549  15.4400123  53.5107983  40.5442957  15.1196929
  32.5916660  45.6057580   9.2478780  31.7654778  45.8519317   9.1213059
  32.6528652  45.5269660  10.1140838  32.4790827  45.6302529   9.3567724
  34.8092684  31.6726521  10.2074220  33.9415110  31.7449120  10.2731829
  35.0967888  32.4748599  10.3962195  34.7232432  31.8020668  10.2448987
  43.9325573  31.8204380  18.5385542  44.6779165  31.6314190  18.1248967
  43.5162877  32.3462618  17.9799398  43.9810547  31.8706525  18.3950115
  37.3715489  48.2234460   6.9497810  37.6613788  47.8323441   6.2257036
  38.1018970  48.4051165   7.3903085  37.5222374  48.1928274   6.9080617
  51.3087844  39.1913608  13.4891047  51.8595765  38.5581677  13.7288139
  51.2931959  39.7229001  14.1806551  51.3873040  39.1762557  13.6269905
  37.9610235  43.0252206  18.0350940  37.4621928  43.7367973  18.1135829
  38.7710459  43.3452872  17.9969103  38.0066341  43.1779054  18.0407509
  35.3121405  50.2001842  10.0157959  35.0921700  49.9099197  10.8084626
  35.0915927  49.5416797   9.4875872  35.2468999  50.0601551  10.0546868
  34.2238352  42.2875159  12.2813661  33.9351601  41.6612630  12.8159388
  35.0921700  42.2295446  12.3478342  34.3098604  42.1862703  12.3704616
  45.0116250  37.4309942  12.5995643  44.6681016  36.7100277  12.9502893
  45.1109293  37.2223793  11.7574001  44.9758293  37.2934145  12.5267323
  37.4789361  51.5731232   8.7988652  38.1313419  51.0407674   9.0279678
  36.7814969  51.2199884   9.1856526  37.4720079  51.4420755   8.8900820
  34.4270626  43.9270410   8.2056026  35.1816594  44.3083449   8.4191489
  33.8341238  44.3781553   8.6602723  34.4507339  44.0499237   8.3038905
  45.4729279  43.8935646   8.1419631  46.0387312  44.5528856   8.0578174
  44.8257182  44.2385344   8.6136033  45.4608035  44.0417587   8.1992388
  36.8877293  35.8833250  23.3313239  36.0777068  36.1891030  23.2203081
  37.3651979  36.6038832  23.4465823  36.8380771  36.0347851  23.3320310
  35.7468852  45.0978971  13.5796142  35.2249606  45.2379263  14.2648006
  36.1342872  44.3389635  13.7698259  35.7272553  45.0064495  13.7097218
  32.7360036  35.1484780   7.6491096  32.4484832  34.7786050   6.9123044
  33.4230504  35.6179635   7.3874801  32.7948933  35.1631749   7.5006172
  41.9435857  46.8374430   7.5656710  41.7022533  46.1042291   7.1583775
  42.1237190  47.3861287   6.9123044  41.9343481  46.8096821   7.4086933
  37.1735178  42.1282990   8.9777633  36.9777960  42.7357725   8.3837936
  37.3969523  41.4350934   8.4969307  37.1769819  42.1160516   8.8193713
  35.5713708  39.0137728   9.0958501  36.2936360  39.1778886   8.6362307
  35.0921701  39.7347393   8.9897841  35.6077438  39.1435958   9.0124115
  43.5307215  35.3501527  14.4755186  42.6918316  35.3762806  14.2393449
  43.6011583  35.9972262  15.0560533  43.4175609  35.4497653  14.5264303
  33.2221324  41.4195800  18.2012641  33.7342421  41.6980054  17.5521401
  32.9357667  42.1585094  18.5675454  33.2556188  41.5698154  18.1602519
  41.9776494  32.2486904   9.2082802  42.6802846  32.0494652   8.7302760
  41.7120682  31.4762846   9.5151645  42.0423126  32.1049870   9.1828243
  47.4064739  40.5569514  11.7616428  47.3198714  40.7124940  12.6151206
  46.9515219  41.2007589  11.3875833  47.3267996  40.6745269  11.8323534
  30.3088231  35.9265992   8.4976377  30.4104367  36.7292154   8.8257353
  31.1044118  35.7253328   8.1999458  30.4416136  36.0151891   8.5011733
  36.7405050  33.5122189  18.2613682  36.5488247  33.5277323  19.1113106
  37.5903646  33.7085863  18.2380337  36.8380772  33.5436540  18.3836977
  31.1251963  36.0413170  16.2397499  30.9837455  35.1897111  16.3642007
  31.4092526  36.0841831  15.4159705  31.1459809  35.9212921  16.1365123
  41.2790555  37.8780261  10.3841987  41.0325270  37.7976012  11.2178776
  41.6075678  37.0933729  10.1904515  41.2911799  37.7506526  10.4789510
  45.1738604  44.5863620  14.1728768  45.0352963  45.2844666  14.6777511
  44.3938602  44.4312277  13.8164950  45.0381831  44.6663787  14.1955043
  43.5116689  40.8859995  20.4251150  43.5064728  40.0139812  20.4293577
  44.2177683  41.0848165  19.9520606  43.6161693  40.7863870  20.3558185
  37.2387583  40.6136979  19.7964970  37.3830958  41.1938187  19.1608080
  37.5863231  40.9913276  20.5014825  37.3115044  40.7557683  19.8063965
  39.4107500  39.8127148  17.5790102  38.6630814  40.0058162  17.1738380
  39.5649025  38.9872367  17.3414223  39.3229927  39.7192259  17.4835508
  36.3115338  48.8039751  16.6625997  36.4604901  48.2442667  16.0099402
  37.0915340  48.8831753  17.0458516  36.4489431  48.7325317  16.6222946
  46.6691977  43.9441874   4.9345268  46.2898786  43.1579012   4.9274557
  46.0058222  44.4928731   4.7916912  46.5150452  43.9086698   4.9126065
  38.8368638  48.9754394  17.9410488  38.7612309  48.3063205  18.4961276
  38.7658497  49.6772182  18.4551154  38.8149245  48.9799301  18.0987336
  39.6509277  33.7077698  18.4685506  40.1081891  34.4401673  18.5958298
  39.7265606  33.2844164  19.2272761  39.7300247  33.7534936  18.5986582
  31.8942268  33.9543518  19.5574949  31.3584458  33.3423876  19.8735717
  31.9560033  34.5291654  20.2108616  31.8237901  33.9490446  19.7010376
  44.1236603  26.8867574  12.3379349  44.2420171  27.3444037  11.6046651
  43.9498779  26.0812835  12.0515566  44.1155774  26.8361346  12.1880282
  39.4938885  47.4955393   8.7734094  40.2588776  47.2265037   8.4516758
  39.3916975  47.0105403   9.4904157  39.5920381  47.3844958   8.8313921
  37.5291655  35.6979802  15.3127330  36.7387730  35.5171262  15.6344665
  37.9252278  34.9206755  15.2957624  37.4708531  35.5567263  15.3579878
  42.0157546  44.5267577   0.7534043  42.7830531  44.5867702   0.3439895
  41.5688855  43.9548018   0.2690362  42.0630973  44.4504152   0.6211754
  42.9135341  43.3322232  13.0386776  42.2380343  43.1007465  13.5400163
  42.9227717  42.7243415  12.4128881  42.8153846  43.2081158  13.0202928
  40.0429485  38.1740061  19.7950829  39.9788626  39.0350018  19.6670965
  40.1826673  37.8572055  18.9946380  40.0544955  38.2540228  19.6579041
  44.9152076  46.1887365   5.2696953  44.9971913  46.9954351   4.9458404
  45.4001818  46.2083324   5.9937727  44.9989234  46.3108027   5.3283852
  38.7248579  40.8672201  13.9367031  38.3010828  41.0676700  13.2006050
  38.5493434  40.0201049  14.0491331  38.6359460  40.7720982  13.8440722
  34.0131024  41.3624252   9.3695004  34.1695643  41.2971055  10.2250996
  34.3531617  42.1372805   9.1573684  34.0864259  41.4673450   9.4649598
  40.5510169  40.7382136   8.2388367  41.0925714  40.2352517   8.7026988
  40.8656728  40.6847330   7.4277852  40.6774566  40.6561557   8.1872179
  38.7196618  46.1299487   5.5228395  38.7889439  45.2714026   5.6621396
  39.4985073  46.3471368   5.1947420  38.8449468  46.0352351   5.4945552
  41.6999438  35.6318440  18.2910668  41.9141408  34.9929354  17.7374022
  41.0833337  36.0764264  17.8618529  41.6404767  35.6028584  18.1461099
  43.1104106  48.5537189   9.7364889  42.7183898  48.2503904   9.0187755
  43.2657178  49.3906279   9.5469842  43.0757696  48.6321025   9.6021386
  30.5865285  38.5459203   9.6855771  30.9664250  38.9643748   9.0216038
  30.0120650  39.1272658   9.9924614  30.5576610  38.6937061   9.6332512
  43.8638526  37.2407505  19.2293975  43.0515208  36.9333396  19.3107147
  44.3228461  36.7606506  19.7936687  43.8118911  37.1243998  19.3248569
  43.2743781  45.1187177   9.6770919  42.9158435  45.2901820  10.4534951
  42.7882491  45.5800383   9.1198918  43.1502478  45.2126149   9.7096188
  41.0914167  28.7418376  13.2798010  40.2207725  28.7157097  13.2331320
  41.3454508  28.5695568  12.4623856  41.0007727  28.7128520  13.1518147
  38.0632146  40.7986343   2.2171153  38.3524671  41.5751225   2.4914728
  38.1503945  40.2875074   2.9185653  38.1186402  40.8378261   2.3613651
  38.1163307  30.7524604  14.7371481  37.6001796  30.0604796  14.8623060
  37.5557236  31.4195381  14.6834080  37.9569820  30.7487862  14.7477547
  40.1855541  31.2917564  16.5664333  39.7987294  31.3166596  17.3477863
  39.6988478  30.7259243  16.1138850  40.0568049  31.2113315  16.6152237
  46.1605520  37.8580219  15.1904036  45.7333128  37.7706568  14.4352135
  45.5231573  37.9657995  15.7758880  46.0035127  37.8612879  15.1649477
  39.8512682  28.1784550  18.8574593  40.4805800  28.7144850  18.5795664
  40.0198545  28.0861909  19.7088159  39.9690477  28.2445912  18.9423121
  39.6526597  32.9655745  21.1301005  40.4800027  32.6940893  21.1859619
  39.6734443  33.7616586  21.4864823  39.7779447  33.0435499  21.1916188
  44.4902777  46.7010882  17.2643477  45.2795155  46.3499946  17.3845558
  44.6646374  47.5147270  17.0020110  44.6323058  46.7696739  17.2431345
  34.2296087  40.1119607  14.3171266  33.3884094  40.0123482  14.5250159
  34.4386095  40.8815088  14.6685586  34.1360780  40.2111651  14.3998580
  31.7071654  37.7339144  12.1456016  31.3128352  37.8082156  11.3706126
  31.1511771  38.1197091  12.6964378  31.5674466  37.8020919  12.1123676
  43.3436601  30.7120438  11.8259895  43.5486194  30.6442746  12.6716892
  43.0163025  31.5179260  11.7581073  43.3251849  30.8206379  11.9419550
  38.0412752  38.0401007  13.5668863  37.7375889  37.4856995  14.1679271
  37.3392173  38.2193217  13.0796897  37.8928962  37.9845789  13.5838569
  37.0978849  35.3501526   8.1313565  37.3738583  34.6320439   7.7191132
  37.6977518  35.9486446   7.9234671  37.2272114  35.3321897   8.0394326
  36.1031103  45.2550727  18.2740961  35.9951458  45.2652789  19.1403019
  36.3126884  46.0805508  18.0845915  36.1181214  45.3791802  18.3745052
  46.5970288  31.2652203  11.3062661  45.9844602  31.7522605  11.6916392
  46.6934463  30.5895693  11.8500312  46.5208186  31.2370511  11.4441519
  40.5989369  33.0215044   6.4060160  41.0533116  33.1925604   7.1308004
  41.0729415  32.4083154   6.0057936  40.7357690  32.9565929   6.4533921
  34.1204895  42.5063370  15.7362898  33.5292828  43.1472868  15.7065914
  34.8825918  42.9300987  15.7094198  34.1453156  42.6639208  15.7278046
  34.5165518  33.6665367  16.4030916  34.9766999  33.7404297  17.1406040
  34.5621624  34.4646622  16.0530737  34.5916073  33.7959515  16.4603673
  36.1648867  34.3332062  20.9702943  35.7734433  33.6865409  21.4058721
  36.3334730  34.9243498  21.5897199  36.1319778  34.3246330  21.1265649
  50.2395316  42.3369139  16.7340177  50.2978440  42.7855788  17.4800153
  49.6061784  42.7467952  16.2970257  50.1546612  42.4642874  16.7792725
  43.8794411  47.9572681  13.1694923  43.6814100  48.4463496  12.4751134
  43.2582122  48.1613923  13.7479056  43.7581976  48.0589220  13.1518146
  37.9402389  39.7257578   7.5105167  38.6844434  40.1131854   7.7488117
  38.0863086  38.8815003   7.6745655  38.0712975  39.6588051   7.5699137
  39.8581965  31.5207837  12.5437029  39.0118010  31.6930645  12.4178378
  39.8553097  30.7157181  12.8802857  39.7329115  31.4268866  12.5748156
  40.9280265  35.2983051  13.4099086  40.4540220  34.7724813  13.9204397
  41.2998401  34.7512524  12.8413948  40.9130154  35.1399048  13.4014234
  31.3053295  37.2954558  18.7782632  32.1678909  37.1950267  18.6919962
  30.9745078  36.7149267  18.2168204  31.3838492  37.1946185  18.6828038
  47.1916996  40.3585427  14.8205867  46.9515219  39.5191842  14.8248293
  47.6709003  40.4385594  15.5446640  47.2269180  40.2466827  14.9280669
  42.8563765  36.1919606   6.4724840  42.3286784  36.2748350   5.7830549
  43.3159473  36.9337477   6.4689485  42.8465615  36.3140268   6.3699535
  49.1922183  37.1386884  12.7735126  48.9531953  37.0982718  11.9355911
  49.3556084  37.9858036  12.9000847  49.1812486  37.2578969  12.6688608
  45.7968213  41.5236834  18.7040171  46.5202412  41.0709360  18.5251191
  45.5318175  41.8041499  17.9212499  45.8649486  41.4987802  18.5618887
  34.6655081  36.1197007  15.4393050  34.0408152  36.1315399  14.8319003
  34.3300676  36.5957182  16.0884291  34.5240573  36.1915524  15.4449619
  34.8496830  34.4622126   1.4965735  34.5009634  35.1141851   1.9597285
  34.3693276  34.4479239   0.7689607  34.7267074  34.5565179   1.4576827
  31.3780757  44.1797467  16.8796815  30.8480682  43.4889906  16.9291789
  31.6505850  44.1707653  16.0509523  31.3405479  44.0764599  16.7644231
  42.4100848  44.7623170   5.6034497  43.1335046  45.2281283   5.4599071
  41.9701439  44.8296779   4.8532094  42.4516540  44.8407006   5.4719279
  41.5787003  41.6220712  16.8535186  40.9643996  41.0778762  17.1483822
  42.0954288  41.1084948  16.3741002  41.5642665  41.4657121  16.8259415
  40.8183300  42.6924982  14.5879485  40.3910908  42.0674701  14.1544920
  40.8108244  42.4099904  15.4138492  40.7542441  42.5577763  14.6459313
  33.9345827  37.7290155  17.6567919  34.0939314  36.9733479  18.0619641
  33.7538720  38.2781094  18.3108657  33.9311186  37.6983969  17.8130625
  41.8766130  29.8951391  18.2118708  41.3806691  30.0915065  17.5210275
  42.6335192  30.2944059  18.0407510  41.9152955  29.9829124  18.0838845
  39.1469009  33.5693736  14.8022019  39.1711497  33.0353849  14.1134799
  39.3980483  33.0611045  15.4647610  39.1878928  33.4154640  14.7986664
  26.6576599  40.8525231  14.2365163  26.5520048  40.8072076  13.3717247
  25.9076819  41.1979012  14.5179448  26.5312202  40.8966140  14.1502493
  35.4270332  32.2964555  14.1827763  35.4668703  32.7973761  14.8962471
  34.6019996  32.3874948  13.9133686  35.3109858  32.3846371  14.2478301
  37.6099945  41.8625295  22.2848058  36.7595575  41.9997009  22.4205703
  37.7728072  41.1289073  22.7295760  37.5083808  41.7739396  22.3703657
  36.8484695  38.8125064  16.4801662  36.0176625  38.9798882  16.2736910
  36.7936212  38.4361015  17.2650548  36.7174110  38.7814796  16.5650190
  35.2220739  37.0880656   7.0091780  35.3623700  37.5853120   7.7120421
  35.7203272  36.3866950   7.1505994  35.3161820  37.0582635   7.1343359
  35.2520961  37.9547767   4.3384357  35.8866041  38.5508192   4.2733819
  35.3346572  37.6551225   5.1530227  35.3577512  37.9988675   4.4487443
  48.2303527  40.4863244  17.2070721  48.8221367  41.1260495  17.2388919
  48.6662522  39.7886281  17.4962788  48.3821958  40.4781595  17.2551554
  36.8299944  33.8861742   4.3129799  37.1515785  33.4064825   3.6589061
  37.0926888  34.6961389   4.1220610  36.9165970  33.9351640   4.1885291
  40.0596917  44.9080617  17.8328615  39.5522008  45.4616464  18.2769245
  39.7623563  44.9688907  17.0147389  39.9401802  44.9986928  17.7777072
  42.2259099  33.2733936  16.6753278  42.6514171  32.8206463  16.0636804
  41.6116092  32.7194007  16.9518065  42.1987744  33.1247913  16.6258303
  31.7573949  40.1515608   7.6073903  32.2666178  40.7480115   7.9885208
  32.2308221  39.8841581   6.9250322  31.9017325  40.2001423   7.5628426
  42.6704697  48.8243875   5.7632558  41.9534007  48.6504737   5.2979796
  43.3211435  48.5896447   5.2308044  42.6606548  48.7639667   5.6161776
  40.6653322  29.7449036  10.0843855  40.0221640  29.5946683  10.6528993
  40.3252729  29.4991381   9.3192960  40.5198399  29.6861159  10.0546870
  45.2552668  37.7008463   9.5073863  44.5843858  38.2438165   9.3786929
  45.9492419  38.1703318   9.2655558  45.2581536  37.8506734   9.4529391
  39.3039402  49.8405175  14.7385622  39.0805057  49.0824004  15.1069648
  38.8149245  49.8703196  14.0166061  39.1982851  49.7327400  14.6862363
  45.4180796  34.1564347  12.4164237  45.7708406  33.7294070  13.0910035
  44.5595597  34.0715190  12.5465313  45.3430241  34.0809087  12.5359247
  34.1164481  36.7871866  10.4747083  33.3976470  37.2035999  10.7419947
  34.4876843  37.3526105   9.9238721  34.0656413  36.9321148  10.4329890
  43.4164062  37.4199715  16.3649079  43.3961989  37.2383010  17.2183858
  43.4643262  38.2911734  16.3408663  43.4198703  37.5216254  16.4872374
  41.3610392  44.0086907  22.2897556  41.3206246  43.3636584  21.7042711
  42.1733710  43.9523525  22.6022968  41.4753545  43.9045874  22.2494505
  37.9517859  50.0605633  12.1922706  37.5378258  49.3979763  11.8026548
  38.6365233  50.2083492  11.6718401  37.9916231  49.9846291  12.0579204
  41.3183153  49.2195718  12.9446323  40.9199436  49.3297989  12.1767143
  40.7034373  49.4277785  13.5272883  41.1682043  49.2669286  12.9177622
  39.8911055  35.8269866   5.8120463  39.2975895  36.1486863   5.2605030
  39.9286333  34.9810962   5.6041569  39.8085444  35.7494195   5.7003234
  46.8504856  29.2782759  13.3448549  46.3435721  28.5711898  13.2769727
  47.6472290  28.9475947  13.4749626  46.8932095  29.1255910  13.3547544
  42.7668872  35.7849371   9.2422213  42.5382565  35.8082072   8.4000571
  43.0266948  34.9606838   9.3617223  42.7715060  35.6665451   9.1347411
  37.0488100  37.6383844  18.8447313  36.5367003  37.0305027  19.2032345
  36.8767596  38.3540436  19.3121289  36.9477737  37.6547143  18.9663537
  35.8213634  34.3225917  10.5376409  36.2971001  34.6842997   9.9026590
  35.3202234  34.9782385  10.8176551  35.8178993  34.4720106  10.4853150
  49.0524996  43.7947685   6.3289414  49.4358602  44.5439041   6.5587511
  48.2569109  44.0413505   6.0701403  48.9918778  43.9417379   6.3246987
  40.9257171  35.5608088  21.2849569  41.4828601  35.3321898  20.6528034
  40.6018236  36.3213754  21.0084781  40.9603581  35.6391925  21.1506066
  28.7955879  38.9868285  16.7538165  28.2482599  38.3168930  16.8719033
  29.5848258  38.6198133  16.8181632  28.8308063  38.8333271  16.7806865
  38.6440288  38.6475742  22.2501576  39.3951615  38.9627419  22.5641130
  38.8362864  38.4454913  21.4235498  38.7831702  38.6643124  22.1744972
  37.8640287  36.4667117   3.9049793  38.2439252  36.4846746   3.1200907
  37.1232884  36.9121106   3.7840640  37.8109125  36.5348891   3.7713361
  45.4925578  34.7749308   9.4925371  45.4919804  34.6197965  10.3509648
  45.2881758  35.6212295   9.4366757  45.4625356  34.8769929   9.6113311
  27.5542849  38.1989092  13.9084188  27.3764610  37.7465701  14.6339103
  27.2661871  39.0015254  14.0922665  27.4855802  38.2511650  14.0427691
  43.2166430  39.4546810  13.1461578  43.7120095  38.7369805  13.1065598
  42.4066206  39.1517608  13.0316065  43.1710323  39.3044456  13.1235304
  38.6625042  43.3044623   5.2958583  37.8536364  42.9811297   5.2491892
  39.1699950  42.5977845   5.2286831  38.6174708  43.1525939   5.2788877
  29.2915319  40.7316816  11.0205947  28.4260838  40.7202507  10.9088718
  29.3914135  40.5447039  11.8677086  29.1789486  40.7022877  11.1294891
  45.2818249  42.2050497  15.8338707  45.7073320  41.6824919  15.2809132
  44.9175169  42.8031335  15.3127330  45.2904851  42.2160724  15.6747717
  34.9172329  50.5014715  14.5936052  35.2318888  51.3151103  14.6013834
  35.3265742  50.1164934  15.2618212  35.0240427  50.5643417  14.6940144
  41.8696848  45.9184762  12.1639864  42.3408027  46.6325024  12.3329850
  42.2057027  45.3183512  12.6999734  41.9891963  45.9356226  12.2672240
  38.7866343  30.6912232  19.1197959  38.9194249  29.8943226  19.4478935
  39.1711496  31.2178635  19.6996235  38.8622672  30.6512149  19.2541462
  42.5070795  45.7102696  18.9267557  41.9591741  45.0860579  18.6587622
  42.9683823  45.8996968  18.2111636  42.4938004  45.6461746  18.7817988
  41.8598698  27.6142558  15.7179052  41.0544662  27.5040288  16.0346891
  41.7305434  27.7155014  14.8608918  41.7218831  27.6126228  15.6387093
  45.3164659  33.7788050  16.3118749  44.7327648  34.2797257  15.8996317
  45.6368953  33.2717606  15.6783073  45.2777834  33.7779885  16.1577257
  37.8559458  32.6928645   6.5877424  38.6775153  32.8626958   6.3459119
  37.3929109  32.8475906   5.8643722  37.9090620  32.7410378   6.4449068
  36.4454790  30.6871407  17.3675853  36.9899203  30.3462534  17.9580195
  36.4991726  31.5456869  17.5097137  36.5343909  30.7626667  17.4757726
  32.2585349  44.4487823  14.2414661  32.8630206  44.4083657  13.6128482
  32.0512661  45.2958975  14.2718717  32.3174246  44.5675826  14.1530777
  42.0729121  46.7153768  15.4576898  42.8927495  46.5716735  15.7193193
  41.7923199  47.3399967  15.9993336  42.1525864  46.7864121  15.5764838
  27.4936631  43.4322441  14.1113584  27.3960909  42.6218712  14.4203641
  28.2765501  43.4114234  13.7259852  27.5952768  43.3089531  14.1000447
  58.5442771  54.3718620   8.4219775  58.5136776  55.2263257   8.5938044
  59.1424120  54.0713913   8.9805918  58.6279929  54.4535117   8.5294577
  51.7442456  53.4594271  13.1772705  50.8880352  53.6202769  13.2281822
  51.7910110  52.5886335  13.1977766  51.6241568  53.3545073  13.1878771
  46.1283596  62.9956989   8.9409937  45.3766495  62.6172527   8.7125982
  46.5769608  63.0275423   8.1928747  46.0833263  62.9442596   8.7967439
  55.0536173  59.7280797  22.7833161  55.7602940  59.2332828  22.9120096
  55.2424108  60.1689878  22.0535819  55.1864078  59.7199147  22.6942207
  47.7068352  63.0075381  11.2072709  47.8078715  62.1975735  11.5169837
  47.1110097  62.9132328  10.5772388  47.6340891  62.8740409  11.1598947
  47.5469092  67.9252970  12.6087565  48.1906547  68.3666134  12.9983723
  47.8725347  67.1206397  12.5217824  47.6900920  67.8718165  12.6533042
  40.9033396  59.0295668  10.8325043  40.6683581  58.1963320  10.7257312
  41.0419037  59.3100333  10.0186244  40.8889059  58.9479171  10.6967398
  43.2023484  51.1981398  13.7309350  42.5828515  50.6074046  13.5619365
  43.1007347  51.7892834  13.0973674  43.0961159  51.1985481  13.6114340
  50.2991379  52.9380940   8.0641814  50.9971544  53.1169068   8.5563277
  50.6143712  52.4151280   7.4412203  50.4486717  52.8874712   8.0443824
  42.9292617  54.7433680  15.9752919  42.8051314  55.3296126  16.6102738
  43.5810901  54.2493876  16.2765194  43.0066266  54.7572485  16.1138849
  50.4879315  59.3251385   8.0521605  50.9272950  58.7168486   8.4976378
  50.3383978  58.9458759   7.2807070  50.5300781  59.1789856   8.0040772
  47.9550958  57.9195397  15.2540430  48.5999960  57.4267840  14.9351379
  48.1952735  58.0620184  16.0806509  48.0861543  57.8672839  15.3289964
  50.4937049  60.7650303  14.9047323  50.7760292  59.9701709  14.6834079
  51.2223210  61.2430890  14.9252384  50.6426613  60.7184900  14.8750338
  48.4718243  48.3073337  12.1463088  48.1421573  48.7584480  11.4766787
  47.7963245  48.2289500  12.6936095  48.3228679  48.3624472  12.1286311
  55.6794651  44.2958860  10.3912699  55.3648092  44.9862338  10.8233121
  55.1621592  44.2403642   9.6898199  55.5559121  44.3893748  10.3509648
  60.4755138  59.8709665  11.8783154  59.6452841  60.0820309  12.0416570
  60.4264390  59.0446720  11.6025437  60.3461873  59.7799271  11.8620519
  42.4650721  63.9081339  12.1081249  41.9818299  64.6331828  12.0840832
  43.2774039  64.2057469  12.2191407  42.5141469  64.0583692  12.1208528
  48.5364875  62.7013519  14.7131063  48.0191817  62.3420934  14.1092371
  49.2339266  62.1775694  14.7237129  48.5630456  62.5711207  14.6261322
  52.1928467  63.1508333  20.6747236  52.2811813  62.9634474  21.5225447
  52.6218180  62.5045763  20.2752083  52.2690569  63.0271341  20.7418988
  49.7598927  62.4339493  19.6564899  49.1969762  62.0212103  20.1804560
  50.5219950  62.3592399  20.0758042  49.7893375  62.3616894  19.7957899
  46.6774197  46.3685625   7.6286036  47.4320165  46.7363942   7.3903086
  46.5001732  46.7425180   8.3965215  46.7628676  46.4783813   7.7070924
  45.3194918  64.4237514  12.2601529  46.0215498  63.9089504  12.3174285
  45.2392401  64.7511666  13.0648404  45.4118679  64.3951741  12.3874321
  59.9709096  52.5180066  15.6733575  59.1337517  52.5882253  15.9081170
  59.9397327  52.5204561  14.8007878  59.8427378  52.5290293  15.5793123
  45.0331262  48.7755944   4.3264149  44.8506835  48.9927825   3.5005142
  45.8956875  48.8894957   4.3822763  45.1335851  48.8245842   4.2118636
  44.6445694  60.6143866  11.7687137  45.4834593  60.8466799  11.8160898
  44.6757463  59.7448178  11.6994172  44.7727411  60.5200813  11.7651781
  45.2698397  61.0344742  16.0700442  45.8096622  60.8915873  16.7403815
  44.5868343  61.4341492  16.4384469  45.2490551  61.0724413  16.2234864
  50.7130981  45.7782355   7.3613173  51.4417141  45.5998310   6.9151329
  50.8025874  46.6200435   7.5720351  50.8337643  45.8766233   7.3266690
  54.6939282  56.7135742  11.2645467  55.4496797  57.1467257  11.3034375
  54.8001606  56.0640512  11.8380103  54.8209452  56.6813226  11.3543492
  57.7319453  60.5409020  12.0147870  57.2954685  60.5445762  12.7706841
  57.3982368  61.2214519  11.5827447  57.6182073  60.6421475  12.0628702
  40.6735542  57.2545032  16.2234864  40.4073957  56.4384149  16.3825854
  40.6874106  57.2998188  15.3530379  40.6360264  57.1401937  16.1188346
  57.6516936  47.5822847  14.2577298  58.2942844  47.6520952  14.8439213
  57.9039956  46.9152070  13.7556839  57.7839068  47.4949196  14.2704577
  44.5793289  52.0530117   2.8386622  43.8651466  51.7668296   3.2509054
  45.0637257  52.3926743   3.4793009  44.5452652  52.0611767   2.9942257
  52.4618920  64.4927454  16.9857476  51.6634165  64.2526954  17.2431344
  52.9104931  64.5441847  17.7324523  52.4093531  64.4649846  17.1342400
  60.8663799  57.2589939  10.9067507  61.5280233  56.6980608  10.8063415
  60.2255211  56.7641970  11.2320198  60.8692666  57.1026348  10.9399847
  41.0828955  58.0403812  13.5046608  40.9004529  58.0150698  12.6518900
  41.8178624  58.5102750  13.5435517  41.1643019  58.1065174  13.3844527
  57.1528630  58.2755322  10.6479496  57.3884219  58.4200521   9.8206346
  57.3018193  59.0397730  11.0411009  57.2094433  58.4094376  10.5843099
  54.1950976  54.9621890   9.1672680  54.2897830  55.7011185   9.6212305
  53.5709819  54.5339366   9.6007244  54.1160006  55.0083211   9.2980827
  52.4503449  58.1408103  19.8162960  53.0242311  57.5035347  19.9711524
  52.3718253  58.1412186  18.9472618  52.5236684  58.0473214  19.7109371
  41.0499866  54.9197313  13.6545675  41.6273368  54.7833763  14.2937920
  40.3513928  54.4633097  13.9091259  41.0320887  54.8319579  13.7867964
  47.8067168  56.5731368  11.8684158  47.5486412  55.7403103  11.8415457
  47.8615651  56.7988981  11.0276658  47.7766946  56.4829139  11.7404295
  52.8868218  48.6759819  11.9688251  52.1824545  48.1869004  12.1272170
  52.9353192  48.6882293  11.0976695  52.7898270  48.6049467  11.8627590
  46.7801880  54.1269131  12.3549053  46.2051471  54.2861299  12.9913014
  46.4037556  53.4904540  11.8917503  46.6404692  54.0566944  12.3803611
  50.4475169  52.5992480  17.2141431  50.0589602  52.1746698  16.5593622
  49.7829867  52.8474630  17.7218458  50.2922097  52.5731201  17.1929299
  60.0898438  52.3567485   9.9889261  59.8335003  51.5447426   9.7987144
  60.9327752  52.3645052   9.7619448  60.1764463  52.2379482   9.9274078
  36.5258699  53.7709205  10.3693493  36.6118951  53.3941074  11.1507023
  37.1534497  53.3969651   9.8913451  36.6315250  53.6594688  10.4138971
  54.2701530  46.2967109  14.7265415  54.6512042  45.6145280  15.1133289
  53.4664815  46.0076711  14.5441080  54.2077992  46.1534157  14.7569471
  57.7723597  59.5117081  19.8247814  57.5362235  58.6805145  19.7059874
  58.4166826  59.4602688  20.4102658  57.8318268  59.3814769  19.8933707
  47.4222015  60.3012602  10.5390550  48.0595962  60.0624350  11.0842343
  47.8477087  60.5049761   9.8043711  47.5798182  60.2963612  10.5107707
  42.1134658  62.5400939  14.4224854  42.1538803  62.8115790  13.5944633
  42.6729182  63.0642847  14.8382642  42.2018004  62.6576694  14.3616742
  48.0624830  55.5214892   4.8765439  48.4469983  55.3022599   5.6281985
  47.8136451  56.3477837   5.0066516  48.0826903  55.6113038   5.0066516
  58.7960018  59.2961529  15.8876108  58.4905835  60.0289586  16.2489424
  58.0766234  58.8899459  15.6068894  58.6447360  59.3443262  15.8989245
  49.8043487  60.7785025  12.2184336  49.8782496  60.6160196  13.0726186
  50.6212994  60.9675214  11.9744818  49.9359846  60.7821767  12.3082362
  64.4961810  55.9354530  15.2144452  64.4286310  55.9550489  14.3447039
  64.4817472  56.7784857  15.4400123  64.4840566  56.0628265  15.1196929
  43.5649244  61.1242887   9.2478780  42.7387362  61.3704625   9.1213059
  43.6261235  61.0454968  10.1140838  43.4523411  61.1487836   9.3567724
  45.7825268  47.1911828  10.2074220  44.9147693  47.2634428  10.2731829
  46.0700472  47.9933907  10.3962195  45.6965016  47.3205976  10.2448987
  54.9058156  47.3389688  18.5385542  55.6511748  47.1499498  18.1248967
  54.4895461  47.8647926  17.9799398  54.9543131  47.3891833  18.3950115
  62.2820427  54.7098916  13.4891047  62.8328349  54.0766985  13.7288139
  62.2664543  55.2414309  14.1806551  62.3605624  54.6947864  13.6269905
  48.9342818  58.5437514  18.0350940  48.4354512  59.2553281  18.1135829
  49.7443042  58.8638180  17.9969103  48.9798925  58.6964362  18.0407509
  46.2853989  65.7187150  10.0157959  46.0654284  65.4284505  10.8084626
  46.0648511  65.0602105   9.4875872  46.2201583  65.5786858  10.0546868
  45.1970936  57.8060467  12.2813661  44.9084184  57.1797938  12.8159388
  46.0654284  57.7480754  12.3478342  45.2831188  57.7048011  12.3704616
  55.9848834  52.9495250  12.5995643  55.6413599  52.2285585  12.9502893
  56.0841876  52.7409101  11.7574001  55.9490876  52.8119453  12.5267323
  45.4003209  59.4455718   8.2056026  46.1549177  59.8268757   8.4191489
  44.8073822  59.8966861   8.6602723  45.4239923  59.5684545   8.3038905
  46.7201436  60.6164279  13.5796142  46.1982189  60.7564571  14.2648006
  47.1075456  59.8574943  13.7698259  46.7005137  60.5249803  13.7097218
  43.7092620  50.6670088   7.6491096  43.4217416  50.2971358   6.9123044
  44.3963088  51.1364943   7.3874801  43.7681517  50.6817057   7.5006172
  48.1467761  57.6468298   8.9777633  47.9510544  58.2543033   8.3837936
  48.3702107  56.9536242   8.4969307  48.1502402  57.6345824   8.8193713
  46.5446291  54.5323036   9.0958501  47.2668943  54.6964194   8.6362307
  46.0654284  55.2532701   8.9897841  46.5810022  54.6621266   9.0124115
  54.5039799  50.8686835  14.4755186  53.6650900  50.8948114  14.2393449
  54.5744166  51.5157570  15.0560533  54.3908192  50.9682961  14.5264303
  52.9509077  47.7672212   9.2082802  53.6535430  47.5679960   8.7302760
  52.6853266  46.9948154   9.5151645  53.0155710  47.6235178   9.1828243
  58.3797323  56.0754822  11.7616428  58.2931297  56.2310248  12.6151206
  57.9247803  56.7192897  11.3875833  58.3000579  56.1930577  11.8323534
  41.2820814  51.4451300   8.4976377  41.3836951  52.2477462   8.8257353
  42.0776701  51.2438636   8.1999458  41.4148720  51.5337199   8.5011733
  42.0984546  51.5598478  16.2397499  41.9570038  50.7082419  16.3642007
  42.3825110  51.6027139  15.4159705  42.1192393  51.4398228  16.1365123
  52.2523139  53.3965569  10.3841987  52.0057853  53.3161320  11.2178776
  52.5808262  52.6119036  10.1904515  52.2644382  53.2691834  10.4789510
  56.1471188  60.1048928  14.1728768  56.0085547  60.8029974  14.6777511
  55.3671186  59.9497584  13.8164950  56.0114415  60.1849095  14.1955043
  54.4849273  56.4045303  20.4251150  54.4797311  55.5325120  20.4293577
  55.1910267  56.6033472  19.9520606  54.5894277  56.3049178  20.3558185
  50.3840083  55.3312456  17.5790102  49.6363398  55.5243470  17.1738380
  50.5381609  54.5057675  17.3414223  50.2962511  55.2377567  17.4835508
  47.2847921  64.3225059  16.6625997  47.4337485  63.7627975  16.0099402
  48.0647923  64.4017061  17.0458516  47.4222015  64.2510625  16.6222946
  49.8101222  64.4939702  17.9410488  49.7344893  63.8248512  18.4961276
  49.7391081  65.1957490  18.4551154  49.7881829  64.4984609  18.0987336
  50.6241860  49.2263006  18.4685506  51.0814475  49.9586981  18.5958298
  50.6998189  48.8029472  19.2272761  50.7032830  49.2720244  18.5986582
  55.0969186  42.4052882  12.3379349  55.2152755  42.8629345  11.6046651
  54.9231362  41.5998143  12.0515566  55.0888357  42.3546654  12.1880282
  48.5024238  51.2165110  15.3127330  47.7120313  51.0356570  15.6344665
  48.8984861  50.4392063  15.2957624  48.4441115  51.0752571  15.3579878
  53.8867925  58.8507540  13.0386776  53.2112927  58.6192773  13.5400163
  53.8960301  58.2428723  12.4128881  53.7886429  58.7266466  13.0202928
  51.0162069  53.6925369  19.7950829  50.9521210  54.5535326  19.6670965
  51.1559256  53.3757363  18.9946380  51.0277539  53.7725536  19.6579041
  49.6981163  56.3857509  13.9367031  49.2743412  56.5862008  13.2006050
  49.5226018  55.5386357  14.0491331  49.6092043  56.2906290  13.8440722
  49.1992856  67.9008022  16.3988489  49.6888786  67.2018811  16.2164153
  48.6277088  67.6031892  16.9864546  49.1877386  67.7534245  16.4589529
  44.9863608  56.8809560   9.3695004  45.1428227  56.8156363  10.2250996
  45.3264201  57.6558113   9.1573684  45.0596842  56.9858758   9.4649598
  51.5242752  56.2567444   8.2388367  52.0658298  55.7537825   8.7026988
  51.8389311  56.2032638   7.4277852  51.6507149  56.1746865   8.1872179
  55.3959860  60.4670091  25.3515279  56.2094725  60.1955240  25.5120412
  55.2354826  60.1677631  24.5475475  55.4929808  60.3825017  25.2560685
  52.6732022  51.1503748  18.2910668  52.8873991  50.5114662  17.7374022
  52.0565921  51.5949572  17.8618529  52.6137351  51.1213892  18.1461099
  41.5597869  54.0644511   9.6855771  41.9396834  54.4829056   9.0216038
  40.9853234  54.6457966   9.9924614  41.5309194  54.2122369   9.6332512
  54.8371110  52.7592813  19.2293975  54.0247791  52.4518704  19.3107147
  55.2961044  52.2791814  19.7936687  54.7851494  52.6429306  19.3248569
  52.0646750  44.2603684  13.2798010  51.1940308  44.2342405  13.2331320
  52.3187091  44.0880876  12.4623856  51.9740310  44.2313828  13.1518147
  49.0895891  46.2709912  14.7371481  48.5734379  45.5790104  14.8623060
  48.5289820  46.9380689  14.6834080  48.9302404  46.2673170  14.7477547
  51.1588124  46.8102872  16.5664333  50.7719877  46.8351904  17.3477863
  50.6721061  46.2444551  16.1138850  51.0300633  46.7298623  16.6152237
  55.4081104  61.5276381  20.6238120  56.0460824  61.0336577  20.2900576
  54.7655195  61.4553782  20.0390347  55.4075330  61.4435390  20.4880475
  57.1338104  53.3765527  15.1904036  56.7065712  53.2891876  14.4352135
  56.4964157  53.4843303  15.7758880  56.9767711  53.3798187  15.1649477
  50.8245266  43.6969858  18.8574593  51.4538384  44.2330158  18.5795664
  50.9931129  43.6047217  19.7088159  50.9423060  43.7631220  18.9423121
  55.4635360  62.2196190  17.2643477  56.2527738  61.8685254  17.3845558
  55.6378958  63.0332578  17.0020110  55.6055642  62.2882047  17.2431345
  45.2028671  55.6304915  14.3171266  44.3616677  55.5308790  14.5250159
  45.4118679  56.4000396  14.6685586  45.1093363  55.7296959  14.3998580
  42.6804238  53.2524452  12.1456016  42.2860935  53.3267464  11.3706126
  42.1244354  53.6382399  12.6964378  42.5407050  53.3206227  12.1123676
  54.3169184  46.2305746  11.8259895  54.5218778  46.1628054  12.6716892
  53.9895608  47.0364568  11.7581073  54.2984432  46.3391687  11.9419550
  49.0145335  53.5586315  13.5668863  48.7108473  53.0042303  14.1679271
  48.3124756  53.7378525  13.0796897  48.8661545  53.5031097  13.5838569
  48.0711433  50.8686834   8.1313565  48.3471167  50.1505747   7.7191132
  48.6710102  51.4671754   7.9234671  48.2004697  50.8507205   8.0394326
  47.0763686  60.7736035  18.2740961  46.9684041  60.7838097  19.1403019
  47.2859468  61.5990816  18.0845915  47.0913798  60.8977110  18.3745052
  57.5702872  46.7837511  11.3062661  56.9577186  47.2707913  11.6916392
  57.6667047  46.1081001  11.8500312  57.4940770  46.7555819  11.4441519
  51.5721953  48.5400352   6.4060160  52.0265700  48.7110912   7.1308004
  52.0461999  47.9268462   6.0057936  51.7090273  48.4751237   6.4533921
  45.0937478  58.0248678  15.7362898  44.5025412  58.6658176  15.7065914
  45.8558502  58.4486295  15.7094198  45.1185739  58.1824516  15.7278046
  45.4898101  49.1850675  16.4030916  45.9499583  49.2589605  17.1406040
  45.5354208  49.9831929  16.0530737  45.5648657  49.3144822  16.4603673
  61.2127900  57.8554447  16.7340177  61.2711024  58.3041096  17.4800153
  60.5794368  58.2653260  16.2970257  61.1279195  57.9828182  16.7792725
  54.8526995  63.4757989  13.1694923  54.6546683  63.9648804  12.4751134
  54.2314706  63.6799231  13.7479056  54.7314559  63.5774527  13.1518146
  48.9134973  55.2442886   7.5105167  49.6577018  55.6317162   7.7488117
  49.0595669  54.4000311   7.6745655  49.0445558  55.1773359   7.5699137
  50.8314549  47.0393145  12.5437029  49.9850594  47.2115953  12.4178378
  50.8285681  46.2342489  12.8802857  50.7061698  46.9454174  12.5748156
  51.9012849  50.8168359  13.4099086  51.4272803  50.2910121  13.9204397
  52.2730985  50.2697832  12.8413948  51.8862738  50.6584356  13.4014234
  58.1649580  55.8770735  14.8205867  57.9247802  55.0377150  14.8248293
  58.6441587  55.9570902  15.5446640  58.2001763  55.7652135  14.9280669
  53.8296349  51.7104914   6.4724840  53.3019367  51.7933658   5.7830549
  54.2892057  52.4522785   6.4689485  53.8198199  51.8325576   6.3699535
  60.1654767  52.6572192  12.7735126  59.9264536  52.6168026  11.9355911
  60.3288668  53.5043344  12.9000847  60.1545070  52.7764277  12.6688608
  56.7700797  57.0422142  18.7040171  57.4934996  56.5894668  18.5251191
  56.5050759  57.3226807  17.9212499  56.8382070  57.0173110  18.5618887
  45.6387665  51.6382315  15.4393050  45.0140735  51.6500707  14.8319003
  45.3033260  52.1142490  16.0884291  45.4973157  51.7100832  15.4449619
  45.8229414  49.9807434   1.4965735  45.4742218  50.6327159   1.9597285
  45.3425860  49.9664547   0.7689607  45.6999658  50.0750487   1.4576827
  42.3513341  59.6982775  16.8796815  41.8213265  59.0075214  16.9291789
  42.6238434  59.6892960  16.0509523  42.3138063  59.5949907  16.7644231
  52.5519586  57.1406020  16.8535186  51.9376579  56.5964070  17.1483822
  53.0686871  56.6270256  16.3741002  52.5375249  56.9842429  16.8259415
  51.7915883  58.2110290  14.5879485  51.3643491  57.5860008  14.1544920
  51.7840828  57.9285212  15.4138492  51.7275025  58.0763070  14.6459313
  44.9078410  53.2475463  17.6567919  45.0671897  52.4918787  18.0619641
  44.7271304  53.7966402  18.3108657  44.9043769  53.2169277  17.8130625
  52.8498713  45.4136698  18.2118708  52.3539275  45.6100373  17.5210275
  53.6067775  45.8129367  18.0407510  52.8885538  45.5014432  18.0838845
  50.1201593  49.0879044  14.8022019  50.1444080  48.5539157  14.1134799
  50.3713067  48.5796353  15.4647610  50.1611512  48.9339948  14.7986664
  37.6309183  56.3710539  14.2365163  37.5252632  56.3257384  13.3717247
  36.8809403  56.7164320  14.5179448  37.5044786  56.4151447  14.1502493
  46.4002915  47.8149863  14.1827763  46.4401287  48.3159069  14.8962471
  45.5752580  47.9060256  13.9133686  46.2842441  47.9031679  14.2478301
  47.8217279  54.3310372  16.4801662  46.9909208  54.4984190  16.2736910
  47.7668796  53.9546323  17.2650548  47.6906693  54.3000104  16.5650190
  46.1953322  52.6065964   7.0091780  46.3356284  53.1038428   7.7120421
  46.6935855  51.9052258   7.1505994  46.2894403  52.5767943   7.1343359
  46.2253545  53.4733075   4.3384357  46.8598624  54.0693500   4.2733819
  46.3079156  53.1736533   5.1530227  46.3310096  53.5173983   4.4487443
  59.2036111  56.0048552  17.2070721  59.7953951  56.6445803  17.2388919
  59.6395105  55.3071589  17.4962788  59.3554542  55.9966903  17.2551554
  47.8032528  49.4047050   4.3129799  48.1248369  48.9250133   3.6589061
  48.0659471  50.2146696   4.1220610  47.8898553  49.4536948   4.1885291
  51.0329500  60.4265925  17.8328615  50.5254592  60.9801772  18.2769245
  50.7356147  60.4874215  17.0147389  50.9134385  60.5172236  17.7777072
  53.1991683  48.7919244  16.6753278  53.6246754  48.3391771  16.0636804
  52.5848676  48.2379315  16.9518065  53.1720328  48.6433221  16.6258303
  42.7306533  55.6700916   7.6073903  43.2398762  56.2665423   7.9885208
  43.2040805  55.4026889   6.9250322  42.8749908  55.7186731   7.5628426
  51.6385906  45.2634344  10.0843855  50.9954223  45.1131991  10.6528993
  51.2985313  45.0176689   9.3192960  51.4930983  45.2046467  10.0546870
  56.2285252  53.2193771   9.5073863  55.5576442  53.7623473   9.3786929
  56.9225002  53.6888626   9.2655558  56.2314119  53.3692042   9.4529391
  50.2771986  65.3590483  14.7385622  50.0537640  64.6009312  15.1069648
  49.7881829  65.3888504  14.0166061  50.1715435  65.2512707  14.6862363
  56.3913379  49.6749655  12.4164237  56.7440990  49.2479378  13.0910035
  55.5328181  49.5900498  12.5465313  56.3162824  49.5994395  12.5359247
  45.0897064  52.3057174  10.4747083  44.3709054  52.7221307  10.7419947
  45.4609427  52.8711413   9.9238721  45.0388996  52.4506456  10.4329890
  54.3896645  52.9385023  16.3649079  54.3694573  52.7568318  17.2183858
  54.4375846  53.8097042  16.3408663  54.3931286  53.0401561  16.4872374
  52.3342975  59.5272215  22.2897556  52.2938830  58.8821892  21.7042711
  53.1466293  59.4708833  22.6022968  52.4486129  59.4231182  22.2494505
  48.9250443  65.5790941  12.1922706  48.5110841  64.9165071  11.8026548
  49.6097817  65.7268800  11.6718401  48.9648814  65.5031599  12.0579204
  52.2915737  64.7381026  12.9446323  51.8932020  64.8483297  12.1767143
  51.6766956  64.9463093  13.5272883  52.1414626  64.7854594  12.9177622
  50.8643639  51.3455174   5.8120463  50.2708478  51.6672171   5.2605030
  50.9018917  50.4996270   5.6041569  50.7818028  51.2679502   5.7003234
  57.8237440  44.7968066  13.3448549  57.3168304  44.0897206  13.2769727
  58.6204873  44.4661255  13.4749626  57.8664679  44.6441218  13.3547544
  53.7401455  51.3034679   9.2422213  53.5115148  51.3267380   8.4000571
  53.9999532  50.4792146   9.3617223  53.7447643  51.1850759   9.1347411
  46.7946218  49.8411225  10.5376409  47.2703584  50.2028305   9.9026590
  46.2934818  50.4967693  10.8176551  46.7911577  49.9905414  10.4853150
  51.8989754  51.0793396  21.2849569  52.4561184  50.8507206  20.6528034
  51.5750819  51.8399062  21.0084781  51.9336164  51.1577233  21.1506066
  48.8372871  51.9852425   3.9049793  49.2171836  52.0032054   3.1200907
  48.0965467  52.4306414   3.7840640  48.7841709  52.0534199   3.7713361
  56.4658162  50.2934616   9.4925371  56.4652388  50.1383273  10.3509648
  56.2614342  51.1397603   9.4366757  56.4357939  50.3955237   9.6113311
  38.5275433  53.7174400  13.9084188  38.3497194  53.2651009  14.6339103
  38.2394455  54.5200562  14.0922665  38.4588386  53.7696958  14.0427691
  54.1899014  54.9732118  13.1461578  54.6852679  54.2555113  13.1065598
  53.3798789  54.6702915  13.0316065  54.1442907  54.8229764  13.1235304
  40.2647902  56.2502124  11.0205947  39.3993422  56.2387815  10.9088718
  40.3646718  56.0632347  11.8677086  40.1522069  56.2208185  11.1294891
  56.2550832  57.7235805  15.8338707  56.6805904  57.2010227  15.2809132
  55.8907752  58.3216643  15.3127330  56.2637435  57.7346032  15.6747717
  45.8904912  66.0200023  14.5936052  46.2051471  66.8336411  14.6013834
  46.2998326  65.6350241  15.2618212  45.9973010  66.0828725  14.6940144
  52.8429432  61.4370070  12.1639864  53.3140610  62.1510332  12.3329850
  53.1789610  60.8368820  12.6999734  52.9624547  61.4541534  12.2672240
  54.9306417  63.0471383  24.3431936  55.0403382  62.2579944  24.6988684
  55.2597313  62.9577319  23.5406275  54.9958822  62.9177236  24.2774327
  53.4803378  61.2288004  18.9267557  52.9324324  60.6045887  18.6587622
  53.9416407  61.4182276  18.2111636  53.4670588  61.1647054  18.7817988
  52.8331282  43.1327866  15.7179052  52.0277246  43.0225596  16.0346891
  52.7038018  43.2340322  14.8608918  52.6951415  43.1311536  15.6387093
  56.2897243  49.2973358  16.3118749  55.7060231  49.7982565  15.8996317
  56.6101537  48.7902914  15.6783073  56.2510418  49.2965193  16.1577257
  48.8292042  48.2113953   6.5877424  49.6507736  48.3812266   6.3459119
  48.3661693  48.3661214   5.8643722  48.8823204  48.2595686   6.4449068
  47.4187374  46.2056715  17.3675853  47.9631787  45.8647842  17.9580195
  47.4724309  47.0642177  17.5097137  47.5076493  46.2811975  17.4757726
  43.2317932  59.9673131  14.2414661  43.8362790  59.9268965  13.6128482
  43.0245245  60.8144283  14.2718717  43.2906830  60.0861134  14.1530777
  53.0461705  62.2339076  15.4576898  53.8660078  62.0902042  15.7193193
  52.7655782  62.8585275  15.9993336  53.1258448  62.3049428  15.5764838
  38.4669215  58.9507749  14.1113584  38.3693493  58.1404020  14.4203641
  39.2498084  58.9299542  13.7259852  38.5685351  58.8274839  14.1000447
  53.9025200  70.2618988  15.9752919  53.7783897  70.8481434  16.6102738
  54.5543485  69.7679184  16.2765194  53.9798850  70.2757792  16.1138849
  57.3406408  70.1798409  21.3881944  57.5126912  70.0704304  22.2367225
  57.8775766  70.8252815  21.1513136  57.4451412  70.2590411  21.4787040
  56.3966732  66.3108719  18.8701872  55.7038529  65.8405698  19.1162603
  57.0127059  66.0847023  19.4443579  56.3851262  66.2075851  18.9911024
  55.1207291  70.2774123  20.0128717  55.8447263  70.2627153  20.4993611
  55.2223427  70.9869478  19.5150685  55.2425500  70.3798826  20.0107504
  62.4952240  73.7573207  24.8777664  61.7025221  74.0716719  25.0630283
  62.6101167  73.9724676  24.0398448  62.3947651  73.8357044  24.7815998
  61.4207752  68.1177788  17.2141431  61.0322185  67.6932006  16.5593622
  60.7562451  68.3659938  17.7218458  61.2654680  68.0916509  17.1929299
  59.2025954  64.3206615  24.5928024  58.8879395  65.0906178  24.3297586
  58.8815887  63.7576871  24.0080251  59.1084873  64.3516884  24.4669374
  65.8790740  62.8574996  18.5385542  66.6244332  62.6684806  18.1248967
  65.4628045  63.3833234  17.9799398  65.9275714  62.9077141  18.3950115
  58.8342460  66.9203866  23.3313239  58.0242235  67.2261646  23.2203081
  59.3117146  67.6409448  23.4465823  58.7845938  67.0718467  23.3320310
  55.1686492  72.4566416  18.2012641  55.6807589  72.7350670  17.5521401
  54.8822834  73.1955710  18.5675454  55.2021355  72.6068770  18.1602519
  58.6870217  64.5492805  18.2613682  58.4953414  64.5647939  19.1113106
  59.5368813  64.7456479  18.2380337  58.7845939  64.5807156  18.3836977
  53.0717130  67.0783786  16.2397499  52.9302622  66.2267727  16.3642007
  53.3557693  67.1212447  15.4159705  53.0924976  66.9583536  16.1365123
  59.1852750  71.6507595  19.7964970  59.3296125  72.2308803  19.1608080
  59.5328398  72.0283892  20.5014825  59.2580211  71.7928299  19.8063965
  53.8407435  64.9914134  19.5574949  53.3049625  64.3794492  19.8735717
  53.9025200  65.5662270  20.2108616  53.7703068  64.9861062  19.7010376
  59.4756822  66.7350418  15.3127330  58.6852897  66.5541878  15.6344665
  59.8717445  65.9577371  15.2957624  59.4173698  66.5937879  15.3579878
  61.9894652  69.2110677  19.7950829  61.9253793  70.0720634  19.6670965
  62.1291840  68.8942670  18.9946380  62.0010122  69.2910844  19.6579041
  63.6464605  66.6689056  18.2910668  63.8606575  66.0299970  17.7374022
  63.0298504  67.1134880  17.8618529  63.5869934  66.6399200  18.1461099
  65.8103693  68.2778121  19.2293975  64.9980375  67.9704012  19.3107147
  66.2693628  67.7977121  19.7936687  65.7584078  68.1614614  19.3248569
  62.9057201  69.6838193  24.0122677  63.3756832  70.3080309  24.3990551
  62.9519081  69.0155168  24.5715892  62.9825076  69.6772873  24.1522748
  60.0628474  61.7895220  14.7371481  59.5466963  61.0975412  14.8623060
  59.5022403  62.4565997  14.6834080  59.9034988  61.7858478  14.7477547
  62.1320708  62.3288180  16.5664333  61.7452461  62.3537212  17.3477863
  61.6453645  61.7629859  16.1138850  62.0033217  62.2483931  16.6152237
  61.7977849  59.2155166  18.8574593  62.4270967  59.7515466  18.5795664
  61.9663712  59.1232525  19.7088159  61.9155644  59.2816528  18.9423121
  61.5991764  64.0026360  21.1301005  62.4265194  63.7311509  21.1859619
  61.6199610  64.7987202  21.4864823  61.7244614  64.0806115  21.1916188
  56.4630685  64.7035983  16.4030916  56.9232166  64.7774913  17.1406040
  56.5086792  65.5017237  16.0530737  56.5381240  64.8330130  16.4603673
  58.1114035  65.3702678  20.9702943  57.7199600  64.7236025  21.4058721
  58.2799897  65.9614113  21.5897199  58.0784945  65.3616946  21.1265649
  53.2518463  68.3325174  18.7782632  54.1144076  68.2320883  18.6919962
  52.9210246  67.7519883  18.2168204  53.3303659  68.2316801  18.6828038
  56.6120249  67.1567623  15.4393050  55.9873319  67.1686015  14.8319003
  56.2765843  67.6327798  16.0884291  56.4705740  67.2286140  15.4449619
  55.8810994  68.7660771  17.6567919  56.0404481  68.0104095  18.0619641
  55.7003888  69.3151710  18.3108657  55.8776353  68.7354585  17.8130625
  63.8231297  60.9322006  18.2118708  63.3271858  61.1285681  17.5210275
  64.5800359  61.3314675  18.0407510  63.8618122  61.0199740  18.0838845
  57.3735499  63.3335171  14.1827763  57.4133870  63.8344377  14.8962471
  56.5485163  63.4245564  13.9133686  57.2575025  63.4216987  14.2478301
  59.5565112  72.8995910  22.2848058  58.7060742  73.0367625  22.4205703
  59.7193239  72.1659689  22.7295760  59.4548975  72.8110012  22.3703657
  56.6033645  63.3404573  22.1158073  57.2286349  62.7966706  22.3887505
  56.1484125  62.8599491  21.5465863  56.6281906  63.1894055  22.0719667
  64.1724266  64.3104552  16.6753278  64.5979338  63.8577079  16.0636804
  63.5581259  63.7564623  16.9518065  64.1452912  64.1618529  16.6258303
  63.3075559  75.0457523  22.2897556  63.2671414  74.4007200  21.7042711
  64.1198877  74.9894141  22.6022968  63.4218712  74.9416490  22.2494505
  58.9953267  68.6754460  18.8447313  58.4832170  68.0675643  19.2032345
  58.8232764  69.3911052  19.3121289  58.8942904  68.6917759  18.9663537
  53.8418982  67.1192035  21.4949675  53.6721572  67.7793410  20.9497882
  53.3984932  67.3298596  22.2162164  53.7518316  67.2478017  21.5211304
  62.8722338  66.5978704  21.2849569  63.4293768  66.3692514  20.6528034
  62.5483403  67.3584370  21.0084781  62.9068748  66.6762541  21.1506066
  50.7421047  70.0238901  16.7538165  50.1947766  69.3539546  16.8719033
  51.5313425  69.6568748  16.8181632  50.7773230  69.8703887  16.7806865
  60.5905455  69.6846358  22.2501576  61.3416782  69.9998034  22.5641130
  60.7828031  69.4825529  21.4235498  60.7296869  69.7013739  22.1744972
  49.5008016  69.2359708  13.9084188  49.3229777  68.7836317  14.6339103
  49.2127038  70.0385870  14.0922665  49.4320969  69.2882266  14.0427691
  60.7331510  61.7282848  19.1197959  60.8659416  60.9313841  19.4478935
  61.1176663  62.2549251  19.6996235  60.8087839  61.6882765  19.2541462
  63.8063866  58.6513174  15.7179052  63.0009829  58.5410904  16.0346891
  63.6770601  58.7525630  14.8608918  63.6683998  58.6496844  15.6387093
  58.3919957  61.7242023  17.3675853  58.9364370  61.3833150  17.9580195
  58.4456893  62.5827485  17.5097137  58.4809077  61.7997282  17.4757726
  43.7754413  21.1473620   9.7173208  44.4821180  20.6525651   9.8460142
  43.9642349  21.5882702   8.9875866  43.9082319  21.1391970   9.6282253
  36.2687332  29.3445794  -0.4572388  36.9124788  29.7858958  -0.0676230
  36.5943588  28.5399220  -0.5442129  36.4119161  29.2910988  -0.4126911
  40.9146707  24.5701157   7.6087283  41.0030053  24.3827297   8.4565494
  41.3436420  23.9238586   7.2092130  40.9908810  24.4464164   7.6759035
  38.4817167  23.8532317   6.5904945  37.9188002  23.4404926   7.1144607
  39.2438191  23.7785222   7.0098089  38.5111616  23.7809717   6.7297946
  35.0892065  16.0805925   8.3221991  35.2612569  15.9711819   9.1707272
  35.6261423  16.7260330   8.0853183  35.1937069  16.1597926   8.4127087
  41.0266767  24.0010176  10.2731067  41.8107183  24.1141023  10.6386809
  40.8263361  23.1751313  10.4689753  41.1132792  23.8956895  10.3565453
  41.1837160  25.9120278   3.9197522  40.3852406  25.6719778   4.1771391
  41.6323172  25.9634671   4.6664570  41.1311771  25.8842669   4.0682447
  40.2437897  19.6580723  11.8117711  39.4510878  19.9724234  11.9970330
  40.3586824  19.8732191  10.9738495  40.1433307  19.7364559  11.7156045
  41.1721690  19.5600926   6.7503007  41.7460551  18.9228171   6.9051571
  41.0936493  19.5605009   5.8812665  41.2454925  19.4666038   6.6449418
  46.4941838  20.9309904   6.7587860  46.2580475  20.0997969   6.6399921
  47.1385067  20.8795511   7.3442705  46.5536508  20.8007592   6.8273754
  36.9511611  10.2214130  11.5268071  36.6365052  10.9913693  11.2637633
  36.6301544   9.6584386  10.9420297  36.8570530  10.2524399  11.4009420
  47.5178258  20.7154353   2.8216155  47.2124075  21.4482410   3.1829471
  46.7984474  20.3092282   2.5408941  47.3665600  20.7636086   2.8329292
  53.2180050  17.3547353   2.1484499  53.1504551  17.3743312   1.2787086
  53.2035713  18.1977681   2.3740170  53.2058807  17.4821088   2.0536976
  37.6561059  19.9630337   4.9690987  37.1572752  20.6746105   5.0475875
  38.4661283  20.2831003   4.9309149  37.7017165  20.1157185   4.9747556
  36.5828117  12.8211381  10.2653285  35.7727892  13.1269161  10.1543128
  37.0602803  13.5416964  10.3805869  36.5331595  12.9725982  10.2660356
  44.8689428  21.5241751   1.1068815  44.7303787  22.2222797   1.6117558
  44.0889426  21.3690408   0.7504997  44.7332655  21.6041918   1.1295089
  43.2067513  17.8238127   7.3591197  43.2015552  16.9517943   7.3633623
  43.9128507  18.0226296   6.8860653  43.3112517  17.7242001   7.2898232
  36.9338406  17.5515110   6.7305017  37.0781782  18.1316319   6.0948127
  37.2814055  17.9291407   7.4354872  37.0065868  17.6935814   6.7404012
  36.0066161  25.7417882   3.5966044  36.1555725  25.1820798   2.9439448
  36.7866164  25.8209884   3.9798563  36.1440255  25.6703448   3.5562993
  38.5319462  25.9132525   4.8750535  38.4563133  25.2441336   5.4301323
  38.4609321  26.6150313   5.3891201  38.5100069  25.9177432   5.0327383
  39.7380309  15.1118193   6.7290875  39.6739450  15.9728149   6.6011012
  39.8777497  14.7950186   5.9286427  39.7495779  15.1918359   6.5919088
  37.9211096  29.3200845   3.3328536  38.4107027  28.6211634   3.1504200
  37.3495329  29.0224715   3.9204593  37.9095626  29.1727069   3.3929576
  44.1178100  21.8862914  12.2855326  44.9312965  21.6148063  12.4460459
  43.9573066  21.5870454  11.4815522  44.2148048  21.8017840  12.1900732
  43.5589350  14.1785637   6.1634022  42.7466032  13.8711527   6.2447194
  44.0179285  13.6984637   6.7276734  43.5069735  14.0622129   6.2588616
  40.6542857  15.5845708  10.9462724  41.1242489  16.2087824  11.3330598
  40.7004738  14.9162684  11.5055939  40.7310733  15.5780388  11.0862795
  44.1299344  22.9469205   7.5578167  44.7679064  22.4529400   7.2240623
  43.4873436  22.8746605   6.9730394  44.1293570  22.8628213   7.4220522
  44.1853601  23.6389013   4.1983524  44.9745979  23.2878078   4.3185605
  44.3597198  24.4525401   3.9360157  44.3273882  23.7074870   4.1771391
  35.7981927  22.1928858   5.2081008  35.6902282  22.2030921   6.0743066
  36.0077708  23.0183639   5.0185961  35.8132038  22.3169933   5.3085099
  49.9346140  19.2747271   3.6680223  49.9929264  19.7233919   4.4140200
  49.3012608  19.6846083   3.2310303  49.8497435  19.4021005   3.7132772
  43.5745235  24.8950812   0.1034970  43.3764924  25.3841627  -0.5908819
  42.9532946  25.0992054   0.6819103  43.4532800  24.9967351   0.0858193
  45.4919037  18.4614965   5.6380218  46.2153236  18.0087491   5.4591238
  45.2268999  18.7419630   4.8552546  45.5600310  18.4365933   5.4958933
  41.2737827  18.5598843   3.7875233  40.6594820  18.0156893   4.0823868
  41.7905111  18.0463079   3.3081049  41.2593489  18.4035252   3.7599462
  37.3050768  18.8003426   9.2188105  36.4546399  18.9375140   9.3545750
  37.4678896  18.0667204   9.6635806  37.2034632  18.7117527   9.3043704
  47.9254351  17.4241376   4.1410768  48.5172191  18.0638626   4.1728966
  48.3613345  16.7264412   4.4302835  48.0772782  17.4159726   4.1891600
  39.7547741  21.8458748   4.7668662  39.2472832  22.3994595   5.2109292
  39.4574387  21.9067038   3.9487436  39.6352626  21.9365059   4.7117118
  38.9990226  26.7783306   1.6725669  38.7755881  26.0202136   2.0409695
  38.5100069  26.8081327   0.9506108  38.8933675  26.6705531   1.6202410
  41.0561215  20.9465038   9.2237602  41.0157070  20.3014715   8.6382758
  41.8684534  20.8901656   9.5363014  41.1704369  20.8424005   9.1834551
  41.0133977  26.1573850  -0.1213630  40.6150260  26.2676120  -0.8892810
  40.3985197  26.3655916   0.4612930  40.8632866  26.2047418  -0.1482331
  40.6207995  12.4986220   8.2189615  41.1779425  12.2700029   7.5868081
  40.2969060  13.2591885   7.9424828  40.6554405  12.5770056   8.0846113
  38.3391112  15.5853873   9.1841623  39.0902439  15.9005550   9.4981177
  38.5313688  15.3833044   8.3575544  38.4782526  15.6021255   9.1085018
  44.9769073  19.1428629   2.7678754  45.4024144  18.6203050   2.2149179
  44.6125993  19.7409466   2.2467377  44.9855675  19.1538856   2.6087763
  34.6123153  27.4392846   1.5276099  34.9269712  28.2529234   1.5353881
  35.0216566  27.0543065   2.1958258  34.7191251  27.5021548   1.6280191
  43.6524657  24.4664206  11.2771983  43.7621622  23.6772767  11.6328730
  43.9815553  24.3770142  10.4746321  43.7177063  24.3370059  11.2114374
  42.2021619  22.6480827   5.8607604  41.6542565  22.0238711   5.5927669
  42.6634647  22.8375099   5.1451683  42.1888828  22.5839877   5.7158035
  41.7679945  23.6531900   2.3916945  42.5878319  23.5094866   2.6533240
  41.4874023  24.2778099   2.9333383  41.8476688  23.7242252   2.5104884
  51.4393280  30.3972402   0.1112752  50.5831176  30.5580901   0.1621869
  51.4860934  29.5264466   0.1317813  51.3192392  30.2923204   0.1218818
  45.8234420  39.9335120  -4.1250017  45.0717319  39.5550659  -4.3533972
  46.2720432  39.9653554  -4.8731206  45.7784087  39.8820727  -4.2692514
  54.7486997  36.6658928   9.7173208  55.4553764  36.1710959   9.8460142
  54.9374932  37.1068009   8.9875866  54.8814902  36.6577278   9.6282253
  54.2845101  32.4564446   2.7544403  54.8301061  33.1349533   2.8138373
  54.2261977  32.3151907   1.8945985  54.3561016  32.5356448   2.6356464
  47.4019176  39.9453512  -1.8587244  47.5029539  39.1353866  -1.5490116
  46.8060921  39.8510459  -2.4887566  47.3291715  39.8118540  -1.9061006
  47.2419916  44.8631102  -0.4572388  47.8857371  45.3044266  -0.0676230
  47.5676171  44.0584528  -0.5442129  47.3851744  44.8096296  -0.4126911
  40.5984220  35.9673799  -2.2334910  40.3634405  35.1341451  -2.3402642
  40.7369861  36.2478465  -3.0473710  40.5839883  35.8857302  -2.3692555
  42.8974308  28.1359530   0.6649397  42.2779339  27.5452177   0.4959412
  42.7958171  28.7270965   0.0313720  42.7911983  28.1363612   0.5454387
  49.9942203  29.8759071  -5.0018140  50.6922368  30.0547199  -4.5096676
  50.3094536  29.3529411  -5.6247750  50.1437541  29.8252843  -5.0216130
  42.6243441  31.6811811   2.9092966  42.5002138  32.2674257   3.5442785
  43.2761725  31.1872007   3.2105241  42.7017090  31.6950616   3.0478895
  50.1830139  36.2629516  -5.0138348  50.6223774  35.6546617  -4.5683575
  50.0334802  35.8836890  -5.7852883  50.2251604  36.1167987  -5.0619181
  47.6501782  34.8573528   2.1880477  48.2950784  34.3645971   1.8691426
  47.8903559  34.9998315   3.0146556  47.7812367  34.8050970   2.2630010
  50.1887873  37.7028434   1.8387370  50.4711116  36.9079840   1.6174126
  50.9174034  38.1809022   1.8592431  50.3377437  37.6563031   1.8090385
  48.1669067  25.2451468  -0.9196865  47.8372397  25.6962612  -1.5893166
  47.4914069  25.1667631  -0.3723859  48.0179503  25.3002603  -0.9373642
  60.1705961  36.8087796  -1.1876799  59.3403665  37.0198440  -1.0243383
  60.1215214  35.9824851  -1.4634516  60.0412697  36.7177403  -1.2039434
  42.1601545  40.8459470  -0.9578704  41.6769123  41.5709959  -0.9819121
  42.9724863  41.1435600  -0.8468547  42.2092293  40.9961823  -0.9451425
  48.2315699  39.6391650   1.6471110  47.7142641  39.2799065   1.0432418
  48.9290090  39.1153825   1.6577176  48.2581280  39.5089338   1.5601369
  51.8879291  40.0886465   7.6087283  51.9762637  39.9012605   8.4565494
  52.3169004  39.4423894   7.2092130  51.9641393  39.9649472   7.6759035
  49.4549751  39.3717624   6.5904945  48.8920586  38.9590234   7.1144607
  50.2170774  39.2970530   7.0098089  49.4844199  39.2995025   6.7297946
  45.0145742  41.3615646  -0.8058425  45.7166322  40.8467635  -0.7485668
  44.9343225  41.6889797  -0.0011549  45.1069503  41.3329872  -0.6785632
  59.6659920  29.4558197   2.6073622  58.8288341  29.5260384   2.8421216
  59.6348151  29.4582692   1.7347924  59.5378202  29.4668424   2.5133170
  46.0624649  31.5991233   8.3221991  46.2345153  31.4897127   9.1707272
  46.5994006  32.2445638   8.0853183  46.1669653  31.6783234   8.4127087
  44.3396518  37.5521998  -1.2972816  45.1785417  37.7844930  -1.2499055
  44.3708287  36.6826309  -1.3665781  44.4678235  37.4578944  -1.3008172
  44.9649221  37.9722873   3.0040489  45.5047446  37.8294004   3.6743861
  44.2819167  38.3719624   3.3724515  44.9441375  38.0102544   3.1574911
  54.3890106  33.6513873  -1.8014487  55.1447621  34.0845388  -1.7625578
  54.4952430  33.0018643  -1.2279851  54.5160276  33.6191357  -1.7116461
  57.4270277  37.4787151  -1.0512084  56.9905509  37.4823893  -0.2953112
  57.0933192  38.1592650  -1.4832506  57.3132897  37.5799607  -1.0031251
  51.9999350  39.5195484  10.2731067  52.7839767  39.6326331  10.6386809
  51.7995945  38.6936621  10.4689753  52.0865376  39.4142203  10.3565453
  40.3686366  34.1923164   3.1574911  40.1024781  33.3762280   3.3165901
  40.3824930  34.2376319   2.2870426  40.3311088  34.0780068   3.0528393
  57.3467760  24.5200979   1.1917344  57.9893668  24.5899083   1.7779260
  57.5990780  23.8530201   0.6896886  57.4789892  24.4327327   1.2044624
  45.1184972  27.7301542   5.8041918  44.4256769  27.2598522   6.0502650
  45.7345299  27.5039846   6.3783625  45.1069502  27.6268674   5.9251071
  52.1569744  41.4305586   3.9197522  51.3584989  41.1905086   4.1771391
  52.6055755  41.4819978   4.6664570  52.1044355  41.4027977   4.0682447
  60.5614623  34.1968071  -2.1592446  61.2231057  33.6358739  -2.2596538
  59.9206035  33.7020101  -1.8339755  60.5643490  34.0404480  -2.1260106
  40.7779779  34.9781943   0.4386655  40.5955353  34.9528829  -0.4141053
  41.5129448  35.4480881   0.4775564  40.8593843  35.0443305   0.3184573
  56.8479454  35.2133453  -2.4180458  57.0835043  35.3578652  -3.2453607
  56.9969017  35.9775861  -2.0248944  56.9045257  35.3472507  -2.4816854
  43.8425531  31.6966946   6.9468764  44.5665503  31.6819977   7.4333658
  43.9441668  32.4062301   6.4490732  43.9643740  31.7991649   6.9447550
  51.2170481  35.1766031  11.8117711  50.4243461  35.4909542  11.9970330
  51.3319408  35.3917499  10.9738495  51.1165891  35.2549867  11.7156045
  53.8901799  31.9000022  -3.8987274  53.9848654  32.6389316  -3.4447648
  53.2660643  31.4717497  -3.4652709  53.8110830  31.9461342  -3.7679126
  52.1454273  35.0786234   6.7503007  52.7193135  34.4413478   6.9051571
  52.0669077  35.0790317   5.8812665  52.2187508  34.9851346   6.6449418
  40.7450690  31.8575444   0.5885721  41.3224192  31.7211894   1.2277967
  40.0464751  31.4011228   0.8431306  40.7271711  31.7697710   0.7208011
  47.5017992  33.5109499  -1.1975795  47.2437236  32.6781234  -1.2244496
  47.5566475  33.7367112  -2.0383295  47.4717770  33.4207271  -1.3255659
  52.5819042  25.6137950  -1.0971703  51.8775369  25.1247136  -0.9387784
  52.6304016  25.6260425  -1.9683258  52.4849094  25.5427598  -1.2032363
  46.4752704  31.0647262  -0.7110901  45.9002295  31.2239430  -0.0746940
  46.0988380  30.4282671  -1.1742450  46.3355516  30.9945075  -0.6856342
  50.1425993  29.5370611   4.1481478  49.7540425  29.1124829   3.4933669
  49.4780691  29.7852761   4.6558504  49.9872921  29.5109332   4.1269346
  53.9652354  23.2345240   1.6605462  54.3462866  22.5523411   2.0473336
  53.1615639  22.9454842   1.4781127  53.9028816  23.0912288   1.6909518
  57.4674421  36.4495212   6.7587860  57.2313059  35.6183277   6.6399921
  58.1117650  36.3980819   7.3442705  57.5269092  36.3192900   6.8273754
  47.1172839  37.2390733  -2.5269403  47.7546786  37.0002481  -1.9817610
  47.5427911  37.4427892  -3.2616243  47.2749005  37.2341743  -2.5552246
  41.8085482  39.4779070   1.3564901  41.8489627  39.7493921   0.5284680
  42.3680006  40.0020978   1.7722689  41.8968828  39.5954825   1.2956789
  47.9244195  25.7399438  11.5268071  47.6097636  26.5099001  11.2637633
  47.6034127  25.1769694  10.9420297  47.8303114  25.7709707  11.4009420
  58.4910842  36.2339661   2.8216155  58.1856659  36.9667717   3.1829471
  57.7717057  35.8277590   2.5408941  58.3398184  36.2821394   2.8329292
  49.4994311  37.7163156  -0.8475617  49.5733319  37.5538328   0.0066233
  50.3163818  37.9053345  -1.0915135  49.6310670  37.7199898  -0.7577591
  64.1912634  32.8732661   2.1484499  64.1237134  32.8928620   1.2787086
  64.1768296  33.7162989   2.3740170  64.1791390  33.0006396   2.0536976
  43.2600068  38.0621019  -3.8181173  42.4338186  38.3082756  -3.9446895
  43.3212059  37.9833099  -2.9519115  43.1474235  38.0865968  -3.7092229
  54.6008980  24.2767819   5.4725589  55.3462572  24.0877629   5.0589014
  54.1846285  24.8026057   4.9139445  54.6493955  24.3269964   5.3290162
  61.9771251  31.6477048   0.4231094  62.5279173  31.0145117   0.6628186
  61.9615367  32.1792440   1.1146598  62.0556448  31.6325996   0.5609952
  48.6293642  35.4815645   4.9690987  48.1305336  36.1931412   5.0475875
  49.4393866  35.8016311   4.9309149  48.6749749  35.6342493   4.9747556
  45.9804813  42.6565281  -3.0501994  45.7605108  42.3662636  -2.2575327
  45.7599335  41.9980236  -3.5784081  45.9152407  42.5164990  -3.0113085
  44.8921760  34.7438598  -0.7846292  44.6035008  34.1176069  -0.2500565
  45.7605108  34.6858885  -0.7181612  44.9782012  34.6426142  -0.6955337
  55.6799657  29.8873381  -0.4664310  55.3364423  29.1663716  -0.1157061
  55.7792700  29.6787232  -1.3085952  55.6441700  29.7497584  -0.5392630
  45.0954033  36.3833849  -4.8603927  45.8500001  36.7646888  -4.6468464
  44.5024646  36.8344992  -4.4057230  45.1190747  36.5062676  -4.7621049
  47.5560700  28.3396689  10.2653285  46.7460476  28.6454469  10.1543128
  48.0335387  29.0602272  10.3805869  47.5064179  28.4911290  10.2660356
  46.4152260  37.5542410   0.5136188  45.8933013  37.6942702   1.1988053
  46.8026280  36.7953074   0.7038306  46.3955961  37.4627934   0.6437265
  47.8418585  34.5846429  -4.0882321  47.6461368  35.1921164  -4.6822018
  48.0652931  33.8914373  -4.5690647  47.8453226  34.5723955  -4.2466240
  46.2397115  31.4701167  -3.9701452  46.9619767  31.6342325  -4.4297646
  45.7605108  32.1910832  -4.0762112  46.2760846  31.5999397  -4.0535838
  54.1990623  27.8064966   1.4095233  53.3601724  27.8326245   1.1733496
  54.2694990  28.4535701   1.9900579  54.0859016  27.9061092   1.4604350
  43.8904732  33.8759240   5.1352688  44.4025829  34.1543493   4.4861447
  43.6041075  34.6148534   5.5015501  43.9239595  34.0261593   5.0942566
  58.0748147  33.0132953  -1.3043526  57.9882121  33.1688379  -0.4508747
  57.6198627  33.6571028  -1.6784120  57.9951403  33.1308708  -1.2336419
  47.4088457  25.9685628   5.1953729  47.2171654  25.9840763   6.0453153
  48.2587053  26.1649302   5.1720384  47.5064179  25.9999979   5.3177024
  41.7935370  28.4976610   3.1737546  41.6520862  27.6460550   3.2982054
  42.0775934  28.5405270   2.3499752  41.8143217  28.3776360   3.0705170
  51.9473963  30.3343700  -2.6817966  51.7008677  30.2539451  -1.8481177
  52.2759086  29.5497168  -2.8755439  51.9595206  30.2069965  -2.5870443
  55.8422012  37.0427059   1.1068815  55.7036371  37.7408105   1.6117558
  55.0622009  36.8875716   0.7504997  55.7065238  37.1227226   1.1295089
  54.1800097  33.3423435   7.3591197  54.1748135  32.4703251   7.3633623
  54.8861091  33.5411604   6.8860653  54.2845101  33.2427309   7.2898232
  47.9070990  33.0700418   6.7305017  48.0514366  33.6501627   6.0948127
  48.2546639  33.4476715   7.4354872  47.9798451  33.2121122   6.7404012
  50.0790907  32.2690587   4.5130149  49.3314221  32.4621601   4.1078427
  50.2332433  31.4435806   4.2754270  49.9913335  32.1755698   4.4175555
  46.9798745  41.2603190   3.5966044  47.1288309  40.7006106   2.9439448
  47.7598747  41.3395192   3.9798563  47.1172839  41.1888756   3.5562993
  49.5052046  41.4317833   4.8750535  49.4295717  40.7626644   5.4301323
  49.4341905  42.1335621   5.3891201  49.4832653  41.4362740   5.0327383
  50.3192684  26.1641137   5.4025552  50.7765299  26.8965112   5.5298345
  50.3949013  25.7407603   6.1612808  50.3983654  26.2098376   5.5326629
  42.5625676  26.4106957   6.4914996  42.0267865  25.7987315   6.8075763
  42.6243440  26.9855093   7.1448663  42.4921308  26.4053885   6.6350423
  48.1975062  28.1543241   2.2467376  47.4071137  27.9734702   2.5684712
  48.5935685  27.3770194   2.2297671  48.1391939  28.0130702   2.2919925
  53.5818749  35.7885672  -0.0273178  52.9063750  35.5570904   0.4740209
  53.5911125  35.1806854  -0.6531073  53.4837253  35.6644597  -0.0457025
  50.7112893  30.6303501   6.7290875  50.6472034  31.4913457   6.6011012
  50.8510080  30.3135494   5.9286427  50.7228363  30.7103667   6.5919088
  49.3931987  33.3235640   0.8707078  48.9694236  33.5240139   0.1346097
  49.2176842  32.4764488   0.9831378  49.3042867  33.2284421   0.7780768
  48.8943680  44.8386153   3.3328536  49.3839610  44.1396942   3.1504200
  48.3227912  44.5410023   3.9204593  48.8828210  44.6912377   3.3929576
  44.6814432  33.8187691  -3.6964949  44.8379051  33.7534494  -2.8408957
  45.0215025  34.5936244  -3.9086270  44.7547666  33.9236889  -3.6010355
  51.2193576  33.1945575  -4.8271586  51.7609122  32.6915956  -4.3632965
  51.5340135  33.1410770  -5.6382101  51.3457973  33.1124996  -4.8787774
  55.0910684  37.4048222  12.2855326  55.9045549  37.1333371  12.4460459
  54.9305650  37.1055762  11.4815522  55.1880632  37.3203148  12.1900732
  52.3682846  28.0881879   5.2250714  52.5824815  27.4492794   4.6714068
  51.7516745  28.5327703   4.7958576  52.3088175  28.0592023   5.0801146
  41.2548693  31.0022642  -3.3804182  41.6347658  31.4207187  -4.0443915
  40.6804058  31.5836097  -3.0735339  41.2260018  31.1500501  -3.4327441
  54.5321934  29.6970945   6.1634022  53.7198615  29.3896835   6.2447194
  54.9911868  29.2169945   6.7276734  54.4802318  29.5807437   6.2588616
  51.7597574  21.1981815   0.2138057  50.8891132  21.1720536   0.1671367
  52.0137915  21.0259007  -0.6036097  51.6691134  21.1691959   0.0858194
  51.6275441  31.1031016  10.9462724  52.0975072  31.7273132  11.3330598
  51.6737321  30.4347992  11.5055939  51.7043317  31.0965696  11.0862795
  48.7846715  23.2088043   1.6711528  48.2685203  22.5168235   1.7963107
  48.2240644  23.8758821   1.6174126  48.6253228  23.2051301   1.6817594
  50.8538948  23.7481004   3.5004380  50.4670701  23.7730035   4.2817910
  50.3671885  23.1822682   3.0478897  50.7251457  23.6676754   3.5492284
  55.1031928  38.4654512   7.5578167  55.7411648  37.9714708   7.2240623
  54.4606019  38.3931913   6.9730394  55.1026154  38.3813521   7.4220522
  56.8288928  30.3143658   2.1244082  56.4016536  30.2270007   1.3692182
  56.1914981  30.4221434   2.7098926  56.6718535  30.3176318   2.0989524
  50.5196090  20.6347989   5.7914640  51.1489208  21.1708289   5.5135710
  50.6881953  20.5425348   6.6428206  50.6373884  20.7009351   5.8763168
  50.3210005  25.4219184   8.0641052  51.1483434  25.1504333   8.1199666
  50.3417851  26.2180025   8.4204870  50.4462855  25.4998938   8.1256235
  55.1586184  39.1574321   4.1983524  55.9478562  38.8063386   4.3185605
  55.3329782  39.9710709   3.9360157  55.3006466  39.2260178   4.1771391
  44.8979495  32.5683047   1.2511312  44.0567501  32.4686921   1.4590206
  45.1069502  33.3378527   1.6025633  44.8044187  32.6675090   1.3338627
  42.3755061  30.1902583  -0.9203937  41.9811759  30.2645595  -1.6953827
  41.8195178  30.5760530  -0.3695575  42.2357874  30.2584358  -0.9536277
  54.0120008  23.1683877  -1.2400058  54.2169602  23.1006185  -0.3943061
  53.6846432  23.9742699  -1.3078881  53.9935256  23.2769818  -1.1240403
  48.7096159  30.4964446   0.5008910  48.4059297  29.9420434   1.1019318
  48.0075580  30.6756656   0.0136944  48.5612369  30.4409228   0.5178616
  46.7714510  37.7114166   5.2081008  46.6634865  37.7216229   6.0743066
  46.9810292  38.5368947   5.0185961  46.7864621  37.8355241   5.3085099
  44.7888302  34.9626809   2.6702945  44.1976236  35.6036307   2.6405960
  45.5509326  35.3864426   2.6434245  44.8136563  35.1202647   2.6618092
  45.1848925  26.1228807   3.3370963  45.6450407  26.1967736   4.0746087
  45.2305032  26.9210061   2.9870784  45.2599481  26.2522954   3.3943719
  46.8332275  26.7895501   7.9042990  46.4417840  26.1428849   8.3398768
  47.0018138  27.3806937   8.5237245  46.8003185  26.7809769   8.0605696
  60.9078724  34.7932579   3.6680223  60.9661848  35.2419227   4.4140200
  60.2745192  35.2031391   3.2310303  60.8230019  34.9206313   3.7132772
  54.5477819  40.4136120   0.1034970  54.3497507  40.9026935  -0.5908819
  53.9265530  40.6177362   0.6819103  54.4265383  40.5152659   0.0858193
  48.6085797  32.1821017  -5.5554786  49.3527842  32.5695294  -5.3171836
  48.7546493  31.3378443  -5.3914298  48.7396382  32.1151490  -5.4960816
  50.5265372  23.9771276  -0.5222925  49.6801418  24.1494084  -0.6481575
  50.5236505  23.1720620  -0.1857096  50.4012522  23.8832305  -0.4911798
  51.5963673  27.7546491   0.3439133  51.1223627  27.2288253   0.8544444
  51.9681809  27.2075963  -0.2246005  51.5813562  27.5962487   0.3354280
  41.9736703  29.7517997   5.7122679  42.8362316  29.6513706   5.6260009
  41.6428486  29.1712707   5.1508251  42.0521899  29.6509624   5.6168085
  57.8600403  32.8148866   1.7545914  57.6198626  31.9755281   1.7588340
  58.3392411  32.8949033   2.4786687  57.8952587  32.7030266   1.8620716
  59.8605590  29.5950323  -0.2924827  59.6215360  29.5546158  -1.1304042
  60.0239492  30.4421475  -0.1659106  59.8495894  29.7142408  -0.3971345
  56.4651621  33.9800273   5.6380218  57.1885819  33.5272799   5.4591238
  56.2001583  34.2604938   4.8552546  56.5332894  33.9551241   5.4958933
  45.3338489  28.5760446   2.3733097  44.7091559  28.5878838   1.7659050
  44.9984084  29.0520621   3.0224337  45.1923981  28.6478963   2.3789666
  42.0464165  36.6360906   3.8136862  41.5164089  35.9453345   3.8631836
  42.3189258  36.6271092   2.9849570  42.0088887  36.5328038   3.6984277
  52.2470410  34.0784151   3.7875233  51.6327403  33.5342201   4.0823868
  52.7637695  33.5648387   3.3081049  52.2326073  33.9220560   3.7599462
  51.4866707  35.1488421   1.5219532  51.0594315  34.5238140   1.0884967
  51.4791652  34.8663343   2.3478539  51.4225848  35.0141202   1.5799359
  44.6029234  30.1853594   4.5907966  44.7622721  29.4296918   4.9959688
  44.4222128  30.7344534   5.2448703  44.5994593  30.1547408   4.7470672
  52.5449537  22.3514830   5.1458755  52.0490099  22.5478504   4.4550322
  53.3018599  22.7507498   4.9747557  52.5836362  22.4392563   5.0178892
  49.8152417  26.0257176   1.7362066  49.8394904  25.4917288   1.0474846
  50.0663891  25.5174484   2.3987656  49.8562336  25.8718079   1.7326710
  37.3260007  33.3088670   1.1705210  37.2203456  33.2635515   0.3057294
  36.5760227  33.6542451   1.4519495  37.1995610  33.3529579   1.0842540
  46.0953739  24.7527994   1.1167810  46.1352111  25.2537200   1.8302517
  45.2703404  24.8438387   0.8473733  45.9793265  24.8409810   1.1818348
  48.2783352  34.3188734   9.2188105  47.4278983  34.4560448   9.3545750
  48.4411480  33.5852512   9.6635806  48.1767216  34.2302835   9.3043704
  47.5168103  31.2688504   3.4141709  46.6860032  31.4362322   3.2076957
  47.4619620  30.8924454   4.1990594  47.3857517  31.2378235   3.4990237
  45.3251886  24.7597397   9.0498120  45.9504589  24.2159529   9.3227552
  44.8702366  24.2792314   8.4805910  45.3500146  24.6086878   9.0059714
  58.8986935  32.9426684   4.1410768  59.4904775  33.5823934   4.1728966
  59.3345929  32.2449720   4.4302835  59.0505366  32.9345034   4.1891600
  50.7280324  37.3644056   4.7668662  50.2205415  37.9179903   5.2109292
  50.4306971  37.4252346   3.9487436  50.6085209  37.4550367   4.7117118
  52.8942507  25.7297376   3.6093325  53.3197578  25.2769902   2.9976851
  52.2799500  25.1757446   3.8858112  52.8671152  25.5811352   3.5598350
  55.9236076  30.1571902  -3.5586090  55.2527266  30.7001604  -3.6873024
  56.6175826  30.6266757  -3.8004395  55.9264943  30.3070173  -3.6130562
  49.9722810  42.2968614   1.6725669  49.7488464  41.5387443   2.0409695
  49.4832653  42.3266635   0.9506108  49.8666259  42.1890839   1.6202410
  56.0864203  26.6127786  -0.6495716  56.4391813  26.1857509   0.0250082
  55.2279005  26.5278629  -0.5194640  56.0113648  26.5372526  -0.5300706
  44.7847888  29.2435305  -2.5912870  44.0659878  29.6599438  -2.3240006
  45.1560251  29.8089544  -3.1421232  44.7339820  29.3884587  -2.6330063
  54.0847469  29.8763154   3.2989126  54.0645397  29.6946450   4.1523905
  54.1326670  30.7475173   3.2748709  54.0882110  29.9779693   3.4212420
  52.0293799  36.4650346   9.2237602  51.9889654  35.8200023   8.6382758
  52.8417117  36.4086964   9.5363014  52.1436953  36.3609313   9.1834551
  48.6201267  42.5169072  -0.8737247  48.2061665  41.8543202  -1.2633405
  49.3048641  42.6646931  -1.3941553  48.6599638  42.4409730  -1.0080750
  51.9866561  41.6759158  -0.1213630  51.5882844  41.7861428  -0.8892810
  51.3717780  41.8841224   0.4612930  51.8365450  41.7232726  -0.1482331
  53.4352279  28.2412810  -3.8237740  53.2065972  28.2645511  -4.6659382
  53.6950356  27.4170277  -3.7042730  53.4398467  28.1228890  -3.9312543
  47.7171508  30.0947283   5.7787360  47.2050411  29.4868466   6.1372391
  47.5451004  30.8103875   6.2461336  47.6161145  30.1110582   5.9003584
  42.5637222  28.5384858   8.4289722  42.3939813  29.1986233   7.8837928
  42.1203172  28.7491419   9.1502211  42.4736556  28.6670840   8.4551351
  46.4897042  26.7789356  -2.5283545  46.9654408  27.1406436  -3.1633363
  45.9885641  27.4345824  -2.2483402  46.4862401  26.9283545  -2.5806804
  51.5940578  28.0171528   8.2189615  52.1512008  27.7885337   7.5868081
  51.2701643  28.7777193   7.9424828  51.6286988  28.0955364   8.0846113
  39.4639287  31.4431724   3.6878212  38.9166006  30.7732369   3.8059080
  40.2531665  31.0761572   3.7521679  39.4991471  31.2896710   3.7146912
  49.3123695  31.1039181   9.1841623  50.0635022  31.4190858   9.4981177
  49.5046272  30.9018352   8.3575544  49.4515110  31.1206563   9.1085018
  56.1608986  27.2312747  -3.5734582  56.1603212  27.0761404  -2.7150306
  55.9565166  28.0775734  -3.6293196  56.1308763  27.3333368  -3.4546643
  38.2226256  30.6552532   0.8424235  38.0448018  30.2029141   1.5679150
  37.9345279  31.4578693   1.0262712  38.1539210  30.7075089   0.9767738
  53.8849838  31.9110249   0.0801625  54.3803503  31.1933244   0.0405645
  53.0749613  31.6081047  -0.0343888  53.8393731  31.7607895   0.0575351
  39.9598726  33.1880255  -2.0454006  39.0944246  33.1765946  -2.1571235
  40.0597542  33.0010478  -1.1982867  39.8472893  33.1586317  -1.9365062
  55.9501656  34.6613936   2.7678754  56.3756728  34.1388358   2.2149179
  55.5858576  35.2594774   2.2467377  55.9588259  34.6724163   2.6087763
  45.5855736  42.9578154   1.5276099  45.9002295  43.7714542   1.5353881
  45.9949150  42.5728373   2.1958258  45.6923834  43.0206856   1.6280191
  52.5380256  38.3748201  -0.9020089  53.0091434  39.0888463  -0.7330104
  52.8740434  37.7746951  -0.3660219  52.6575371  38.3919665  -0.7987713
  54.6257240  39.9849514  11.2771983  54.7354206  39.1958075  11.6328730
  54.9548137  39.8955450  10.4746321  54.6909646  39.8555367  11.2114374
  49.4549751  23.1475671   6.0538006  49.5877656  22.3506665   6.3818982
  49.8394904  23.6742074   6.6336282  49.5306080  23.1075588   6.1881509
  53.1754202  38.1666135   5.8607604  52.6275148  37.5424019   5.5927669
  53.6367231  38.3560407   5.1451683  53.1621412  38.1025185   5.7158035
  52.5282106  20.0705997   2.6519099  51.7228070  19.9603727   2.9686938
  52.3988841  20.1718453   1.7948965  52.3902239  20.0689668   2.5727140
  55.9848067  26.2351489   3.2458796  55.4011055  26.7360696   2.8336363
  56.3052361  25.7281046   2.6123119  55.9461242  26.2343324   3.0917303
  47.1138198  23.1434846   4.3015900  47.6582611  22.8025973   4.8920241
  47.1675133  24.0020308   4.4437184  47.2027317  23.2190106   4.4097773
  42.9268756  36.9051262   1.1754708  43.5313614  36.8647097   0.5468528
  42.7196069  37.7522414   1.2058763  42.9857654  37.0239265   1.0870824
  52.7412529  39.1717208   2.3916945  53.5610902  39.0280174   2.6533240
  52.4606606  39.7963406   2.9333383  52.8209272  39.2427560   2.5104884
  38.1620039  35.8885880   1.0453631  38.0644317  35.0782151   1.3543687
  38.9448908  35.8677673   0.6599899  38.2636175  35.7652970   1.0340494
  53.8706891  43.6544838   0.6649397  53.2511923  43.0637485   0.4959412
  53.7690755  44.2456273   0.0313720  53.7644567  43.6548920   0.5454387
  53.5976024  47.1997119   2.9092966  53.4734721  47.7859565   3.5442785
  54.2494309  46.7057315   3.2105241  53.6749674  47.2135924   3.0478895
  57.0357232  47.1176541   8.3221991  57.2077736  47.0082435   9.1707272
  57.5726590  47.7630946   8.0853183  57.1402236  47.1968542   8.4127087
  62.9731934  55.0380791  10.2731067  63.7572351  55.1511639  10.6386809
  62.7728528  54.2121929  10.4689753  63.0597959  54.9327511  10.3565453
  51.3418949  49.7108472   3.1574911  51.0757365  48.8947588   3.3165901
  51.3557513  49.7561627   2.2870426  51.3043672  49.5965376   3.0528393
  56.0917556  43.2486850   5.8041918  55.3989352  42.7783830   6.0502650
  56.7077883  43.0225154   6.3783625  56.0802086  43.1453982   5.9251071
  54.8158115  47.2152254   6.9468764  55.5398087  47.2005284   7.4333658
  54.9174251  47.9247609   6.4490732  54.9376324  47.3176957   6.9447550
  62.1903064  50.6951338  11.8117711  61.3976045  51.0094850  11.9970330
  62.3051991  50.9102807  10.9738495  62.0898475  50.7735175  11.7156045
  61.1158576  45.0555919   4.1481478  60.7273009  44.6310137   3.4933669
  60.4513275  45.3038069   4.6558504  60.9605504  45.0294640   4.1269346
  64.9384938  38.7530548   1.6605462  65.3195450  38.0708719   2.0473336
  64.1348222  38.4640150   1.4781127  64.8761400  38.6097596   1.6909518
  58.8976778  41.2584746  11.5268071  58.5830219  42.0284309  11.2637633
  58.5766711  40.6955002  10.9420297  58.8035697  41.2895015  11.4009420
  65.5741564  39.7953127   5.4725589  66.3195156  39.6062937   5.0589014
  65.1578869  40.3211365   4.9139445  65.6226538  39.8455272   5.3290162
  58.5293284  43.8581997  10.2653285  57.7193059  44.1639777  10.1543128
  59.0067970  44.5787579  10.3805869  58.4796762  44.0096598  10.2660356
  54.8637316  49.3944547   5.1352688  55.3758413  49.6728801   4.4861447
  54.5773658  50.1333842   5.5015501  54.8972179  49.5446901   5.0942566
  58.3821041  41.4870936   5.1953729  58.1904238  41.5026070   6.0453153
  59.2319637  41.6834610   5.1720384  58.4796763  41.5185287   5.3177024
  52.7667954  44.0161918   3.1737546  52.6253446  43.1645858   3.2982054
  53.0508517  44.0590578   2.3499752  52.7875800  43.8961668   3.0705170
  58.8803574  48.5885726   6.7305017  59.0246949  49.1686934   6.0948127
  59.2279222  48.9662023   7.4354872  58.9531035  48.7306430   6.7404012
  61.2925268  41.6826445   5.4025552  61.7497882  42.4150420   5.5298345
  61.3681597  41.2592911   6.1612808  61.3716238  41.7283683   5.5326629
  53.5358259  41.9292265   6.4914996  53.0000449  41.3172623   6.8075763
  53.5976024  42.5040401   7.1448663  53.4653892  41.9239193   6.6350423
  59.1707646  43.6728549   2.2467376  58.3803721  43.4920009   2.5684712
  59.5668269  42.8955502   2.2297671  59.1124522  43.5316010   2.2919925
  61.6845476  46.1488808   6.7290875  61.6204617  47.0098765   6.6011012
  61.8242664  45.8320802   5.9286427  61.6960946  46.2288975   6.5919088
  66.0643267  52.9233530  12.2855326  66.8778132  52.6518679  12.4460459
  65.9038233  52.6241070  11.4815522  66.1613216  52.8388456  12.1900732
  63.3415429  43.6067187   5.2250714  63.5557399  42.9678102   4.6714068
  62.7249328  44.0513011   4.7958576  63.2820758  43.5777331   5.0801146
  65.5054517  45.2156253   6.1634022  64.6931199  44.9082143   6.2447194
  65.9644452  44.7355253   6.7276734  65.4534902  45.0992745   6.2588616
  62.7330158  36.7167123   0.2138057  61.8623716  36.6905844   0.1671367
  62.9870499  36.5444315  -0.6036097  62.6423718  36.6877267   0.0858194
  62.6008025  46.6216324  10.9462724  63.0707656  47.2458440  11.3330598
  62.6469905  45.9533299  11.5055939  62.6775900  46.6151004  11.0862795
  59.7579298  38.7273351   1.6711528  59.2417787  38.0353543   1.7963107
  59.1973227  39.3944128   1.6174126  59.5985811  38.7236609   1.6817594
  61.8271532  39.2666311   3.5004380  61.4403285  39.2915343   4.2817910
  61.3404469  38.7007990   3.0478897  61.6984041  39.1862062   3.5492284
  61.4928673  36.1533297   5.7914640  62.1221791  36.6893597   5.5135710
  61.6614536  36.0610656   6.6428206  61.6106468  36.2194659   5.8763168
  61.2942588  40.9404492   8.0641052  62.1216018  40.6689641   8.1199666
  61.3150434  41.7365333   8.4204870  61.4195438  41.0184246   8.1256235
  56.1581509  41.6414114   3.3370963  56.6182990  41.7153044   4.0746087
  56.2037616  42.4395369   2.9870784  56.2332064  41.7708262   3.3943719
  57.8064859  42.3080809   7.9042990  57.4150424  41.6614156   8.3398768
  57.9750721  42.8992245   8.5237245  57.7735769  42.2995077   8.0605696
  52.9469287  45.2703305   5.7122679  53.8094900  45.1699014   5.6260009
  52.6161070  44.6898014   5.1508251  53.0254483  45.1694932   5.6168085
  56.3071073  44.0945754   2.3733097  55.6824143  44.1064146   1.7659050
  55.9716667  44.5705929   3.0224337  56.1656564  44.1664271   2.3789666
  55.5761818  45.7038902   4.5907966  55.7355305  44.9482226   4.9959688
  55.3954712  46.2529842   5.2448703  55.5727177  45.6732716   4.7470672
  63.5182121  37.8700138   5.1458755  63.0222682  38.0663812   4.4550322
  64.2751183  38.2692806   4.9747557  63.5568946  37.9577871   5.0178892
  60.7885001  41.5442483   1.7362066  60.8127488  41.0102596   1.0474846
  61.0396474  41.0359792   2.3987656  60.8294919  41.3903387   1.7326710
  48.2992590  48.8273978   1.1705210  48.1936039  48.7820823   0.3057294
  47.5492810  49.1727759   1.4519495  48.1728193  48.8714887   1.0842540
  57.0686323  40.2713302   1.1167810  57.1084694  40.7722508   1.8302517
  56.2435987  40.3623695   0.8473733  56.9525849  40.3595118   1.1818348
  59.2515936  49.8374042   9.2188105  58.4011566  49.9745756   9.3545750
  59.4144063  49.1037820   9.6635806  59.1499799  49.7488143   9.3043704
  58.4900686  46.7873812   3.4141709  57.6592616  46.9547629   3.2076957
  58.4352203  46.4109762   4.1990594  58.3590101  46.7563543   3.4990237
  56.2984469  40.2782704   9.0498120  56.9237173  39.7344837   9.3227552
  55.8434949  39.7977622   8.4805910  56.3232730  40.1272186   9.0059714
  63.8675090  41.2482683   3.6093325  64.2930162  40.7955210   2.9976851
  63.2532083  40.6942754   3.8858112  63.8403736  41.0996660   3.5598350
  63.0026383  51.9835654   9.2237602  62.9622237  51.3385331   8.6382758
  63.8149701  51.9272272   9.5363014  63.1169536  51.8794621   9.1834551
  58.6904091  45.6132591   5.7787360  58.1782994  45.0053774   6.1372391
  58.5183587  46.3289183   6.2461336  58.5893728  45.6295890   5.9003584
  53.5369806  44.0570166   8.4289722  53.3672396  44.7171541   7.8837928
  53.0935756  44.2676727   9.1502211  53.4469140  44.1856148   8.4551351
  62.5673162  43.5356835   8.2189615  63.1244592  43.3070645   7.5868081
  62.2434227  44.2962501   7.9424828  62.6019572  43.6140672   8.0846113
  50.4371871  46.9617032   3.6878212  49.8898590  46.2917677   3.8059080
  51.2264249  46.5946880   3.7521679  50.4724054  46.8082018   3.7146912
  60.2856279  46.6224489   9.1841623  61.0367606  46.9376166   9.4981177
  60.4778855  46.4203660   8.3575544  60.4247693  46.6391871   9.1085018
  49.1958840  46.1737840   0.8424235  49.0180601  45.7214449   1.5679150
  48.9077862  46.9764001   1.0262712  49.1271793  46.2260397   0.9767738
  60.4282334  38.6660979   6.0538006  60.5610240  37.8691973   6.3818982
  60.8127487  39.1927382   6.6336282  60.5038663  38.6260896   6.1881509
  63.5014690  35.5891305   2.6519099  62.6960653  35.4789035   2.9686938
  63.3721425  35.6903761   1.7948965  63.3634822  35.5874975   2.5727140
  58.0870781  38.6620154   4.3015900  58.6315194  38.3211281   4.8920241
  58.1407717  39.5205616   4.4437184  58.1759901  38.7375414   4.4097773
   1.8095618  59.1098637  36.2497966   1.4949059  59.8002115  36.6818388
   1.2922560  59.0543419  35.5483466   1.6860089  59.2033525  36.2094915
   6.1010063  67.3319843  41.5318842   5.2638484  67.4022030  41.7666436
   6.0698294  67.3344338  40.6593144   5.9728346  67.3430070  41.4378390
   3.7817903  62.3962624  40.1162564   4.4243812  62.4660729  40.7024480
   4.0340924  61.7291847  39.6142106   3.9140035  62.3088973  40.1289844
   6.2199405  67.1707262  35.8474528   5.9635970  66.3587203  35.6572411
   7.0628719  67.1784829  35.6204715   6.3065431  67.0519259  35.7859345
   1.0359124  62.1529465  44.3970809   1.7812716  61.9639275  43.9834234
   0.6196429  62.6787703  43.8384665   1.0844098  62.2031610  44.2535382
   8.4121395  69.5238693  39.3476314   8.9629316  68.8906762  39.5873406
   8.3965510  70.0554086  40.0391818   8.4906591  69.5087641  39.4855172
   2.1149801  67.7635027  38.4580910   1.7714567  67.0425362  38.8088159
   2.2142844  67.5548878  37.6159268   2.0791844  67.6259230  38.3852590
   1.2270154  57.2192659  38.1964615   1.3453722  57.6769122  37.4631918
   1.0532330  56.4137920  37.9100833   1.2189325  57.1686431  38.0465549
   3.2639071  68.1905304  41.0489302   2.8366679  68.1031653  40.2937402
   2.6265124  68.2983080  41.6344146   3.1068678  68.1937964  41.0234744
   3.7003840  61.5977288  37.1647927   3.0878153  62.0847690  37.5501659
   3.7968014  60.9220778  37.7085579   3.6241737  61.5695596  37.3026786
   6.2955734  67.4711969  38.6320393   6.0565504  67.4307803  37.7941178
   6.4589635  68.3183121  38.7586114   6.2846038  67.5904054  38.5273875
   2.5214347  64.4889432  38.2749504   2.8741957  64.0619155  38.9495302
   1.6629148  64.4040275  38.4050580   2.4463792  64.4134172  38.3944514
   3.9538407  59.6107843  39.2033816   3.4469272  58.9036983  39.1354994
   4.7505841  59.2801032  39.3334893   3.9965646  59.4580995  39.2132811
   2.5959129  65.1074393  35.3510638   2.5953356  64.9523050  36.2094914
   2.3915309  65.9537380  35.2952024   2.5658907  65.2095014  35.4698577
   2.4198210  64.1113135  42.1704016   1.8361199  64.6122342  41.7581583
   2.7402504  63.6042691  41.5368339   2.3811385  64.1104970  42.0162523
   4.3694563  46.1236528  21.2145088   4.3388567  46.9781165  21.3863358
   4.9675912  45.8231821  21.7731232   4.4531721  46.2053025  21.3219890
   0.8787964  51.4798705  35.5758475   1.5854731  50.9850736  35.7045409
   1.0675900  51.9207786  34.8461133   1.0115870  51.4717055  35.4867520
   2.1911137  48.6988830  19.4863398   2.0750663  49.4496516  19.9155536
   2.9867024  48.4412784  19.7359485   2.2915727  48.7723677  19.5867490
   1.5046442  36.0476768  23.1838012   1.1899883  36.7380247  23.6158435
   0.9873384  35.9921550  22.4823513   1.3810913  36.1411656  23.1434962
   6.3006929  51.6227573  24.6708467   5.4704632  51.8338217  24.8341884
   6.2516181  50.7964628  24.3950751   6.1713664  51.5317180  24.6545833
   5.7960887  44.2697974  28.4658889   4.9589308  44.3400161  28.7006483
   5.7649118  44.2722469  27.5933191   5.6679170  44.2808201  28.3718437
   0.5191073  48.4653650  24.0570780   1.2748588  48.8985165  24.0959689
   0.6253398  47.8158420  24.6305416   0.6461244  48.4331134  24.1468806
   3.5571244  52.2926928  24.8073183   3.1206476  52.2963670  25.5632155
   3.2234160  52.9732427  24.3752761   3.4433864  52.3939383  24.8554016
   3.4768727  39.3340756  27.0502611   4.1194636  39.4038860  27.6364526
   3.7291748  38.6669978  26.5482153   3.6090859  39.2467104  27.0629890
   6.6915590  49.0107848  23.6992820   7.3532025  48.4498516  23.5988729
   6.0507002  48.5159878  24.0245512   6.6944458  48.8544257  23.7325161
   2.9780421  50.0273230  23.4404809   3.2136010  50.1718429  22.6131660
   3.1269985  50.7915638  23.8336323   3.0346224  50.1612284  23.3768413
   4.8070878  48.8674896  21.2774413   5.1379095  49.4002536  20.6714508
   5.3803966  48.9213784  21.9336364   4.9404557  48.9544465  21.2852195
   5.9150229  44.1085393  22.7814575   5.6586794  43.2965334  22.5912458
   6.7579543  44.1162960  22.5544762   6.0016255  43.9897390  22.7199392
   3.5975389  51.2634989  32.6173127   3.3614026  50.4323054  32.4985188
   4.2418618  51.2120596  33.2027971   3.6570059  51.1332677  32.6859021
   4.6211809  51.0479438  28.6801422   4.3157626  51.7807494  29.0414737
   3.9018025  50.6417367  28.3994208   4.4699152  51.0961171  28.6914559
  10.3213601  47.6872438  28.0069766  10.2538102  47.7068397  27.1372353
  10.3069264  48.5302766  28.2325437  10.3092358  47.8146173  27.9122243
   8.1072219  46.4616825  26.2816360   8.6580140  45.8284894  26.5213453
   8.0916334  46.9932217  26.9731865   8.1857415  46.4465773  26.4195219
   1.8100625  44.7013158  25.3920957   1.4665391  43.9803493  25.7428206
   1.9093668  44.4927009  24.5499315   1.7742668  44.5637361  25.3192637
   2.2713654  51.1638862  20.9344945   2.8371687  51.8232072  20.8503488
   1.6241558  51.5088560  21.4061347   2.2592411  51.3120804  20.9917701
   4.2049114  47.8272730  24.5541741   4.1183089  47.9828156  25.4076520
   3.7499594  48.4710805  24.1801146   4.1252371  47.9448485  24.6248848
   1.9722979  51.8566836  26.9654082   1.8337338  52.5547882  27.4702824
   1.1922977  51.7015493  26.6090264   1.8366206  51.9367003  26.9880356
   3.4676352  51.2145090  17.7270581   3.0883161  50.4282228  17.7199871
   2.8042597  51.7631947  17.5842225   3.3134827  51.1789914  17.7051378
   0.9220978  34.1570790  25.1304662   1.0404546  34.6147253  24.3971965
   0.7483154  33.3516051  24.8440880   0.9140149  34.1064562  24.9805596
   1.7136451  53.4590581  18.0622267   1.7956288  54.2657567  17.7383718
   2.1986193  53.4786540  18.7863041   1.7973609  53.5811243  18.1209166
   1.2211651  52.2187999  38.1440593   2.0346516  51.9473148  38.3045725
   1.0606617  51.9195539  37.3400789   1.3181600  52.1342925  38.0485999
   1.2332895  53.2794289  33.4163434   1.8712616  52.7854485  33.0825890
   0.5906987  53.2071690  32.8315660   1.2327122  53.1953298  33.2805789
   2.9589895  45.1283435  27.9829349   2.5317503  45.0409784  27.2277449
   2.3215948  45.2361211  28.5684193   2.8019502  45.1316095  27.9574791
   1.2887152  53.9714098  30.0568790   2.0779530  53.6203162  30.1770872
   1.4630749  54.7850486  29.7945424   1.4307433  54.0399955  30.0356658
   3.3954664  38.5355419  24.0987974   2.7828977  39.0225821  24.4841706
   3.4918838  37.8598910  24.6425625   3.3192561  38.5073727  24.2366832
   7.0379691  49.6072356  29.5265490   7.0962815  50.0559004  30.2725467
   6.4046159  50.0171168  29.0895570   6.9530987  49.7346090  29.5718039
   3.9901371  47.6288643  27.6131181   3.7499594  46.7895058  27.6173607
   4.4693378  47.7088810  28.3371954   4.0253555  47.5170043  27.7205983
   5.9906558  44.4090100  25.5660440   5.7516328  44.3685935  24.7281224
   6.1540459  45.2561252  25.6926161   5.9796861  44.5282185  25.4613922
   2.5952588  48.7940050  31.4965485   3.3186787  48.3412576  31.3176505
   2.3302550  49.0744715  30.7137813   2.6633861  48.7691018  31.3544200
   5.0287902  47.7566461  29.9996035   5.6205742  48.3963711  30.0314233
   5.4646897  47.0589497  30.2888101   5.1806333  47.7484811  30.0476867
   2.0537043  44.9711679  22.2999177   1.3828233  45.5141381  22.1712243
   2.7476794  45.4406534  22.0580872   2.0565911  45.1209950  22.2454705
   2.2165171  41.4267563  25.2089550   2.5692781  40.9997286  25.8835349
   1.3579972  41.3418406  25.3390627   2.1414616  41.3512303  25.3284561
   3.6489231  36.5485975  26.1373863   3.1420096  35.8415114  26.0695040
   4.4456665  36.2179163  26.2674939   3.6916470  36.3959126  26.1472858
   5.8509371  51.0650901  19.1214727   6.2342977  51.8142257  19.3512824
   5.0553484  51.3116721  18.8626716   5.7903153  51.2120595  19.1172301
   2.2909953  42.0452524  22.2850685   2.2904179  41.8901181  23.1434961
   2.0866133  42.8915511  22.2292070   2.2609731  42.1473145  22.4038624
   2.0802624  49.4753713  28.6264021   2.5057695  48.9528135  28.0734446
   1.7159544  50.0734551  28.1052643   2.0889227  49.4863940  28.4673030
   0.7558208  54.7989291  37.1357250   0.8655173  54.0097852  37.4913997
   1.0849105  54.7095227  36.3331588   0.8210614  54.6695144  37.0699641
   2.1149034  41.0491266  29.1044063   1.5312023  41.5500473  28.6921630
   2.4353328  40.5420823  28.4708386   2.0762209  41.0483101  28.9502570
  15.3427146  61.6421836  21.2145088  15.3121151  62.4966473  21.3863358
  15.9408495  61.3417129  21.7731232  15.4264304  61.7238333  21.3219890
   8.5426831  60.7297487  25.9698019   7.6864727  60.8905986  26.0207135
   8.5894485  59.8589551  25.9903080   8.4225943  60.6248289  25.9804085
  11.8520548  66.9984013  35.5758475  12.5587315  66.5036044  35.7045409
  12.0408483  67.4393094  34.8461133  11.9848453  66.9902363  35.4867520
  11.3878652  62.7889531  28.6129670  11.9334612  63.4674618  28.6723640
  11.3295529  62.6476992  27.7531252  11.4594567  62.8681533  28.4941731
  13.1643721  64.2174138  19.4863398  13.0483247  64.9681824  19.9155536
  13.9599608  63.9598092  19.7359485  13.2648310  64.2908985  19.5867490
   7.0975755  60.2084156  20.8567127   7.7955919  60.3872284  21.3488590
   7.4128087  59.6854496  20.2337516   7.2471092  60.1577928  20.8369137
   7.2863690  66.5954601  20.8446919   7.7257325  65.9871702  21.2901691
   7.1368353  66.2161975  20.0732384   7.3285156  66.4493072  20.7966086
   4.7535333  65.1898613  28.0465744   5.3984335  64.6971056  27.7276693
   4.9937110  65.3323400  28.8731822   4.8845918  65.1376055  28.1215277
   7.2921424  68.0353519  27.6972637   7.5744667  67.2404925  27.4759393
   8.0207585  68.5134106  27.7177698   7.4410988  67.9888116  27.6675652
   5.2702618  55.5776553  24.9388402   4.9405948  56.0287697  24.2692100
   4.5947620  55.4992716  25.4861408   5.1213054  55.6327688  24.9211625
  10.8873026  64.9481783  17.7977688  10.8024322  65.8042749  17.9427257
  11.3757410  64.6726107  18.4659847  10.9461924  65.0339104  17.9179769
  12.4779026  51.5662076  23.1838012  12.1632467  52.2565554  23.6158435
  11.9605968  51.5106858  22.4823513  12.3543496  51.6596964  23.1434962
  11.8191460  61.5666577  19.2975423  11.2902931  61.7826210  19.9572729
  12.3416480  62.2602715  19.2176392  11.8179913  61.7009714  19.3831022
  17.2739513  67.1412881  24.6708467  16.4437216  67.3523525  24.8341884
  17.2248765  66.3149936  24.3950751  17.1446248  67.0502488  24.6545833
   8.9912842  70.4211549  33.4672550   9.0796188  70.2337690  34.3150760
   9.4202555  69.7748979  33.0677397   9.0674944  70.2974557  33.5344301
   8.1668282  61.7095446  16.5751812   8.4064286  61.9173429  15.7627155
   8.4884123  60.9052954  16.6840756   8.2505440  61.6209547  16.4712365
   3.4758572  53.6388841  20.4211349   4.2304540  54.0067158  20.1828400
   3.2986107  54.0128396  21.1890529   3.5613051  53.7487029  20.4996238
  16.7693471  59.7883282  28.4658889  15.9321892  59.8585469  28.7006483
  16.7381702  59.7907777  27.5933191  16.6411753  59.7993509  28.3718437
   3.1658200  61.9316317  34.1807257   3.3378704  61.8222212  35.0292539
   3.7027557  62.5770723  33.9438450   3.2703204  62.0108319  34.2712354
   1.8315637  56.0459160  17.1189462   1.6491210  56.2631041  16.2930455
   2.6941250  56.1598173  17.1748077   1.9320226  56.0949058  17.0043950
   1.4430069  67.8847083  24.5612450   2.2818968  68.1170015  24.6086212
   1.4741838  67.0151394  24.4919486   1.5711786  67.7904029  24.5577095
   7.5115356  53.0485571  20.1538486   8.2401516  52.8701526  19.7076643
   7.6010249  53.8903651  20.3645664   7.6322018  53.1469449  20.1192004
  11.4923657  63.9838958  24.0570780  12.2481172  64.4170473  24.0959689
  11.5985981  63.3343728  24.6305416  11.6193827  63.9516442  24.1468806
  14.5303828  67.8112236  24.8073183  14.0939060  67.8148978  25.5632155
  14.1966743  68.4917735  24.3752761  14.4166448  67.9124691  24.8554016
   9.1032901  69.8520568  36.1316334   9.8873318  69.9651416  36.4972076
   8.9029496  69.0261706  36.3275019   9.1898927  69.7467288  36.2150720
  14.4501311  54.8526063  27.0502611  15.0927219  54.9224168  27.6364526
  14.7024331  54.1855286  26.5482153  14.5823443  54.7652412  27.0629890
   2.2218523  58.0626627  31.6627185   1.5290320  57.5923607  31.9087917
   2.8378851  57.8364931  32.2368892   2.2103053  57.9593759  31.7836338
  17.6648174  64.5293156  23.6992820  18.3264608  63.9683824  23.5988729
  17.0239586  64.0345186  24.0245512  17.6677042  64.3729565  23.7325161
  13.9513005  65.5458538  23.4404809  14.1868594  65.6903737  22.6131660
  14.1002568  66.3100946  23.8336323  14.0078808  65.6797592  23.3768413
   0.9459082  62.0292031  32.8054030   1.6699055  62.0145061  33.2918925
   1.0475219  62.7387386  32.3075999   1.0677291  62.1316734  32.8032817
  15.7803461  64.3860204  21.2774413  16.1111679  64.9187844  20.6714508
  16.3536550  64.4399092  21.9336364  15.9137141  64.4729773  21.2852195
   8.3204032  65.5091115  37.6702977   7.5277012  65.8234627  37.8555597
   8.4352959  65.7242584  36.8323762   8.2199442  65.5874952  37.5741312
  10.9935351  62.2325107  21.9597993  11.0882205  62.9714401  22.4137619
  10.3694194  61.8042582  22.3932558  10.9144381  62.2786427  22.0906141
   9.2487824  65.4111319  32.6088274   9.8226686  64.7738563  32.7636838
   9.1702628  65.4115402  31.7397932   9.3221059  65.3176431  32.5034685
  11.2458372  64.0773846  15.1934945  11.1638534  64.1476033  16.0589932
  11.8838092  64.6403590  15.0018686  11.3278209  64.1712817  15.2924895
   4.6051543  63.8434584  24.6609472   4.3470787  63.0106319  24.6340771
   4.6600026  64.0692197  23.8201972   4.5751321  63.7532356  24.5329608
   9.6852593  55.9463035  24.7613564   8.9808920  55.4572220  24.9197483
   9.7337568  55.9585509  23.8902009   9.5882645  55.8752683  24.6552904
   3.5786255  61.3972347  25.1474366   3.0035846  61.5564515  25.7838327
   3.2021931  60.7607756  24.6842817   3.4389068  61.3270160  25.1728925
   7.2459544  59.8695696  30.0066745   6.8573977  59.4449914  29.3518936
   6.5814242  60.1177846  30.5143771   7.0906472  59.8434417  29.9854613
  16.8882813  59.6270701  22.7814575  16.6319378  58.8150642  22.5912458
  17.7312127  59.6348268  22.5544762  16.9748838  59.5082698  22.7199392
  11.0685905  53.5670325  27.5190729  11.4496417  52.8848496  27.9058603
  10.2649190  53.2779927  27.3366393  11.0062367  53.4237373  27.5494785
   8.3498482  64.0994301  18.2043552   9.1639121  64.3909193  18.0926323
   8.2857623  63.4454163  17.6301845   8.4601221  64.0459495  18.1032389
   4.2206390  67.5715818  23.3315864   4.8580337  67.3327566  23.8767657
   4.6461462  67.7752977  22.5969024   4.3782557  67.5666828  23.3033021
   5.0277746  56.0724523  37.3853337   4.7131187  56.8424086  37.1222900
   4.7067678  55.5094779  36.8005564   4.9336665  56.1034792  37.2594687
  15.5944393  66.5664746  28.6801422  15.2890210  67.2992802  29.0414737
  14.8750609  66.1602675  28.3994208  15.4431735  66.6146479  28.6914559
   6.6027862  68.0488241  25.0109650   6.6766871  67.8863413  25.8651500
   7.4197369  68.2378430  24.7670132   6.7344221  68.0524983  25.1007676
  21.2946185  63.2057746  28.0069766  21.2270685  63.2253705  27.1372353
  21.2801847  64.0488073  28.2325437  21.2824941  63.3331481  27.9122243
   2.5809643  54.4615045  22.9999534   1.7132068  54.5337644  23.0657143
   2.8684847  55.2637123  23.1887509   2.4949391  54.5909192  23.0374300
  11.7042531  54.6092904  31.3310855  12.4496124  54.4202714  30.9174281
  11.2879836  55.1351142  30.7724712  11.7527506  54.6595049  31.1875429
  19.0804802  61.9802132  26.2816360  19.6312724  61.3470201  26.5213453
  19.0648918  62.5117525  26.9731865  19.1589999  61.9651081  26.4195219
   5.7327193  65.8140730  30.8276254   5.2338887  66.5256497  30.9061142
   6.5427417  66.1341396  30.7894416   5.7783300  65.9667578  30.8332822
   1.9955311  65.0763683  25.0738975   1.7068559  64.4501154  25.6084702
   2.8638659  65.0183970  25.1403655   2.0815563  64.9751227  25.1629929
  12.7833209  60.2198466  25.3920957  12.4397974  59.4988801  25.7428206
  12.8826251  60.0112317  24.5499315  12.7475251  60.0822669  25.3192637
  13.2446238  66.6824170  20.9344945  13.8104270  67.3417380  20.8503488
  12.5974141  67.0273868  21.4061347  13.2324994  66.8306111  20.9917701
   4.6594251  58.6721774  36.1238552   3.8494027  58.9779554  36.0128394
   5.1368938  59.3927356  36.2391136   4.6097730  58.8236375  36.1245623
   3.5185811  67.8867495  26.3721455   2.9966564  68.0267787  27.0573320
   3.9059831  67.1278159  26.5623573   3.4989512  67.7953019  26.5022532
   9.7152816  69.6262954  20.3582024   9.4739492  68.8930815  19.9509089
   9.8954149  70.1749811  19.7048357   9.7060440  69.5985346  20.2012247
   4.9452136  64.9171514  21.7702946   4.7494919  65.5246249  21.1763249
   5.1686482  64.2239458  21.2894620   4.9486777  64.9049040  21.6119027
   3.3430666  61.8026252  21.8883815   4.0653318  61.9667410  21.4287621
   2.8638659  62.5235917  21.7823154   3.3794397  61.9324482  21.8049429
  11.3024174  58.1390051  27.2680500  10.4635275  58.1651330  27.0318763
  11.3728541  58.7860786  27.8485846  11.1892567  58.2386177  27.3189616
   0.9938283  64.2084324  30.9937954   1.5059380  64.4868578  30.3446714
   0.7074626  64.9473619  31.3600768   1.0273146  64.3586678  30.9527833
   9.7493452  55.0375428  22.0008115  10.4519805  54.8383176  21.5228074
   9.4837641  54.2651370  22.3076959   9.8140085  54.8938394  21.9753557
  15.1781698  63.3458038  24.5541741  15.0915672  63.5013464  25.4076520
  14.7232178  63.9896113  24.1801146  15.0984954  63.4633793  24.6248848
   4.5122008  56.3010713  31.0538996   4.3205206  56.3165847  31.9038420
   5.3620604  56.4974387  31.0305651   4.6097730  56.3325064  31.1762291
   9.0507514  60.6668785  23.1767301   8.8042228  60.5864536  24.0104090
   9.3792637  59.8822253  22.9829828   9.0628757  60.5395050  23.2714824
  12.9455563  67.3752144  26.9654082  12.8069922  68.0733190  27.4702824
  12.1655561  67.2200801  26.6090264  12.8098790  67.4552311  26.9880356
  11.2833648  63.6748519  33.2176464  11.2781686  62.8028336  33.2218890
  11.9894642  63.8736689  32.7445919  11.3878652  63.5752394  33.1483499
   5.0104541  63.4025503  32.5890284   5.1547917  63.9826711  31.9533394
   5.3580190  63.7801800  33.2940139   5.0832002  63.5446207  32.5989279
   7.1824458  62.6015672  30.3715415   6.4347773  62.7946686  29.9663694
   7.3365984  61.7760891  30.1339537   7.0946886  62.5080783  30.2760821
  14.4408936  66.7330398  17.7270581  14.0615744  65.9467536  17.7199871
  13.7775181  67.2817255  17.5842225  14.2867410  66.6975222  17.7051378
   7.4226236  56.4966222  31.2610819   7.8798850  57.2290197  31.3883611
   7.4982564  56.0732688  32.0198075   7.5017205  56.5423460  31.3911896
  11.8953561  49.6756098  25.1304662  12.0137130  50.1332561  24.3971965
  11.7215737  48.8701359  24.8440880  11.8872732  49.6249870  24.9805596
   5.3008613  58.4868326  28.1052643   4.5104688  58.3059786  28.4269979
   5.6969236  57.7095279  28.0882938   5.2425490  58.3455787  28.1505192
  10.6852300  66.1210757  25.8312089  10.0097302  65.8895989  26.3325476
  10.6944676  65.5131939  25.2054194  10.5870804  65.9969682  25.8128241
   7.8146444  60.9628585  32.5876142   7.7505585  61.8238542  32.4596279
   7.9543631  60.6460579  31.7871693   7.8261914  61.0428752  32.4504355
  12.6869034  68.9775889  18.0622267  12.7688872  69.7842875  17.7383718
  13.1718777  68.9971848  18.7863041  12.7706192  69.0996551  18.1209166
   6.4965538  63.6560725  26.7292345   6.0727787  63.8565224  25.9931363
   6.3210393  62.8089573  26.8416645   6.4076418  63.5609506  26.6366035
   1.7847983  64.1512776  22.1620318   1.9412602  64.0859579  23.0176310
   2.1248576  64.9261329  21.9498997   1.8581217  64.2561974  22.2574912
  12.1944235  67.7373307  38.1440593  13.0079100  67.4658456  38.3045725
  12.0339201  67.4380847  37.3400789  12.2914183  67.6528233  38.0485999
   9.4716397  58.4206964  31.0835981   9.6858366  57.7817879  30.5299335
   8.8550296  58.8652788  30.6543843   9.4121726  58.3917108  30.9386412
  11.6355485  60.0296029  32.0219288  10.8232166  59.7221920  32.1032461
  12.0945419  59.5495030  32.5862001  11.5835869  59.9132522  32.1173883
  11.0460739  67.9075701  22.4696233  10.6875394  68.0790344  23.2460265
  10.5599450  68.3688907  21.9124231  10.9219436  68.0014673  22.5021502
   8.8631125  51.5306900  26.0723324   7.9924683  51.5045621  26.0256634
   9.1171467  51.3584092  25.2549170   8.7724685  51.5017044  25.9443461
   8.7308992  61.4356101  36.8047991   9.2008623  62.0598217  37.1915865
   8.7770872  60.7673076  37.3641205   8.8076868  61.4290781  36.9448062
   5.8880266  53.5413128  27.5296794   5.3718754  52.8493320  27.6548373
   5.3274195  54.2083905  27.4759393   5.7286779  53.5376386  27.5402860
   7.9572499  54.0806088  29.3589647   7.5704252  54.1055120  30.1403177
   7.4705436  53.5147767  28.9064164   7.8285008  54.0001839  29.4077551
  12.2065479  68.7979597  33.4163434  12.8445199  68.3039793  33.0825890
  11.5639570  68.7256998  32.8315660  12.2059705  68.7138606  33.2805789
  13.9322479  60.6468743  27.9829349  13.5050087  60.5595092  27.2277449
  13.2948532  60.7546519  28.5684193  13.7752086  60.6501403  27.9574791
   7.6229641  50.9673074  31.6499907   8.2522759  51.5033374  31.3720977
   7.7915504  50.8750433  32.5013473   7.7407435  51.0334436  31.7348435
   7.4243556  55.7544269  33.9226319   8.2516985  55.4829418  33.9784933
   7.4451402  56.5505110  34.2790137   7.5496406  55.8324023  33.9841501
  12.2619735  69.4899406  30.0568790  13.0512113  69.1388470  30.1770872
  12.4363333  70.3035794  29.7945424  12.4040017  69.5585263  30.0356658
   2.0013046  62.9008131  27.1096579   1.1601052  62.8012006  27.3175473
   2.2103054  63.6703612  27.4610900   1.9077738  63.0000175  27.1923894
  11.1153559  53.5008962  24.6185209  11.3203153  53.4331270  25.4642206
  10.7879983  54.3067784  24.5506386  11.0968807  53.6094903  24.7344864
   5.8129710  60.8289531  26.3594177   5.5092848  60.2745519  26.9604584
   5.1109131  61.0081741  25.8722211   5.6645920  60.7734313  26.3763882
   4.8695808  58.1390050  20.9238879   5.1455542  57.4208963  20.5116446
   5.4694477  58.7374970  20.7159985   4.9989072  58.1210421  20.8319640
  14.3687247  54.0540727  24.0987974  13.7561561  54.5411129  24.4841706
  14.4651422  53.3784218  24.6425625  14.2925145  54.0259035  24.2366832
   8.3706328  55.8103568  19.1985474   8.8250075  55.9814128  19.9233318
   8.8446374  55.1971678  18.7983249   8.5074648  55.7454453  19.2459235
   1.8921854  65.2951894  28.5288212   1.3009787  65.9361392  28.4991227
   2.6542877  65.7189511  28.5019512   1.9170114  65.4527732  28.5203359
   2.2882476  56.4553891  29.1956230   2.7483958  56.5292821  29.9331353
   2.3338583  57.2535146  28.8456051   2.3633032  56.5848039  29.2528986
   3.9365826  57.1220586  33.7628257   3.5451391  56.4753933  34.1984035
   4.1051689  57.7132022  34.3822512   3.9036736  57.1134854  33.9190963
  18.0112275  65.1257663  29.5265490  18.0695399  65.5744312  30.2725467
  17.3778743  65.5356476  29.0895570  17.9263570  65.2531398  29.5718039
  11.6511370  70.7461205  25.9620236  11.4531058  71.2352020  25.2676448
  11.0299081  70.9502447  26.5404370  11.5298934  70.8477744  25.9443460
   5.7119348  62.5146102  20.3030481   6.4561393  62.9020378  20.5413431
   5.8580044  61.6703528  20.4670969   5.8429933  62.4476575  20.3624450
   7.6298924  54.3096361  25.3362342   6.7834969  54.4819169  25.2103692
   7.6270056  53.5045705  25.6728171   7.5046073  54.2157390  25.3673469
   8.6997224  58.0871575  26.2024400   8.2257178  57.5613338  26.7129711
   9.0715360  57.5401048  25.6339262   8.6847113  57.9287572  26.1939547
  14.9633955  63.1473951  27.6131181  14.7232177  62.3080366  27.6173607
  15.4425962  63.2274118  28.3371954  14.9986138  63.0355351  27.7205983
  10.6280724  58.9808130  19.2650154  10.1003742  59.0636874  18.5755863
  11.0876432  59.7226001  19.2614799  10.6182574  59.1028792  19.1624849
  16.9639142  59.9275408  25.5660440  16.7248912  59.8871242  24.7281224
  17.1273043  60.7746560  25.6926161  16.9529445  60.0467493  25.4613922
  13.5685172  64.3125358  31.4965485  14.2919371  63.8597884  31.3176505
  13.3035134  64.5930023  30.7137813  13.6366445  64.2876326  31.3544200
   2.4372040  58.9085531  28.2318364   1.8125110  58.9203923  27.6244317
   2.1017635  59.3845706  28.8809604   2.2957532  58.9804048  28.2374933
  10.1817806  67.5511694  18.3959811  10.9052005  68.0169807  18.2524384
   9.7418397  67.6185303  17.6457408  10.2233498  67.6295530  18.2644592
   9.3503961  64.4109236  29.6460500   8.7360954  63.8667286  29.9409135
   9.8671246  63.8973472  29.1666316   9.3359624  64.2545645  29.6184728
   8.5900258  65.4813506  27.3804799   8.1627866  64.8563225  26.9470234
   8.5825203  65.1988428  28.2063806   8.5259400  65.3466287  27.4384626
   1.7062785  60.5178679  30.4493233   1.8656272  59.7622003  30.8544954
   1.5255679  61.0669618  31.1033970   1.7028144  60.4872493  30.6055939
   9.6483088  52.6839915  31.0044022   9.1523650  52.8803589  30.3135589
  10.4052150  53.0832583  30.8332824   9.6869913  52.7717648  30.8764159
   6.9185968  56.3582260  27.5947333   6.9428455  55.8242373  26.9060113
   7.1697442  55.8499569  28.2572923   6.9595887  56.2043164  27.5911977
   3.1987290  55.0853079  26.9753077   3.2385662  55.5862285  27.6887784
   2.3736955  55.1763472  26.7059000   3.0826816  55.1734895  27.0403615
   5.3816903  64.6513819  35.0773371   4.5312534  64.7885533  35.2131016
   5.5445031  63.9177597  35.5221073   5.2800767  64.5627920  35.1628971
   4.6201654  61.6013588  29.2726976   3.7893583  61.7687406  29.0662224
   4.5653171  61.2249539  30.0575861   4.4891069  61.5703320  29.3575504
   2.4285437  55.0922481  34.9083387   3.0538140  54.5484614  35.1812819
   1.9735917  54.6117399  34.3391177   2.4533698  54.9411963  34.8644980
   2.9937697  59.8769180  19.8017094   3.1340659  60.3741644  20.5045735
   3.4920230  59.1755474  19.9431307   3.0878778  59.8471159  19.9268673
  16.0020486  63.2751768  29.9996035  16.5938326  63.9149019  30.0314233
  16.4379480  62.5774805  30.2888101  16.1538917  63.2670119  30.0476867
   4.6016903  56.6750266  17.1055112   4.9232744  56.1953349  16.4514375
   4.8643846  57.4849913  16.9145924   4.6882928  56.7240164  16.9810604
   7.8313875  67.6969141  30.6253929   7.3238967  68.2504988  31.0694559
   7.5340522  67.7577431  29.8072703   7.7118760  67.7875452  30.5702385
   9.9976058  56.0622460  29.4678592  10.4231129  55.6094987  28.8562118
   9.3833051  55.5082531  29.7443379   9.9704703  55.9136437  29.4183617
   8.4370281  52.5337560  22.8769169   7.7938599  52.3835207  23.4454307
   8.0969688  52.2879906  22.1118273   8.2915358  52.4749683  22.8472184
  13.0269627  60.4896987  22.2999177  12.3560817  61.0326689  22.1712243
  13.7209377  60.9591842  22.0580872  13.0298495  60.6395258  22.2454705
  13.1897754  56.9452871  25.2089550  13.5425365  56.5182594  25.8835349
  12.3312556  56.8603714  25.3390627  13.1147199  56.8697611  25.3284561
   1.8881439  59.5760390  23.2672397   1.1693429  59.9924523  23.5345260
   2.2593802  60.1414629  22.7164035   1.8373371  59.7209672  23.2255204
  11.1881020  60.2088239  29.1574393  11.1678948  60.0271534  30.0109171
  11.2360221  61.0800258  29.1333976  11.1915661  60.3104778  29.2797687
   9.1327350  66.7975431  35.0822869   9.0923205  66.1525108  34.4968025
   9.9450668  66.7412049  35.3948281   9.2470504  66.6934398  35.0419818
   7.6628014  58.6158390  18.6045776   7.0692853  58.9375387  18.0530343
   7.7003292  57.7699486  18.3966882   7.5802403  58.5382719  18.4928548
  14.6221815  52.0671283  26.1373863  14.1152679  51.3600422  26.0695040
  15.4189248  51.7364471  26.2674939  14.6649054  51.9144434  26.1472858
  10.5385830  58.5737895  22.0347527  10.3099523  58.5970596  21.1925885
  10.7983907  57.7495362  22.1542537  10.5432018  58.4553975  21.9272724
   4.8205059  60.4272368  31.6372627   4.3083962  59.8193551  31.9957658
   4.6484555  61.1428960  32.1046603   4.7194696  60.4435667  31.7588850
   3.5930593  57.1114441  23.3301722   4.0687959  57.4731521  22.6951903
   3.0919193  57.7670909  23.6101865   3.5895952  57.2608630  23.2778463
  16.8241955  66.5836209  19.1214727  17.2075560  67.3327565  19.3512824
  16.0286068  66.8302029  18.8626716  16.7635737  66.7305903  19.1172301
   8.6974129  58.3496612  34.0774882   9.2545559  58.1210422  33.4453348
   8.3735194  59.1102278  33.8010095   8.7320539  58.4280449  33.9431379
   6.4157246  61.4364266  35.0426889   7.1668573  61.7515943  35.3566444
   6.6079823  61.2343437  34.2160811   6.5548661  61.4531648  34.9670285
   5.6357246  59.2555641  16.6975106   6.0156211  59.2735270  15.9126221
   4.8949842  59.7009630  16.5765954   5.5826084  59.3237416  16.5638674
  13.2642537  57.5637832  22.2850685  13.2636763  57.4086489  23.1434961
  13.0598717  58.4100819  22.2292070  13.2342314  57.6658453  22.4038624
  10.9883389  62.2435334  25.9386892  11.4837054  61.5258329  25.8990912
  10.1783164  61.9406132  25.8241379  10.9427282  62.0932980  25.9160618
  13.0535208  64.9939021  28.6264021  13.4790279  64.4713443  28.0734446
  12.6892127  65.5919859  28.1052643  13.0621810  65.0049248  28.4673030
   9.6413807  68.7073286  24.9565178  10.1124985  69.4213548  25.1255163
   9.9773985  68.1072036  25.4925047   9.7608922  68.7244750  25.0597554
  11.7290792  70.3174599  37.1357250  11.8387757  69.5283160  37.4913997
  12.0581688  70.2280535  36.3331588  11.7943197  70.1880452  37.0699641
   6.5583302  53.4800756  31.9123273   6.6911208  52.6831750  32.2404248
   6.9428455  54.0067159  32.4921548   6.6339631  53.4400673  32.0466776
  10.2787753  68.4991220  31.7192871   9.7308699  67.8749103  31.4512936
  10.7400782  68.6885492  31.0036950  10.2654963  68.4350270  31.5743302
   9.6315657  50.4031082  28.5104366   8.8261621  50.2928812  28.8272204
   9.5022393  50.5043538  27.6534232   9.4935790  50.4014752  28.4312406
  13.0881618  56.5676574  29.1044063  12.5044606  57.0685781  28.6921630
  13.4085912  56.0606130  28.4708386  13.0494793  56.5668409  28.9502570
   5.6276417  55.4817169  19.3802738   6.4492111  55.6515482  19.1384433
   5.1646068  55.6364430  18.6569035   5.6807579  55.5298902  19.2374382
   4.2171749  53.4759931  30.1601167   4.7616162  53.1351058  30.7505508
   4.2708684  54.3345393  30.3022451   4.3060868  53.5515191  30.2683040
   9.8446080  69.5042292  28.2502212  10.6644453  69.3605259  28.5118507
   9.5640157  70.1288491  28.7918650   9.9242823  69.5752645  28.3690151
  16.2435202  71.0961861  24.9388402  15.9138532  71.5473004  24.2692100
  15.5680203  71.0178024  25.4861408  16.0945638  71.1512996  24.9211625
  23.4511609  67.0847384  23.1838012  23.1365050  67.7750862  23.6158435
  22.9338551  67.0292166  22.4823513  23.3276080  67.1782272  23.1434962
  14.4491156  69.1574149  20.4211349  15.2037124  69.5252466  20.1828400
  14.2718690  69.5313704  21.1890529  14.5345634  69.2672337  20.4996238
  27.7426054  75.3068590  28.4658889  26.9054476  75.3770777  28.7006483
  27.7114285  75.3093085  27.5933191  27.6144337  75.3178817  28.3718437
  12.8048220  71.5644468  17.1189462  12.6223794  71.7816349  16.2930455
  13.6673833  71.6783481  17.1748077  12.9052810  71.6134366  17.0043950
  18.4847940  68.5670879  20.1538486  19.2134100  68.3886834  19.7076643
  18.5742832  69.4088959  20.3645664  18.6054602  68.6654757  20.1192004
  25.4233894  70.3711371  27.0502611  26.0659803  70.4409476  27.6364526
  25.6756915  69.7040594  26.5482153  25.5556026  70.2837720  27.0629890
  20.6585177  71.4648343  24.7613564  19.9541503  70.9757528  24.9197483
  20.7070151  71.4770817  23.8902009  20.5615228  71.3937991  24.6552904
  27.8615397  75.1456009  22.7814575  27.6051961  74.3335950  22.5912458
  28.7044710  75.1533576  22.5544762  27.9481422  75.0268006  22.7199392
  22.0418489  69.0855633  27.5190729  22.4229001  68.4033804  27.9058603
  21.2381773  68.7965235  27.3366393  21.9794951  68.9422681  27.5494785
  16.0010329  71.5909831  37.3853337  15.6863770  72.3609394  37.1222900
  15.6800262  71.0280087  36.8005564  15.9069248  71.6220100  37.2594687
  13.5542226  69.9800352  22.9999534  12.6864652  70.0522952  23.0657143
  13.8417431  70.7822431  23.1887509  13.4681974  70.1094500  23.0374300
  22.6775115  70.1278212  31.3310855  23.4228707  69.9388022  30.9174281
  22.2612420  70.6536450  30.7724712  22.7260089  70.1780357  31.1875429
  23.7565792  75.7383774  25.3920957  23.4130558  75.0174109  25.7428206
  23.8558835  75.5297625  24.5499315  23.7207835  75.6007977  25.3192637
  22.2756758  73.6575359  27.2680500  21.4367858  73.6836638  27.0318763
  22.3461125  74.3046094  27.8485846  22.1625151  73.7571485  27.3189616
  20.7226036  70.5560736  22.0008115  21.4252389  70.3568484  21.5228074
  20.4570225  69.7836678  22.3076959  20.7872668  70.4123702  21.9753557
  15.4854592  71.8196021  31.0538996  15.2937789  71.8351155  31.9038420
  16.3353188  72.0159695  31.0305651  15.5830314  71.8510372  31.1762291
  18.3958819  72.0151530  31.2610819  18.8531433  72.7475505  31.3883611
  18.4715148  71.5917996  32.0198075  18.4749789  72.0608768  31.3911896
  22.8686145  65.1941406  25.1304662  22.9869713  65.6517869  24.3971965
  22.6948321  64.3886667  24.8440880  22.8605316  65.1435178  24.9805596
  20.4448980  73.9392272  31.0835981  20.6590950  73.3003186  30.5299335
  19.8282879  74.3838096  30.6543843  20.3854309  73.9102416  30.9386412
  19.8363709  67.0492208  26.0723324  18.9657267  67.0230929  26.0256634
  20.0904050  66.8769400  25.2549170  19.7457269  67.0202352  25.9443461
  16.8612849  69.0598436  27.5296794  16.3451338  68.3678628  27.6548373
  16.3006778  69.7269213  27.4759393  16.7019363  69.0561694  27.5402860
  18.9305083  69.5991396  29.3589647  18.5436836  69.6240428  30.1403177
  18.4438020  69.0333075  28.9064164  18.8017592  69.5187147  29.4077551
  18.5962225  66.4858382  31.6499907  19.2255342  67.0218682  31.3720977
  18.7648087  66.3935741  32.5013473  18.7140019  66.5519744  31.7348435
  18.3976139  71.2729577  33.9226319  19.2249569  71.0014725  33.9784933
  18.4183985  72.0690418  34.2790137  18.5228989  71.3509331  33.9841501
  22.0886143  69.0194270  24.6185209  22.2935736  68.9516578  25.4642206
  21.7612567  69.8253092  24.5506386  22.0701391  69.1280211  24.7344864
  25.3419831  69.5726035  24.0987974  24.7294144  70.0596437  24.4841706
  25.4384006  68.8969525  24.6425625  25.2657728  69.5444343  24.2366832
  19.3438912  71.3288876  19.1985474  19.7982658  71.4999436  19.9233318
  19.8178957  70.7156986  18.7983249  19.4807232  71.2639761  19.2459235
  18.6031507  69.8281669  25.3362342  17.7567552  70.0004477  25.2103692
  18.6002640  69.0231013  25.6728171  18.4778657  69.7342698  25.3673469
  19.6729808  73.6056883  26.2024400  19.1989762  73.0798645  26.7129711
  20.0447943  73.0586356  25.6339262  19.6579696  73.4472880  26.1939547
  27.9371725  75.4460716  25.5660440  27.6981495  75.4056550  24.7281224
  28.1005626  76.2931868  25.6926161  27.9262029  75.5652801  25.4613922
  20.6215672  68.2025222  31.0044022  20.1256233  68.3988897  30.3135589
  21.3784734  68.6017891  30.8332824  20.6602497  68.2902956  30.8764159
  17.8918552  71.8767568  27.5947333  17.9161039  71.3427681  26.9060113
  18.1430025  71.3684877  28.2572923  17.9328470  71.7228472  27.5911977
  14.1719874  70.6038387  26.9753077  14.2118245  71.1047593  27.6887784
  13.3469539  70.6948780  26.7059000  14.0559400  70.6920203  27.0403615
  13.4018020  70.6107789  34.9083387  14.0270724  70.0669922  35.1812819
  12.9468500  70.1302707  34.3391177  13.4266281  70.4597271  34.8644980
  20.9708641  71.5807768  29.4678592  21.3963713  71.1280295  28.8562118
  20.3565634  71.0267839  29.7443379  20.9437287  71.4321745  29.4183617
  19.4102864  68.0522868  22.8769169  18.7671182  67.9020515  23.4454307
  19.0702271  67.8065213  22.1118273  19.2647941  67.9934991  22.8472184
  24.1630338  72.4638179  25.2089550  24.5157948  72.0367902  25.8835349
  23.3045140  72.3789022  25.3390627  24.0879783  72.3882919  25.3284561
  25.5954398  67.5856590  26.1373863  25.0885263  66.8785730  26.0695040
  26.3921832  67.2549779  26.2674939  25.6381637  67.4329742  26.1472858
  21.5118414  74.0923203  22.0347527  21.2832107  74.1155904  21.1925885
  21.7716490  73.2680670  22.1542537  21.5164602  73.9739283  21.9272724
  24.2375120  73.0823140  22.2850685  24.2369347  72.9271797  23.1434961
  24.0331300  73.9286127  22.2292070  24.2074898  73.1843761  22.4038624
  17.5315886  68.9986064  31.9123273  17.6643791  68.2017058  32.2404248
  17.9161038  69.5252467  32.4921548  17.6072214  68.9585981  32.0466776
  20.6048241  65.9216390  28.5104366  19.7994204  65.8114120  28.8272204
  20.4754976  66.0228846  27.6534232  20.4668374  65.9200060  28.4312406
  24.0614201  72.0861882  29.1044063  23.4777190  72.5871089  28.6921630
  24.3818495  71.5791438  28.4708386  24.0227377  72.0853717  28.9502570
  16.6009000  71.0002477  19.3802738  17.4224695  71.1700790  19.1384433
  16.1378651  71.1549738  18.6569035  16.6540163  71.0484210  19.2374382
  15.1904332  68.9945239  30.1601167  15.7348745  68.6536366  30.7505508
  15.2441268  69.8530701  30.3022451  15.2793452  69.0700499  30.2683040
   0.5738788  28.4176836  22.5098522   1.2805555  27.9228867  22.6385456
   0.7626724  28.8585918  21.7801180   0.7066694  28.4095187  22.4207567
   3.2926213  28.2013120  19.5513174   3.0564850  27.3701185  19.4325235
   3.9369442  28.1498727  20.1368018   3.3520883  28.0710808  19.6199068
   4.3162633  27.9857569  15.6141469   4.0108450  28.7185626  15.9754784
   3.5968849  27.5795498  15.3334255   4.1649976  28.0339302  15.6254606
  10.0164425  24.6250569  14.9409813   9.9488926  24.6446529  14.0712399
  10.0020088  25.4680897  15.1665483  10.0043182  24.7524304  14.8462290
   0.9162475  29.1566130  25.0780640   1.7297340  28.8851279  25.2385772
   0.7557441  28.8573670  24.2740836   1.0132423  29.0721056  24.9826046
   0.9837976  30.9092229  16.9908837   1.7730354  30.5581294  17.1110919
   1.1581573  31.7228617  16.7285471   1.1258257  30.9778086  16.9696705
   6.7330515  26.5450487  16.4605537   6.7913639  26.9937135  17.2065514
   6.0996983  26.9549299  16.0235617   6.6481811  26.6724221  16.5058085
   2.2903412  25.7318181  18.4305532   3.0137611  25.2790707  18.2516552
   2.0253374  26.0122847  17.6477860   2.3584685  25.7069149  18.2884247
   4.7238726  24.6944592  16.9336081   5.3156566  25.3341842  16.9654279
   5.1597721  23.9967628  17.2228148   4.8757157  24.6862942  16.9816914
   1.7753448  26.4131845  15.5604067   2.2008519  25.8906266  15.0074492
   1.4110368  27.0112682  15.0392690   1.7840050  26.4242072  15.4013077
   0.4509032  31.7367422  24.0697297   0.5605997  30.9475983  24.4254044
   0.7799929  31.6473358  23.2671635   0.5161438  31.6073275  24.0039688
  15.0377970  38.5799967   8.1485135  15.0071975  39.4344604   8.3203404
  15.6359319  38.2795260   8.7071279  15.1215128  38.6616464   8.2559937
   8.2377655  37.6675618  12.9038065   7.3815551  37.8284117  12.9547182
   8.2845309  36.7967682  12.9243126   8.1176767  37.5626420  12.9144131
  11.5471372  43.9362144  22.5098522  12.2538139  43.4414175  22.6385456
  11.7359307  44.3771226  21.7801180  11.6799277  43.9280494  22.4207567
   7.6148046  49.5777975  10.0371956   7.9987425  50.1464873   9.4976731
   7.5507187  48.8527485   9.5577772   7.6621473  49.5553438   9.8865818
  11.0829476  39.7267662  15.5469717  11.6285436  40.4052749  15.6063687
  11.0246353  39.5855123  14.6871299  11.1545391  39.8059664  15.4281778
   4.2003551  47.2156728  10.9338069   4.3013914  46.4057082  11.2435197
   3.6045296  47.1213675  10.3037748   4.1276090  47.0821757  10.8864308
  12.8594545  41.1552269   6.4203445  12.7434071  41.9059956   6.8495583
  13.6550432  40.8976223   6.6699532  12.9599134  41.2287116   6.5207536
   4.0404291  52.1334318  12.3352926   4.6841746  52.5747482  12.7249084
   4.3660546  51.3287744  12.2483184   4.1836119  52.0799512  12.3798403
   6.7926578  37.1462287   7.7907174   7.4906743  37.3250415   8.2828637
   7.1078911  36.6232627   7.1677563   6.9421916  37.0956060   7.7709184
   6.9814514  43.5332732   7.7786965   7.4208149  42.9249833   8.2241738
   6.8319177  43.1540106   7.0072430   7.0235980  43.3871204   7.7306133
   4.4486157  42.1276744  14.9805791   5.0935159  41.6349187  14.6616739
   4.6887934  42.2701531  15.8071869   4.5796742  42.0754187  15.0555324
   6.9872248  44.9731650  14.6312683   7.2695491  44.1783056  14.4099439
   7.7158409  45.4512238  14.6517744   7.1361812  44.9266247  14.6015699
   4.9653442  32.5154684  11.8728449   4.6356772  32.9665828  11.2032147
   4.2898444  32.4370847  12.4201455   4.8163878  32.5705819  11.8551672
  10.5823850  41.8859914   4.7317735  10.4975145  42.7420880   4.8767304
  11.0708234  41.6104238   5.3999894  10.6412748  41.9717235   4.8519816
  11.5142284  38.5044708   6.2315470  10.9853755  38.7204341   6.8912776
  12.0367304  39.1980846   6.1516439  11.5130737  38.6387845   6.3171069
  16.9690337  44.0791012  11.6048514  16.1388040  44.2901656  11.7681931
  16.9199589  43.2528067  11.3290798  16.8397072  43.9880619  11.5885880
   5.0300074  46.9094867  14.4396424   4.5127016  46.5502282  13.8357732
   5.7274465  46.3857041  14.4502490   5.0565655  46.7792554  14.3526682
   8.6863666  47.3589681  20.4012597   8.7747012  47.1715821  21.2490807
   9.1153379  46.7127110  20.0017444   8.7625768  47.2352688  20.4684348
   6.2534126  46.6420841  19.3830259   5.6904961  46.2293450  19.9069920
   7.0155149  46.5673746  19.8023402   6.2828574  46.5698241  19.5223259
   1.8130117  48.6318862  11.9866889   2.5150697  48.1170851  12.0439646
   1.7327600  48.9593013  12.7913764   1.9053878  48.6033088  12.1139681
  16.4644295  36.7261413  15.3998936  15.6272716  36.7963600  15.6346530
  16.4332526  36.7285908  14.5273238  16.3362577  36.7371640  15.3058484
   2.8609024  38.8694449  21.1147304   3.0329528  38.7600343  21.9632586
   3.3978381  39.5148854  20.8778497   2.9654028  38.9486450  21.2052401
   1.1380893  44.8225214  11.4952497   1.9769792  45.0548147  11.5426259
   1.1692662  43.9529525  11.4259533   1.2662610  44.7282160  11.4917142
   1.7633596  45.2426089  15.7965803   2.3031821  45.0997220  16.4669175
   1.0803542  45.6422840  16.1649829   1.7425750  45.2805760  15.9500224
  11.1874481  40.9217090  10.9910827  11.9431996  41.3548604  11.0299736
  11.2936805  40.2721859  11.5645463  11.3144651  40.8894573  11.0808853
  14.2254652  44.7490367  11.7413230  13.7889884  44.7527109  12.4972201
  13.8917567  45.4295866  11.3092808  14.1117272  44.8502823  11.7894063
   8.7983725  46.7898700  23.0656380   9.5824142  46.9029547  23.4312123
   8.5980320  45.9639837  23.2615066   8.8849751  46.6845419  23.1490766
  14.1452135  31.7904195  13.9842658  14.7878043  31.8602299  14.5704573
  14.3975155  31.1233418  13.4822200  14.2774267  31.7030543  13.9969937
   1.9169347  35.0004758  18.5967232   1.2241144  34.5301738  18.8427964
   2.5329675  34.7743063  19.1708939   1.9053877  34.8971890  18.7176385
   8.9554119  48.7008802  16.7122836   8.1569364  48.4608302  16.9696705
   9.4040130  48.7523195  17.4589884   8.9028730  48.6731193  16.8607760
  17.3598998  41.4671287  10.6332867  18.0215432  40.9061955  10.5328776
  16.7190410  40.9723317  10.9585558  17.3627865  41.3107696  10.6665207
  13.6463829  42.4836669  10.3744856  13.8819418  42.6281868   9.5471707
  13.7953392  43.2479077  10.7676370  13.7029632  42.6175723  10.3108460
   0.6409906  38.9670162  19.7394077   1.3649878  38.9523193  20.2258972
   0.7426043  39.6765517  19.2416045   0.7628115  39.0694865  19.7372864
  15.4754285  41.3238335   8.2114460  15.8062502  41.8565975   7.6054555
  16.0487373  41.3777223   8.8676411  15.6087965  41.4107904   8.2192242
   8.0154856  42.4469247  24.6043024   7.2227836  42.7612758  24.7895644
   8.1303783  42.6620715  23.7663809   7.9150266  42.5253083  24.5081359
  10.6886175  39.1703238   8.8938040  10.7833029  39.9092532   9.3477665
  10.0645018  38.7420713   9.3272605  10.6095205  39.2164558   9.0246188
   8.9438648  42.3489450  19.5428321   9.5177510  41.7116695  19.6976885
   8.8653452  42.3493533  18.6737979   9.0171883  42.2554562  19.4374732
   4.3002367  40.7812715  11.5949518   4.0421611  39.9484450  11.5680818
   4.3550850  41.0070328  10.7542019   4.2702145  40.6910487  11.4669655
   9.3803417  32.8841166  11.6953611   8.6759744  32.3950352  11.8537530
   9.4288391  32.8963641  10.8242055   9.2833469  32.8130814  11.5892951
   3.2737079  38.3350478  12.0814413   2.6986670  38.4942646  12.7178374
   2.8972755  37.6985887  11.6182864   3.1339891  38.2648291  12.1068971
   6.9410368  36.8073827  16.9406791   6.5524801  36.3828045  16.2858983
   6.2765066  37.0555977  17.4483818   6.7857296  36.7812548  16.9194659
  16.5833637  36.5648832   9.7154622  16.3270202  35.7528773   9.5252504
  17.4262951  36.5726399   9.4884809  16.6699662  36.4460829   9.6539439
  10.7636729  30.5048456  14.4530776  11.1447241  29.8226627  14.8398650
   9.9600014  30.2158058  14.2706440  10.7013191  30.3615504  14.4834832
   8.0449306  41.0372432   5.1383598   8.8589945  41.3287325   5.0266370
   7.9808447  40.3832294   4.5641891   8.1552045  40.9837627   5.0372436
  14.2658796  43.7198428  19.5513174  14.0297434  42.8886493  19.4325235
  14.9102025  43.6684035  20.1368018  14.3253467  43.5896116  19.6199068
   3.9157214  44.5093949  10.2655911   4.5531161  44.2705697  10.8107704
   4.3412286  44.7131108   9.5309071   4.0733381  44.5044959  10.2373068
   4.7228570  33.0102654  24.3193384   4.4082011  33.7802217  24.0562947
   4.4018502  32.4472910  23.7345611   4.6287489  33.0412923  24.1934734
  15.2895217  43.5042877  15.6141469  14.9841034  44.2370934  15.9754784
  14.5701432  43.0980806  15.3334255  15.1382559  43.5524610  15.6254606
   6.2978686  44.9866372  11.9449697   6.3717695  44.8241544  12.7991547
   7.1148193  45.1756561  11.7010178   6.4295045  44.9903114  12.0347722
  20.9897009  40.1435877  14.9409813  20.9221509  40.1631837  14.0712399
  20.9752671  40.9866205  15.1665483  20.9775765  40.2709612  14.8462290
  11.3993355  31.5471035  18.2650902  12.1446947  31.3580845  17.8514328
  10.9830660  32.0729273  17.7064759  11.4478330  31.5973180  18.1215476
  18.7755626  38.9180264  13.2156407  19.3263548  38.2848333  13.4553499
  18.7599742  39.4495656  13.9071912  18.8540823  38.9029212  13.3535265
   5.4278017  42.7518861  17.7616301   4.9289711  43.4634629  17.8401189
   6.2378241  43.0719527  17.7234463   5.4734124  42.9045709  17.7672869
   1.6906135  42.0141814  12.0079022   1.4019383  41.3879285  12.5424749
   2.5589483  41.9562101  12.0743702   1.7766387  41.9129358  12.0969976
  12.4784033  37.1576597  12.3261003  12.1348798  36.4366932  12.6768253
  12.5777075  36.9490448  11.4839362  12.4426075  37.0200801  12.2532683
  12.9397062  43.6202301   7.8684992  13.5055094  44.2795511   7.7843535
  12.2924965  43.9651999   8.3401394  12.9275818  43.7684243   7.9257748
   4.3545075  35.6099905  23.0578599   3.5444851  35.9157685  22.9468441
   4.8319762  36.3305488  23.1731183   4.3048554  35.7614506  23.0585670
   3.2136635  44.8245626  13.3061502   2.6917388  44.9645918  13.9913367
   3.6010655  44.0656291  13.4963619   3.1940336  44.7331150  13.4362579
   9.4103640  46.5641086   7.2922071   9.1690316  45.8308946   6.8849136
   9.5904973  47.1127943   6.6388404   9.4011264  46.5363477   7.1352294
   4.6402960  41.8549645   8.7042993   4.4445743  42.4624380   8.1103296
   4.8637306  41.1617589   8.2234667   4.6437601  41.8427171   8.5459074
   3.0381490  38.7404383   8.8223861   3.7604142  38.9045541   8.3627667
   2.5589483  39.4614048   8.7163201   3.0745221  38.8702613   8.7389475
  10.9974998  35.0768182  14.2020546  10.1586099  35.1029461  13.9658810
  11.0679365  35.7238917  14.7825893  10.8843391  35.1764308  14.2529663
   9.4444276  31.9753559   8.9348162  10.1470629  31.7761307   8.4568121
   9.1788465  31.2029501   9.2417006   9.5090909  31.8316525   8.9093604
  14.8732522  40.2836169  11.4881788  14.7866496  40.4391595  12.3416567
  14.4183002  40.9274244  11.1141193  14.7935778  40.4011924  11.5588895
   4.2072832  33.2388844  17.9879043   4.0156029  33.2543979  18.8378466
   5.0571428  33.4352519  17.9645698   4.3048554  33.2703195  18.1102338
   8.7458338  37.6046916  10.1107348   8.4993052  37.5242667  10.9444137
   9.0743461  36.8200384   9.9169875   8.7579581  37.4773181  10.2054871
  12.6406387  44.3130275  13.8994129  12.5020746  45.0111321  14.4042871
  11.8606385  44.1578932  13.5430311  12.5049613  44.3930442  13.9220403
  10.9784472  40.6126651  20.1516511  10.9732510  39.7406467  20.1558937
  11.6845466  40.8114820  19.6785966  11.0829476  40.5130525  20.0823546
   4.7055365  40.3403634  19.5230331   4.8498741  40.9204843  18.8873441
   5.0531014  40.7179931  20.2280185   4.7782826  40.4824339  19.5329326
   6.8775282  39.5393803  17.3055462   6.1298596  39.7324817  16.9003740
   7.0316808  38.7139022  17.0679584   6.7897710  39.4458914  17.2100868
   3.7783120  48.5306406  16.3891358   3.9272684  47.9709322  15.7364762
   4.5583122  48.6098408  16.7723876   3.9157214  48.4591972  16.3488307
  14.1359759  43.6708529   4.6610628  13.7566568  42.8845667   4.6539917
  13.4726005  44.2195386   4.5182272  13.9818234  43.6353353   4.6391425
   6.3036421  48.7021049  17.6675848   6.2280092  48.0329860  18.2226637
   6.2326280  49.4038837  18.1816515   6.2817028  48.7065957  17.8252696
   7.1177059  33.4344354  18.1950866   7.5749674  34.1668328  18.3223658
   7.1933388  33.0110819  18.9538122   7.1968029  33.4801592  18.3251943
  11.5904385  26.6134229  12.0644709  11.7087954  27.0710692  11.3312012
  11.4166561  25.8079490  11.7780927  11.5823556  26.5628001  11.9145643
   6.9606668  47.2222048   8.4999454   7.7256559  46.9531692   8.1782119
   6.8584758  46.7372058   9.2169517   7.0588163  47.1111613   8.5579282
   4.9959437  35.4246458  15.0392690   4.2055512  35.2437918  15.3610026
   5.3920060  34.6473410  15.0222985   4.9376314  35.2833918  15.0845238
  10.3803124  43.0588888  12.7652136   9.7048126  42.8274120  13.2665523
  10.3895500  42.4510071  12.1394241  10.2821628  42.9347813  12.7468288
   7.5097268  37.9006717  19.5216189   7.4456409  38.7616673  19.3936326
   7.6494455  37.5838710  18.7211740   7.5212738  37.9806883  19.3844402
  12.3819858  45.9154020   4.9962314  12.4639696  46.7221006   4.6723765
  12.8669600  45.9349979   5.7203087  12.4657016  46.0374682   5.0549213
   6.1916362  40.5938856  13.6632392   5.7678611  40.7943355  12.9271410
   6.0161217  39.7467704  13.7756692   6.1027242  40.4987637  13.5706082
   5.6928055  52.1089369  16.1253849   6.1823985  51.4100158  15.9429514
   5.1212287  51.8113239  16.7129906   5.6812585  51.9615593  16.1854890
   1.4798807  41.0890907   9.0960364   1.6363426  41.0237710   9.9516356
   1.8199400  41.8639460   8.8839044   1.5532041  41.1940106   9.1914959
   8.0177951  40.4648791   7.9653728   8.5593497  39.9619172   8.4292348
   8.3324510  40.4113986   7.1543213   8.1442348  40.3828212   7.9137540
  11.8895059  44.6751438  25.0780640  12.7029924  44.4036587  25.2385772
  11.7290025  44.3758978  24.2740836  11.9865007  44.5906364  24.9826046
   9.1667221  35.3585095  18.0176028   9.3809190  34.7196010  17.4639382
   8.5501120  35.8030919  17.5883890   9.1072550  35.3295239  17.8726459
  10.5771888  48.2803844   9.4630249  10.1851680  47.9770559   8.7453115
  10.7324961  49.1172934   9.2735203  10.5425478  48.3587681   9.3286746
  11.3306309  36.9674161  18.9559335  10.5182990  36.6600051  19.0372508
  11.7896243  36.4873161  19.5202047  11.2786693  36.8510653  19.0513929
  10.7411563  44.8453833   9.4036280  10.3826218  45.0168476  10.1800312
  10.2550274  45.3067038   8.8464278  10.6170260  44.9392804   9.4361549
   8.5581949  28.4685031  13.0063371   7.6875507  28.4423752  12.9596680
   8.8122290  28.2962223  12.1889217   8.4675509  28.4395175  12.8783508
   8.4259816  38.3734232  23.7388037   8.8959447  38.9976349  24.1255912
   8.4721696  37.7051208  24.2981252   8.5027692  38.3668912  23.8788109
   5.5831090  30.4791260  14.4636841   5.0669578  29.7871451  14.5888420
   5.0225019  31.1462037  14.4099440   5.4237603  30.4754517  14.4742907
   7.6523323  31.0184220  16.2929694   7.2655076  31.0433251  17.0743224
   7.1656260  30.4525898  15.8404210   7.5235832  30.9379970  16.3417598
  11.9016303  45.7357729  20.3503480  12.5396023  45.2417924  20.0165936
  11.2590394  45.6635129  19.7655707  11.9010529  45.6516737  20.2145835
  13.6273303  37.5846875  14.9169396  13.2000911  37.4973223  14.1617496
  12.9899356  37.6924650  15.5024240  13.4702910  37.5879534  14.8914838
   7.3180465  27.9051205  18.5839954   7.9473583  28.4411505  18.3061024
   7.4866328  27.8128564  19.4353519   7.4358259  27.9712567  18.6688482
   7.1194380  32.6922400  20.8566365   7.9467809  32.4207549  20.9124980
   7.1402226  33.4883242  21.2130183   7.2447230  32.7702154  20.9181548
  11.9570559  46.4277537  16.9908837  12.7462937  46.0766602  17.1110919
  12.1314157  47.2413925  16.7285471  12.0990841  46.4963394  16.9696705
   1.6963870  39.8386263  14.0436626   0.8551876  39.7390137  14.2515520
   1.9053878  40.6081743  14.3950947   1.6028562  39.9378306  14.1263941
  10.8104383  30.4387094  11.5525256  11.0153977  30.3709401  12.3982253
  10.4830807  31.2445915  11.4846433  10.7919631  30.5473034  11.6684911
   5.5080534  37.7667662  13.2934224   5.2043672  37.2123650  13.8944631
   4.8059955  37.9459872  12.8062258   5.3596744  37.7112444  13.3103929
   3.5698885  44.9817383  18.0006321   3.4619240  44.9919445  18.8668379
   3.7794667  45.8072163  17.8111275   3.5848997  45.1058457  18.1010413
  14.0638071  30.9918858  11.0328021  13.4512385  31.4789260  11.4181753
  14.1602246  30.3162349  11.5765672  13.9875969  30.9637167  11.1706879
   1.5872677  42.2330025  15.4628259   0.9960611  42.8739523  15.4331274
   2.3493701  42.6567642  15.4359558   1.6120938  42.3905863  15.4543406
   1.9833300  33.3932023  16.1296276   2.4434782  33.4670952  16.8671400
   2.0289407  34.1913277  15.7796098   2.0583856  33.5226170  16.1869033
   3.6316650  34.0598718  20.6968304   3.2402215  33.4132065  21.1324081
   3.8002513  34.6510153  21.3162559   3.5987560  34.0512985  20.8531010
  17.7063099  42.0635795  16.4605537  17.7646223  42.5122443  17.2065514
  17.0729567  42.4734607  16.0235617  17.6214394  42.1909529  16.5058085
  11.3462194  47.6839337  12.8960283  11.1481882  48.1730151  12.2016495
  10.7249905  47.8880578  13.4744417  11.2249758  47.7855875  12.8783507
   5.4070172  39.4524233   7.2370528   6.1512217  39.8398510   7.4753477
   5.5530868  38.6081659   7.4011015   5.5380757  39.3854706   7.2964497
   7.3249748  31.2474492  12.2702389   6.4785793  31.4197300  12.1443739
   7.3220880  30.4423836  12.6068217   7.1996897  31.1535521  12.3013516
   8.3948048  35.0249707  13.1364447   7.9208002  34.4991469  13.6469758
   8.7666184  34.4779179  12.5679308   8.3797937  34.8665703  13.1279594
  14.6584778  40.0852082  14.5471227  14.4183001  39.2458497  14.5513654
  15.1376786  40.1652249  15.2712001  14.6936962  39.9733482  14.6546030
  16.6589965  36.8653540  12.5000487  16.4199735  36.8249374  11.6621271
  16.8223867  37.7124692  12.6266208  16.6480269  36.9845625  12.3953969
  13.2635996  41.2503489  18.4305532  13.9870194  40.7976015  18.2516552
  12.9985958  41.5308154  17.6477860  13.3317269  41.2254457  18.2884247
   2.1322864  35.8463662  15.1658411   1.5075934  35.8582054  14.5584364
   1.7968459  36.3223837  15.8149651   1.9908356  35.9182179  15.1714979
   9.8768630  44.4889825   5.3299858  10.6002829  44.9547938   5.1864431
   9.4369221  44.5563434   4.5797455   9.9184322  44.5673662   5.1984639
   9.0454785  41.3487367  16.5800547   8.4311778  40.8045417  16.8749182
   9.5622070  40.8351604  16.1006363   9.0310448  41.1923776  16.5524775
   8.2851082  42.4191637  14.3144845   7.8578690  41.7941356  13.8810281
   8.2776027  42.1366559  15.1403853   8.2210223  42.2844418  14.3724673
   1.4013609  37.4556810  17.3833279   1.5607096  36.7000134  17.7885001
   1.2206503  38.0047750  18.0374017   1.3978968  37.4250624  17.5395985
   9.3433912  29.6218046  17.9384069   8.8474474  29.8181720  17.2475636
  10.1002974  30.0210714  17.7672871   9.3820737  29.7095780  17.8104206
   6.6136792  33.2960392  14.5287379   6.6379279  32.7620504  13.8400159
   6.8648266  32.7877700  15.1912970   6.6546711  33.1421296  14.5252024
   2.8938114  32.0231210  13.9093124   2.9336486  32.5240416  14.6227831
   2.0687779  32.1141604  13.6399047   2.7777640  32.1113026  13.9743662
   5.0767727  41.5891950  22.0113418   4.2263358  41.7263664  22.1471063
   5.2395855  40.8555728  22.4561120   4.9751591  41.5006051  22.0969017
   4.3152478  38.5391720  16.2067023   3.4844407  38.7065538  16.0002271
   4.2603995  38.1627670  16.9915908   4.1841892  38.5081451  16.2915551
   2.1236261  32.0300613  21.8423433   2.7488964  31.4862745  22.1152866
   1.6686741  31.5495530  21.2731224   2.1484521  31.8790094  21.7985027
  15.6971310  40.2129900  16.9336081  16.2889150  40.8527150  16.9654279
  16.1330304  39.5152936  17.2228148  15.8489741  40.2048250  16.9816914
   7.5264699  44.6347272  17.5593975   7.0189791  45.1883119  18.0034606
   7.2291346  44.6955562  16.7412750   7.4069584  44.7253583  17.5042432
   9.6926882  33.0000592  16.4018638  10.1181953  32.5473118  15.7902165
   9.0783875  32.4460662  16.6783426   9.6655527  32.8514568  16.3523664
  12.7220451  37.4275118   9.2339224  12.0511641  37.9704821   9.1052289
  13.4160201  37.8969974   8.9920919  12.7249318  37.5773389   9.1794752
  12.8848578  33.8831002  12.1429597  13.2376189  33.4560725  12.8175396
  12.0263380  33.7981845  12.2730674  12.8098023  33.8075743  12.2624608
   1.5832263  36.5138522  10.2012444   0.8644253  36.9302654  10.4685307
   1.9544626  37.0792760   9.6504082   1.5324195  36.6587803  10.1595251
  10.8831844  37.1466370  16.0914439  10.8629772  36.9649666  16.9449218
  10.9311045  38.0178389  16.0674023  10.8866485  37.2482909  16.2137734
   8.8278174  43.7353562  22.0162916   8.7874029  43.0903239  21.4308072
   9.6401492  43.6790180  22.3288328   8.9421328  43.6312529  21.9759865
   5.4185642  49.7872288  11.9188067   5.0046040  49.1246419  11.5291909
   6.1033016  49.9350147  11.3983761   5.4584013  49.7112947  11.7844564
   8.7850936  48.9462374  12.6711683   8.3867219  49.0564644  11.9032504
   8.1702155  49.1544440  13.2538243   8.6349825  48.9935942  12.6442983
  14.3172639  29.0049414  13.0713910  13.8103503  28.2978553  13.0035087
  15.1140072  28.6742603  13.2014986  14.3599878  28.8522565  13.0812905
  10.2336654  35.5116026   8.9687573  10.0050347  35.5348727   8.1265932
  10.4934731  34.6873493   9.0882584  10.2382842  35.3932106   8.8612771
   4.5155883  37.3650499  18.5712674   4.0034786  36.7571682  18.9297705
   4.3435379  38.0807092  19.0386649   4.4145520  37.3813798  18.6928897
   3.2881417  34.0492572  10.2641769   3.7638783  34.4109652   9.6291950
   2.7870017  34.7049040  10.5441912   3.2846776  34.1986761  10.2118510
  16.5192778  43.5214340   6.0554774  16.9026384  44.2705697   6.2852871
  15.7236892  43.7680160   5.7966763  16.4586561  43.6684034   6.0512348
   8.3924953  35.2874744  21.0114929   8.9496383  35.0588553  20.3793395
   8.0686018  36.0480409  20.7350142   8.4271363  35.3658580  20.8771426
   6.1108070  38.3742397  21.9766936   6.8619397  38.6894074  22.2906490
   6.3030647  38.1721568  21.1500858   6.2499485  38.3909779  21.9010332
  12.9593361  34.5015963   9.2190732  12.9587587  34.3464620  10.0775008
  12.7549541  35.3478950   9.1632117  12.9293138  34.6036584   9.3378671
  10.6834213  39.1813465  12.8726939  11.1787878  38.4636460  12.8330959
   9.8733988  38.8784263  12.7581426  10.6378106  39.0311111  12.8500664
  12.7486031  41.9317153  15.5604067  13.1741103  41.4091574  15.0074492
  12.3842951  42.5297990  15.0392690  12.7572634  41.9427380  15.4013077
   2.3840111  50.2281370  14.3201413   2.6986670  51.0417759  14.3279195
   2.7933525  49.8431589  14.9883572   2.4908209  50.2910072  14.4205504
   9.3364631  45.6451417  11.8905225   9.8075809  46.3591679  12.0595210
   9.6724809  45.0450167  12.4265094   9.4559746  45.6622881  11.9937601
  11.4241615  47.2552730  24.0697297  11.5338581  46.4661291  24.4254044
  11.7532512  47.1658666  23.2671635  11.4894021  47.1258583  24.0039688
   6.2534126  30.4178887  18.8463320   6.3862031  29.6209881  19.1744295
   6.6379279  30.9445290  19.4261595   6.3290455  30.3778804  18.9806823
   9.9738577  45.4369351  18.6532917   9.4259523  44.8127235  18.3852983
  10.4351606  45.6263623  17.9376997   9.9605787  45.3728401  18.5083349
   9.3266481  27.3409214  15.4444413   8.5212445  27.2306943  15.7612251
   9.1973217  27.4421669  14.5874279   9.1886614  27.3392884  15.3652453
  12.7832442  33.5054705  16.0384110  12.1995430  34.0063912  15.6261677
  13.1036736  32.9984262  15.4048433  12.7445617  33.5046540  15.8842617
   3.9122573  30.4138062  17.0941213   4.4566986  30.0729189  17.6845555
   3.9659508  31.2723524  17.2362498   4.0011692  30.4893322  17.2023087
   9.5396904  46.4420424  15.1842259  10.3595277  46.2983390  15.4458554
   9.2590981  47.0666623  15.7258697   9.6193647  46.5130776  15.3030198
  26.0110554  54.0985275   8.1485135  25.9804558  54.9529912   8.3203404
  26.6091903  53.7980568   8.7071279  26.0947712  54.1801772   8.2559937
  19.2110239  53.1860926  12.9038065  18.3548134  53.3469425  12.9547182
  19.2577892  52.3152990  12.9243126  19.0909350  53.0811728  12.9144131
  22.5203955  59.4547452  22.5098522  23.2270723  58.9599483  22.6385456
  22.7091891  59.8956534  21.7801180  22.6531861  59.4465802  22.4207567
  18.5880630  65.0963282  10.0371956  18.9720009  65.6650181   9.4976731
  18.5239771  64.3712793   9.5577772  18.6354057  65.0738746   9.8865818
  22.0562060  55.2452970  15.5469717  22.6018020  55.9238057  15.6063687
  21.9978936  55.1040431  14.6871299  22.1277974  55.3244972  15.4281778
  15.1736135  62.7342036  10.9338069  15.2746498  61.9242390  11.2435197
  14.5777880  62.6398983  10.3037748  15.1008673  62.6007065  10.8864308
  23.8327128  56.6737577   6.4203445  23.7166654  57.4245263   6.8495583
  24.6283015  56.4161531   6.6699532  23.9331718  56.7472424   6.5207536
  15.0136874  67.6519626  12.3352926  15.6574330  68.0932790  12.7249084
  15.3393130  66.8473052  12.2483184  15.1568703  67.5984820  12.3798403
  10.6691266  50.9248054  13.4574711  10.0496298  50.3340701  13.2884726
  10.5675130  51.5159489  12.8239034  10.5628942  50.9252136  13.3379700
  17.7659162  52.6647595   7.7907174  18.4639327  52.8435723   8.2828637
  18.0811495  52.1417935   7.1677563  17.9154499  52.6141367   7.7709184
  10.3960399  54.4700335  15.7018280  10.2719096  55.0562781  16.3368099
  11.0478684  53.9760531  16.0030555  10.4734049  54.4839140  15.8404209
  17.9547097  59.0518040   7.7786965  18.3940733  58.4435141   8.2241738
  17.8051760  58.6725414   7.0072430  17.9968563  58.9056512   7.7306133
  15.4218740  57.6462052  14.9805791  16.0667743  57.1534495  14.6616739
  15.6620517  57.7886839  15.8071869  15.5529326  57.5939494  15.0555324
  17.9604832  60.4916958  14.6312683  18.2428075  59.6968364  14.4099439
  18.6890992  60.9697546  14.6517744  18.1094395  60.4451555  14.6015699
  15.9386026  48.0339992  11.8728449  15.6089356  48.4851136  11.2032147
  15.2631027  47.9556155  12.4201455  15.7896462  48.0891127  11.8551672
  21.5556434  57.4045222   4.7317735  21.4707729  58.2606188   4.8767304
  22.0440817  57.1289546   5.3999894  21.6145331  57.4902543   4.8519816
  23.1462433  44.0225515  10.1178059  22.8315874  44.7128994  10.5498482
  22.6289375  43.9670297   9.4163560  23.0226904  44.1160403  10.0775008
  22.4874867  54.0230016   6.2315470  21.9586339  54.2389649   6.8912776
  23.0099887  54.7166154   6.1516439  22.4863320  54.1573153   6.3171069
  27.9422920  59.5976320  11.6048514  27.1120623  59.8086964  11.7681931
  27.8932172  58.7713375  11.3290798  27.8129656  59.5065927  11.5885880
  16.0032658  62.4280174  14.4396424  15.4859599  62.0687589  13.8357732
  16.7007049  61.9042349  14.4502490  16.0298239  62.2977862  14.3526682
  19.6596250  62.8774989  20.4012597  19.7479595  62.6901129  21.2490807
  20.0885962  62.2312418  20.0017444  19.7358352  62.7537996  20.4684348
  17.2266709  62.1606149  19.3830259  16.6637544  61.7478758  19.9069920
  17.9887733  62.0859054  19.8023402  17.2561158  62.0883549  19.5223259
  18.8351689  54.1658885   3.5091858  19.0747693  54.3736868   2.6967201
  19.1567530  53.3616393   3.6180803  18.9188847  54.0772986   3.4052411
  14.1441980  46.0952280   7.3551396  14.8987948  46.4630598   7.1168446
  13.9669514  46.4691835   8.1230576  14.2296458  46.2050468   7.4336285
  12.7862701  64.1504170  11.9866889  13.4883280  63.6356159  12.0439646
  12.7060184  64.4778321  12.7913764  12.8786461  64.1218396  12.1139681
  27.4376878  52.2446721  15.3998936  26.6005299  52.3148908  15.6346530
  27.4065109  52.2471216  14.5273238  27.3095161  52.2556948  15.3058484
  13.8341607  54.3879757  21.1147304  14.0062111  54.2785651  21.9632586
  14.3710965  55.0334162  20.8778497  13.9386611  54.4671758  21.2052401
  12.4999044  48.5022599   4.0529509  12.3174618  48.7194480   3.2270502
  13.3624657  48.6161612   4.1088124  12.6003634  48.5512497   3.9383996
  12.1113476  60.3410522  11.4952497  12.9502376  60.5733454  11.5426259
  12.1425245  59.4714833  11.4259533  12.2395194  60.2467468  11.4917142
  12.7366179  60.7611397  15.7965803  13.2764404  60.6182528  16.4669175
  12.0536126  61.1608148  16.1649829  12.7158333  60.7991068  15.9500224
  18.1798764  45.5049010   7.0878533  18.9084924  45.3264965   6.6416689
  18.2693656  46.3467090   7.2985711  18.3005426  45.6032889   7.0532051
  22.1607064  56.4402397  10.9910827  22.9164579  56.8733912  11.0299736
  22.2669389  55.7907167  11.5645463  22.2877235  56.4079881  11.0808853
  25.1987235  60.2675675  11.7413230  24.7622467  60.2712417  12.4972201
  24.8650151  60.9481174  11.3092808  25.0849855  60.3688131  11.7894063
  19.7716309  62.3084008  23.0656380  20.5556726  62.4214855  23.4312123
  19.5712903  61.4825145  23.2615066  19.8582334  62.2030727  23.1490766
   8.1403324  56.9811688  15.9500224   7.8741740  56.1650804  16.1091215
   8.1541889  57.0264843  15.0795740   8.1028047  56.8668592  15.8453706
  25.1184718  47.3089503  13.9842658  25.7610627  47.3787607  14.5704573
  25.3707739  46.6418725  13.4822200  25.2506850  47.2215851  13.9969937
  12.8901931  50.5190066  18.5967232  12.1973728  50.0487046  18.8427964
  13.5062258  50.2928370  19.1708939  12.8786461  50.4157198  18.7176385
  19.9286702  64.2194110  16.7122836  19.1301948  63.9793610  16.9696705
  20.3772714  64.2708503  17.4589884  19.8761314  64.1916501  16.8607760
  28.3331582  56.9856595  10.6332867  28.9948016  56.4247263  10.5328776
  27.6922994  56.4908625  10.9585558  28.3360449  56.8293004  10.6665207
   8.5496738  57.7670467  13.2311969   8.3672311  57.7417353  12.3784261
   9.2846407  58.2369405  13.2700877   8.6310802  57.8331829  13.1109887
  24.6196412  58.0021977  10.3744856  24.8552001  58.1467176   9.5471707
  24.7685976  58.7664385  10.7676370  24.6762216  58.1361031  10.3108460
  11.6142490  54.4855470  19.7394077  12.3382462  54.4708501  20.2258972
  11.7158626  55.1950825  19.2416045  11.7360699  54.5880173  19.7372864
  26.4486869  56.8423643   8.2114460  26.7795086  57.3751283   7.6054555
  27.0219957  56.8962531   8.8676411  26.5820548  56.9293212   8.2192242
  18.9887439  57.9654555  24.6043024  18.1960420  58.2798066  24.7895644
  19.1036366  58.1806023  23.7663809  18.8882850  58.0438391  24.5081359
  21.6618758  54.6888546   8.8938040  21.7565612  55.4277840   9.3477665
  21.0377602  54.2606021   9.3272605  21.5827788  54.7349866   9.0246188
  19.9171232  57.8674758  19.5428321  20.4910094  57.2302002  19.6976885
  19.8386036  57.8678841  18.6737979  19.9904467  57.7739870  19.4374732
   8.5167648  54.6463968  13.3811035   9.0941151  54.5100419  14.0203280
   7.8181710  54.1899752  13.6356619   8.4988670  54.5586234  13.5133325
  21.9141779  56.5337285   2.1274992  21.8321942  56.6039473   2.9929979
  22.5521500  57.0967029   1.9358733  21.9961617  56.6276257   2.2264942
  15.2734951  56.2998023  11.5949518  15.0154195  55.4669758  11.5680818
  15.3283433  56.5255636  10.7542019  15.2434728  56.2095795  11.4669655
  20.3536001  48.4026474  11.6953611  19.6492327  47.9135660  11.8537530
  20.4020975  48.4148949  10.8242055  20.2566052  48.3316122  11.5892951
  14.2469663  53.8535786  12.0814413  13.6719254  54.0127954  12.7178374
  13.8705339  53.2171195  11.6182864  14.1072475  53.7833599  12.1068971
  17.9142951  52.3259135  16.9406791  17.5257384  51.9013353  16.2858983
  17.2497650  52.5741285  17.4483818  17.7589879  52.2997856  16.9194659
  27.5566220  52.0834140   9.7154622  27.3002785  51.2714081   9.5252504
  28.3995534  52.0911707   9.4884809  27.6432246  51.9646137   9.6539439
  21.7369313  46.0233764  14.4530776  22.1179825  45.3411935  14.8398650
  20.9332597  45.7343366  14.2706440  21.6745775  45.8800812  14.4834832
  19.0181890  56.5557740   5.1383598  19.8322528  56.8472633   5.0266370
  18.9541031  55.9017602   4.5641891  19.1284629  56.5022934   5.0372436
  25.2391380  59.2383736  19.5513174  25.0030017  58.4071801  19.4325235
  25.8834609  59.1869343  20.1368018  25.2986051  59.1081424  19.6199068
  14.8889798  60.0279257  10.2655911  15.5263745  59.7891005  10.8107704
  15.3144869  60.2316416   9.5309071  15.0465964  60.0230267  10.2373068
   9.5802440  62.2667594  14.1490214   9.6206586  62.5382445  13.3209994
  10.1396964  62.7909502  14.5648002   9.6685786  62.3843349  14.0882102
  15.6961153  48.5287962  24.3193384  15.3814594  49.2987525  24.0562947
  15.3751086  47.9658218  23.7345611  15.6020072  48.5598231  24.1934734
  26.2627800  59.0228185  15.6141469  25.9573617  59.7556241  15.9754784
  25.5434016  58.6166114  15.3334255  26.1115143  59.0709918  15.6254606
  17.2711270  60.5051680  11.9449697  17.3450278  60.3426852  12.7991547
  18.0880776  60.6941869  11.7010178  17.4027628  60.5088422  12.0347722
  31.9629593  55.6621185  14.9409813  31.8954093  55.6817144  14.0712399
  31.9485255  56.5051513  15.1665483  31.9508349  55.7894920  14.8462290
  13.2493050  46.9178484   9.9339580  12.3815476  46.9901083   9.9997190
  13.5368255  47.7200563  10.1227556  13.1632798  47.0472631   9.9714347
  22.3725939  47.0656343  18.2650902  23.1179531  46.8766153  17.8514328
  21.9563244  47.5914581  17.7064759  22.4210913  47.1158488  18.1215476
  29.7488210  54.4365572  13.2156407  30.2996131  53.8033641  13.4553499
  29.7332325  54.9680964  13.9071912  29.8273406  54.4214520  13.3535265
  16.4010601  58.2704169  17.7616301  15.9022294  58.9819937  17.8401189
  17.2110825  58.5904835  17.7234463  16.4466707  58.4231017  17.7672869
  12.6638718  57.5327122  12.0079022  12.3751967  56.9064593  12.5424749
  13.5322066  57.4747409  12.0743702  12.7498970  57.4314666  12.0969976
  23.4516616  52.6761905  12.3261003  23.1081382  51.9552240  12.6768253
  23.5509659  52.4675756  11.4839362  23.4158659  52.5386108  12.2532683
  23.9129645  59.1387609   7.8684992  24.4787678  59.7980819   7.7843535
  23.2657549  59.4837307   8.3401394  23.9008402  59.2869551   7.9257748
  15.3277659  51.1285213  23.0578599  14.5177434  51.4342993  22.9468441
  15.8052345  51.8490796  23.1731183  15.2781137  51.2799814  23.0585670
  14.1869218  60.3430934  13.3061502  13.6649972  60.4831226  13.9913367
  14.5743239  59.5841598  13.4963619  14.1672919  60.2516458  13.4362579
  11.1760402  50.3936743   7.3756457  10.8885198  50.0238013   6.6388404
  11.8630871  50.8631598   7.1140162  11.2349300  50.4083712   7.2271532
  20.3836223  62.0826393   7.2922071  20.1422899  61.3494254   6.8849136
  20.5637556  62.6313250   6.6388404  20.3743847  62.0548785   7.1352294
  15.6135544  57.3734953   8.7042993  15.4178327  57.9809688   8.1103296
  15.8369889  56.6802897   8.2234667  15.6170185  57.3612479   8.5459074
  14.0114074  54.2589691   8.8223861  14.7336726  54.4230849   8.3627667
  13.5322067  54.9799356   8.7163201  14.0477805  54.3887921   8.7389475
  21.9707582  50.5953490  14.2020546  21.1318682  50.6214769  13.9658810
  22.0411949  51.2424225  14.7825893  21.8575975  50.6949616  14.2529663
  11.6621691  56.6647764  17.9278001  12.1742788  56.9432017  17.2786761
  11.3758033  57.4037058  18.2940814  11.6956554  56.8150117  17.8867879
  20.4176860  47.4938867   8.9348162  21.1203213  47.2946615   8.4568121
  20.1521049  46.7214809   9.2417006  20.4823492  47.3501833   8.9093604
  25.8465105  55.8021477  11.4881788  25.7599080  55.9576903  12.3416567
  25.3915585  56.4459552  11.1141193  25.7668362  55.9197232  11.5588895
   8.7488597  51.1717955   8.2241738   8.8504733  51.9744117   8.5522713
   9.5444484  50.9705291   7.9264818   8.8816503  51.2603854   8.2277093
  15.1805416  48.7574152  17.9879043  14.9888613  48.7729287  18.8378466
  16.0304012  48.9537826  17.9645698  15.2781138  48.7888503  18.1102338
   9.5652329  51.2865134  15.9662859   9.4237821  50.4349074  16.0907367
   9.8492892  51.3293794  15.1425065   9.5860175  51.1664884  15.8630483
  19.7190921  53.1232224  10.1107348  19.4725636  53.0427975  10.9444137
  20.0476044  52.3385692   9.9169875  19.7312165  52.9958489  10.2054871
  23.6138970  59.8315583  13.8994129  23.4753330  60.5296629  14.4042871
  22.8338968  59.6764240  13.5430311  23.4782197  59.9115750  13.9220403
  21.9517055  56.1311959  20.1516511  21.9465094  55.2591775  20.1558937
  22.6578049  56.3300128  19.6785966  22.0562059  56.0315833  20.0823546
  15.6787949  55.8588942  19.5230331  15.8231324  56.4390151  18.8873441
  16.0263597  56.2365239  20.2280185  15.7515410  56.0009646  19.5329326
  17.8507866  55.0579111  17.3055462  17.1031180  55.2510125  16.9003740
  18.0049391  54.2324330  17.0679584  17.7630294  54.9644222  17.2100868
  14.7515704  64.0491714  16.3891358  14.9005267  63.4894630  15.7364762
  15.5315706  64.1283716  16.7723876  14.8889797  63.9777280  16.3488307
  25.1092343  59.1893837   4.6610628  24.7299152  58.4030975   4.6539917
  24.4458588  59.7380694   4.5182272  24.9550818  59.1538661   4.6391425
  17.2769004  64.2206357  17.6675848  17.2012675  63.5515168  18.2226637
  17.2058863  64.9224145  18.1816515  17.2549611  64.2251264  17.8252696
  18.0909643  48.9529661  18.1950866  18.5482257  49.6853636  18.3223658
  18.1665972  48.5296127  18.9538122  18.1700613  48.9986900  18.3251943
  10.3342634  49.1995481  19.2840310   9.7984824  48.5875839  19.6001077
  10.3960399  49.7743617  19.9373976  10.2638267  49.1942409  19.4275736
  22.5636969  42.1319537  12.0644709  22.6820537  42.5896000  11.3312012
  22.3899145  41.3264798  11.7780927  22.5556140  42.0813309  11.9145643
  17.9339251  62.7407356   8.4999454  18.6989142  62.4717000   8.1782119
  17.8317341  62.2557366   9.2169517  18.0320747  62.6296921   8.5579282
  15.9692021  50.9431765  15.0392690  15.1788096  50.7623226  15.3610026
  16.3652644  50.1658718  15.0222985  15.9108897  50.8019226  15.0845238
  21.3535707  58.5774196  12.7652136  20.6780709  58.3459428  13.2665523
  21.3628083  57.9695379  12.1394241  21.2554212  58.4533121  12.7468288
  18.4829851  53.4192025  19.5216189  18.4188992  54.2801981  19.3936326
  18.6227039  53.1024018  18.7211740  18.4945321  53.4992191  19.3844402
  23.3552442  61.4339328   4.9962314  23.4372279  62.2406314   4.6723765
  23.8402184  61.4535287   5.7203087  23.4389600  61.5559990   5.0549213
  17.1648945  56.1124164  13.6632392  16.7411194  56.3128663  12.9271410
  16.9893800  55.2653012  13.7756692  17.0759826  56.0172945  13.5706082
  16.6660639  67.6274677  16.1253849  17.1556569  66.9285466  15.9429514
  16.0944871  67.3298547  16.7129906  16.6545169  67.4800901  16.1854890
  12.4531390  56.6076215   9.0960364  12.6096009  56.5423018   9.9516356
  12.7931983  57.3824768   8.8839044  12.5264625  56.7125413   9.1914959
  18.9910535  55.9834099   7.9653728  19.5326080  55.4804480   8.4292348
  19.3057094  55.9299294   7.1543213  19.1174932  55.9013520   7.9137540
  22.8627642  60.1936746  25.0780640  23.6762507  59.9221895  25.2385772
  22.7022608  59.8944286  24.2740836  22.9597591  60.1091672  24.9826046
  20.1399804  50.8770403  18.0176028  20.3541774  50.2381318  17.4639382
  19.5233703  51.3216227  17.5883890  20.0805133  50.8480547  17.8726459
  21.5504472  63.7989152   9.4630249  21.1584264  63.4955867   8.7453115
  21.7057544  64.6358242   9.2735203  21.5158062  63.8772988   9.3286746
   9.0265652  53.7911166   9.4121132   9.4064616  54.2095711   8.7481399
   8.4521016  54.3724621   9.7189975   8.9976976  53.9389025   9.3597873
  22.3038892  52.4859469  18.9559335  21.4915574  52.1785359  19.0372508
  22.7628827  52.0058469  19.5202047  22.2519277  52.3695961  19.0513929
  21.7144147  60.3639141   9.4036280  21.3558802  60.5353783  10.1800312
  21.2282858  60.8252346   8.8464278  21.5902844  60.4578112   9.4361549
  19.5314533  43.9870339  13.0063371  18.6608091  43.9609060  12.9596680
  19.7854874  43.8147531  12.1889217  19.4408093  43.9580483  12.8783508
  19.3992400  53.8919540  23.7388037  19.8692031  54.5161656  24.1255912
  19.4454280  53.2236516  24.2981252  19.4760275  53.8854220  23.8788109
  16.5563673  45.9976567  14.4636841  16.0402162  45.3056759  14.5888420
  15.9957602  46.6647345  14.4099440  16.3970187  45.9939825  14.4742907
  18.6255907  46.5369528  16.2929694  18.2387660  46.5618559  17.0743224
  18.1388844  45.9711206  15.8404210  18.4968416  46.4565278  16.3417598
  22.8748886  61.2543037  20.3503480  23.5128607  60.7603232  20.0165936
  22.2322978  61.1820437  19.7655707  22.8743113  61.1702045  20.2145835
  24.6005886  53.1032182  14.9169396  24.1733494  53.0158531  14.1617496
  23.9631939  53.2109958  15.5024240  24.4435493  53.1064842  14.8914838
  18.2913048  43.4236513  18.5839954  18.9206166  43.9596813  18.3061024
  18.4598911  43.3313872  19.4353519  18.4090843  43.4897875  18.6688482
  18.0926963  48.2107708  20.8566365  18.9200393  47.9392857  20.9124980
  18.1134809  49.0068549  21.2130183  18.2179813  48.2887462  20.9181548
  22.9303143  61.9462845  16.9908837  23.7195521  61.5951910  17.1110919
  23.1046741  62.7599233  16.7285471  23.0723424  62.0148702  16.9696705
  12.6696453  55.3571571  14.0436626  11.8284460  55.2575445  14.2515520
  12.8786461  56.1267051  14.3950947  12.5761146  55.4563614  14.1263941
  10.1472020  52.9791107  11.8721377   9.7528718  53.0534119  11.0971486
   9.5912137  53.3649054  12.4229738  10.0074832  53.0472882  11.8389036
  21.7836967  45.9572401  11.5525256  21.9886560  45.8894709  12.3982253
  21.4563391  46.7631223  11.4846433  21.7652215  46.0658342  11.6684911
  16.4813118  53.2852970  13.2934224  16.1776256  52.7308958  13.8944631
  15.7792539  53.4645180  12.8062258  16.3329328  53.2297752  13.3103929
  15.5379215  50.5953490   7.8578925  15.8138949  49.8772402   7.4456493
  16.1377884  51.1938409   7.6500031  15.6672480  50.5773860   7.7659687
  14.5431469  60.5002690  18.0006321  14.4351824  60.5104753  18.8668379
  14.7527251  61.3257471  17.8111275  14.5581580  60.6243765  18.1010413
  25.0370655  46.5104166  11.0328021  24.4244968  46.9974568  11.4181753
  25.1334830  45.8347657  11.5765672  24.9608552  46.4822474  11.1706879
  19.0389736  48.2667007   6.1325520  19.4933482  48.4377567   6.8573365
  19.5129781  47.6535118   5.7323296  19.1758056  48.2017892   6.1799282
  12.5605261  57.7515333  15.4628259  11.9693194  58.3924831  15.4331274
  13.3226285  58.1752950  15.4359558  12.5853522  57.9091171  15.4543406
  12.9565884  48.9117331  16.1296276  13.4167365  48.9856260  16.8671400
  13.0021991  49.7098585  15.7796098  13.0316439  49.0411478  16.1869033
  14.6049234  49.5784025  20.6968304  14.2134799  48.9317373  21.1324081
  14.7735096  50.1695461  21.3162559  14.5720144  49.5698293  20.8531010
  28.6795683  57.5821103  16.4605537  28.7378806  58.0307751  17.2065514
  28.0462150  57.9919915  16.0235617  28.5946978  57.7094837  16.5058085
  22.3194777  63.2024644  12.8960283  22.1214466  63.6915459  12.2016495
  21.6982488  63.4065886  13.4744417  22.1982342  63.3041183  12.8783507
  16.3802756  54.9709541   7.2370528  17.1244801  55.3583818   7.4753477
  16.5263452  54.1266967   7.4011015  16.5113341  54.9040014   7.2964497
  18.2982331  46.7659800  12.2702389  17.4518376  46.9382608  12.1443739
  18.2953464  45.9609144  12.6068217  18.1729481  46.6720829  12.3013516
  19.3680631  50.5435015  13.1364447  18.8940586  50.0176777  13.6469758
  19.7398767  49.9964487  12.5679308  19.3530520  50.3851011  13.1279594
   9.7453662  52.5406521  18.5047993  10.6079275  52.4402230  18.4185323
   9.4145445  51.9601231  17.9433565   9.8238858  52.4398148  18.4093399
  25.6317362  55.6037390  14.5471227  25.3915585  54.7643805  14.5513654
  26.1109369  55.6837557  15.2712001  25.6669546  55.4918790  14.6546030
  21.2964131  51.4371569   6.1990201  20.7687150  51.5200313   5.5095910
  21.7559839  52.1789441   6.1954845  21.2865982  51.5592232   6.0964896
  27.6322549  52.3838847  12.5000487  27.3932319  52.3434682  11.6621271
  27.7956450  53.2309999  12.6266208  27.6212853  52.5030932  12.3953969
  24.2368579  56.7688797  18.4305532  24.9602778  56.3161323  18.2516552
  23.9718542  57.0493462  17.6477860  24.3049853  56.7439765  18.2884247
  13.1055448  51.3648970  15.1658411  12.4808518  51.3767362  14.5584364
  12.7701042  51.8409145  15.8149651  12.9640939  51.4367487  15.1714979
   9.8181123  59.4249430  16.6062175   9.2881048  58.7341869  16.6557150
  10.0906216  59.4159616  15.7774884   9.7805845  59.3216562  16.4909591
  20.8501214  60.0075133   5.3299858  21.5735413  60.4733246   5.1864431
  20.4101805  60.0748742   4.5797455  20.8916906  60.0858969   5.1984639
  20.0187369  56.8672675  16.5800547  19.4044362  56.3230725  16.8749182
  20.5354654  56.3536911  16.1006363  20.0043031  56.7109084  16.5524775
  19.2583666  57.9376945  14.3144845  18.8311274  57.3126664  13.8810281
  19.2508610  57.6551867  15.1403853  19.1942807  57.8029726  14.3724673
  12.3746193  52.9742118  17.3833279  12.5339680  52.2185442  17.7885001
  12.1939087  53.5233058  18.0374017  12.3711552  52.9435932  17.5395985
  20.3166496  45.1403354  17.9384069  19.8207057  45.3367028  17.2475636
  21.0735558  45.5396022  17.7672871  20.3553321  45.2281087  17.8104206
  17.5869376  48.8145700  14.5287379  17.6111863  48.2805812  13.8400159
  17.8380849  48.3063008  15.1912970  17.6279294  48.6606603  14.5252024
  13.8670698  47.5416518  13.9093124  13.9069069  48.0425724  14.6227831
  13.0420362  47.6326911  13.6399047  13.7510224  47.6298334  13.9743662
  16.0500311  57.1077258  22.0113418  15.1995941  57.2448972  22.1471063
  16.2128438  56.3741036  22.4561120  15.9484174  57.0191359  22.0969017
  15.2885061  54.0577028  16.2067023  14.4576991  54.2250846  16.0002271
  15.2336578  53.6812978  16.9915908  15.1574476  54.0266759  16.2915551
  13.0968844  47.5485921  21.8423433  13.7221548  47.0048053  22.1152866
  12.6419324  47.0680838  21.2731224  13.1217105  47.3975402  21.7985027
  13.6621105  52.3332619   6.7357140  13.8024066  52.8305083   7.4385782
  14.1603638  51.6318914   6.8771354  13.7562186  52.3034598   6.8608719
  26.6703893  55.7315208  16.9336081  27.2621733  56.3712458  16.9654279
  27.1062888  55.0338244  17.2228148  26.8222324  55.7233558  16.9816914
  15.2700310  49.1313706   4.0395159  15.5916151  48.6516788   3.3854422
  15.5327254  49.9413352   3.8485971  15.3566336  49.1803604   3.9150651
  18.4997283  60.1532580  17.5593975  17.9922374  60.7068427  18.0034606
  18.2023929  60.2140870  16.7412750  18.3802168  60.2438891  17.5042432
  20.6659465  48.5185900  16.4018638  21.0914537  48.0658426  15.7902165
  20.0516458  47.9645970  16.6783426  20.6388111  48.3699876  16.3523664
  19.1053688  44.9900999   9.8109215  18.4622006  44.8398646  10.3794354
  18.7653095  44.7443345   9.0458320  18.9598765  44.9313122   9.7812230
  23.6953035  52.9460426   9.2339224  23.0244224  53.4890128   9.1052289
  24.3892785  53.4155282   8.9920919  23.6981902  53.0958697   9.1794752
  17.7439768  65.0857138  14.4650982  17.5205423  64.3275967  14.8335009
  17.2549612  65.1155159  13.7431422  17.6383217  64.9779363  14.4127723
  23.8581162  49.4016310  12.1429597  24.2108772  48.9746033  12.8175396
  22.9995963  49.3167153  12.2730674  23.7830607  49.3261050  12.2624608
  12.5564847  52.0323830  10.2012444  11.8376836  52.4487962  10.4685307
  12.9277209  52.5978068   9.6504082  12.5056779  52.1773111  10.1595251
  21.8564428  52.6651678  16.0914439  21.8362355  52.4834974  16.9449218
  21.9043629  53.5363697  16.0674023  21.8599069  52.7668217  16.2137734
  19.8010758  59.2538870  22.0162916  19.7606613  58.6088547  21.4308072
  20.6134076  59.1975488  22.3288328  19.9153911  59.1497837  21.9759865
  16.3918225  65.3057596  11.9188067  15.9778624  64.6431727  11.5291909
  17.0765599  65.4535455  11.3983761  16.4316597  65.2298254  11.7844564
  19.7583519  64.4647682  12.6711683  19.3599803  64.5749952  11.9032504
  19.1434739  64.6729748  13.2538243  19.6082409  64.5121250  12.6442983
  18.3311421  51.0721829   5.5385823  17.7376261  51.3938826   4.9870390
  18.3686699  50.2262925   5.3306929  18.2485810  50.9946158   5.4268594
  25.2905222  44.5234722  13.0713910  24.7836087  43.8163861  13.0035087
  26.0872656  44.1927910  13.2014986  25.3332461  44.3707873  13.0812905
  21.2069238  51.0301334   8.9687573  20.9782931  51.0534035   8.1265932
  21.4667314  50.2058801   9.0882584  21.2115426  50.9117414   8.8612771
  15.4888466  52.8835807  18.5712674  14.9767369  52.2756990  18.9297705
  15.3167963  53.5992399  19.0386649  15.3878103  52.8999106  18.6928897
  10.3354181  51.3273382  21.2215035  10.1656771  51.9874757  20.6763242
   9.8920131  51.5379943  21.9427524  10.2453515  51.4559364  21.2476665
  14.2614000  49.5677880  10.2641769  14.7371367  49.9294960   9.6291950
  13.7602600  50.2234348  10.5441912  14.2579359  49.7172069  10.2118510
  27.4925362  59.0399648   6.0554774  27.8758968  59.7891004   6.2852871
  26.6969475  59.2865468   5.7966763  27.4319144  59.1869342   6.0512348
  19.3657537  50.8060052  21.0114929  19.9228967  50.5773861  20.3793395
  19.0418602  51.5665717  20.7350142  19.4003947  50.8843888  20.8771426
   7.2356246  54.2320248  16.4803525   6.6882965  53.5620893  16.5984394
   8.0248624  53.8650096  16.5446992   7.2708429  54.0785234  16.5072226
  17.0840654  53.8927705  21.9766936  17.8351981  54.2079382  22.2906490
  17.2763230  53.6906876  21.1500858  17.2232068  53.9095087  21.9010332
  16.3040654  51.7119080   3.6315153  16.6839618  51.7298709   2.8466268
  15.5633250  52.1573069   3.5106000  16.2509491  51.7800855   3.4978721
  23.9325944  50.0201271   9.2190732  23.9320171  49.8649928  10.0775008
  23.7282124  50.8664258   9.1632117  23.9025722  50.1221892   9.3378671
   5.9943215  53.4441056  13.6349548   5.8164976  52.9917665  14.3604464
   5.7062237  54.2467217  13.8188026   5.9256168  53.4963613  13.7693051
  21.6566796  54.6998773  12.8726939  22.1520461  53.9821768  12.8330959
  20.8466572  54.3969571  12.7581426  21.6110689  54.5496419  12.8500664
  23.7218615  57.4502460  15.5604067  24.1473687  56.9276882  15.0074492
  23.3575535  58.0483298  15.0392690  23.7305218  57.4612688  15.4013077
  13.3572695  65.7466678  14.3201413  13.6719254  66.5603066  14.3279195
  13.7666108  65.3616897  14.9883572  13.4640793  65.8095380  14.4205504
  20.3097214  61.1636725  11.8905225  20.7808393  61.8776987  12.0595210
  20.6457393  60.5635475  12.4265094  20.4292330  61.1808189  11.9937601
  22.3974199  62.7738038  24.0697297  22.5071165  61.9846599  24.4254044
  22.7265096  62.6843974  23.2671635  22.4626605  62.6443891  24.0039688
  17.2266709  45.9364195  18.8463320  17.3594615  45.1395189  19.1744295
  17.6111862  46.4630598  19.4261595  17.3023038  45.8964112  18.9806823
  20.9471161  60.9554659  18.6532917  20.3992107  60.3312543  18.3852983
  21.4084190  61.1448931  17.9376997  20.9338370  60.8913709  18.5083349
  20.2999065  42.8594521  15.4444413  19.4945028  42.7492251  15.7612251
  20.1705800  42.9606977  14.5874279  20.1619197  42.8578192  15.3652453
  23.7565025  49.0240013  16.0384110  23.1728014  49.5249220  15.6261677
  24.0769319  48.5169570  15.4048433  23.7178201  49.0231848  15.8842617
  16.2959824  47.9380608   6.3142785  17.1175519  48.1078921   6.0724479
  15.8329475  48.0927869   5.5909082  16.3490987  47.9862341   6.1714429
  14.8855156  45.9323370  17.0941213  15.4299569  45.5914497  17.6845555
  14.9392092  46.7908832  17.2362498  14.9744276  46.0078630  17.2023087
  10.6985715  59.6939786  13.9680021  11.3030572  59.6535621  13.3393842
  10.4913028  60.5410938  13.9984077  10.7574612  59.8127789  13.8796138
  20.5129487  61.9605732  15.1842259  21.3327861  61.8168698  15.4458554
  20.2323565  62.5851930  15.7258697  20.5926230  62.0316084  15.3030198
  36.9843138  69.6170583   8.1485135  36.9537142  70.4715220   8.3203404
  37.5824486  69.3165876   8.7071279  37.0680295  69.6987080   8.2559937
  30.1842822  68.7046234  12.9038065  29.3280718  68.8654733  12.9547182
  30.2310476  67.8338298  12.9243126  30.0641934  68.5997036  12.9144131
  33.4936539  74.9732760  22.5098522  34.2003306  74.4784791  22.6385456
  33.6824474  75.4141841  21.7801180  33.6264444  74.9651110  22.4207567
  33.0294643  70.7638278  15.5469717  33.5750603  71.4423365  15.6063687
  32.9711520  70.6225739  14.6871299  33.1010558  70.8430280  15.4281778
  21.6423850  66.4433362  13.4574711  21.0228882  65.8526009  13.2884726
  21.5407714  67.0344797  12.8239034  21.5361525  66.4437444  13.3379700
  28.7391746  68.1832903   7.7907174  29.4371910  68.3621031   8.2828637
  29.0544078  67.6603243   7.1677563  28.8887083  68.1326675   7.7709184
  21.3692983  69.9885643  15.7018280  21.2451680  70.5748089  16.3368099
  22.0211267  69.4945839  16.0030555  21.4466632  70.0024448  15.8404209
  26.3951324  73.1647360  14.9805791  27.0400327  72.6719803  14.6616739
  26.6353101  73.3072147  15.8071869  26.5261909  73.1124802  15.0555324
  28.9337415  76.0102266  14.6312683  29.2160658  75.2153672  14.4099439
  29.6623576  76.4882853  14.6517744  29.0826979  75.9636863  14.6015699
  26.9118609  63.5525300  11.8728449  26.5821939  64.0036444  11.2032147
  26.2363611  63.4741463  12.4201455  26.7629045  63.6076435  11.8551672
  34.1195017  59.5410823  10.1178059  33.8048458  60.2314301  10.5498482
  33.6021959  59.4855605   9.4163560  33.9959487  59.6345711  10.0775008
  25.1174563  61.6137588   7.3551396  25.8720531  61.9815905   7.1168446
  24.9402098  61.9877143   8.1230576  25.2029042  61.7235776   7.4336285
  38.4109462  67.7632029  15.3998936  37.5737883  67.8334216  15.6346530
  38.3797693  67.7656524  14.5273238  38.2827744  67.7742256  15.3058484
  24.8074191  69.9065065  21.1147304  24.9794695  69.7970959  21.9632586
  25.3443549  70.5519470  20.8778497  24.9119195  69.9857066  21.2052401
  23.4731628  64.0207907   4.0529509  23.2907201  64.2379788   3.2270502
  24.3357241  64.1346920   4.1088124  23.5736217  64.0697805   3.9383996
  29.1531347  61.0234318   7.0878533  29.8817508  60.8450273   6.6416689
  29.2426240  61.8652398   7.2985711  29.2738009  61.1218196   7.0532051
  33.1339648  71.9587705  10.9910827  33.8897163  72.3919220  11.0299736
  33.2401972  71.3092475  11.5645463  33.2609818  71.9265189  11.0808853
  36.1719819  75.7860983  11.7413230  35.7355051  75.7897725  12.4972201
  35.8382734  76.4666482  11.3092808  36.0582439  75.8873438  11.7894063
  30.7448893  77.8269315  23.0656380  31.5289309  77.9400163  23.4312123
  30.5445487  77.0010453  23.2615066  30.8314918  77.7216035  23.1490766
  19.1135908  72.4996996  15.9500224  18.8474323  71.6836112  16.1091215
  19.1274472  72.5450151  15.0795740  19.0760630  72.3853900  15.8453706
  36.0917302  62.8274810  13.9842658  36.7343210  62.8972915  14.5704573
  36.3440323  62.1604033  13.4822200  36.2239434  62.7401159  13.9969937
  23.8634514  66.0375374  18.5967232  23.1706311  65.5672354  18.8427964
  24.4794842  65.8113678  19.1708939  23.8519044  65.9342506  18.7176385
  39.3064165  72.5041903  10.6332867  39.9680599  71.9432571  10.5328776
  38.6655577  72.0093933  10.9585558  39.3093033  72.3478312  10.6665207
  19.5229322  73.2855775  13.2311969  19.3404895  73.2602661  12.3784261
  20.2578991  73.7554713  13.2700877  19.6043386  73.3517137  13.1109887
  22.5875073  70.0040778  19.7394077  23.3115046  69.9893808  20.2258972
  22.6891210  70.7136133  19.2416045  22.7093282  70.1065481  19.7372864
  29.9620023  73.4839862  24.6043024  29.1693003  73.7983374  24.7895644
  30.0768950  73.6991331  23.7663809  29.8615433  73.5623699  24.5081359
  32.6351342  70.2073854   8.8938040  32.7298196  70.9463148   9.3477665
  32.0110185  69.7791329   9.3272605  32.5560372  70.2535174   9.0246188
  30.8903816  73.3860066  19.5428321  31.4642677  72.7487310  19.6976885
  30.8118619  73.3864149  18.6737979  30.9637050  73.2925178  19.4374732
  19.4900232  70.1649276  13.3811035  20.0673735  70.0285726  14.0203280
  18.7914294  69.7085060  13.6356619  19.4721253  70.0771542  13.5133325
  26.2467534  71.8183331  11.5949518  25.9886778  70.9855066  11.5680818
  26.3016017  72.0440944  10.7542019  26.2167312  71.7281103  11.4669655
  31.3268584  63.9211782  11.6953611  30.6224911  63.4320968  11.8537530
  31.3753559  63.9334256  10.8242055  31.2298636  63.8501430  11.5892951
  25.2202246  69.3721094  12.0814413  24.6451838  69.5313262  12.7178374
  24.8437923  68.7356503  11.6182864  25.0805059  69.3018907  12.1068971
  28.8875535  67.8444443  16.9406791  28.4989968  67.4198661  16.2858983
  28.2230233  68.0926593  17.4483818  28.7322463  67.8183164  16.9194659
  38.5298804  67.6019448   9.7154622  38.2735369  66.7899389   9.5252504
  39.3728118  67.6097015   9.4884809  38.6164829  67.4831445   9.6539439
  32.7101896  61.5419072  14.4530776  33.0912408  60.8597243  14.8398650
  31.9065181  61.2528674  14.2706440  32.6478358  61.3986120  14.4834832
  36.2123963  74.7569044  19.5513174  35.9762601  73.9257109  19.4325235
  36.8567192  74.7054651  20.1368018  36.2718634  74.6266732  19.6199068
  25.8622381  75.5464565  10.2655911  26.4996328  75.3076313  10.8107704
  26.2877453  75.7501724   9.5309071  26.0198548  75.5415575  10.2373068
  26.6693737  64.0473270  24.3193384  26.3547178  64.8172833  24.0562947
  26.3483669  63.4843526  23.7345611  26.5752656  64.0783539  24.1934734
  37.2360384  74.5413493  15.6141469  36.9306201  75.2741549  15.9754784
  36.5166600  74.1351422  15.3334255  37.0847726  74.5895226  15.6254606
  28.2443853  76.0236988  11.9449697  28.3182862  75.8612160  12.7991547
  29.0613360  76.2127177  11.7010178  28.3760212  76.0273730  12.0347722
  42.9362176  71.1806493  14.9409813  42.8686676  71.2002452  14.0712399
  42.9217839  72.0236820  15.1665483  42.9240933  71.3080228  14.8462290
  24.2225634  62.4363792   9.9339580  23.3548059  62.5086391   9.9997190
  24.5100838  63.2385871  10.1227556  24.1365382  62.5657939   9.9714347
  33.3458523  62.5841651  18.2650902  34.0912115  62.3951461  17.8514328
  32.9295827  63.1099889  17.7064759  33.3943497  62.6343796  18.1215476
  40.7220793  69.9550879  13.2156407  41.2728715  69.3218948  13.4553499
  40.7064909  70.4866272  13.9071912  40.8005990  69.9399828  13.3535265
  27.3743184  73.7889477  17.7616301  26.8754878  74.5005244  17.8401189
  28.1843409  74.1090143  17.7234463  27.4199291  73.9416325  17.7672869
  23.6371302  73.0512430  12.0079022  23.3484551  72.4249901  12.5424749
  24.5054650  72.9932717  12.0743702  23.7231554  72.9499974  12.0969976
  34.4249200  68.1947213  12.3261003  34.0813966  67.4737548  12.6768253
  34.5242242  67.9861064  11.4839362  34.3891243  68.0571416  12.2532683
  26.3010242  66.6470521  23.0578599  25.4910018  66.9528301  22.9468441
  26.7784929  67.3676103  23.1731183  26.2513721  66.7985122  23.0585670
  25.1601802  75.8616242  13.3061502  24.6382555  76.0016534  13.9913367
  25.5475822  75.1026906  13.4963619  25.1405503  75.7701766  13.4362579
  22.1492986  65.9122051   7.3756457  21.8617782  65.5423321   6.6388404
  22.8363454  66.3816906   7.1140162  22.2081883  65.9269020   7.2271532
  26.5868127  72.8920261   8.7042993  26.3910910  73.4994996   8.1103296
  26.8102473  72.1988205   8.2234667  26.5902769  72.8797787   8.5459074
  24.9846657  69.7774999   8.8223861  25.7069309  69.9416157   8.3627667
  24.5054650  70.4984664   8.7163201  25.0210388  69.9073229   8.7389475
  32.9440165  66.1138798  14.2020546  32.1051266  66.1400077  13.9658810
  33.0144532  66.7609533  14.7825893  32.8308559  66.2134924  14.2529663
  22.6354274  72.1833071  17.9278001  23.1475371  72.4617325  17.2786761
  22.3490617  72.9222366  18.2940814  22.6689137  72.3335425  17.8867879
  31.3909443  63.0124175   8.9348162  32.0935796  62.8131923   8.4568121
  31.1253632  62.2400117   9.2417006  31.4556076  62.8687141   8.9093604
  36.8197689  71.3206785  11.4881788  36.7331663  71.4762211  12.3416567
  36.3648169  71.9644860  11.1141193  36.7400946  71.4382540  11.5588895
  19.7221181  66.6903263   8.2241738  19.8237317  67.4929425   8.5522713
  20.5177067  66.4890599   7.9264818  19.8549086  66.7789162   8.2277093
  26.1538000  64.2759460  17.9879043  25.9621197  64.2914595  18.8378466
  27.0036596  64.4723134  17.9645698  26.2513722  64.3073811  18.1102338
  20.5384913  66.8050442  15.9662859  20.3970404  65.9534382  16.0907367
  20.8225476  66.8479102  15.1425065  20.5592759  66.6850192  15.8630483
  30.6923505  68.6417532  10.1107348  30.4458219  68.5613283  10.9444137
  31.0208628  67.8571000   9.9169875  30.7044749  68.5143797  10.2054871
  32.9249639  71.6497266  20.1516511  32.9197677  70.7777083  20.1558937
  33.6310633  71.8485436  19.6785966  33.0294643  71.5501141  20.0823546
  26.6520532  71.3774250  19.5230331  26.7963908  71.9575458  18.8873441
  26.9996181  71.7550547  20.2280185  26.7247994  71.5194954  19.5329326
  28.8240450  70.5764419  17.3055462  28.0763764  70.7695433  16.9003740
  28.9781975  69.7509638  17.0679584  28.7362877  70.4829530  17.2100868
  29.0642227  64.4714969  18.1950866  29.5214841  65.2038944  18.3223658
  29.1398555  64.0481435  18.9538122  29.1433196  64.5172208  18.3251943
  21.3075218  64.7180789  19.2840310  20.7717407  64.1061147  19.6001077
  21.3692983  65.2928925  19.9373976  21.2370851  64.7127717  19.4275736
  33.5369553  57.6504845  12.0644709  33.6553121  58.1081308  11.3312012
  33.3631728  56.8450106  11.7780927  33.5288724  57.5998617  11.9145643
  26.9424605  66.4617073  15.0392690  26.1520679  66.2808533  15.3610026
  27.3385227  65.6844026  15.0222985  26.8841481  66.3204534  15.0845238
  32.3268291  74.0959504  12.7652136  31.6513293  73.8644736  13.2665523
  32.3360667  73.4880686  12.1394241  32.2286795  73.9718429  12.7468288
  29.4562435  68.9377332  19.5216189  29.3921576  69.7987289  19.3936326
  29.5959623  68.6209326  18.7211740  29.4677905  69.0177499  19.3844402
  28.1381529  71.6309472  13.6632392  27.7143778  71.8313971  12.9271410
  27.9626384  70.7838320  13.7756692  28.0492409  71.5358253  13.5706082
  23.4263974  72.1261523   9.0960364  23.5828593  72.0608326   9.9516356
  23.7664567  72.9010076   8.8839044  23.4997209  72.2310721   9.1914959
  29.9643118  71.5019407   7.9653728  30.5058664  70.9989788   8.4292348
  30.2789677  71.4484602   7.1543213  30.0907515  71.4198828   7.9137540
  33.8360226  75.7122054  25.0780640  34.6495091  75.4407203  25.2385772
  33.6755192  75.4129594  24.2740836  33.9330174  75.6276980  24.9826046
  31.1132388  66.3955711  18.0176028  31.3274357  65.7566626  17.4639382
  30.4966287  66.8401535  17.5883890  31.0537717  66.3665855  17.8726459
  19.9998235  69.3096474   9.4121132  20.3797200  69.7281019   8.7481399
  19.4253600  69.8909929   9.7189975  19.9709560  69.4574333   9.3597873
  33.2771476  68.0044777  18.9559335  32.4648157  67.6970667  19.0372508
  33.7361410  67.5243777  19.5202047  33.2251860  67.8881269  19.0513929
  30.5047116  59.5055647  13.0063371  29.6340674  59.4794368  12.9596680
  30.7587458  59.3332839  12.1889217  30.4140676  59.4765791  12.8783508
  30.3724983  69.4104848  23.7388037  30.8424614  70.0346964  24.1255912
  30.4186863  68.7421823  24.2981252  30.4492859  69.4039528  23.8788109
  27.5296257  61.5161875  14.4636841  27.0134745  60.8242067  14.5888420
  26.9690186  62.1832652  14.4099440  27.3702770  61.5125133  14.4742907
  29.5988490  62.0554835  16.2929694  29.2120243  62.0803867  17.0743224
  29.1121428  61.4896514  15.8404210  29.4700999  61.9750586  16.3417598
  33.8481470  76.7728344  20.3503480  34.4861190  76.2788540  20.0165936
  33.2055561  76.7005745  19.7655707  33.8475696  76.6887353  20.2145835
  35.5738470  68.6217490  14.9169396  35.1466078  68.5343839  14.1617496
  34.9364523  68.7295266  15.5024240  35.4168077  68.6250150  14.8914838
  29.2645632  58.9421821  18.5839954  29.8938750  59.4782121  18.3061024
  29.4331495  58.8499180  19.4353519  29.3823427  59.0083183  18.6688482
  29.0659547  63.7293016  20.8566365  29.8932976  63.4578165  20.9124980
  29.0867393  64.5253857  21.2130183  29.1912397  63.8072770  20.9181548
  33.9035726  77.4648153  16.9908837  34.6928104  77.1137217  17.1110919
  34.0779324  78.2784541  16.7285471  34.0456008  77.5334010  16.9696705
  23.6429037  70.8756878  14.0436626  22.8017043  70.7760753  14.2515520
  23.8519045  71.6452359  14.3950947  23.5493729  70.9748922  14.1263941
  21.1204604  68.4976415  11.8721377  20.7261301  68.5719427  11.0971486
  20.5644721  68.8834362  12.4229738  20.9807416  68.5658190  11.8389036
  32.7569550  61.4757709  11.5525256  32.9619144  61.4080017  12.3982253
  32.4295974  62.2816531  11.4846433  32.7384798  61.5843650  11.6684911
  27.4545702  68.8038278  13.2934224  27.1508839  68.2494266  13.8944631
  26.7525122  68.9830488  12.8062258  27.3061911  68.7483060  13.3103929
  26.5111799  66.1138797   7.8578925  26.7871533  65.3957710   7.4456493
  27.1110468  66.7123717   7.6500031  26.6405063  66.0959168   7.7659687
  36.0103238  62.0289474  11.0328021  35.3977552  62.5159876  11.4181753
  36.1067413  61.3532965  11.5765672  35.9341136  62.0007782  11.1706879
  30.0122319  63.7852315   6.1325520  30.4666066  63.9562875   6.8573365
  30.4862365  63.1720426   5.7323296  30.1490639  63.7203200   6.1799282
  23.5337845  73.2700641  15.4628259  22.9425778  73.9110139  15.4331274
  24.2958868  73.6938258  15.4359558  23.5586105  73.4276479  15.4543406
  23.9298467  64.4302639  16.1296276  24.3899949  64.5041568  16.8671400
  23.9754574  65.2283893  15.7796098  24.0049023  64.5596786  16.1869033
  25.5781817  65.0969333  20.6968304  25.1867382  64.4502681  21.1324081
  25.7467680  65.6880769  21.3162559  25.5452727  65.0883601  20.8531010
  39.6528266  73.1006410  16.4605537  39.7111390  73.5493059  17.2065514
  39.0194734  73.5105223  16.0235617  39.5679561  73.2280145  16.5058085
  27.3535339  70.4894849   7.2370528  28.0977384  70.8769125   7.4753477
  27.4996035  69.6452275   7.4011015  27.4845924  70.4225322   7.2964497
  29.2714915  62.2845108  12.2702389  28.4250960  62.4567916  12.1443739
  29.2686047  61.4794452  12.6068217  29.1462065  62.1906137  12.3013516
  30.3413215  66.0620322  13.1364447  29.8673169  65.5362085  13.6469758
  30.7131351  65.5149795  12.5679308  30.3263104  65.9036319  13.1279594
  20.7186245  68.0591829  18.5047993  21.5811858  67.9587538  18.4185323
  20.3878028  67.4786538  17.9433565  20.7971442  67.9583456  18.4093399
  36.6049946  71.1222698  14.5471227  36.3648169  70.2829113  14.5513654
  37.0841953  71.2022865  15.2712001  36.6402129  71.0104098  14.6546030
  32.2696715  66.9556877   6.1990201  31.7419733  67.0385621   5.5095910
  32.7292423  67.6974749   6.1954845  32.2598565  67.0777539   6.0964896
  38.6055133  67.9024155  12.5000487  38.3664903  67.8619990  11.6621271
  38.7689034  68.7495307  12.6266208  38.5945436  68.0216240  12.3953969
  35.2101163  72.2874105  18.4305532  35.9335362  71.8346631  18.2516552
  34.9451125  72.5678770  17.6477860  35.2782436  72.2625073  18.2884247
  24.0788031  66.8834278  15.1658411  23.4541101  66.8952670  14.5584364
  23.7433626  67.3594453  15.8149651  23.9373523  66.9552795  15.1714979
  30.9919952  72.3857983  16.5800547  30.3776945  71.8416033  16.8749182
  31.5087237  71.8722219  16.1006363  30.9775615  72.2294392  16.5524775
  30.2316249  73.4562253  14.3144845  29.8043857  72.8311972  13.8810281
  30.2241194  73.1737175  15.1403853  30.1675391  73.3215034  14.3724673
  23.3478777  68.4927426  17.3833279  23.5072263  67.7370750  17.7885001
  23.1671670  69.0418366  18.0374017  23.3444136  68.4621240  17.5395985
  31.2899080  60.6588662  17.9384069  30.7939641  60.8552336  17.2475636
  32.0468142  61.0581330  17.7672871  31.3285904  60.7466395  17.8104206
  28.5601959  64.3331007  14.5287379  28.5844446  63.7991120  13.8400159
  28.8113433  63.8248316  15.1912970  28.6011878  64.1791911  14.5252024
  24.8403281  63.0601826  13.9093124  24.8801653  63.5611032  14.6227831
  24.0152946  63.1512219  13.6399047  24.7242807  63.1483642  13.9743662
  27.0232894  72.6262566  22.0113418  26.1728525  72.7634280  22.1471063
  27.1861022  71.8926344  22.4561120  26.9216758  72.5376667  22.0969017
  26.2617645  69.5762336  16.2067023  25.4309574  69.7436154  16.0002271
  26.2069162  69.1998286  16.9915908  26.1307060  69.5452067  16.2915551
  24.0701428  63.0671228  21.8423433  24.6954131  62.5233361  22.1152866
  23.6151908  62.5866146  21.2731224  24.0949689  62.9160710  21.7985027
  24.6353689  67.8517927   6.7357140  24.7756650  68.3490391   7.4385782
  25.1336221  67.1504221   6.8771354  24.7294769  67.8219906   6.8608719
  37.6436477  71.2500515  16.9336081  38.2354317  71.8897766  16.9654279
  38.0795471  70.5523552  17.2228148  37.7954908  71.2418866  16.9816914
  26.2432894  64.6499014   4.0395159  26.5648735  64.1702096   3.3854422
  26.5059838  65.4598660   3.8485971  26.3298919  64.6988911   3.9150651
  29.4729867  75.6717888  17.5593975  28.9654958  76.2253735  18.0034606
  29.1756513  75.7326178  16.7412750  29.3534752  75.7624199  17.5042432
  31.6392049  64.0371207  16.4018638  32.0647120  63.5843734  15.7902165
  31.0249042  63.4831278  16.6783426  31.6120694  63.8885184  16.3523664
  30.0786272  60.5086307   9.8109215  29.4354590  60.3583954  10.3794354
  29.7385679  60.2628653   9.0458320  29.9331349  60.4498430   9.7812230
  34.6685618  68.4645734   9.2339224  33.9976808  69.0075436   9.1052289
  35.3625368  68.9340589   8.9920919  34.6714486  68.6144005   9.1794752
  34.8313746  64.9201618  12.1429597  35.1841356  64.4931341  12.8175396
  33.9728547  64.8352461  12.2730674  34.7563190  64.8446358  12.2624608
  23.5297431  67.5509137  10.2012444  22.8109420  67.9673270  10.4685307
  23.9009793  68.1163376   9.6504082  23.4789362  67.6958419  10.1595251
  32.8297011  68.1836986  16.0914439  32.8094939  68.0020281  16.9449218
  32.8776212  69.0549005  16.0674023  32.8331652  68.2853525  16.2137734
  30.7743341  74.7724178  22.0162916  30.7339196  74.1273855  21.4308072
  31.5866659  74.7160796  22.3288328  30.8886495  74.6683145  21.9759865
  29.3044005  66.5907137   5.5385823  28.7108844  66.9124134   4.9870390
  29.3419283  65.7448233   5.3306929  29.2218394  66.5131466   5.4268594
  36.2637806  60.0420030  13.0713910  35.7568670  59.3349169  13.0035087
  37.0605239  59.7113218  13.2014986  36.3065045  59.8893181  13.0812905
  32.1801822  66.5486642   8.9687573  31.9515515  66.5719343   8.1265932
  32.4399898  65.7244109   9.0882584  32.1848010  66.4302722   8.8612771
  26.4621050  68.4021115  18.5712674  25.9499953  67.7942298  18.9297705
  26.2900546  69.1177707  19.0386649  26.3610687  68.4184414  18.6928897
  21.3086765  66.8458690  21.2215035  21.1389355  67.5060065  20.6763242
  20.8652715  67.0565251  21.9427524  21.2186098  66.9744672  21.2476665
  25.2346584  65.0863188  10.2641769  25.7103950  65.4480268   9.6291950
  24.7335184  65.7419656  10.5441912  25.2311943  65.2357377  10.2118510
  30.3390120  66.3245360  21.0114929  30.8961550  66.0959169  20.3793395
  30.0151185  67.0851025  20.7350142  30.3736530  66.4029196  20.8771426
  18.2088829  69.7505556  16.4803525  17.6615549  69.0806201  16.5984394
  18.9981207  69.3835404  16.5446992  18.2441013  69.5970542  16.5072226
  28.0573238  69.4113013  21.9766936  28.8084565  69.7264690  22.2906490
  28.2495814  69.2092184  21.1500858  28.1964652  69.4280395  21.9010332
  27.2773237  67.2304388   3.6315153  27.6572202  67.2484017   2.8466268
  26.5365833  67.6758377   3.5106000  27.2242075  67.2986163   3.4978721
  34.9058528  65.5386579   9.2190732  34.9052754  65.3835236  10.0775008
  34.7014708  66.3849566   9.1632117  34.8758306  65.6407200   9.3378671
  16.9675799  68.9626364  13.6349548  16.7897560  68.5102973  14.3604464
  16.6794821  69.7652525  13.8188026  16.8988752  69.0148921  13.7693051
  32.6299380  70.2184081  12.8726939  33.1253045  69.5007076  12.8330959
  31.8199155  69.9154879  12.7581426  32.5843273  70.0681727  12.8500664
  34.6951199  72.9687768  15.5604067  35.1206270  72.4462190  15.0074492
  34.3308118  73.5668606  15.0392690  34.7037801  72.9797995  15.4013077
  31.2829798  76.6822033  11.8905225  31.7540976  77.3962295  12.0595210
  31.6189977  76.0820783  12.4265094  31.4024913  76.6993497  11.9937601
  33.3706783  78.2923346  24.0697297  33.4803748  77.5031907  24.4254044
  33.6997679  78.2029282  23.2671635  33.4359188  78.1629199  24.0039688
  28.1999293  61.4549503  18.8463320  28.3327199  60.6580497  19.1744295
  28.5844446  61.9815906  19.4261595  28.2755622  61.4149420  18.9806823
  31.9203744  76.4739967  18.6532917  31.3724690  75.8497850  18.3852983
  32.3816773  76.6634239  17.9376997  31.9070954  76.4099017  18.5083349
  31.2731648  58.3779829  15.4444413  30.4677612  58.2677559  15.7612251
  31.1438384  58.4792285  14.5874279  31.1351781  58.3763499  15.3652453
  34.7297609  64.5425321  16.0384110  34.1460598  65.0434528  15.6261677
  35.0501903  64.0354877  15.4048433  34.6910784  64.5417156  15.8842617
  27.2692408  63.4565916   6.3142785  28.0908102  63.6264229   6.0724479
  26.8062059  63.6113177   5.5909082  27.3223570  63.5047649   6.1714429
  25.8587740  61.4508678  17.0941213  26.4032153  61.1099805  17.6845555
  25.9124676  62.3094140  17.2362498  25.9476859  61.5263938  17.2023087
  31.4862071  77.4791040  15.1842259  32.3060445  77.3354006  15.4458554
  31.2056148  78.1037238  15.7258697  31.5658814  77.5501392  15.3030198
  37.6426320  79.5658578  24.3193384  37.3279762  80.3358141  24.0562947
  37.3216253  79.0028834  23.7345611  37.5485240  79.5968847  24.1934734
  44.3191106  78.1026959  18.2650902  45.0644698  77.9136769  17.8514328
  43.9028411  78.6285197  17.7064759  44.3676080  78.1529104  18.1215476
  37.1270583  79.7944768  17.9879043  36.9353780  79.8099902  18.8378466
  37.9769179  79.9908442  17.9645698  37.2246305  79.8259119  18.1102338
  40.0374810  79.9900277  18.1950866  40.4947424  80.7224252  18.3223658
  40.1131139  79.5666743  18.9538122  40.1165780  80.0357515  18.3251943
  38.5028840  77.0347183  14.4636841  37.9867329  76.3427375  14.5888420
  37.9422769  77.7017960  14.4099440  38.3435354  77.0310441  14.4742907
  40.5721074  77.5740143  16.2929694  40.1852827  77.5989175  17.0743224
  40.0854011  77.0081822  15.8404210  40.4433583  77.4935894  16.3417598
  40.2378216  74.4607129  18.5839954  40.8671334  74.9967429  18.3061024
  40.4064078  74.3684488  19.4353519  40.3556010  74.5268491  18.6688482
  40.0392130  79.2478324  20.8566365  40.8665560  78.9763472  20.9124980
  40.0599977  80.0439165  21.2130183  40.1644981  79.3258078  20.9181548
  42.2631663  76.1773969  17.9384069  41.7672224  76.3737644  17.2475636
  43.0200725  76.5766638  17.7672871  42.3018488  76.2651703  17.8104206
  35.8135865  78.5787134  13.9093124  35.8534237  79.0796340  14.6227831
  34.9885530  78.6697527  13.6399047  35.6975391  78.6668950  13.9743662
  35.0434012  78.5856536  21.8423433  35.6686715  78.0418669  22.1152866
  34.5884492  78.1051454  21.2731224  35.0682272  78.4346018  21.7985027
  42.6124632  79.5556515  16.4018638  43.0379704  79.1029042  15.7902165
  41.9981625  79.0016586  16.6783426  42.5853278  79.4070492  16.3523664
  39.1731877  76.9734811  18.8463320  39.3059782  76.1765805  19.1744295
  39.5577029  77.5001214  19.4261595  39.2488205  76.9334728  18.9806823
  42.2464232  73.8965137  15.4444413  41.4410195  73.7862867  15.7612251
  42.1170967  73.9977593  14.5874279  42.1084365  73.8948807  15.3652453
  36.8320323  76.9693986  17.0941213  37.3764736  76.6285113  17.6845555
  36.8857259  77.8279448  17.2362498  36.9209443  77.0449246  17.2023087
  22.2154779  36.3925583   9.4438568  22.9221547  35.8977614   9.5725503
  22.4042715  36.8334665   8.7141226  22.3482685  36.3843934   9.3547614
  19.3547074  39.8153120   7.3352644  19.4430419  39.6279260   8.1830854
  19.7836786  39.1690549   6.9357490  19.4309176  39.6916127   7.4024395
  16.9217533  39.0984280   6.3170306  16.3588368  38.6856890   6.8409967
  17.6838557  39.0237185   6.7363449  16.9511982  39.0261680   6.4563306
  13.5292431  31.3257888   8.0487351  13.7012935  31.2163782   8.8972632
  14.0661789  31.9712293   7.8118543  13.6337435  31.4049889   8.1392448
  19.4667133  39.2462139   9.9996427  20.2507549  39.3592987  10.3652169
  19.2663727  38.4203276  10.1955113  19.5533158  39.1408858  10.0830813
  19.6237526  41.1572241   3.6462883  18.8252772  40.9171741   3.9036751
  20.0723538  41.2086634   4.3929930  19.5712137  41.1294632   3.7947807
  18.6838263  34.9032686  11.5383071  17.8911244  35.2176198  11.7235691
  18.7987190  35.1184154  10.7003856  18.5833674  34.9816522  11.4421406
  19.6122056  34.8052889   6.4768368  20.1860918  34.1680134   6.6316932
  19.5336860  34.8056972   5.6078025  19.6855291  34.7118001   6.3714779
  24.9342204  36.1761867   6.4853221  24.6980841  35.3449932   6.3665282
  25.5785433  36.1247474   7.0708065  24.9936874  36.0459555   6.5539114
  15.3911977  25.4666093  11.2533431  15.0765418  26.2365656  10.9902994
  15.0701910  24.9036349  10.6685658  15.2970896  25.4976362  11.1274781
  25.9578624  35.9606316   2.5481515  25.6524441  36.6934373   2.9094831
  25.2384840  35.5544245   2.2674301  25.8065967  36.0088049   2.5594653
  31.6580416  32.5999317   1.8749860  31.5904917  32.6195276   1.0052446
  31.6436079  33.4429644   2.1005530  31.6459173  32.7273051   1.7802337
  16.0961425  35.2082300   4.6956348  15.5973118  35.9198068   4.7741236
  16.9061649  35.5282967   4.6574510  16.1417531  35.3609149   4.7012916
  15.0228483  28.0663344   9.9918646  14.2128258  28.3721124   9.8808488
  15.5003169  28.7868927  10.1071230  14.9731961  28.2177946   9.9925717
  23.3089794  36.7693714   0.8334176  23.1704153  37.4674760   1.3382918
  22.5289792  36.6142371   0.4770357  23.1733021  36.8493881   0.8560450
  21.6467879  33.0690090   7.0856557  21.6415918  32.1969906   7.0898984
  22.3528873  33.2678259   6.6126013  21.7512883  32.9693964   7.0163593
  15.3738773  32.7967074   6.4570378  15.5182148  33.3768282   5.8213488
  15.7214421  33.1743370   7.1620232  15.4466234  32.9387778   6.4669372
  14.4466528  40.9869845   3.3231404  14.5956091  40.4272761   2.6704809
  15.2266530  41.0661847   3.7063923  14.5840621  40.9155411   3.2828353
  16.9719828  41.1584488   4.6015895  16.8963499  40.4893299   5.1566683
  16.9009687  41.8602276   5.1156561  16.9500435  41.1629396   4.7592743
  16.3611463  44.5652808   3.0593896  16.8507393  43.8663597   2.8769561
  15.7895695  44.2676678   3.6469953  16.3495992  44.4179032   3.1194937
  22.5578466  37.1314877  12.0120687  23.3713331  36.8600026  12.1725819
  22.3973432  36.8322417  11.2080883  22.6548415  37.0469803  11.9166092
  21.9989716  29.4237600   5.8899382  21.1866398  29.1163490   5.9712555
  22.4579651  28.9436600   6.4542094  21.9470101  29.3074092   5.9853976
  19.0943224  30.8297671  10.6728084  19.5642855  31.4539788  11.0595958
  19.1405104  30.1614647  11.2321299  19.1711099  30.8232352  10.8128156
  22.5699710  38.1921168   7.2843527  23.2079431  37.6981363   6.9505983
  21.9273802  38.1198568   6.6995754  22.5693937  38.1080176   7.1485882
  22.6253967  38.8840976   3.9248884  23.4146345  38.5330041   4.0450966
  22.7997565  39.6977364   3.6625518  22.7674248  38.9526833   3.9036752
  14.2382293  37.4380822   4.9346368  14.1302648  37.4482884   5.8008426
  14.4478074  38.2635602   4.7451322  14.2532404  37.5621896   5.0350460
  28.3746507  34.5199234   3.3945584  28.4329630  34.9685882   4.1405560
  27.7412974  34.9298047   2.9575664  28.2897802  34.6472968   3.4398132
  22.0145601  40.1402776  -0.1699670  21.8165290  40.6293590  -0.8643459
  21.3933312  40.3444017   0.4084464  21.8933166  40.2419314  -0.1876447
  23.9319403  33.7066928   5.3645578  24.6553602  33.2539454   5.1856598
  23.6669365  33.9871594   4.5817906  24.0000676  33.6817896   5.2224294
  26.3654717  32.6693339   3.8676128  26.9572557  33.3090589   3.8994326
  26.8013712  31.9716375   4.1568195  26.5173148  32.6611689   3.9156961
  18.1948107  37.0910711   4.4934022  17.6873198  37.6446558   4.9374653
  17.8974753  37.1519001   3.6752797  18.0752992  37.1817022   4.4382479
  17.4390592  42.0235269   1.3991029  17.2156247  41.2654099   1.7675055
  16.9500436  42.0533291   0.6771469  17.3334041  41.9157494   1.3467770
  19.4961582  36.1917002   8.9502963  19.4557436  35.5466679   8.3648119
  20.3084900  36.1353619   9.2628375  19.6104735  36.0875968   8.9099912
  19.0608361  27.7438183   7.9454976  19.6179791  27.5151992   7.3133441
  18.7369426  28.5043848   7.6690188  19.0954771  27.8222019   7.8111473
  16.7791478  30.8305836   8.9106983  17.5302805  31.1457513   9.2246537
  16.9714054  30.6285007   8.0840905  16.9182892  30.8473218   8.8350379
  23.4169439  34.3880592   2.4944114  23.8424511  33.8655014   1.9414539
  23.0526359  34.9861429   1.9732737  23.4256042  34.3990819   2.3353124
  13.0523519  42.6844809   1.2541460  13.3670078  43.4981198   1.2619241
  13.4616932  42.2995028   1.9223619  13.1591617  42.7473512   1.3545551
  22.0925023  39.7116169  11.0037344  22.2021988  38.9224730  11.3594091
  22.4215920  39.6222106  10.2011682  22.1577429  39.5822022  10.9379734
  20.2080311  38.8983863   2.1182305  21.0278685  38.7546829   2.3798601
  19.9274389  39.5230062   2.6598743  20.2877054  38.9694215   2.2370245
  36.6793961  46.5548714  -4.9174818  36.6487966  47.4093351  -4.7456549
  37.2775310  46.2544007  -4.3588675  36.7631119  46.6365211  -4.8100016
  29.8793646  45.6424365  -0.1621888  29.0231542  45.8032864  -0.1112771
  29.9261300  44.7716429  -0.1416827  29.7592758  45.5375167  -0.1515822
  33.1887363  51.9110891   9.4438568  33.8954130  51.4162922   9.5725503
  33.3775298  52.3519973   8.7141226  33.3215268  51.9029241   9.3547614
  32.7245467  47.7016409   2.4809764  33.2701427  48.3801496   2.5403734
  32.6662344  47.5603870   1.6211345  32.7961382  47.7808411   2.3621824
  25.8419542  55.1905476  -2.1321884  25.9429905  54.3805829  -1.8224756
  25.2461287  55.0962422  -2.7622205  25.7692081  55.0570504  -2.1795645
  25.6820282  60.1083065  -0.7307028  26.3257737  60.5496229  -0.3410869
  26.0076537  59.3036491  -0.8176769  25.8252110  60.0548259  -0.6861550
  21.3374674  43.3811493   0.3914758  20.7179706  42.7904140   0.2224772
  21.2358537  43.9722928  -0.2420919  21.2312349  43.3815575   0.2719747
  28.4342570  45.1211034  -5.2752779  29.1322734  45.2999162  -4.7831316
  28.7494902  44.5981374  -5.8982390  28.5837907  45.0704807  -5.2950769
  21.0643807  46.9263774   2.6358327  20.9402504  47.5126220   3.2708145
  21.7162091  46.4323970   2.9370602  21.1417456  46.9402579   2.7744256
  28.6230505  51.5081480  -5.2872988  29.0624140  50.8998580  -4.8418215
  28.4735168  51.1288853  -6.0587523  28.6651971  51.3619951  -5.3353820
  26.0902148  50.1025491   1.9145838  26.7351150  49.6097934   1.5956786
  26.3303925  50.2450278   2.7411916  26.2212733  50.0502934   1.9895371
  28.6288239  52.9480397   1.5652730  28.9111482  52.1531803   1.3439486
  29.3574400  53.4260985   1.5857791  28.7777803  52.9014994   1.5355745
  26.6069433  40.4903431  -1.1931505  26.2772763  40.9414575  -1.8627806
  25.9314435  40.4119594  -0.6458498  26.4579869  40.5454566  -1.2108281
  33.8145841  36.4788954  -2.9481894  33.4999282  37.1692433  -2.5161472
  33.2972783  36.4233736  -3.6496393  33.6910311  36.5723843  -2.9884945
  38.6106328  52.0539759  -1.4611439  37.7804031  52.2650403  -1.2978022
  38.5615580  51.2276814  -1.7369155  38.4813063  51.9629366  -1.4774073
  26.6716065  54.8843614   1.3736471  26.1543007  54.5251029   0.7697779
  27.3690456  54.3605788   1.3842537  26.6981646  54.7541302   1.2866729
  30.3279657  55.3338428   7.3352644  30.4163003  55.1464568   8.1830854
  30.7569370  54.6875857   6.9357490  30.4041760  55.2101435   7.4024395
  27.8950117  54.6169588   6.3170306  27.3320952  54.2042197   6.8409967
  28.6571140  54.5422493   6.7363449  27.9244566  54.5446988   6.4563306
  23.4546108  56.6067609  -1.0793064  24.1566688  56.0919598  -1.0220307
  23.3743591  56.9341760  -0.2746189  23.5469869  56.5781835  -0.9520272
  38.1060286  44.7010160   2.3338982  37.2688707  44.7712347   2.5686577
  38.0748517  44.7034655   1.4613285  37.9778568  44.7120387   2.2398530
  24.5025015  46.8443196   8.0487351  24.6745519  46.7349090   8.8972632
  25.0394372  47.4897601   7.8118543  24.6070019  46.9235197   8.1392448
  22.7796884  52.7973961  -1.5707456  23.6185783  53.0296894  -1.5233694
  22.8108653  51.9278272  -1.6400421  22.9078601  52.7030907  -1.5742811
  23.4049587  53.2174836   2.7305850  23.9447812  53.0745967   3.4009222
  22.7219533  53.6171587   3.0989876  23.3841741  53.2554507   2.8840271
  32.8290472  48.8965837  -2.0749126  33.5847987  49.3297351  -2.0360217
  32.9352796  48.2470606  -1.5014490  32.9560642  48.8643320  -1.9851101
  35.8670643  52.7239114  -1.3246723  35.4305875  52.7275856  -0.5687752
  35.5333558  53.4044613  -1.7567146  35.7533263  52.8251570  -1.2765891
  30.4399716  54.7647447   9.9996427  31.2240133  54.8778294  10.3652169
  30.2396311  53.9388584  10.1955113  30.5265742  54.6594166  10.0830813
  18.8086732  49.4375127   2.8840271  18.5425147  48.6214243   3.0431261
  18.8225296  49.4828282   2.0135787  18.7711454  49.3232032   2.7793753
  35.7868126  39.7652942   0.9182705  36.4294034  39.8351046   1.5044620
  36.0391146  39.0982165   0.4162247  35.9190258  39.6779290   0.9309984
  23.5585338  42.9753505   5.5307279  22.8657135  42.5050485   5.7768010
  24.1745666  42.7491810   6.1048986  23.5469868  42.8720637   5.6516431
  30.5970110  56.6757549   3.6462883  29.7985356  56.4357049   3.9036751
  31.0456121  56.7271942   4.3929930  30.5444721  56.6479940   3.7947807
  39.0014989  49.4420034  -2.4327086  39.6631423  48.8810702  -2.5331177
  38.3606401  48.9472064  -2.1074395  39.0043857  49.2856443  -2.3994746
  19.2180146  50.2233906   0.1652015  19.0355719  50.1980792  -0.6875692
  19.9529814  50.6932844   0.2040924  19.2994209  50.2895268   0.0449934
  35.2879820  50.4585416  -2.6915097  35.5235409  50.6030615  -3.5188246
  35.4369383  51.2227824  -2.2983583  35.3445623  50.5924471  -2.7551493
  22.2825897  46.9418909   6.6734124  23.0065870  46.9271940   7.1599019
  22.3842034  47.6514264   6.1756092  22.4044106  47.0443612   6.6712911
  29.6570847  50.4217994  11.5383071  28.8643827  50.7361505  11.7235691
  29.7719774  50.6369462  10.7003856  29.5566257  50.5001830  11.4421406
  32.3302166  47.1451985  -4.1721913  32.4249020  47.8841279  -3.7182288
  31.7061009  46.7169460  -3.7387349  32.2511196  47.1913305  -4.0413766
  30.5854639  50.3238197   6.4768368  31.1593501  49.6865442   6.6316932
  30.5069443  50.3242280   5.6078025  30.6587874  50.2303309   6.3714779
  19.1851056  47.1027407   0.3151082  19.7624559  46.9663858   0.9543327
  18.4865118  46.6463191   0.5696666  19.1672077  47.0149673   0.4473372
  25.9418358  48.7561463  -1.4710435  25.6837602  47.9233197  -1.4979135
  25.9966841  48.9819075  -2.3117934  25.9118136  48.6659234  -1.5990298
  31.0219408  40.8589913  -1.3706342  30.3175735  40.3699099  -1.2122423
  31.0704383  40.8712388  -2.2417898  30.9249460  40.7879561  -1.4767002
  24.9153070  46.3099225  -0.9845540  24.3402661  46.4691393  -0.3481579
  24.5388747  45.6734634  -1.4477090  24.7755883  46.2397038  -0.9590982
  28.5826359  44.7822574   3.8746838  28.1940792  44.3576792   3.2199030
  27.9181057  45.0304724   4.3823865  28.4273287  44.7561295   3.8534706
  38.2249628  44.5397579  -3.3505332  37.9686193  43.7277520  -3.5407449
  39.0678942  44.5475146  -3.5775144  38.3115653  44.4209576  -3.4120515
  32.4052720  38.4797203   1.3870823  32.7863232  37.7975374   1.7738697
  31.6016005  38.1906805   1.2046487  32.3429182  38.3364252   1.4174878
  35.9074787  51.6947175   6.4853221  35.6713425  50.8635240   6.3665282
  36.5518016  51.6432782   7.0708065  35.9669458  51.5644863   6.5539114
  25.5573205  52.4842696  -2.8004043  26.1947152  52.2454444  -2.2552249
  25.9828277  52.6879855  -3.5350882  25.7149372  52.4793707  -2.8286885
  20.2485848  54.7231033   1.0830261  20.2889993  54.9945884   0.2550041
  20.8080372  55.2472941   1.4988049  20.3369194  54.8406788   1.0222149
  26.3644561  40.9851401  11.2533431  26.0498002  41.7550964  10.9902994
  26.0434493  40.4221657  10.6685658  26.2703480  41.0161670  11.1274781
  36.9311208  51.4791624   2.5481515  36.6257025  52.2119681   2.9094831
  36.2117424  51.0729553   2.2674301  36.7798550  51.5273357   2.5594653
  27.9394677  52.9615119  -1.1210256  28.0133686  52.7990291  -0.2668406
  28.7564184  53.1505309  -1.3649775  28.0711036  52.9651861  -1.0312231
  42.6313000  48.1184624   1.8749860  42.5637500  48.1380584   1.0052446
  42.6168662  48.9614952   2.1005530  42.6191757  48.2458359   1.7802337
  33.0409347  39.5219782   5.1990949  33.7862939  39.3329593   4.7854375
  32.6246651  40.0478020   4.6404805  33.0894321  39.5721928   5.0555522
  40.4171617  46.8929011   0.1496454  40.9679539  46.2597080   0.3893546
  40.4015733  47.4244403   0.8411958  40.4956814  46.8777959   0.2875312
  27.0694008  50.7267608   4.6956348  26.5705702  51.4383376   4.7741236
  27.8794233  51.0468274   4.6574510  27.1150115  50.8794457   4.7012916
  23.3322126  49.9890561  -1.0580932  23.0435374  49.3628032  -0.5235204
  24.2005474  49.9310848  -0.9916251  23.4182378  49.8878105  -0.9689977
  34.1200024  45.1325344  -0.7398950  33.7764789  44.4115680  -0.3891700
  34.2193066  44.9239195  -1.5820591  34.0842066  44.9949548  -0.8127270
  25.9961066  43.5848652   9.9918646  25.1860842  43.8906432   9.8808488
  26.4735753  44.3054235  10.1071230  25.9464545  43.7363253   9.9925717
  24.8552626  52.7994373   0.2401549  24.3333379  52.9394665   0.9253414
  25.2426646  52.0405038   0.4303666  24.8356327  52.7079897   0.3702625
  26.2818951  49.8298392  -4.3616960  26.0861734  50.4373127  -4.9556657
  26.5053297  49.1366336  -4.8425286  26.2853592  49.8175918  -4.5200879
  24.6797481  46.7153130  -4.2436092  25.4020133  46.8794288  -4.7032286
  24.2005474  47.4362795  -4.3496752  24.7161212  46.8451360  -4.3270478
  32.6390989  43.0516929   1.1360593  31.8002090  43.0778208   0.8998856
  32.7095356  43.6987664   1.7165940  32.5259383  43.1513055   1.1869710
  22.3305098  49.1211203   4.8618048  22.8426195  49.3995456   4.2126808
  22.0441441  49.8600497   5.2280861  22.3639961  49.2713556   4.8207926
  31.0860267  39.9502306  -4.1311791  31.7886620  39.7510054  -4.6091833
  30.8204456  39.1778248  -3.8242947  31.1506900  39.8065272  -4.1566349
  36.5148513  48.2584916  -1.5778165  36.4282487  48.4140342  -0.7243386
  36.0598993  48.9022991  -1.9518760  36.4351769  48.3760671  -1.5071058
  25.8488824  41.2137591   4.9219090  25.6572021  41.2292726   5.7718513
  26.6987419  41.4101266   4.8985745  25.9464545  41.2451942   5.0442384
  20.2335737  43.7428573   2.9002906  20.0921228  42.8912513   3.0247414
  20.5176300  43.7857233   2.0765112  20.2543583  43.6228323   2.7970530
  30.3874329  45.5795663  -2.9552606  30.1409043  45.4991414  -2.1215817
  30.7159452  44.7949131  -3.1490078  30.3995572  45.4521928  -2.8605082
  34.2822378  52.2879022   0.8334176  34.1436737  52.9860068   1.3382918
  33.5022376  52.1327679   0.4770357  34.1465605  52.3679189   0.8560450
  32.6200463  48.5875398   7.0856557  32.6148501  47.7155214   7.0898984
  33.3261457  48.7863567   6.6126013  32.7245467  48.4879272   7.0163593
  26.3471356  48.3152382   6.4570378  26.4914732  48.8953590   5.8213488
  26.6947005  48.6928678   7.1620232  26.4198818  48.4573086   6.4669372
  28.5191274  47.5142550   4.2395509  27.7714588  47.7073564   3.8343787
  28.6732799  46.6887769   4.0019630  28.4313701  47.4207661   4.1440915
  25.4199111  56.5055153   3.3231404  25.5688675  55.9458069   2.6704809
  26.1999113  56.5847155   3.7063923  25.5573205  56.4340719   3.2828353
  27.9452412  56.6769796   4.6015895  27.8696083  56.0078607   5.1566683
  27.8742271  57.3787584   5.1156561  27.9233019  56.6814704   4.7592743
  28.7593051  41.4093101   5.1290913  29.2165665  42.1417075   5.2563705
  28.8349379  40.9859566   5.8878169  28.8384020  41.4550339   5.2591989
  21.0026042  41.6558920   6.2180357  20.4668231  41.0439278   6.5341124
  21.0643807  42.2307056   6.8714023  20.9321674  41.6505848   6.3615783
  33.2320377  34.5882976  -1.0015244  33.3503945  35.0459439  -1.7347942
  33.0582552  33.7828237  -1.2879027  33.2239547  34.5376748  -1.1514311
  26.6375428  43.3995205   1.9732737  25.8471503  43.2186665   2.2950073
  27.0336051  42.6222157   1.9563031  26.5792305  43.2582665   2.0185285
  32.0219115  51.0337635  -0.3007817  31.3464117  50.8022867   0.2005570
  32.0311491  50.4258818  -0.9265712  31.9237619  50.9096560  -0.3191665
  29.1513259  45.8755464   6.4556236  29.0872400  46.7365420   6.3276372
  29.2910446  45.5587457   5.6551787  29.1628729  45.9555630   6.3184449
  27.8332353  48.5687603   0.5972439  27.4094602  48.7692102  -0.1388543
  27.6577208  47.7216451   0.7096739  27.7443233  48.4736384   0.5046129
  27.3344046  60.0838116   3.0593896  27.8239976  59.3848905   2.8769561
  26.7628278  59.7861986   3.6469953  27.3228576  59.9364340   3.1194937
  23.1214798  49.0639654  -3.9699589  23.2779417  48.9986457  -3.1143597
  23.4615391  49.8388207  -4.1820909  23.1948032  49.1688853  -3.8744995
  29.6593942  48.4397538  -5.1006226  30.2009488  47.9367919  -4.6367605
  29.9740501  48.3862733  -5.9116740  29.7858339  48.3576959  -5.1522413
  33.5311050  52.6500185  12.0120687  34.3445915  52.3785334  12.1725819
  33.3706016  52.3507725  11.2080883  33.6280998  52.5655111  11.9166092
  30.8083212  43.3333843   4.9516075  31.0225181  42.6944757   4.3979429
  30.1917111  43.7779666   4.5223937  30.7488541  43.3043986   4.8066506
  19.6949059  46.2474605  -3.6538822  20.0748024  46.6659150  -4.3178554
  19.1204424  46.8288061  -3.3469978  19.6660384  46.3952464  -3.7062081
  32.9722300  44.9422908   5.8899382  32.1598981  44.6348798   5.9712555
  33.4312234  44.4621908   6.4542094  32.9202684  44.8259400   5.9853976
  30.1997940  36.4433778  -0.0596582  29.3291498  36.4172499  -0.1063273
  30.4538282  36.2710970  -0.8770737  30.1091500  36.4143922  -0.1876446
  30.0675807  46.3482979  10.6728084  30.5375438  46.9725096  11.0595958
  30.1137687  45.6799955  11.2321299  30.1443683  46.3417659  10.8128156
  27.2247081  38.4540007   1.3976888  26.7085569  37.7620198   1.5228467
  26.6641010  39.1210784   1.3439487  27.0653594  38.4503264   1.4082954
  29.2939314  38.9932967   3.2269741  28.9071067  39.0181998   4.0083271
  28.8072252  38.4274645   2.7744257  29.1651823  38.9128718   3.2757644
  33.5432294  53.7106476   7.2843527  34.1812014  53.2166671   6.9505983
  32.9006385  53.6383876   6.6995754  33.5426520  53.6265484   7.1485882
  35.2689294  45.5595622   1.8509443  34.8416902  45.4721970   1.0957542
  34.6315347  45.6673397   2.4364287  35.1118901  45.5628281   1.8254884
  28.9596456  35.8799952   5.5180001  29.5889574  36.4160252   5.2401071
  29.1282319  35.7877311   6.3693566  29.0774251  35.9461314   5.6028529
  28.7610371  40.6671147   7.7906412  29.5883800  40.3956296   7.8465027
  28.7818217  41.4631989   8.1470230  28.8863221  40.7450901   7.8521595
  33.5986550  54.4026284   3.9248884  34.3878928  54.0515349   4.0450966
  33.7730148  55.2162672   3.6625518  33.7406832  54.4712141   3.9036752
  23.3379861  47.8135010   0.9776673  22.4967867  47.7138884   1.1855567
  23.5469869  48.5830490   1.3290993  23.2444553  47.9127053   1.0603988
  20.8155428  45.4354547  -1.1938577  20.4212125  45.5097558  -1.9688467
  20.2595544  45.8212493  -0.6430215  20.6758240  45.5036321  -1.2270917
  32.4520374  38.4135841  -1.5134698  32.6569968  38.3458148  -0.6677700
  32.1246798  39.2194662  -1.5813520  32.4335622  38.5221781  -1.3975043
  27.1496526  45.7416409   0.2274270  26.8459663  45.1872397   0.8284678
  26.4475946  45.9208619  -0.2597695  27.0012735  45.6861191   0.2443976
  25.2114877  52.9566130   4.9346368  25.1035231  52.9668192   5.8008426
  25.4210658  53.7820910   4.7451322  25.2264988  53.0807204   5.0350460
  35.7054062  38.9667605  -2.0331932  35.0928376  39.4538007  -1.6478200
  35.8018237  38.2911096  -1.4894281  35.6291960  38.9385914  -1.8953074
  23.2288669  50.2078772   2.3968306  22.6376602  50.8488270   2.3671321
  23.9909692  50.6316389   2.3699605  23.2536929  50.3654610   2.3883453
  23.6249291  41.3680770   3.0636323  24.0850773  41.4419699   3.8011447
  23.6705398  42.1662024   2.7136145  23.6999847  41.4974917   3.1209080
  25.2732641  42.0347465   7.6308350  24.8818206  41.3880812   8.0664128
  25.4418504  42.6258900   8.2502606  25.2403551  42.0261732   7.7871056
  39.3479090  50.0384542   3.3945584  39.4062214  50.4871190   4.1405560
  38.7145558  50.4483354   2.9575664  39.2630385  50.1658276   3.4398132
  32.9878185  55.6588084  -0.1699670  32.7897873  56.1478898  -0.8643459
  32.3665896  55.8629325   0.4084464  32.8665749  55.7604622  -0.1876447
  27.0486163  47.4272980  -5.8289426  27.7928208  47.8147257  -5.5906476
  27.1946859  46.5830406  -5.6648938  27.1796748  47.3603453  -5.7695456
  28.9665739  39.2223239  -0.7957564  28.1201784  39.3946047  -0.9216214
  28.9636871  38.4172583  -0.4591736  28.8412889  39.1284268  -0.7646437
  30.0364039  42.9998454   0.0704494  29.5623993  42.4740216   0.5809805
  30.4082175  42.4527927  -0.4980645  30.0213928  42.8414450   0.0619641
  20.4137069  44.9969960   5.4388040  21.2762682  44.8965670   5.3525369
  20.0828852  44.4164670   4.8773612  20.4922266  44.8961587   5.3433445
  36.3000770  48.0600829   1.4811274  36.0598992  47.2207245   1.4853701
  36.7792777  48.1400996   2.2052048  36.3352953  47.9482229   1.5886077
  38.3005957  44.8402287  -0.5659467  38.0615727  44.7998121  -1.4038682
  38.4639858  45.6873439  -0.4393746  38.2896260  44.9594372  -0.6705985
  34.9051987  49.2252236   5.3645578  35.6286186  48.7724762   5.1856598
  34.6401949  49.5056902   4.5817906  34.9733260  49.2003204   5.2224294
  23.7738855  43.8212409   2.0998458  23.1491925  43.8330801   1.4924410
  23.4384450  44.2972585   2.7489698  23.6324347  43.8930926   2.1055026
  20.4864531  51.8812869   3.5402222  19.9564455  51.1905308   3.5897197
  20.7589624  51.8723055   2.7114931  20.4489253  51.7780001   3.4249638
  30.6870776  49.3236114   3.5140594  30.0727769  48.7794164   3.8089229
  31.2038061  48.8100351   3.0346410  30.6726439  49.1672523   3.4864822
  29.9267073  50.3940384   1.2484892  29.4994681  49.7690103   0.8150328
  29.9192018  50.1115306   2.0743899  29.8626215  50.2593165   1.3064720
  23.0429600  45.4305557   4.3173326  23.2023087  44.6748881   4.7225048
  22.8622494  45.9796497   4.9714064  23.0394959  45.3999371   4.4736032
  30.9849903  37.5966793   4.8724116  30.4890465  37.7930467   4.1815682
  31.7418966  37.9959461   4.7012917  31.0236728  37.6844527   4.7444252
  28.2552783  41.2709139   1.4627426  28.2795270  40.7369251   0.7740206
  28.5064257  40.7626447   2.1253017  28.2962702  41.1170043   1.4592071
  24.5354105  39.9979957   0.8433171  24.5752477  40.4989163   1.5567878
  23.7103770  40.0890351   0.5739094  24.4193631  40.0861773   0.9083709
  26.7183718  49.5640697   8.9453465  25.8679349  49.7012411   9.0811110
  26.8811846  48.8304475   9.3901167  26.6167582  49.4754798   9.0309064
  25.9568469  46.5140467   3.1407070  25.1260398  46.6814285   2.9342318
  25.9019986  46.1376418   3.9255955  25.8257884  46.4830198   3.2255598
  23.7652252  40.0049360   8.7763480  24.3904955  39.4611492   9.0492913
  23.3102732  39.5244277   8.2071271  23.7900513  39.8538841   8.7325074
  37.3387301  48.1878647   3.8676128  37.9305141  48.8275897   3.8994326
  37.7746295  47.4901683   4.1568195  37.4905732  48.1796997   3.9156961
  29.1680691  52.6096019   4.4934022  28.6605782  53.1631866   4.9374653
  28.8707337  52.6704309   3.6752797  29.0485575  52.7002330   4.4382479
  31.3342873  40.9749339   3.3358685  31.7597944  40.5221865   2.7242212
  30.7199866  40.4209409   3.6123473  31.3071518  40.8263315   3.2863710
  34.3636442  45.4023865  -3.8320729  33.6927632  45.9453568  -3.9607664
  35.0576192  45.8718721  -4.0739034  34.3665310  45.5522137  -3.8865201
  28.4123176  57.5420577   1.3991029  28.1888830  56.7839407   1.7675055
  27.9233019  57.5718598   0.6771469  28.3066625  57.4342802   1.3467770
  34.5264570  41.8579749  -0.9230356  34.8792180  41.4309472  -0.2484557
  33.6679371  41.7730592  -0.7929280  34.4514014  41.7824490  -0.8035346
  23.2248255  44.4887269  -2.8647509  22.5060244  44.9051401  -2.5974646
  23.5960617  45.0541507  -3.4155871  23.1740186  44.6336550  -2.9064703
  32.5247835  45.1215118   3.0254486  32.5045763  44.9398413   3.8789265
  32.5727036  45.9927136   3.0014070  32.5282476  45.2231656   3.1477781
  30.4694165  51.7102310   8.9502963  30.4290020  51.0651986   8.3648119
  31.2817483  51.6538927   9.2628375  30.5837319  51.6061276   8.9099912
  27.0601633  57.7621035  -1.1471886  26.6462031  57.0995166  -1.5368045
  27.7449007  57.9098894  -1.6676192  27.1000004  57.6861694  -1.2815389
  30.4266927  56.9211121  -0.3948270  30.0283210  57.0313391  -1.1627449
  29.8118146  57.1293187   0.1878290  30.2765816  56.9684689  -0.4216970
  35.9588630  36.9798161   0.0053956  35.4519494  36.2727300  -0.0624866
  36.7556063  36.6491350   0.1355033  36.0015869  36.8271312   0.0152951
  31.8752645  43.4864773  -4.0972380  31.6466338  43.5097474  -4.9394022
  32.1350722  42.6622240  -3.9777369  31.8798834  43.3680853  -4.2047182
  26.1571874  45.3399246   5.5052720  25.6450777  44.7320429   5.8637752
  25.9851370  46.0555839   5.9726696  26.0561511  45.3562545   5.6268944
  21.0037589  43.7836821   8.1555082  20.8340179  44.4438196   7.6103289
  20.5603538  43.9943383   8.8767571  20.9136922  43.9122803   8.1816712
  24.9297408  42.0241319  -2.8018184  25.4054774  42.3858399  -3.4368003
  24.4286008  42.6797787  -2.5218041  24.9262767  42.1735508  -2.8541443
  30.0340944  43.2623491   7.9454976  30.5912374  43.0337300   7.3133441
  29.7102009  44.0229156   7.6690188  30.0687354  43.3407327   7.8111473
  17.9039653  46.6883687   3.4143572  17.3566373  46.0184332   3.5324440
  18.6932031  46.3213535   3.4787039  17.9391837  46.5348673   3.4412273
  27.7524062  46.3491144   8.9106983  28.5035388  46.6642821   9.2246537
  27.9446638  46.1470315   8.0840905  27.8915476  46.3658526   8.8350379
  34.6009352  42.4764710  -3.8469221  34.6003578  42.3213367  -2.9884945
  34.3965532  43.3227697  -3.9027836  34.5709130  42.5785331  -3.7281282
  16.6626623  45.9004495   0.5689595  16.4848384  45.4481104   1.2944511
  16.3745645  46.7030656   0.7528073  16.5939576  45.9527053   0.7033098
  32.3250204  47.1562212  -0.1933015  32.8203869  46.4385207  -0.2328994
  31.5149979  46.8533010  -0.3078528  32.2794097  47.0059858  -0.2159289
  34.3902023  49.9065900   2.4944114  34.8157094  49.3840321   1.9414539
  34.0258942  50.5046737   1.9732737  34.3988625  49.9176127   2.3353124
  24.0256102  58.2030117   1.2541460  24.3402661  59.0166506   1.2619241
  24.4349516  57.8180336   1.9223619  24.1324200  58.2658819   1.3545551
  30.9780622  53.6200164  -1.1754728  31.4491800  54.3340426  -1.0064743
  31.3140801  53.0198914  -0.6394859  31.0975737  53.6371628  -1.0722352
  33.0657607  55.2301477  11.0037344  33.1754572  54.4410038  11.3594091
  33.3948503  55.1407413  10.2011682  33.1310012  55.1007330  10.9379734
  27.8950117  38.3927634   5.7803366  28.0278023  37.5958628   6.1084342
  28.2795270  38.9194037   6.3601642  27.9706446  38.3527551   5.9146869
  31.6154568  53.4118098   5.5872964  31.0675514  52.7875982   5.3193030
  32.0767597  53.6012370   4.8717044  31.6021778  53.3477148   5.4423395
  30.9682472  35.3157961   2.3784460  30.1628436  35.2055690   2.6952298
  30.8389208  35.4170416   1.5214325  30.8302605  35.3141631   2.2992500
  34.4248433  41.4803452   2.9724157  33.8411422  41.9812659   2.5601724
  34.7452727  40.9733009   2.3388480  34.3861608  41.4795288   2.8182664
  25.5538564  38.3886810   4.0281260  26.0982977  38.0477936   4.6185602
  25.6075499  39.2472271   4.1702545  25.6427683  38.4642069   4.1363134
  21.3669123  52.1503226   0.9020068  21.9713980  52.1099060   0.2733889
  21.1596435  52.9974378   0.9324124  21.4258020  52.2691228   0.8136185
  31.1812895  54.4169171   2.1182305  32.0011268  54.2732137   2.3798601
  30.9006972  55.0415370   2.6598743  31.2609638  54.4879523   2.2370245
  32.0376391  62.4449082   2.6358327  31.9135087  63.0311528   3.2708145
  32.6894675  61.9509278   2.9370602  32.1150040  62.4587887   2.7744256
  35.4757599  62.3628504   8.0487351  35.6478102  62.2534398   8.8972632
  36.0126956  63.0082909   7.8118543  35.5802602  62.4420505   8.1392448
  41.4132300  70.2832755   9.9996427  42.1972717  70.3963602  10.3652169
  41.2128895  69.4573892  10.1955113  41.4998325  70.1779474  10.0830813
  34.5317922  58.4938813   5.5307279  33.8389719  58.0235793   5.7768010
  35.1478249  58.2677117   6.1048986  34.5202452  58.3905945   5.6516431
  33.2558481  62.4604217   6.6734124  33.9798453  62.4457248   7.1599019
  33.3574617  63.1699572   6.1756092  33.3776690  62.5628920   6.6712911
  40.6303430  65.9403302  11.5383071  39.8376411  66.2546813  11.7235691
  40.7452357  66.1554770  10.7003856  40.5298841  66.0187138  11.4421406
  39.5558942  60.3007882   3.8746838  39.1673375  59.8762100   3.2199030
  38.8913641  60.5490032   4.3823865  39.4005870  60.2746603   3.8534706
  43.3785304  53.9982511   1.3870823  43.7595816  53.3160682   1.7738697
  42.5748588  53.7092113   1.2046487  43.3161766  53.8549559   1.4174878
  37.3377144  56.5036709  11.2533431  37.0230585  57.2736272  10.9902994
  37.0167077  55.9406965  10.6685658  37.2436063  56.5346978  11.1274781
  44.0141930  55.0405090   5.1990949  44.7595522  54.8514900   4.7854375
  43.5979235  55.5663328   4.6404805  44.0626904  55.0907235   5.0555522
  36.9693650  59.1033960   9.9918646  36.1593426  59.4091740   9.8808488
  37.4468337  59.8239543  10.1071230  36.9197129  59.2548561   9.9925717
  33.3037682  64.6396511   4.8618048  33.8158779  64.9180764   4.2126808
  33.0174024  65.3785805   5.2280861  33.3372545  64.7898864   4.8207926
  36.8221407  56.7322899   4.9219090  36.6304604  56.7478034   5.7718513
  37.6720003  56.9286573   4.8985745  36.9197129  56.7637250   5.0442384
  31.2068320  59.2613881   2.9002906  31.0653812  58.4097821   3.0247414
  31.4908884  59.3042541   2.0765112  31.2276166  59.1413631   2.7970530
  37.3203940  63.8337689   6.4570378  37.4647316  64.4138898   5.8213488
  37.6679588  64.2113986   7.1620232  37.3931401  63.9758393   6.4669372
  39.7325634  56.9278409   5.1290913  40.1898248  57.6602383   5.2563705
  39.8081963  56.5044874   5.8878169  39.8116604  56.9735647   5.2591989
  31.9758625  57.1744228   6.2180357  31.4400815  56.5624586   6.5341124
  32.0376390  57.7492364   6.8714023  31.9054258  57.1691156   6.3615783
  37.6108012  58.9180512   1.9732737  36.8204087  58.7371973   2.2950073
  38.0068635  58.1407465   1.9563031  37.5524888  58.7767973   2.0185285
  40.1245842  61.3940772   6.4556236  40.0604984  62.2550728   6.3276372
  40.2643030  61.0772765   5.6551787  40.1361312  61.4740938   6.3184449
  44.5043633  68.1685493  12.0120687  45.3178499  67.8970642  12.1725819
  44.3438600  67.8693033  11.2080883  44.6013582  68.0840419  11.9166092
  41.7815795  58.8519150   4.9516075  41.9957765  58.2130065   4.3979429
  41.1649694  59.2964974   4.5223937  41.7221124  58.8229294   4.8066506
  43.9454883  60.4608216   5.8899382  43.1331565  60.1534106   5.9712555
  44.4044818  59.9807216   6.4542094  43.8935268  60.3444708   5.9853976
  41.0408391  61.8668287  10.6728084  41.5108022  62.4910403  11.0595958
  41.0870271  61.1985263  11.2321299  41.1176267  61.8602967  10.8128156
  38.1979664  53.9725315   1.3976888  37.6818153  53.2805506   1.5228467
  37.6373593  54.6396092   1.3439487  38.0386178  53.9688572   1.4082954
  40.2671898  54.5118275   3.2269741  39.8803651  54.5367306   4.0083271
  39.7804835  53.9459953   2.7744257  40.1384407  54.4314025   3.2757644
  39.9329040  51.3985260   5.5180001  40.5622158  51.9345560   5.2401071
  40.1014902  51.3062619   6.3693566  40.0506834  51.4646622   5.6028529
  39.7342954  56.1856455   7.7906412  40.5616384  55.9141604   7.8465027
  39.7550800  56.9817296   8.1470230  39.8595804  56.2636209   7.8521595
  34.5981875  56.8866078   3.0636323  35.0583356  56.9605007   3.8011447
  34.6437982  57.6847332   2.7136145  34.6732430  57.0160225   3.1209080
  36.2465225  57.5532773   7.6308350  35.8550790  56.9066120   8.0664128
  36.4151087  58.1444208   8.2502606  36.2136135  57.5447040   7.7871056
  31.3869653  60.5155268   5.4388040  32.2495266  60.4150978   5.3525369
  31.0561436  59.9349978   4.8773612  31.4654849  60.4146895   5.3433445
  34.7471439  59.3397717   2.0998458  34.1224509  59.3516109   1.4924410
  34.4117034  59.8157892   2.7489698  34.6056931  59.4116234   2.1055026
  34.0162184  60.9490865   4.3173326  34.1755671  60.1934189   4.7225048
  33.8355078  61.4981805   4.9714064  34.0127543  60.9184679   4.4736032
  41.9582487  53.1152101   4.8724116  41.4623048  53.3115775   4.1815682
  42.7151549  53.5144769   4.7012917  41.9969312  53.2029834   4.7444252
  35.5086689  55.5165265   0.8433171  35.5485060  56.0174471   1.5567878
  34.6836354  55.6075659   0.5739094  35.3926215  55.6047081   0.9083709
  37.6916302  65.0826005   8.9453465  36.8411932  65.2197719   9.0811110
  37.8544429  64.3489783   9.3901167  37.5900165  64.9940106   9.0309064
  34.7384836  55.5234668   8.7763480  35.3637539  54.9796800   9.0492913
  34.2835315  55.0429585   8.2071271  34.7633096  55.3724149   8.7325074
  42.3075456  56.4934647   3.3358685  42.7330528  56.0407173   2.7242212
  41.6932449  55.9394717   3.6123473  42.2804102  56.3448623   3.2863710
  41.4426749  67.2287617   8.9502963  41.4022604  66.5837294   8.3648119
  42.2550067  67.1724235   9.2628375  41.5569902  67.1246584   8.9099912
  37.1304457  60.8584554   5.5052720  36.6183361  60.2505737   5.8637752
  36.9583954  61.5741147   5.9726696  37.0294094  60.8747853   5.6268944
  31.9770172  59.3022129   8.1555082  31.8072762  59.9623504   7.6103289
  31.5336122  59.5128691   8.8767571  31.8869506  59.4308111   8.1816712
  41.0073528  58.7808799   7.9454976  41.5644958  58.5522608   7.3133441
  40.6834593  59.5414464   7.6690188  41.0419938  58.8592635   7.8111473
  28.8772237  62.2068995   3.4143572  28.3298956  61.5369640   3.5324440
  29.6664615  61.8398843   3.4787039  28.9124420  62.0533981   3.4412273
  38.7256645  61.8676452   8.9106983  39.4767972  62.1828129   9.2246537
  38.9179222  61.6655623   8.0840905  38.8648059  61.8843834   8.8350379
  27.6359206  61.4189803   0.5689595  27.4580967  60.9666412   1.2944511
  27.3478228  62.2215964   0.7528073  27.5672159  61.4712360   0.7033098
  38.8682701  53.9112942   5.7803366  39.0010606  53.1143936   6.1084342
  39.2527853  54.4379345   6.3601642  38.9439029  53.8712859   5.9146869
  41.9415056  50.8343269   2.3784460  41.1361019  50.7240998   2.6952298
  41.8121791  50.9355724   1.5214325  41.8035189  50.8326939   2.2992500
  36.5271147  53.9072117   4.0281260  37.0715560  53.5663244   4.6185602
  36.5808083  54.7657579   4.1702545  36.6160267  53.9827377   4.1363134
  35.1708422  39.3006635  -5.0172602  35.3428926  39.1912529  -4.1687321
  35.7077780  39.9461040  -5.2541410  35.2753426  39.3798636  -4.9267505
  41.1083124  47.2210886  -3.0663526  41.8923541  47.3341734  -2.7007784
  40.9079719  46.3952023  -2.8704840  41.1949149  47.1157605  -2.9829140
  40.3254254  42.8781433  -1.5276882  39.5327235  43.1924945  -1.3424263
  40.4403181  43.0932901  -2.3656098  40.2249665  42.9565269  -1.6238547
  37.0327968  33.4414840  -1.8126522  36.7181409  34.2114403  -2.0756960
  36.7117901  32.8785096  -2.3974295  36.9386887  33.4725109  -1.9385172
  36.6644474  36.0412091  -3.0741307  35.8544249  36.3469871  -3.1851465
  37.1419160  36.7617674  -2.9588723  36.6147953  36.1926693  -3.0734236
  37.0154764  40.7715821  -6.6089576  37.1598139  41.3517029  -7.2446466
  37.3630412  41.1492117  -5.9039721  37.0882225  40.9136525  -6.5990581
  39.8196666  38.3318903  -6.6103717  39.7555807  39.1928859  -6.7383581
  39.9593854  38.0150896  -7.4108166  39.8312136  38.4119069  -6.7475505
  44.1994457  45.1063624  -1.0539267  45.0129322  44.8348773  -0.8934134
  44.0389424  44.8071164  -1.8579071  44.2964406  45.0218550  -1.1493861
  43.6405707  37.3986347  -7.1760571  42.8282389  37.0912237  -7.0947398
  44.0995642  36.9185347  -6.6117859  43.5886092  37.2822839  -7.0805977
  40.7359215  38.8046418  -2.3931869  41.2058846  39.4288535  -2.0063995
  40.7821095  38.1363394  -1.8338654  40.8127091  38.7981099  -2.2531797
  37.3867126  42.0204136  -4.1206488  36.5362756  42.1575850  -3.9848843
  37.5495253  41.2867914  -3.6758786  37.2850989  41.9318237  -4.0350889
  41.1377573  44.1665749  -4.1156990  41.0973428  43.5215426  -4.7011835
  41.9500891  44.1102366  -3.8031578  41.2520726  44.0624715  -4.1560041
  40.7024352  35.7186930  -5.1204977  41.2595782  35.4900739  -5.7526512
  40.3785417  36.4792595  -5.3969765  40.7370762  35.7970767  -5.2548480
  38.4207469  38.8054583  -4.1552970  39.1718796  39.1206260  -3.8413416
  38.6130046  38.6033754  -4.9819048  38.5598883  38.8221965  -4.2309574
  79.2149476  79.2149476  79.2149476 109.4712190 109.4712190 109.4712190
