default_name
 43893
  38.6070144  29.9937029  24.0666480  39.1012261  30.4394714  24.8263494
  38.3177473  30.7022184  23.4075344  39.1454289  29.1997291  23.7507129
  37.3197968  29.4108461  24.6193448  36.4736803  29.8700853  24.1081838
  37.2449335  27.8946275  24.4240052  37.1537209  27.7154877  23.3527030
  38.1873336  27.4802857  24.7821992  36.0703970  27.2142174  25.1613160
  36.3432471  27.1962699  26.2164612  35.2062458  27.8635731  25.0210237
  35.6342328  25.4849644  24.6108765  34.7050596  25.8303183  23.1090762
  35.3403548  26.3651040  22.4030286  34.3747685  24.8927629  22.6618645
  33.8364161  26.4425816  23.3513434  37.1973356  29.7054677  26.1380184
  36.0963140  29.9179981  26.6496883  38.3177587  29.6009681  26.8389143
  39.1636131  29.2469524  26.4154731  38.3028535  29.8135921  28.2910888
  37.4549762  29.2370075  28.6608906  39.6530964  29.2327032  28.9600928
  40.5101102  29.8058911  28.6064219  39.5854348  29.3133345  30.0449987
  39.7763631  28.1862667  28.6810317  37.9919641  31.2799820  28.6522777
  37.6163674  31.5663340  29.7878757  38.0103795  32.1820222  27.6566646
  38.2251764  31.8710641  26.7200395  37.6911402  33.6024653  27.8636324
  37.8510454  33.8754111  28.9067192  38.6136253  34.4851171  26.9710721
  38.6422298  34.0769584  25.9607813  38.2253163  35.5031374  26.9402359
  39.8869128  34.4952268  27.4983386  40.4563869  35.0389221  26.9490714
  36.2714058  33.9521057  27.4726861  35.8506893  35.1099671  27.5681718
  35.5449801  32.9686675  26.9269790  35.8849766  32.0179405  26.9518756
  34.2395084  33.2229992  26.3157844  34.0738110  34.2969441  26.2304263
  34.1750360  32.5979486  24.8994511  34.9173349  33.1393645  24.3129697
  34.4969833  31.5644379  25.0271442  32.8076684  32.6269174  24.1585241
  32.9014872  31.9943353  23.2758358  32.0645783  32.2010790  24.8327480
  32.3724970  34.0141615  23.7403858  33.1569288  34.9648277  23.9177285
  31.2378535  34.1202504  23.2349541  33.1642845  32.5506011  27.1997847
  33.0763445  31.2883520  27.2681579  32.3977014  33.3508846  27.9209855
  32.5948403  34.3384419  27.9982268  31.2338130  32.7984598  28.6811957
  31.5864860  32.0881736  29.4290022  30.4653427  33.9304659  29.3991426
  30.1585334  34.6245153  28.6166703  29.5811813  33.5058201  29.8745734
  31.3044267  34.6824370  30.4530190  32.1625080  35.1465323  29.9667958
  30.4312947  35.7878514  31.1363708  29.5732082  35.3244410  31.6232355
  31.0288281  36.3156876  31.8796364  30.0831120  36.4941044  30.3826628
  31.8470015  33.7245356  31.5048334  32.4784623  32.9768666  31.0248879
  32.4345490  34.2808996  32.2351403  31.0169673  33.2291164  32.0085218
  30.2546154  32.0317272  27.7870262  29.9562190  32.4668702  26.6717329
  29.7654057  30.8964505  28.3086484  30.2015127  30.4951260  29.1264800
  28.6261421  30.1749402  27.6945552  28.7427422  30.1444483  26.6112391
  28.4943470  28.7166399  28.2217896  27.7030175  28.2129342  27.6666513
  29.8322232  27.9371637  28.0415114  30.6239816  28.4400479  28.5967823
  29.7146652  26.9208034  28.4173984  30.0948457  27.9048286  26.9841163
  28.1241780  28.7157277  29.6059432  28.0469914  27.8104380  29.9159320
  27.3248054  30.9200163  27.9521994  27.2688095  31.7915994  28.8432451
  26.2800124  30.6432539  27.1453016  26.1975670  29.8813558  25.8787906
  26.0361528  28.8244193  26.0907597  27.1211869  30.0008860  25.3124534
  24.9997471  30.5306670  25.1844561  24.5390089  29.8421729  24.4760810
  25.2973044  31.4411451  24.6642728  24.0594841  30.8485189  26.3452101
  23.4944558  29.9743710  26.6687955  23.3693470  31.6534935  26.0925712
  25.0092512  31.3039466  27.4697708  25.1638060  32.3789922  27.3776400
  24.4977314  30.9776379  28.8915275  23.9974071  31.8890160  29.5522199
  24.7158188  29.7580487  29.4008104  25.1232326  29.0306000  28.8307826
  24.3288886  29.4275820  30.7840298  23.2872908  29.7113477  30.9345296
  24.4787034  27.9419772  31.0930914  25.4371543  27.6135910  30.6910546
  24.4810907  27.8262955  32.1769327  23.3513389  27.0894371  30.4897493
  22.4206100  27.3236266  31.0064696  23.2746644  27.3970650  29.4468758
  23.6072493  25.5845813  30.5590295  24.4557022  25.1396053  31.3670426
  22.9146271  24.8310228  29.8115636  25.1482839  30.2137091  31.8119308
  24.6225653  30.6735814  32.8402529  26.4463563  30.3487351  31.5511702
  26.8915386  29.9211996  30.7517170  27.2723328  31.1093021  32.4754114
  27.1059353  30.7525367  33.4918411  28.7640140  30.9524759  32.1377162
  28.8677950  31.1224934  31.0660713  29.2976640  31.7316009  32.6820340
  29.3531525  29.5835423  32.4969915  29.4797692  29.5228327  33.5779093
  28.6477537  28.8192573  32.1708319  30.7080562  29.3562553  31.8094775
  31.0790056  30.1316879  30.8901158  31.4154994  28.4229364  32.1819421
  26.8473230  32.5864761  32.4007353  26.7448574  33.2360737  33.4322516
  26.5755911  33.1298714  31.2084261  26.5753039  32.5919654  30.3535832
  26.2409079  34.5536180  31.1329694  27.0602853  35.1087661  31.5896208
  26.0148036  35.0939140  29.7036590  25.2133986  34.5031956  29.2599237
  25.6912680  36.1303764  29.7994218  27.2063703  35.0298135  28.8415449
  27.9943736  35.6488725  29.2704010  27.5498458  33.9972488  28.7788009
  26.8617650  35.5425178  27.4306252  25.9711052  35.0521965  27.0376757
  26.7129255  36.6223017  27.4270416  27.9934514  35.2229961  26.5629980
  27.9704887  34.3341053  26.0839936  29.0406567  36.0230623  26.3683908
  29.1058115  37.2466565  26.9623866  28.3519786  37.5555903  27.5593756
  29.9076767  37.8397879  26.8033049  30.0286423  35.5923116  25.5720671
  29.9637745  34.6820379  25.1392923  30.8336405  36.1798952  25.4082928
  24.9670875  34.8410564  31.8630664  24.8526804  35.8797620  32.5068891
  23.9954062  33.9242276  31.7683958  24.0923856  33.1215455  31.1630895
  22.7343706  34.1096258  32.4723140  22.3197505  35.0905550  32.2400054
  21.7275598  33.0394076  32.0446935  21.4873692  33.1503841  30.9872949
  22.1381160  32.0452109  32.2210920  20.5534662  33.2075799  32.8145917
  19.9071248  32.5444246  32.5614756  22.8986228  34.1110098  33.9932654
  22.3406412  34.9653301  34.6968187  23.6416670  33.1375160  34.4824885
  23.9562929  32.4131385  33.8528957  23.9856662  33.0282789  35.8716864
  23.0837525  32.9646710  36.4804596  24.7982603  31.7903115  36.0898183
  24.1470370  30.9436085  35.8727895  25.6128026  31.8164271  35.3659820
  25.3620656  31.6453580  37.4707922  26.2258165  30.9839662  37.4029973
  25.6880313  32.6367330  37.7854684  24.3811959  31.0919345  38.4831059
  23.2048612  30.7699330  38.1274688  24.8225016  30.9800302  39.6518286
  24.7599141  34.2396636  36.4148599  24.5691745  34.5658609  37.5808084
  25.6288754  34.8456959  35.5933126  25.7377226  34.4834675  34.6568073
  26.5039176  35.9471708  36.0207003  26.5775318  35.9499203  37.1082078
  27.9309178  35.7969205  35.4271514  27.7042673  35.7294936  34.3631108
  28.5791535  36.6546893  35.6063814  28.6492430  34.5025199  35.8849135
  27.9435568  33.6744736  35.8182264  29.8708083  34.2014029  35.0174801
  30.5772052  35.0288533  35.0840247  30.3492811  33.2868201  35.3677696
  29.5584799  34.0734539  33.9810534  28.9607432  34.5049173  37.3844407
  28.0322101  34.5910295  37.9488079  29.4637647  33.5759827  37.6530503
  29.6082649  35.3494488  37.6201975  26.0033600  37.3639897  35.7239662
  26.6776824  38.3346721  36.1187675  24.8317051  37.4765967  35.0925437
  24.2879736  36.6450747  34.9108116  24.2868898  38.7666422  34.6722428
  24.8724545  39.1881130  33.8551898  22.8531416  38.5465077  34.1836533
  22.8067020  37.5692183  33.7031868  22.1954102  38.5551201  35.0527996
  22.4122521  39.6024269  33.2126017  22.2421642  40.5490370  33.7255346
  23.1596289  39.7421551  32.4315729  21.1082943  39.1225243  32.5873044
  21.3096860  38.7583059  31.5798892  20.7011425  38.3118437  33.1915591
  20.0927458  40.2713135  32.5220835  19.1926160  39.9017898  32.0308411
  19.8524051  40.5708585  33.5421856  20.6228981  41.4480927  31.7696838
  20.8452617  41.1708423  30.8242811  19.9250796  42.1780290  31.7511821
  21.4567407  41.7909187  32.2249594  24.2519271  39.7525780  35.8416176
  24.7233027  40.8895346  35.7431456  23.6992785  39.2796164  36.9780545
  23.1948559  38.4047101  36.9920602  23.6075494  40.1553528  38.1540385
  23.3040776  41.1490125  37.8244259  22.5888222  39.6499267  39.2036090
  22.8200846  38.6170355  39.4639026  22.6730259  40.2755798  40.0921854
  21.1564600  39.7144878  38.6979179  20.8428112  40.4405533  37.7505159
  20.2556445  38.9265102  39.3319279  19.2897945  38.9303016  39.0365990
  20.5537959  38.3386559  40.0971950  24.9362602  40.5345162  38.7602331
  25.1075105  41.6934546  39.1437120  25.8757598  39.5875064  38.8590349
  25.6525556  38.6237410  38.6554779  27.2183626  39.9010968  39.3271672
  27.1582865  40.3762405  40.3063141  28.0772348  38.6352765  39.4482652
  28.1884979  38.1693669  38.4691595  29.0607376  38.8924827  39.8415429
  27.4360934  37.7285838  40.3334945  27.9665044  36.9326592  40.4157624
  27.9414464  40.9056471  38.4474466  28.6996199  41.7164419  38.9259794
  27.7151480  40.8201777  37.1391801  27.1573707  40.0707250  36.7553775
  28.3590035  41.7402875  36.2184879  29.4200678  41.8535247  36.4407921
  28.1875763  41.2313077  34.7647083  27.1714830  40.8547764  34.6468997
  28.4473458  42.3896635  33.7119943  29.4634653  42.7664093  33.8288890
  28.3190225  41.9993138  32.7024097  27.7382613  43.2001677  33.8804620
  29.1510510  40.0460345  34.5348085  30.1621686  40.4528590  34.5194484
  29.0429345  39.3748303  35.3868033  28.8920315  39.2681085  33.2336901
  29.0004307  39.9385942  32.3811654  29.6106237  38.4530228  33.1479004
  27.8811951  38.8605673  33.2485195  27.8181808  43.1714593  36.4214955
  28.6000679  44.1472297  36.4526831  26.5064364  43.2737575  36.6200524
  25.9201323  42.4572746  36.5215505  25.8579756  44.5733636  36.8789393
  26.1728611  45.2905578  36.1209296  24.3120946  44.4133720  36.8004291
  23.9805908  43.7049877  37.5596371  23.8371113  45.3791030  36.9732148
  24.0342133  44.0437976  35.8133648  26.3342720  45.1355949  38.2222065
  26.6121353  46.3415629  38.3640061  26.5197643  44.2486386  39.2042503
  26.4520386  43.2533649  39.0463175  26.8130044  44.7129819  40.5450025
  26.1659463  45.5497154  40.8082363  26.5634882  43.5568755  41.5515558
  25.5156861  43.2679906  41.4693636  27.1950655  42.7192995  41.2554532
  26.8761644  43.9452195  43.0102077  27.9195800  44.2563389  43.0610940
  26.2332504  44.7896547  43.2585823  26.6314493  42.7989816  44.0160120
  26.4589594  41.6148016  43.5910804  26.6271088  43.0923481  45.2432753
  28.2803238  45.1839251  40.6548362  28.5367791  46.2459053  41.2362222
  29.2256472  44.3595334  40.1488927  28.9367070  43.5699116  39.5893301
  30.6761681  44.5382496  40.4195873  30.8266766  45.3069007  41.1776255
  31.2665175  43.2266773  40.9309061  30.9350260  42.3841580  40.3239681
  32.3550705  43.2801347  40.9137425  30.8768403  42.9192826  42.3361513
  31.3762531  43.6930744  43.3987661  32.0568814  44.5183152  43.1894276
  31.0070937  43.4112698  44.7106188  31.3962151  44.0203068  45.5265594
  30.1458230  42.3578820  44.9810183  29.8612689  42.1410042  46.0106264
  29.6444739  41.5775607  43.9401203  28.9781771  40.7397773  44.1457115
  30.0066193  41.8804192  42.6123762  29.5998887  41.2931942  41.7890676
  31.4953886  44.9942929  39.2375957  32.5822342  45.5552552  39.4083991
  30.9661699  44.8065567  38.0447102  30.0139362  44.4888610  37.9332661
  31.8045504  44.9667186  36.8240910  32.7742023  45.3972263  37.0741659
  32.0294830  43.5753382  36.2006313  31.0988236  43.1094755  35.8766804
  32.6991785  43.6799598  35.3470140  32.6893317  42.6064745  37.1507959
  34.0052566  42.7294549  37.5306438  34.3124560  41.7529198  38.3876115
  35.2955597  41.7206412  38.8572541  33.2651718  40.9472089  38.5046744
  33.2225900  40.0917176  39.0398578  32.2203662  41.4734650  37.7639606
  31.2510569  40.9749592  37.7582493  31.2384123  45.9257620  35.8178558
  31.6632428  45.9120142  34.6189567  30.3743485  46.8273985  36.2763113
  30.0775340  46.8239684  37.2417070  29.8140690  47.8834178  35.3610452
  30.2681380  47.7352307  34.3812691  28.2709982  47.7320721  35.2222079
  27.8109286  47.9636419  36.1828388  27.6999459  48.7005276  34.1202374
  28.1592389  48.4692411  33.1591671  26.6201012  48.5715810  34.0467031
  27.9245512  49.7322563  34.3907719  28.0050848  46.4008398  34.7882935
  27.0576373  46.2783392  34.6937568  30.1482232  49.2207604  35.9710926
  30.1380124  49.3480453  37.1740982  30.4033432  50.2350818  35.1443576
  30.1937690  50.1782598  34.1579757  30.9848106  51.4817157  35.6625677
  30.9173888  51.5024720  36.7502821  32.4724213  51.5761689  35.2584193
  32.6171330  51.5639587  34.1781375  32.8027261  52.5350270  35.6579065
  33.2793830  50.4642963  35.8868539  33.7443509  50.5904893  37.1854525
  33.5501738  51.5230839  37.7152279  34.4386036  49.5718390  37.8110071
  34.8379573  49.6974809  38.8174029  34.6719383  48.3752926  37.1048664
  35.3473692  47.3700632  37.7545585  35.5948610  47.6036834  38.6522049
  34.1938665  48.2021395  35.8271734  34.3625927  47.2678846  35.2916366
  33.4800163  49.2472782  35.2113812  33.0796423  49.1155177  34.2061748
  30.2973185  52.6936774  35.1119931  29.9419638  52.7222523  33.9250047
  30.1492331  53.6891054  35.9750572  30.2451891  53.5475707  36.9704766
  29.8438247  55.0366646  35.4919984  29.1508066  54.9793742  34.6526279
  29.2049892  55.8656648  36.5933149  28.3906173  55.2747538  37.0125067
  29.9648545  56.0297218  37.3573764  28.6630214  57.2137445  36.1161200
  28.2544002  57.1154731  35.1104002  27.8722956  57.5209102  36.8005934
  29.7307335  58.2825508  36.1011186  30.5737738  58.3540532  37.0064702
  29.7216694  59.1103095  35.0588027  30.4120470  59.8447613  34.9950778
  29.0244572  59.0001611  34.3364013  31.1793870  55.6103755  35.0846224
  32.1219109  55.6569937  35.9099505  31.2962965  55.9960853  33.8172523
  30.5283944  55.8905017  33.1697357  32.5656692  56.5254850  33.3096542
  33.3092196  56.4911308  34.1059279  33.0872549  55.7198826  32.1188558
  32.2790368  55.8321829  31.3961724  33.9852716  56.2057434  31.7372732
  33.3700081  54.2231918  32.3436056  32.5306302  53.7933266  32.8901963
  33.5500240  53.4869252  31.0384409  34.3895733  53.9159550  30.4914589
  33.7477271  52.4339280  31.2389681  32.6429626  53.5784089  30.4409706
  34.5774389  54.0264416  33.2492342  34.3881156  54.4950477  34.2149797
  34.7554765  52.9605751  33.3918264  35.4546196  54.4826054  32.7903577
  32.4230564  57.9854255  32.9182308  31.5289968  58.3716224  32.1715941
  33.3291744  58.7738654  33.4604242  33.7823956  58.4896274  34.3171031
  33.5993149  60.0874247  32.9516452  32.6760955  60.5839859  32.6529948
  34.2642527  60.9144115  34.0645367  35.1707772  60.3991678  34.3820843
  34.5269402  61.8854857  33.6448819  33.3341155  61.1141088  35.2794938
  32.0841050  61.0855807  35.1180196  33.8524044  61.2934429  36.4104443
  34.4156041  60.0822188  31.6282229  35.0507101  59.0628291  31.2508014
  34.3715885  61.2208718  30.8826513  33.4315707  62.3542788  31.0521718
  33.7541667  62.9641534  31.8960230  32.4322790  61.9649408  31.2469308
  33.5150677  63.0864330  29.7480750  33.3605659  64.1533173  29.9092774
  32.7576790  62.7099610  29.0605194  34.9074696  62.8021250  29.2265293
  35.6744172  63.4352305  29.6726995  34.9470778  62.8943850  28.1411635
  35.1348415  61.3358877  29.6377074  34.6673986  60.6527200  28.9285690
  36.6408833  61.0166375  29.7419876  37.2222640  60.5706435  28.7793475
  37.2986340  61.2203924  30.8670209  36.9165140  61.5930207  31.7244774
  38.7340771  60.8576361  30.8374054  39.0922913  61.1450843  29.8488937
  39.2131618  61.4810359  31.5923557  39.1040980  59.3819664  31.0961031
  40.2784867  59.0792606  31.2630926  38.1314155  58.4736127  31.1253646
  37.1623397  58.7190391  30.9812905  38.4462657  57.1067177  31.5890848
  39.4952594  56.8875609  31.3898822  38.1944834  56.9632305  33.0845483
  38.4159283  55.9388943  33.3842096  38.8507196  57.6482281  33.6214211
  36.8588328  57.2606443  33.3895541  36.7175232  57.1654814  34.3343162
  37.7981223  56.0019271  30.7673788  36.9912639  56.2586300  29.8748783
  38.2105491  54.7536805  31.0206463  38.8549369  54.5602470  31.7739372
  37.7518376  53.6443089  30.2059804  36.7373504  53.8500385  29.8645274
  38.6531443  53.4198535  28.9700034  38.2457852  52.6111741  28.3632124
  38.6935607  54.3335104  28.3769624  40.4014142  52.9625189  29.3229586
  40.7813476  52.8738965  28.0514654  37.7622181  52.3920593  31.0950424
  38.3948671  52.3958027  32.1595424  37.0477707  51.3746083  30.6546047
  36.5139632  51.4552238  29.8009947  36.9342417  50.1254862  31.4368132
  37.8468890  49.9804369  32.0148571  35.7349117  50.1675400  32.4099484
  35.7568448  49.2645348  33.0200301  35.8448436  51.0417205  33.0516833
  34.4819413  50.2420501  31.7099518  33.7619054  50.2664045  32.3444240
  36.8407901  48.9287008  30.5273581  36.4871456  49.0436779  29.3201768
  37.1466859  47.7561782  31.0914535  37.4189462  47.7189569  32.0633528
  37.0025910  46.4792345  30.3526293  36.2495262  46.5915756  29.5726472
  38.3281055  46.0716105  29.6988026  39.1159581  46.2913268  30.4192971
  38.2794616  44.9956690  29.5312211  38.6139519  46.7339322  28.4632632
  39.4560327  46.4244259  28.1216411  36.6871432  45.4140075  31.3862923
  37.0886863  45.5543365  32.5527111  35.9858437  44.3795421  30.9274523
  35.6270294  44.4376044  29.9851252  35.6717498  43.2064220  31.7084590
  36.1054219  43.2917414  32.7048265  34.1394620  43.0645307  31.8474083
  33.9445014  43.8131446  32.6153060  33.6507309  43.3609848  30.9193151
  33.5888353  41.7097826  32.3039670  33.9353637  40.9323320  31.6230929
  34.0912976  41.3909011  33.7651351  33.7447451  42.1677266  34.4467086
  33.6960328  40.4262396  34.0834034  35.1807483  41.3581173  33.7762142
  32.0512149  41.6222349  32.1648131  31.7716493  41.7646822  31.1209495
  31.7105968  40.6430096  32.5012627  31.5860346  42.3972158  32.7740018
  36.2855759  41.9565336  31.0361841  36.1321646  41.7710580  29.8133882
  36.9434593  41.1023812  31.8336187  37.1169745  41.3335168  32.8013832
  37.4624894  39.8136700  31.3145415  37.1335270  39.6649700  30.2860614
  38.9969055  39.8174597  31.3429464  39.2932198  40.0328263  32.3695497
  39.4684324  38.8906903  31.0160503  39.5671414  40.9103981  30.4944997
  39.6116365  40.8164718  29.1243512  40.0622169  41.9619136  28.6278974
  40.1444835  42.1046307  27.5504175  40.3452718  42.7701104  29.6328013
  40.7325689  43.7000886  29.5604037  40.0254510  42.1381873  30.8121032
  40.1667050  42.6533937  31.7622141  36.9621967  38.6085693  32.1108194
  36.8000018  38.7312401  33.2988403  36.6734181  37.4946191  31.4038653
  36.7628869  37.5026071  30.3978679  36.2355033  36.2478642  32.0565121
  36.0634890  36.3773128  33.1250406  34.9412483  35.7378097  31.4098906
  35.1003817  35.5946045  30.3411208  34.6566920  34.7889715  31.8646806
  34.1457586  36.4669296  31.5637731  37.3142744  35.2215263  31.8840344
  38.0476047  35.1980573  30.8723127  37.4085129  34.3145516  32.8518308
  36.8731114  34.3581014  33.7071366  38.3283930  33.2301644  32.6810709
  38.4899636  33.0287616  31.6220945  39.6949073  33.6163398  33.3295824
  40.1214466  34.4224482  32.7326296  39.4856305  33.9811616  34.3351709
  40.7198581  32.4216668  33.4072640  41.5154531  32.6964329  34.0998195
  40.2024492  31.5381537  33.7811554  41.3334394  32.0915500  32.0790058
  41.8537040  32.9806847  31.3611728  41.2873900  30.7936083  31.7026553
  41.6851744  30.5131877  30.8176506  40.8554195  30.1104119  32.3082505
  37.7500120  31.9833967  33.3450421  37.5412065  31.9887156  34.5492484
  37.5544894  30.9106538  32.5598366  37.7304224  30.9917833  31.5685925
  37.0733681  29.6086471  33.0847280  36.3218674  29.7734752  33.8568533
  36.4346871  28.7722699  31.9403182  35.8090992  29.4396795  31.3476096
  37.2420145  28.3846593  31.3189645  35.5545862  27.5622366  32.4813718
  36.2288785  26.8150239  32.8998259  34.9030252  27.9437675  33.2675044
  34.6974166  26.9171128  31.3708865  35.3487320  26.5150471  30.5948515
  34.0979496  26.1114685  31.7947687  33.8028492  27.8974394  30.7681204
  32.9436966  28.0992796  31.2592586  34.0208304  28.4934479  29.6003442
  35.1184229  28.2024424  28.8952269  35.7806950  27.5288299  29.2526369
  35.2805078  28.6574938  28.0082341  33.1684136  29.4118128  29.1830129
  32.3676421  29.6485663  29.7511791  33.3212317  29.8731393  28.2976186
  38.2668391  28.8773594  33.6791078  39.3754552  28.8753782  33.0917123
  38.0651466  28.2698465  34.8557905  37.1603373  28.3270195  35.3009318
  39.1170787  27.5251676  35.5266780  39.9306641  27.3367382  34.8261980
  39.6671042  28.3015985  36.7669086  38.8642550  28.4259540  37.4935925
  40.8189291  27.5308093  37.4083229  41.6224082  27.4064547  36.6823354
  41.1913884  28.0839743  38.2705197  40.4662672  26.5510712  37.7305680
  40.1424012  29.7020247  36.2837987  40.8233125  29.5623503  35.4441847
  39.2696850  30.2652919  35.9533506  40.8829466  30.5028498  37.4378371
  41.7560972  29.9403833  37.7685022  41.1993253  31.4753310  37.0606316
  40.2024698  30.6433229  38.2776695  38.5273551  26.1931751  35.9790409
  37.4781419  26.1494173  36.6476350  39.2286532  25.1122754  35.6160110
  40.0732154  25.2292984  35.0746058  38.7504989  23.7391901  35.8803029
  37.6665166  23.7368338  35.9946530  39.1243322  22.8133582  34.7030362
  40.1793483  23.0284623  34.5334177  38.9874517  21.7383123  34.8198270
  38.3980588  23.2053872  33.4465605  37.0460248  23.0085021  33.3074266
  36.6309697  23.5355090  32.1633968  35.5861954  23.4706461  31.8595243
  37.6741623  24.0857092  31.5681640  37.6671205  24.5581695  30.6755098
  38.7849000  23.9138712  32.3611346  39.7448753  24.3268910  32.0513550
  39.3220223  23.3158943  37.2308627  40.1977934  22.4673279  37.3143486
  38.8325423  23.9870621  38.2647486  38.1510112  24.7078065  38.0746377
  39.2624594  23.7855799  39.6515082  39.3975558  22.7233081  39.8550444
  40.5646530  24.5016574  39.9353495  40.4425848  25.5679145  39.7448365
  40.8441062  24.3490145  40.9778015  41.3467586  24.1046713  39.2881925
  38.1483816  24.2722613  40.5647486  37.2869502  25.0303113  40.1255800
  38.1230963  23.7984243  41.8417420  39.0838944  22.8603350  42.4749470
  39.9182297  23.4091809  42.9116996  39.4619722  22.1505689  41.7391560
  38.2205695  22.2044143  43.5110832  38.8236175  21.7789886  44.3132335
  37.6016182  21.4235303  43.0692451  37.3430545  23.3863821  44.0241225
  37.9753893  23.9545391  44.7063610  36.4042473  23.1397241  44.5200061
  37.0659819  24.2128219  42.7578520  36.0949348  24.0521389  42.2895072
  37.2309575  25.6921123  43.0896470  38.3769393  26.1623805  43.2042411
  36.1040507  26.3935396  43.2841484  34.7081274  25.9871852  43.0156802
  34.5192470  25.0155772  43.4721914  34.5510914  25.9189565  41.9392121
  33.9160326  27.0646497  43.6312693  33.7393538  26.8423746  44.6836368
  32.9606205  27.1651446  43.1163034  34.7621893  28.3254784  43.4617701
  34.5673500  28.9906240  44.3030298  34.5666307  28.8538190  42.5286503
  36.2156304  27.8528285  43.4987990  36.7982592  28.2770407  42.6810669
  36.8938403  28.1782072  44.8287324  37.5483532  29.2174095  44.9312726
  36.7754757  27.2908015  45.8397725  36.1321702  26.5125207  45.8166152
  37.4902593  27.5583387  47.0786305  37.2868385  28.5806273  47.3974489
  37.0501756  26.5814750  48.2199357  37.6188083  26.8391517  49.1134449
  35.9887598  26.7461780  48.4053259  37.2887665  25.0840304  47.8673224
  38.1816803  25.0599014  47.2426436  37.4851011  24.5576194  48.8013692
  36.1183470  24.3937470  47.1218360  35.3063973  25.0718464  46.4457888
  36.0101586  23.1326789  47.2375231  38.9921556  27.5663028  46.8387762
  39.7230407  28.3689888  47.4561059  39.4910625  26.6875377  45.9725372
  38.9248102  25.9577710  45.5640054  40.9177692  26.7178388  45.6545062
  41.5029737  26.7568658  46.5732618  41.3118307  25.4614072  44.8771852
  41.0338266  24.6584484  45.5598786  40.6444047  25.4523464  44.0154657
  42.7398966  25.2568420  44.4119436  42.8963580  25.8834734  43.5339039
  43.7815308  25.6168350  45.4927933  43.6259860  24.9902509  46.3710285
  44.7849126  25.4498604  45.1010724  43.6702602  26.6649548  45.7705774
  42.8896619  23.7896741  44.0197156  42.1907519  23.5544627  43.2170327
  43.9086432  23.6063541  43.6788750  42.6767134  23.1587779  44.8826882
  41.3299158  27.9877152  44.8649639  42.3422052  28.6448770  45.1778133
  40.5618524  28.3242366  43.8388933  39.8035165  27.7393834  43.5179999
  40.8507038  29.5774574  43.0916460  41.8399562  29.5579916  42.6343716
  39.7985848  29.8156092  41.9834115  38.8021837  29.7403324  42.4188624
  39.9811468  31.2159295  41.3541231  40.9772220  31.2918066  40.9180290
  39.2322300  31.3658069  40.5764593  39.8628845  31.9788478  42.1235848
  39.8784928  28.7174030  40.8845795  39.6955951  27.7406221  41.3324072
  39.1266481  28.9124545  40.1198678  40.8693092  28.7285252  40.4304210
  40.8881179  30.7748041  44.0591742  41.8124253  31.6188780  44.0090814
  39.8747672  30.8601903  44.9128648  39.0902707  30.2336483  44.8028211
  39.7656724  31.9570544  45.9083996  39.8239694  32.9181365  45.3974965
  38.4141306  31.8847150  46.6803689  37.5517755  32.0010561  46.0239334
  38.3538682  30.9239872  47.1917109  38.2935655  32.9482570  47.7441097
  38.2432879  32.7481527  49.0950070  38.2608304  31.7095680  49.4253612
  38.1793666  33.9409593  49.7657197  38.1449844  34.0541033  50.7687729
  38.1764794  34.9635076  48.8461591  38.1172292  36.3350615  49.0594905
  38.0666377  36.7009203  50.0850082  38.1265334  37.1660228  47.9301210
  38.0856178  38.2480823  48.0549133  38.1890919  36.6208902  46.6053207
  38.1881835  37.2643092  45.7254851  38.2540636  35.2236461  46.4052663
  38.2765083  34.8396732  45.3853831  38.2548916  34.3803625  47.5507139
  41.0031248  32.0503914  46.8539173  41.5239247  33.1232639  47.1437757
  41.4528073  30.8865987  47.3505724  40.9492760  30.0321712  47.1594983
  42.6389592  30.8175730  48.2138731  42.4672281  31.3504225  49.1491158
  42.9278656  29.3335395  48.5366838  43.4491594  29.2669003  49.4916242
  41.9863284  28.7878359  48.5984516  43.7440040  28.7623232  47.5063964
  43.9203271  27.8412459  47.7116440  43.8696915  31.4716977  47.5692182
  44.7496775  31.9665533  48.2613162  43.9382646  31.5059361  46.2303117
  43.2159664  31.0769422  45.6696435  45.0499814  32.1373299  45.5513112
  45.9712773  32.1233464  46.1336492  45.3028923  31.4659043  44.1578519
  44.3706353  31.4772835  43.5931682  46.3957843  32.2148519  43.3623108
  47.3285276  32.2034932  43.9261915  46.5469832  31.7238522  42.4009789
  46.0837844  33.2462140  43.1978492  45.6285661  29.9746275  44.3552246
  46.6866822  29.9149692  44.6100423  45.0319186  29.6317442  45.2005306
  45.3416393  29.0744842  43.1193989  45.9383190  29.4164926  42.2737610
  45.6017064  28.0420649  43.3530112  44.2835551  29.1332695  42.8642478
  44.7948014  33.6376084  45.3302828  45.6661166  34.4942131  45.6169448
  43.6294959  33.9247979  44.7514113  43.0231614  33.1628602  44.4832532
  43.1944774  35.3224817  44.4370853  43.8707188  35.8689053  43.7796524
  41.8027730  35.2979777  43.7968975  41.2345178  34.4998032  44.2744986
  41.0279852  36.6539258  43.9483225  41.5954419  37.4525533  43.4705275
  40.0504095  36.5693728  43.4736678  40.8990927  36.8831730  45.0061193
  41.9524077  34.8788743  42.3489901  42.4026572  33.8873310  42.3018795
  40.9716793  34.8549516  41.8739121  42.5907193  35.5923279  41.8277963
  43.1783047  36.2100072  45.7013091  43.4518787  37.4218351  45.6298149
  42.8626725  35.6230345  46.8508466  42.5923423  34.6502039  46.8757766
  42.7291514  36.4247923  48.0979755  42.2809085  37.3919123  47.8702555
  41.8345311  35.6956165  49.1085131  41.5190138  36.3996493  49.8785040
  40.9574344  35.3057262  48.5919988  42.6071739  34.5287803  49.7634094
  42.8910270  33.8129855  48.9919394  43.5043859  34.9209124  50.2423095
  41.7203215  33.8204542  50.8260810  40.8133249  33.4365502  50.3590972
  42.2701475  32.9970600  51.2819458  41.3424490  34.7693781  51.8745050
  40.4568164  35.2387686  51.7503007  42.0659427  35.0569192  52.9481209
  43.2517628  34.4593741  53.1408038  43.5919720  33.7896913  52.4656130
  43.7987595  34.6819838  53.9601567  41.5982407  35.9341888  53.8291253
  40.7011640  36.3716063  53.6741437  42.1418561  36.1597612  54.6499165
  44.0427208  36.8827733  48.7417136  44.0472743  37.7690232  49.6066509
  45.1439983  36.2577629  48.3310350  45.0411346  35.5196821  47.6493055
  46.4721586  36.5183718  48.8723409  46.4248144  36.6409365  49.9543925
  47.3857432  35.3353879  48.5544142  47.3374646  35.1437647  47.4824772
  48.4051746  35.6064559  48.8289714  46.9749921  34.0887907  49.3084863
  45.9091210  33.9088904  49.1682875  47.5391841  33.2327338  48.9384104
  47.2640800  34.2845808  50.7825200  46.8074382  35.2084194  51.1376250
  46.8770839  33.4438892  51.3583421  48.7117264  34.3674492  50.9882230
  49.3005636  34.1420427  50.1991969  49.2900850  34.7215205  52.1295923
  48.5354020  35.0454445  53.1794174  47.5287783  35.0198012  53.1009876
  48.9736248  35.3150575  54.0485372  50.6207396  34.7452662  52.2229589
  51.1845706  34.4933949  51.4237370  51.0581769  35.0150033  53.0924353
  47.0409625  37.8514612  48.3377214  47.9306548  37.8835886  47.4813539
  46.5502698  38.9332013  48.9202727  45.8080865  38.8357673  49.5983361
  46.9805775  40.2860210  48.5495664  46.8168527  40.4611490  47.4862586
  46.1640165  41.3032587  49.3429620  45.1014937  41.1922852  49.1265610
  46.3348120  41.1528958  50.4089451  46.5166400  42.7392372  49.0479377
  46.0434137  43.3508242  47.8817421  45.4205184  42.7863336  47.1878749
  46.3719727  44.7002473  47.6017863  45.9971900  45.1670181  46.6908727
  47.1667224  45.4285179  48.4797799  47.4259468  46.4637750  48.2580922
  47.6321062  44.8288625  49.6474363  48.2508927  45.3888885  50.3485599
  47.2933026  43.4719821  49.9223485  47.6488228  42.9958688  50.8361435
  48.4899989  40.4955742  48.7456366  49.1223687  41.1903653  47.9655060
  49.0915422  39.8234446  49.7377336  48.5460269  39.2798643  50.3912111
  50.5340503  39.9253059  49.9551355  50.8543801  40.9554825  49.7994946
  50.9098609  39.5024784  51.3977947  51.9991651  39.5097705  51.4360351
  50.5166744  40.2180597  52.1199081  50.4025555  38.1158148  51.7342381
  49.2630012  37.7341973  51.3188754  51.1193613  37.4144910  52.4663770
  51.4084621  39.1461565  48.9939716  52.6236346  39.3455367  49.0043238
  50.8261645  38.2727433  48.1796001  49.8208108  38.1760094  48.1820364
  51.6010022  37.4463371  47.2512508  52.6232721  37.8166008  47.1739959
  51.6401304  36.0024686  47.7731987  50.6099305  35.6805560  47.9253819
  52.1023171  35.3869875  47.0014044  52.4061585  35.8535538  49.0577817
  52.2712089  36.7437463  49.6721487  52.0469854  34.9797027  49.6013632
  53.8958881  35.6772110  48.7334765  54.1781264  36.3876262  47.9564625
  54.4817046  35.8706536  49.6320857  54.1707933  34.2351141  48.2387474
  54.4742218  33.6512895  49.1077587  53.2298180  33.8454174  47.8504161
  55.2318948  34.1381098  47.1735885  56.1040123  34.4987642  47.5333652
  55.3522387  33.1718608  46.9052970  54.9507284  34.6786795  46.3680893
  51.0170008  37.3891217  45.8448047  50.7438861  36.3105774  45.3469298
  50.8052523  38.5528821  45.2053336  51.3062944  39.8762861  45.6080356
  52.3247312  39.7830427  45.9851196  50.6666313  40.2879780  46.3887019
  51.2329868  40.6720560  44.3225768  52.2150159  40.6624816  43.8496856
  50.9558558  41.6985562  44.5625707  50.2346686  40.0513529  43.4795420
  50.4997049  40.1881290  42.4311399  49.2341533  40.4465122  43.6553768
  50.2794732  38.5474891  43.8415326  49.2954178  38.0799760  43.8756596
  51.1661734  37.7986467  42.8377602  50.6595856  37.2641700  41.8595836
  52.4637431  37.7385875  43.0861563  52.8499658  38.2493540  43.8672126
  53.3903325  37.1126403  42.1388696  53.1805657  37.4660044  41.1292999
  54.8552128  37.4710899  42.4945391  55.4800545  37.1673626  41.6546451
  54.9081369  38.5532951  42.6134132  55.3544233  36.7923857  43.7734161
  54.8342399  35.8385573  43.8612881  56.4251851  36.6139525  43.6747604
  55.1107769  37.5968747  45.0395440  54.0915927  38.2704002  45.2057907
  56.0758186  37.5352282  45.9459011  55.9832608  38.0446514  46.8130933
  56.8993416  36.9791098  45.7652257  53.1255262  35.5925400  41.9659027
  53.5885199  34.9791166  40.9876770  52.3226906  34.9927565  42.8477189
  51.9364976  35.4713488  43.6489079  51.9852677  33.5661552  42.6534733
  52.9093351  32.9886268  42.6277910  51.0829154  32.9829030  43.7066434
  50.8253687  31.9644601  43.4158789  51.7513147  32.9655785  45.0578193
  52.0087563  33.9837900  45.3494848  51.0713439  32.5380345  45.7946673
  52.6578016  32.3623681  45.0076262  49.8801541  33.7675736  43.7600398
  49.2926985  33.4076436  44.4285805  51.2750623  33.3765196  41.3101578
  51.3718238  32.2987914  40.7239880  50.6110419  34.4133880  40.7953240
  50.3677228  35.2101237  41.3663821  50.0635498  34.3412030  39.4203259
  50.6000801  33.5812279  38.8522835  48.5890280  33.9789050  39.4434522
  48.3070117  33.6003471  38.4609757  48.5060816  33.1781601  40.1783178
  47.6809496  35.0977763  39.8237749  47.0258163  35.8282547  38.8457326
  47.2043716  35.5884120  37.7975470  46.1701448  36.8322163  39.1774831
  45.6392166  37.3844616  38.4020850  45.9639558  37.1474614  40.5299962
  45.1348488  38.1817415  40.8587261  44.7536888  38.6152936  40.0916869
  46.5915234  36.4399817  41.5302239  46.4336627  36.6868535  42.5800976
  47.4259229  35.4107589  41.1872317  47.9065618  34.8166617  41.9644928
  50.2739712  35.5405828  38.4569585  50.0317308  35.4394558  37.2313884
  50.7146647  36.6592951  38.9801486  50.7920003  36.7914635  39.9784722
  51.0332213  37.7734284  38.1141147  50.5102291  37.6834204  37.1620239
  50.5843727  39.0724568  38.7997576  51.2724730  39.2507307  39.6260963
  50.6847389  39.8715045  38.0652173  49.1544112  39.0440042  39.3268794
  48.4502665  38.8801975  38.5111292  49.0376055  38.2558955  40.0707498
  48.8746983  40.4111487  39.9794725  49.3994690  40.4088387  40.9348307
  49.3176545  41.1610018  39.3240264  47.4474673  40.7321525  40.2018554
  46.8558116  40.4220287  39.3405382  47.0841348  40.2223366  41.0941425
  47.3142128  42.2913222  40.3967561  47.6504323  42.7639044  39.5698811
  46.3448256  42.5297866  40.5501288  47.8620390  42.5788349  41.1950805
  52.5206737  37.8039217  37.7687719  53.3856435  38.2541924  38.6116204
  52.8303579  37.4838209  36.5056689  52.1137673  37.4079915  35.7979633
  54.2300155  37.1581038  36.1285589  54.7388235  36.7138548  36.9840449
  54.2836984  36.1542773  34.9422585  53.4657149  36.2527551  34.2286028
  55.2273498  36.3810996  34.4460996  54.3411019  34.7039337  35.3331603
  55.1515510  34.2250264  36.3436835  55.0290396  32.9108125  36.4256753
  55.5753759  32.3478549  37.1824410  54.1903650  32.5115406  35.4847418
  53.8968655  31.5605998  35.3124934  53.7724737  33.6113804  34.7644791
  53.1044241  33.4833650  33.9127614  55.1159561  38.3725930  35.7584060
  56.3432309  38.1882510  35.4567826  54.5036179  39.5679551  35.7845820
  53.5100301  39.6086944  35.9612819  55.2254919  40.8235107  35.5967522
  56.0381728  40.6894036  34.8828444  54.2679669  41.8863168  35.0536472
  53.3359771  41.9833146  35.6105007  54.8059565  42.8339633  35.0788127
  53.8830840  41.6414321  33.5977538  54.8847359  41.6691531  32.5932523
  55.9152576  41.8902831  32.8711488  54.5573977  41.4140952  31.2466755
  55.3187814  41.4760275  30.4691410  53.2508579  41.0812937  30.9141249
  53.0039739  40.8709181  29.8735047  52.2376982  41.0130946  31.9150077
  51.2137664  40.7501744  31.6494202  52.5687259  41.2887183  33.2558023
  51.8034496  41.2281976  34.0296171  55.7742749  41.3245492  36.9308466
  56.3649308  42.3776789  36.9717886  55.5005055  40.6078688  38.0269290
  54.9162262  39.7851081  37.9847177  55.9945733  41.0481441  39.3458875
  56.3150820  42.0899204  39.3545740  54.9110295  40.8313815  40.4361791
  54.5646047  39.7994931  40.3787623  55.4902506  41.1207144  41.9076607
  55.8364689  42.1526208  41.9659934  54.7048987  40.9592273  42.6460679
  56.3226659  40.4467484  42.1100312  53.6978666  41.6953807  40.0862842
  54.0336524  42.7321612  40.1071351  53.4046993  41.4293159  39.0707243
  52.4864179  41.5270162  41.0331081  52.7787102  41.7933625  42.0488466
  51.6758588  42.1783520  40.7062216  52.1497585  40.4905159  41.0124375
  57.2788838  40.3335162  39.7380579  57.3292964  39.0841077  39.8357513
  58.2995678  41.1140835  40.0470869  58.2242457  42.1167396  39.9516573
  59.5535639  40.5623483  40.4992992  59.7550951  39.6138486  40.0014713
  60.6702866  41.5317132  40.1651703  60.6272567  41.7450564  39.0971196
  60.5017078  42.4511067  40.7258815  62.0738820  40.9547873  40.5234545
  62.1281593  40.9174132  41.6114609  62.1067743  39.9413405  40.1235223
  63.2630799  41.7577614  39.9796201  64.1667293  41.2373386  40.2969164
  63.1914673  41.7303959  38.8923197  63.3198513  43.1858739  40.4415136
  62.5122064  43.7247355  39.9460962  63.1521035  43.1907306  41.5185170
  64.6422886  43.8621402  40.1330119  64.7977148  43.8581286  39.1350508
  64.6187945  44.8152864  40.4662691  65.3907575  43.3632237  40.5923327
  59.5210684  40.2969090  42.0165579  59.9435795  39.2353207  42.4827173
  59.0213883  41.2567107  42.7746605  58.7512968  42.1439378  42.3746880
  58.8929235  41.0780804  44.2450887  58.6586919  40.0394814  44.4786417
  60.2304202  41.4524993  44.9372094  60.1892323  41.1486435  45.9831895
  61.0485939  40.9314788  44.4399877  60.4480654  42.8691724  44.8590495
  61.2771964  43.0897690  45.2897220  57.7459592  41.9330144  44.7621290
  57.2650980  42.8660930  44.0979153  57.2685234  41.6166758  45.9623098
  57.6399323  40.8554772  46.5125201  56.1789768  42.3910939  46.5115119
  56.1834727  43.3992116  46.0970512  54.8493394  41.7209778  46.1539931
  54.6824056  41.7341203  45.0769325  54.8214195  40.6921543  46.5129396
  53.4195827  42.5498276  46.8938160  52.5048108  41.7284747  46.3864009
  56.3683684  42.4247294  48.0217464  56.6726101  41.3938663  48.6192615
  56.2778413  43.5881661  48.6142572  56.2678438  44.4753803  48.1317115
  56.3679412  43.5937854  50.0721730  56.2495403  42.5807191  50.4565910
  57.7145387  44.1209231  50.5077081  57.9066597  43.8154946  51.5362518
  58.4892288  43.7141456  49.8577178  57.7243037  45.5217662  50.4265144
  58.5817422  45.8524064  50.7041401  55.1968939  44.3156117  50.7304518
  54.6075046  45.2674202  50.1780944  54.8495745  43.8216728  51.9200096
  55.3281120  43.0004989  52.2617327  53.8177051  44.4009016  52.7397952
  53.4704332  45.3311488  52.2901939  52.6313626  43.4287447  52.8352124
  52.9837782  42.4538404  53.1720566  51.6664806  43.9446234  53.7797436
  51.3132373  44.9193718  53.4433128  50.8231661  43.2576402  53.8502785
  52.1343857  44.0464383  54.7589270  51.9333355  43.2727640  51.4713289
  52.6438959  42.8854772  50.7411131  51.0976977  42.5795308  51.5674373
  51.5636695  44.2427307  51.1387444  54.4105651  44.6652363  54.1402342
  55.5033145  44.2164577  54.4520952  53.6662209  45.3721427  54.9686037
  52.8876155  45.8842394  54.5792066  53.9561642  45.5255435  56.4183185
  54.8448681  46.1356748  56.5797012  52.7600063  46.2263566  57.0593375
  51.8561046  45.7501202  56.6795218  52.8258707  46.0727167  58.1364432
  52.7098866  47.7289477  56.7599898  53.3442925  47.9487709  55.9013235
  51.6758917  47.9766817  56.5200280  53.1640997  48.5537745  57.9476102
  52.4653855  49.5467927  58.2961433  54.2115468  48.1839182  58.5443027
  54.2872984  44.2315264  57.1922784  53.5892102  43.2145492  57.0405017
  51.1548037  42.1116336  59.8881555  51.4579600  41.3486009  60.4763533
  49.7297508  42.4677472  59.8888414  49.3424119  42.3757637  60.9035368
  49.4887030  43.9142504  59.3970188  49.9587319  44.0401143  58.4216572
  48.4207494  44.1158874  59.3138470  50.0654864  44.9917143  60.2997865
  50.3410282  44.7387438  61.6541235  50.1371696  43.7509882  62.0675004
  50.8793862  45.7549409  62.4806621  51.0965522  45.5443448  63.5278435
  51.1346588  47.0375989  61.9514123  51.5483958  47.8193817  62.5883874
  50.8549944  47.3062458  60.6022960  51.0485239  48.2922165  60.1797936
  50.3154537  46.2794552  59.7874783  50.0850820  46.4786506  58.7408886
  48.9343781  41.4972583  59.0157392  49.4393472  41.0390695  57.9820670
  47.7018877  41.1804847  59.4290671  47.3932699  41.4128579  60.3622644
  46.7923285  40.4197384  58.5648252  47.3371005  39.6311079  58.0458024
  45.6458288  39.7786157  59.3693107  46.0585511  39.0818641  60.0988974
  45.0854015  40.5567891  59.8874490  44.7253965  39.0366500  58.4299537
  44.3118987  39.7328818  57.7003087  45.2850468  38.2579558  57.9117588
  43.5888365  38.4010885  59.2274626  42.5473518  39.0901501  59.3951087
  43.7729594  37.2325926  59.6614168  46.2740122  41.3837982  57.4786218
  45.9920529  42.5535499  57.7537072  46.1707601  40.9116742  56.2424928
  46.4839925  39.9857936  55.9880718  45.7885003  41.8285377  55.1769315
  46.2686589  42.7930738  55.3419075  46.2164670  41.2937812  53.7877245
  45.8787402  40.2591618  53.7277031  45.6914201  41.8906687  53.0419691
  47.7853262  41.3573133  53.5103182  48.2403872  40.7417681  54.2862850
  47.9260067  40.8807742  52.5401525  48.5957856  43.0097476  53.4959471
  49.4353786  43.1272493  55.1147433  50.1624686  42.3204400  55.2069271
  49.9466987  44.0868823  55.1906169  48.6984880  43.0446136  55.9136581
  44.3006665  42.1971498  55.3203667  43.4174558  41.3263351  55.3830291
  44.0515076  43.4991481  55.4560212  44.8283158  44.1419403  55.3969739
  42.7178232  44.0450886  55.6796411  41.9182877  43.3202827  55.5263487
  42.6245878  44.5830604  57.1179872  42.7410504  43.7596859  57.8226787
  43.4133319  45.3168700  57.2838375  41.2653808  45.2422097  57.3270395
  41.1483719  46.0660317  56.6229606  40.4760897  44.5088483  57.1618046
  41.1729628  45.7754671  58.7527746  41.2894271  44.9520937  59.4574669
  41.9617060  46.5092776  58.9186230  39.8642438  46.4235543  58.9928550
  39.1944153  46.4513332  58.2374362  39.5299215  46.9710485  60.1579212
  40.3578642  46.9737844  61.1987881  41.2710458  46.5505091  61.1148977
  40.0696161  47.3991226  62.0683282  38.3264954  47.5273009  60.2639859
  37.7001752  47.5235177  59.4716420  38.0444659  47.9509466  61.1363862
  42.5059440  45.1929366  54.6614686  43.4770277  45.7661284  54.1793053
  41.2517213  45.5119302  54.3428801  40.5076501  44.8547703  54.5288859
  40.9369510  46.7220388  53.5562481  41.3281949  46.6499111  52.5414452
  39.3912267  47.0053823  53.4801816  38.9999367  46.9928371  54.4974495
  39.0651416  48.3493404  52.8251562  39.4557407  48.3624650  51.8076293
  37.9844703  48.4895401  52.8007849  39.5226119  49.1546950  53.3998095
  38.6755309  45.8800561  52.7332617  38.8365699  44.9368779  53.2553570
  37.6074633  46.0933981  52.6906431  39.0714782  45.8062848  51.7204022
  41.7489542  47.9205793  54.0373607  41.7835336  48.2559522  55.2584833
  42.4215847  48.5544047  53.0738636  42.4096234  48.1488007  52.1489627
  43.1703590  49.7942762  53.2776987  43.0345378  50.4521388  52.4192882
  42.8155504  50.2951872  54.1784197  44.6495509  49.4847579  53.4342223
  45.4575843  50.4053458  53.3705665  45.0377224  48.2159039  53.6530222
  44.3720683  47.4674103  53.7824874  46.4844237  47.8801286  53.6572043
  46.9889128  48.4979727  54.4000762  46.7319400  46.4305182  53.9880098
  46.1022233  45.7779670  53.3832513  47.7787163  46.1674897  53.8357750
  46.3541978  46.0237782  55.7375719  46.6760748  44.7360540  55.6535487
  47.0641639  48.1067758  52.2595007  46.3290555  48.0307713  51.2563716
  48.3640358  48.3445021  52.2005232  48.9216322  48.4510139  53.0358919
  49.0135111  48.5787090  50.8861375  48.3280674  48.3643053  50.0662002
  49.5294099  50.0531516  50.7359465  50.0851215  50.1265469  49.8011214
  48.3600951  51.0812426  50.7263122  47.8041661  51.0087559  51.6610787
  48.7623234  52.0887812  50.6205891  47.6940530  50.8669258  49.8905151
  50.4437931  50.3373126  51.8057198  50.7646688  51.2381801  51.7215963
  50.1466210  47.5773087  50.6161795  50.7362586  46.9726091  51.5672590
  50.4736591  47.3640533  49.3313538  49.9356510  47.7626802  48.5752168
  51.6231392  46.5155719  48.9955565  52.1646793  46.2526002  49.9042255
  51.1616924  45.2317315  48.3145436  52.0501473  44.6164490  48.1725069
  50.4839940  44.7355220  49.0092386  50.4567598  45.4300369  46.9668663
  49.6328979  46.1332940  47.0884472  51.1670306  45.8253262  46.2406682
  49.9003049  44.0576746  46.4584407  50.7240757  43.4060257  46.1671428
  49.3179793  43.5770088  47.2445430  49.0327557  44.2690513  45.2926726
  49.1291165  45.1436174  44.7967411  48.1191799  43.3895559  44.8647695
  47.9489640  42.2195448  45.5021952  48.5141664  42.0013267  46.3102961
  47.2565473  41.5633189  45.1704930  47.3696625  43.6702997  43.7647333
  47.5054185  44.5426359  43.2741215  46.6808072  43.0051370  43.4435857
  52.5676992  47.2759249  48.0710481  52.0887750  48.1351616  47.2981438
  53.8719244  47.0207473  48.1744802  54.2329055  46.4336270  48.9127767
  54.8152472  47.6453812  47.2709429  54.2947397  48.4058149  46.6887817
  55.9850802  48.3108433  48.0140714  56.4132263  47.5066396  48.6124413
  56.7309935  48.6734688  47.3068118  55.5559857  49.4526767  48.9300825
  54.6610968  50.2573450  48.6102970  56.2030944  49.5857016  49.9842285
  55.3273903  46.6294813  46.2821811  56.0892582  45.7501587  46.6214894
  54.9619372  46.8186807  45.0146210  54.4421468  47.6433496  44.7503512
  55.3178489  45.8522180  43.9641689  55.6075480  44.8714747  44.3414169
  54.1094916  45.6759559  42.9937338  53.7263600  46.6667805  42.7496521
  54.5011332  44.9389839  41.6900044  54.8839496  43.9478345  41.9332642
  53.6245858  44.8422034  41.0493807  55.2710327  45.5072394  41.1680445
  52.9057636  44.9485120  43.6812382  52.5704123  45.5312411  44.5391825
  52.0869120  44.8472975  42.9689620  53.2206648  43.9597844  44.0149382
  56.5129492  46.4265615  43.2055038  56.5540304  47.6618186  42.9430876
  57.4819850  45.5721203  42.8895386  57.4740315  44.6428526  43.2851362
  58.5820826  45.9365462  41.9977679  58.4956951  46.9735852  41.6734432
  59.9802799  45.7048573  42.6151510  60.0302082  44.6890085  43.0071442
  61.1047604  45.9043833  41.5294512  61.0557575  46.9202164  41.1373002
  62.0818728  45.7371655  41.9826513  60.9555956  45.1939840  40.7163203
  60.2026003  46.6180599  43.8478994  60.3602457  47.6266364  43.4657708
  59.2804693  46.5900307  44.4284063  61.4095909  46.2117703  44.7642550
  62.3322018  46.2400192  44.1845216  61.4838727  46.9092131  45.5986140
  61.2524263  45.2034120  45.1471553  58.3973712  45.0616129  40.7412913
  58.2307278  43.8537579  40.8389402  58.3611452  45.6868014  39.5674971
  58.3915766  46.6892419  39.4479714  58.0862533  44.8549306  38.3924582
  57.6268815  43.9104422  38.6840373  57.1870196  45.5363937  37.3401090
  57.0764481  44.8894815  36.4698345  55.7680036  45.7976653  37.9856628
  55.8777169  46.4449259  38.8557879  55.1188235  46.2795207  37.2545807
  55.3275685  44.8489687  38.2924091  57.8137001  46.7810217  36.8427169
  58.7749284  46.5467646  36.3852612  57.1627957  47.2452078  36.1018024
  57.9657020  47.4692951  37.6741470  59.3687731  44.3061025  37.7547829
  60.4657517  44.7728872  38.0420720  59.1953305  43.3363246  36.8789591
  58.2735481  42.9600489  36.7091558  60.3134694  42.7721430  36.1481968
  61.1451348  42.5541648  36.8182097  59.9198145  41.4700120  35.3616818
  60.7857675  41.1017936  34.8115538  59.4435302  40.3844744  36.3624646
  58.5772570  40.7518141  36.9126764  59.1704769  39.4812462  35.8168261
  60.2477435  40.1565831  37.0620399  58.8390874  41.7431955  34.2819667
  57.9459590  42.1252094  34.7764238  59.2221869  42.4957317  33.5927471
  58.4636107  40.3855647  33.4521583  58.0799789  39.6326737  34.1406941
  57.7039504  40.6143649  32.7047188  59.3562081  40.0031946  32.9570190
  60.8466661  43.7831619  35.1538896  60.1484871  44.7566881  34.8245011
  62.0557966  43.5421157  34.6737685  62.5977052  42.7522984  34.9941169
  62.6625147  44.4507128  33.6744235  62.6439228  45.4763503  34.0429628
  64.1175446  44.0502519  33.4151110  64.5516313  44.7571954  32.7080758
  64.6639368  44.0974474  34.3570920  64.2043173  42.7289863  32.8805825
  65.1253853  42.5052527  32.7283427  61.9357523  44.4765693  32.3365876
  61.2344285  43.5173056  31.9712233  62.1589756  45.5573527  31.5802684
  62.6482802  46.3644775  31.9397541  61.6908104  45.5905737  30.1960081
  62.4412930  46.1198280  29.6088410  61.6196248  44.5596426  29.8492906
  60.3509461  46.2670994  30.0071206  59.8922487  46.4393554  28.8558680
  59.7125435  46.6636996  31.1149977  60.1344855  46.5343324  32.0234736
  58.3850173  47.2741292  31.0475519  57.9054809  47.0400372  30.0971074
  57.5098770  46.7129375  32.1946467  58.0991981  46.8331823  33.1036798
  56.6578515  47.3922003  32.2221166  57.0079444  45.2679636  32.0990114
  57.8410643  44.6030107  31.8713062  56.3747177  44.8589273  33.4663937
  55.5411763  45.5231880  33.6945717  56.0146062  43.8317983  33.4078564
  57.1256969  44.9358484  34.2526595  55.9668111  45.1240538  31.0700059
  56.3716664  45.4124563  30.0999464  55.6349931  44.0865297  31.0307377
  55.1211475  45.7663800  31.3157070  58.4705669  48.8017596  31.1680279
  59.5039275  49.3225331  31.6373581  57.3875415  49.5129962  30.7971133
  56.2236432  49.0141018  30.0383333  55.7454080  48.2046432  30.5898476
  56.5497851  48.6469582  29.0652268  55.3047213  50.2954216  29.9221130
  54.6027406  50.3415638  30.7546952  54.7528104  50.2879586  28.9821982
  56.2807022  51.4392070  29.9625508  55.7413662  52.3090525  30.3374968
  56.7588389  51.6892622  29.0154725  57.3289890  51.0057872  30.9741120
  58.3128148  51.4308513  30.7753518  56.9049011  51.3468209  32.4138604
  56.0291767  52.1995864  32.6530064  57.6020351  50.7058922  33.3603622
  58.3572156  50.0897761  33.0954041  57.2780643  50.8353977  34.7830122
  57.2124277  51.8845194  35.0713430  55.9642299  50.1639404  35.1032128
  56.0175273  49.1104857  34.8284536  55.7619568  50.2506739  36.1707629
  55.1633440  50.6452177  34.5419168  58.4017219  50.2247146  35.5790021
  59.1171477  49.3528685  35.0903260  58.5601267  50.7216465  36.8066020
  58.0613664  51.5587349  37.0723472  59.4796921  50.1325712  37.7672991
  59.9635050  49.2677585  37.3132912  60.5810909  51.1421390  38.2144038
  60.1297422  51.9946799  38.7219052  61.2264602  50.6058184  38.9100752
  61.4366816  51.6603496  37.0525969  61.7420433  52.8608126  36.9817171
  61.8576236  50.7761323  36.1902000  62.4246350  51.0688722  35.4073199
  61.6144535  49.8031430  36.3096191  58.7883872  49.6000814  39.0063218
  59.1740585  48.5577241  39.5044029  57.8038819  50.3389242  39.5077774
  57.4244638  51.1079694  38.9741945  57.1994017  50.0311324  40.8179568
  57.3915098  48.9868024  41.0640635  57.7847540  50.9176517  41.9380600
  57.2695193  50.6744022  42.8672872  59.2996895  50.7013496  42.1193050
  59.8156797  50.9448592  41.1905656  59.6663342  51.3462540  42.9179094
  59.4901463  49.6597181  42.3778215  57.5643710  52.2980875  41.6094124
  57.9267185  52.8539708  42.3031691  55.7257220  50.3343562  40.7513442
  55.2771068  51.1556267  39.9248309  54.9667016  49.7648938  41.6686548
  55.3530426  49.0432115  42.2602752  53.5822873  50.1091193  41.8306020
  53.4250581  51.1407885  41.5159009  52.6723893  49.1860986  40.9769865
  52.9058915  49.3370272  39.9230431  52.8691489  48.1486251  41.2472354
  51.2639799  49.4910720  41.2116076  50.7175098  48.9112546  40.6760871
  53.2014593  50.0056606  43.3146685  53.6326639  49.0649432  43.9978524
  52.4343289  50.9829453  43.8063997  52.1600178  51.7609451  43.2236742
  51.9053052  50.9190134  45.1830898  52.3971391  50.1037860  45.7137524
  52.1521186  52.2380100  45.9621816  51.5770257  53.0417706  45.5024672
  51.7068226  52.0646918  47.4516827  52.2818457  51.2613573  47.9122278
  51.8822094  52.9936075  47.9943191  50.6456836  51.8181667  47.4878773
  53.5469955  52.5338652  45.9042409  53.7214375  53.3483515  46.3815064
  50.4329329  50.7549400  45.0800678  49.7598296  51.5523958  44.4086802
  49.9121114  49.7296186  45.7489840  50.4894386  49.2068242  46.3920071
  48.5329237  49.3202990  45.5754217  47.9783886  50.0662902  45.0061351
  48.5074608  48.0042369  44.8079230  49.0343135  47.2321171  45.3685980
  47.4781629  47.6893630  44.6361663  49.2178552  48.2273831  43.4378999
  48.5944904  48.9382836  42.8955553  50.1773305  48.6895518  43.6700777
  49.4462699  46.9850403  42.5721331  49.2191708  45.8198521  43.0126298
  49.8732390  47.2409234  41.4161364  47.8167906  49.1353057  46.9226978
  48.4120529  48.6349006  47.8941248  46.5661510  49.5521682  46.9432477
  46.1801170  49.9377664  46.0933118  45.6985308  49.5000324  48.1527575
  46.2954119  49.2843300  49.0389317  45.0111835  50.8573573  48.3434288
  45.8062517  51.5674130  48.5709958  44.5666131  51.1069655  47.3800219
  43.9241431  50.9273983  49.4478072  43.2214620  50.1098027  49.2869424
  44.4116779  50.8018660  50.4145820  43.1529743  52.2898873  49.4255741
  43.8582953  53.1197227  49.3809136  42.4889052  52.3312885  48.5622100
  42.3408593  52.4236477  50.6551279  42.7772603  52.9346275  51.4091525
  41.1080628  51.9518272  50.8367461  40.4781464  51.2576116  49.8926068
  40.9373187  51.0777376  49.0111840  39.5436760  50.9136732  50.0616366
  40.4846760  52.1665513  52.0156980  40.9559063  52.6805260  52.7463635
  39.5501560  51.8121551  52.1612118  44.6406690  48.4063664  48.0088376
  43.9345291  48.3118240  47.0032242  44.5537595  47.5367441  49.0072157
  45.2599011  47.5096794  49.7288326  43.4820471  46.5531073  49.0533161
  43.3732678  46.0456593  48.0947950  43.8508025  45.4976647  50.1356846
  44.7717916  45.0169472  49.8058528  44.0337570  46.0306734  51.0687063
  42.7667870  44.4290641  50.3599612  41.8466430  44.9333533  50.6551360
  42.5118174  43.5999978  49.1012489  43.4314577  43.0950068  48.8057076
  41.7396656  42.8579961  49.3045120  42.1822633  44.2549798  48.2947174
  43.2957855  43.5226595  51.5172686  43.4468201  44.1263153  52.4121918
  42.5681559  42.7386522  51.7270043  44.2419833  43.0697216  51.2212013
  42.1011408  47.2026944  49.3371811  41.9430501  47.8397877  50.3720886
  41.1570376  47.1360061  48.3948416  41.3287468  46.5492491  47.5908942
  39.8703193  47.8597847  48.4722673  39.9906192  48.7506183  49.0887432
  39.3897405  48.2914494  47.0699383  39.4823224  47.3955399  46.4560378
  38.3481525  48.6121178  47.0890711  40.2501016  49.3992364  46.4824301
  40.8227789  50.2110163  47.2762155  40.3093011  49.5313455  45.2220760
  38.7640680  46.9966555  49.0676208  37.8677494  47.4855456  49.7969970
  38.8359887  45.7051315  48.7936951  39.5480349  45.3348328  48.1805325
  37.8034435  44.7494191  49.3546141  37.5495615  44.9951400  50.3857612
  36.4972717  44.7319219  48.4845284  36.0202958  45.7081906  48.5710950
  36.7817810  44.4372104  47.0274290  37.2583725  43.4608296  46.9400131
  35.8468007  44.4360254  46.4671513  37.4453504  45.2022380  46.6243066
  35.4760334  43.7421125  49.0211461  35.8980952  42.7468848  48.8815525
  35.3701017  43.9450760  50.0868308  34.1683581  43.8087453  48.3820537
  34.2734277  43.6054167  47.3163531  33.5065424  43.0671317  48.8293886
  33.7454350  44.8036094  48.5216296  38.4034462  43.3798058  49.4354679
  39.1642492  43.0142186  48.5287956  38.1113605  42.6303633  50.5378871
  37.6129735  43.0321600  51.3190843  38.5489000  41.2481689  50.6372184
  38.7085858  40.8532485  49.6339051  39.8770465  41.1102753  51.4445839
  40.5499200  41.8511530  51.0127963  39.6431781  41.3878913  52.4723655
  40.5546953  39.7333282  51.4285291  39.8392713  38.9968765  51.7944639
  41.0256237  39.3334695  50.0026225  41.7414703  40.0692557  49.6361786
  41.4994435  38.3524664  50.0376733  40.1667462  39.2978184  49.3324293
  41.7858112  39.7307051  52.3721661  41.4654592  39.9583727  53.3888477
  42.2577218  38.7483665  52.3518587  42.5005866  40.4835309  52.0398282
  37.4073707  40.4790360  51.3036435  37.4068766  40.2701974  52.5474972
  36.4140256  40.1053285  50.5078254  36.5049153  40.2091568  49.5072965
  35.1781958  39.5531504  51.0331157  35.0501345  39.8717247  52.0676252
  33.9695939  40.0261241  50.2226828  34.0759077  41.1100865  50.1799951
  34.0072025  39.6178276  49.2127424  32.6281374  39.6706168  50.8664366
  32.5231984  38.5689231  51.4605997  31.6473296  40.4688922  50.7167455
  35.2980758  38.0402440  50.9601569  34.9997192  37.4481919  49.9306495
  35.6916726  37.4206061  52.0706003  36.0365676  37.9339930  52.8690868
  35.7928954  35.9552614  52.0881445  36.3138041  35.6216080  51.1906877
  36.5708309  35.4477414  53.3303425  36.1741231  35.9745109  54.1982342
  36.3898779  34.3785677  53.4409035  38.0496764  35.6971944  53.2259677
  38.6414806  35.4752782  52.1449996  38.6587538  36.1081019  54.2329979
  34.4723117  35.2027522  51.9353779  34.4826075  33.9899254  51.5756901
  33.3393263  35.8572570  52.1656052  33.3199496  36.8276579  52.4449723
  32.0828770  35.1499597  52.0570162  32.2269600  34.1082707  52.3437622
  31.0218340  35.7647993  52.9680695  31.4019777  35.6717599  53.9853864
  30.9616660  36.8191588  52.6982438  29.6303339  35.1378213  52.8851725
  28.9698141  35.6804878  53.5614325  29.2925723  35.2776276  51.8582983
  29.6024148  33.6255458  53.2375971  30.5069325  33.1342784  53.9833217
  28.6603153  32.9744145  52.7772248  31.5825886  35.1519898  50.6379963
  31.1191082  34.1179434  50.1189829  31.6952549  36.2838729  49.9811205
  32.0738944  37.1104135  50.4210777  31.1883849  36.3964909  48.6044800
  30.4252073  35.6410826  48.4173510  30.5748640  37.7591435  48.4106890
  31.3719585  38.4954594  48.5135406  30.1740535  37.7974360  47.3977800
  29.4398902  38.0768170  49.4304831  28.7842232  37.2088114  49.4995325
  29.8927519  38.2677371  50.4034004  28.6344284  39.2840493  49.0039923
  28.0132884  39.5999730  49.8421309  29.3244654  40.0858839  48.7412953
  27.7629573  39.0125570  47.8461676  27.3155909  38.1083342  47.7977551
  27.5227928  39.8973795  46.8700733  28.1274622  41.0775960  46.8929164
  28.7638477  41.3010716  47.6446957  27.9487568  41.7474409  46.1584289
  26.6905169  39.6168312  45.8508405  26.2300298  38.7187773  45.8114586
  26.5300124  40.3055558  45.1297334  32.2806410  36.1245754  47.5292477
  31.9403736  35.9523793  46.3530931  33.5341852  36.0431527  47.9642861
  33.6813592  36.2225180  48.9472750  34.7157348  35.7722907  47.1161497
  35.6069047  35.7700604  47.7437725  34.6193558  34.4105789  46.3900759
  33.6792012  34.3812948  45.8393029  35.4520319  34.3350208  45.6907608
  34.6705237  33.2520597  47.3616546  35.6234025  33.2669127  47.8907125
  33.8555863  33.3469651  48.0792701  34.5315157  31.9481063  46.6119857
  33.5816970  31.9374182  46.0773557  35.3502910  31.8514209  45.8989932
  34.5681791  30.8035259  47.5273831  35.2475567  30.8077980  48.2747298
  33.7747791  29.7404603  47.3950620  32.8415376  29.6918390  46.4332905
  32.7346863  30.4695419  45.7977899  32.2497577  28.8777394  46.3488043
  33.8838077  28.7387478  48.2508271  34.5646757  28.7864333  48.9953034
  33.2857356  27.9303826  48.1562002  34.8392750  36.9098498  46.1351512
  34.7737674  36.7149202  44.8933137  35.0050069  38.0993244  46.7146864
  35.0493947  38.1611938  47.7218116  35.1933819  39.3393852  45.9256979
  35.3436585  39.1581563  44.8614271  34.0162394  40.2995386  46.0962585
  33.8999670  40.5445828  47.1519731  34.2802457  41.6094169  45.2833861
  34.3961728  41.3652133  44.2274379  33.4386252  42.2907865  45.4079292
  35.1901925  42.0864183  45.6474852  32.6968772  39.6226684  45.7169498
  32.5356811  38.7553393  46.3571515  31.8756979  40.3274851  45.8473246
  32.7383489  39.3024664  44.6758679  36.4279392  40.0222925  46.4911400
  36.5732908  40.2093366  47.7269966  37.3482725  40.4204767  45.5928004
  37.3201223  40.0743837  44.6443667  38.4770192  41.2139382  45.9953719
  38.1970615  41.7538486  46.8999269  39.7909497  40.3803038  46.2897973
  39.5307814  39.5356538  46.9277465  40.4306862  39.8599269  44.9815393
  40.6915656  40.7040855  44.3432307  41.3304778  39.2917472  45.2174333
  39.7215588  39.2166514  44.4605446  40.7606061  41.1859508  46.9586390
  41.5483065  40.6640209  47.1281017  38.7103891  42.3359306  44.9685572
  38.0448259  42.3872299  43.9363212  39.5786365  43.2690195  45.3020248
  40.1219972  43.2202468  46.1520129  39.7750040  44.4373683  44.4071377
  40.0928423  44.1101999  43.4171686  38.8520945  45.0108484  44.3207780
  40.8430692  45.3152302  44.9987154  41.0856183  45.2906670  46.2270898
  41.5432662  46.0639595  44.1517481  41.3801806  45.9909898  43.1576768
  42.5747091  46.9760717  44.6153933  42.3390442  47.3115649  45.6253466
  43.9671417  46.2769425  44.6351575  44.7053108  46.8858414  45.1571227
  43.8664652  45.3163849  45.1404233  44.5358577  45.9875417  43.2660544
  45.4657224  46.8681716  42.6932057  45.7603013  47.7546262  43.2549186
  46.0182087  46.6254411  41.4157512  46.7429927  47.3070850  40.9706102
  45.6102329  45.4650352  40.7104946  46.0073759  45.2721962  39.7139052
  44.6856339  44.5527744  41.2982011  44.3771246  43.6494935  40.7718878
  44.1674142  44.8340604  42.5836724  43.4686096  44.1416473  43.0530722
  42.6472970  48.2013951  43.7338296  42.1105303  48.2038250  42.5949154
  43.3170089  49.2252093  44.2757525  43.7024302  49.1520335  45.2064485
  43.5263960  50.4675065  43.5347587  43.0939593  50.4005874  42.5364504
  42.8332704  51.6096169  44.2946947  43.0235512  51.4877441  45.3610152
  43.2500818  52.5588049  43.9579303  41.4238158  51.5979434  44.0582238
  41.0122988  52.3181237  44.5415393  45.0170458  50.7332597  43.4564601
  45.7361420  50.5635588  44.4507323  45.4891631  51.2360022  42.3043450
  44.8948575  51.3509561  41.4958366  46.8680963  51.5891010  42.1868143
  47.4033261  50.9128507  42.8533829  47.3581288  51.3694151  40.7192086
  46.7381249  51.9557950  40.0410832  48.7879951  51.8016105  40.5884662
  49.4087241  51.2153146  41.2660010  49.1229252  51.6456709  39.5629881
  48.8732211  52.8584658  40.8412357  47.3353312  49.8602802  40.4155686
  48.0527718  49.3607301  41.0665905  46.3348795  49.4772029  40.6166845
  47.7305410  49.5686141  38.8310206  48.7311176  49.9510252  38.6292586
  47.7073209  48.4954078  38.6418426  47.0132261  50.0675003  38.1793523
  46.9844205  53.0426891  42.6104266  46.4065781  53.9267936  41.9303005
  47.6491866  53.2823584  43.7275898  48.0905650  52.5261378  44.2309931
  47.6698672  54.6377139  44.3332918  46.9193929  55.2692419  43.8578343
  47.4035094  54.5756374  45.8426778  47.3654345  55.5840881  46.2545975
  46.0354173  53.8661405  46.0789135  46.0728800  52.8574012  45.6676446
  45.8322255  53.8145352  47.1485633  45.2433378  54.4297611  45.5859216
  48.4949835  53.8421920  46.6026172  48.4666566  52.7942807  46.3039866
  49.4533606  54.2752943  46.3161991  48.3114586  53.9511704  48.2144725
  47.3534412  53.5178206  48.5017190  49.1175817  53.4100192  48.7098714
  48.3401430  54.9988351  48.5139313  48.9403527  55.4290491  44.0690300
  49.0071070  56.6065373  44.4142796  49.9567087  54.7533543  43.5369989
  49.8678636  53.7583717  43.3879506  51.1880188  55.3906196  43.1625521
  50.9639435  56.1898445  42.4560614  51.6450369  55.8144064  44.0567771
  52.1649596  54.4227183  42.5198556  51.8125787  53.2912792  42.1400527
  53.3885524  54.9036706  42.3648437  53.5945545  55.8540116  42.6378173
  54.4765039  54.0883667  41.7994305  55.2824516  54.0141130  42.5295222
  54.0958701  53.0915971  41.5765680  55.0187625  54.7036224  40.5286268
  54.4479630  55.6646274  40.0016436  56.1125548  54.1229704  40.0269190
  56.5508846  53.3512792  40.5090591  56.7415152  54.6224865  38.7895991
  56.5170143  55.6811297  38.6593183  58.2486069  54.4513942  38.8620344
  58.4548242  53.3940433  39.0281149  58.6635421  54.7553914  37.9010378
  58.8999412  55.2894545  39.9949089  58.7609863  56.3437880  39.7557995
  58.3415753  55.0457584  40.8987556  60.3860330  55.0105202  40.2234534
  61.0828493  54.4271295  39.3666942  60.8828881  55.4187422  41.2968457
  56.1693191  53.8875352  37.5919584  56.6592053  52.8289805  37.2456227
  55.1085025  54.4401558  37.0051880  54.7724922  55.3187343  37.3730143
  54.4178430  53.8611687  35.8534561  55.1556642  53.6170473  35.0891761
  53.6360712  52.5777563  36.2128646  53.0951764  52.1422611  35.3727004
  54.3625425  51.8575354  36.5891909  52.6460579  52.7837470  37.2924953
  51.3948712  53.3348155  37.0764644  50.7709532  53.4390402  38.2473793
  49.7496158  53.8164793  38.2974642  51.5916345  53.0257445  39.1999852
  51.4016821  53.0342368  40.1919256  52.7531428  52.5790148  38.6258248
  53.5415230  52.1563378  39.2486426  53.4296732  54.9167756  35.3661908
  53.2505955  55.9706639  36.0104699  52.7568481  54.6416612  34.2577286
  52.9332676  53.7893896  33.7452750  51.8842516  55.6490545  33.6504164
  52.1197411  56.6351747  34.0506801  52.0899843  55.6769333  32.0962408
  51.7054685  54.7451656  31.6814448  51.5250844  56.5156271  31.6893246
  53.5159262  55.8238116  31.7378589  53.9328787  56.6733854  32.2786692
  54.0491369  54.9163161  32.0211264  53.6679740  56.0573691  30.2130631
  54.7313276  56.1765327  30.0052696  53.2971788  55.1657671  29.7074385
  52.9545274  57.2235986  29.6906297  53.1684254  58.1052622  30.1344948
  52.0635291  57.2092052  28.7096236  51.6832342  56.0698329  28.1331589
  52.0776224  55.1937039  28.4445365  51.0023021  56.0874644  27.3874241
  51.5314638  58.3709492  28.2707168  51.8152240  59.2438652  28.6921405
  50.8523602  58.3612491  27.5231722  50.3874123  55.6346369  33.9845139
  49.6344415  56.5189150  33.5272129  49.9219870  54.6739088  34.7888110
  50.5673823  54.0021411  35.1790576  48.4928475  54.5068724  35.0667104
  47.9289091  54.8308939  34.1920204  48.1099870  53.0503422  35.3871188
  48.6724505  52.8754921  36.3042673  47.0429066  52.9730556  35.5956047
  48.5064965  51.9925684  34.3297315  49.5652149  52.1048848  34.0960626
  48.2422872  50.5462861  34.8728098  47.1836232  50.4330543  35.1062794
  48.5270178  49.8156727  34.1156881  48.8322125  50.3828730  35.7746882
  47.8222086  52.2414020  32.9950811  48.1064198  53.2238347  32.6180540
  48.1279087  51.4764801  32.2812581  46.7410056  52.2025445  33.1277048
  47.9977479  55.3857256  36.1868066  48.5766253  55.4267024  37.2650287
  46.9134610  56.0792400  35.9374500  46.5198552  56.1377206  35.0091430
  46.3283172  56.8997660  36.9882354  46.8422507  56.6682350  37.9211690
  46.4455516  58.4911660  36.7141185  46.0008754  59.0192975  37.5575878
  47.8874504  58.9251486  36.5505428  48.3326911  58.3977469  35.7069151
  47.9257297  59.9990945  36.3681311  48.4430516  58.6913567  37.4586999
  45.7497661  58.7957654  35.5345034  45.8117688  59.7378484  35.3606196
  44.8966923  56.4882140  37.2435080  44.1107973  56.1943623  36.3129140
  44.5658331  56.4338739  38.5254941  45.2881643  56.5766037  39.2168443
  43.2377686  56.0248597  38.9840246  43.2499155  55.8335087  40.0570280
  42.2161268  57.1632375  38.6931812  42.2793906  57.3794122  37.6267079
  41.1931811  56.8852574  38.9469709  42.5846089  58.4210288  39.4671134
  42.9772518  59.4688160  38.8760402  42.5398961  58.3244570  40.7785384
  42.7733546  59.1245558  41.3490109  42.2723211  57.4506750  41.2086657
  42.7727894  54.6831658  38.4540200  41.5681582  54.4737679  38.2110360
  43.7333910  53.7654869  38.3389026  44.7013711  54.0186606  38.4768046
  43.4157636  52.3601100  38.0371784  42.7364106  52.2971109  37.1871137
  44.7244788  51.6070258  37.6826042  45.2261685  52.1547090  36.8848262
  45.3587787  51.5950161  38.5689559  44.4621010  50.1867188  37.2312484
  44.3382396  49.8719467  35.8574617  44.4462174  50.6677356  35.1204676
  44.0756958  48.5348838  35.4310739  44.0023083  48.2937849  34.3706083
  43.9618098  47.5190603  36.3903182  43.6993268  46.1911507  35.9901261
  43.6170383  46.0955010  35.0384542  44.0592882  47.8246293  37.7674582
  43.9187299  47.0355944  38.5062191  44.3353099  49.1351974  38.1848252
  44.4545260  49.3556388  39.2456236  42.7841622  51.6660551  39.2631541
  43.3094464  51.7338622  40.3780490  41.6630739  50.9887260  39.0272337
  41.2461100  51.0014815  38.1074089  40.9882548  50.2209373  40.0901494
  41.7073690  49.9470679  40.8621400  39.8613410  51.0703357  40.7402061
  40.3206800  51.9930847  41.0946650  39.1419137  51.3016281  39.9546947
  39.1562964  50.3918496  41.8807843  38.7946010  49.4254274  41.5296355
  39.8778406  50.2393722  42.6834216  37.9461444  51.2402775  42.4184155
  38.2624723  52.2755367  42.5459856  37.1293278  51.1966348  41.6979953
  37.4530031  50.6620995  43.8130043  38.3562532  50.5089843  44.4035934
  36.8543837  51.4534755  44.2640897  36.6443838  49.3711563  43.7782853
  37.1990533  48.6376127  43.3607267  36.3909650  49.1072343  44.7196801
  35.8071558  49.5129447  43.2314358  40.4228617  48.9802194  39.4551977
  39.7726497  49.0680356  38.4083722  40.6342008  47.8150756  40.0804942
  41.2481239  47.7355005  40.8785328  40.0550945  46.5919513  39.5266930
  39.3116446  46.8699735  38.7796420  41.1131343  45.6596124  38.8550437
  40.5983715  44.8284421  38.3730951  41.6630900  46.2291968  38.1058959
  42.0128743  45.1595527  39.8187725  42.6557472  44.5892802  39.3908665
  39.2621832  45.8375773  40.5901579  39.5091561  45.9958141  41.8134745
  38.3338310  45.0103223  40.1189929  38.1329958  44.9660398  39.1301534
  37.5771436  44.1509551  41.0152864  38.0249136  44.0813171  42.0066248
  36.1304690  44.6957250  41.1614348  35.7744089  44.9382651  40.1601882
  35.1424624  43.6954534  41.8359663  35.4976377  43.4527826  42.8374963
  34.1536221  44.1492918  41.9017400  35.0845366  42.7841063  41.2408255
  36.1464534  45.9875162  41.9475905  36.7574354  46.7237520  41.4253263
  35.1289322  46.3654408  42.0472056  36.5645339  45.8057546  42.9376775
  37.5868957  42.7530998  40.3731343  37.3603935  42.6080671  39.1813075
  37.8202460  41.7346314  41.2055680  37.8885984  41.9230152  42.1954866
  37.9087233  40.3574850  40.7601148  37.7438134  40.2808985  39.6853877
  39.2986158  39.8097274  41.0810969  39.4943012  39.9389641  42.1455711
  39.3863851  38.2564112  40.7078151  39.1912563  38.1264219  39.6433306
  40.3826261  37.8815349  40.9424869  38.6451505  37.7015402  41.2829587
  40.2449997  40.5553464  40.3332876  41.1284300  40.2286300  40.5187807
  36.8673770  39.5215571  41.5865018  36.8781974  39.5703705  42.8410041
  36.0028332  38.7903882  40.9065091  36.0072482  38.8418639  39.8978317
  34.9743272  37.9879836  41.5519642  35.1503941  37.9996371  42.6275868
  33.5694750  38.5046791  41.2839005  32.8552436  37.8579387  41.7935088
  33.4078767  39.9422617  41.7899076  34.1215138  40.5897209  41.2803801
  32.3944688  40.2880019  41.5860268  33.5925543  39.9729530  42.8637106
  33.2836988  38.4971672  39.8725272  32.3940758  38.8261622  39.7244273
  35.1018645  36.5418655  41.1464011  35.4184351  36.2540973  39.9916225
  34.8744480  35.6335560  42.1068971  34.6343114  35.9277920  43.0427704
  35.0482555  34.1690908  41.8456373  35.3766273  33.9834221  40.8229945
  36.0965765  33.5791877  42.8156777  35.7482812  33.7459920  43.8349745
  36.3098444  32.0945745  42.5912951  36.6586122  31.9270114  41.5722835
  37.0546485  31.7234839  43.2953257  35.3697725  31.5646584  42.7447726
  37.4321331  34.3165268  42.6456028  37.2936166  35.3753455  42.8642765
  38.1688086  33.8977993  43.3312238  37.7836826  34.2007571  41.6203657
  33.6990817  33.4466208  41.9601200  32.9765830  33.6391453  42.9669527
  33.3345439  32.6693980  40.9424825  33.9844745  32.5194032  40.1840690
  32.0159193  32.0517546  40.8555822  31.4384533  32.2407424  41.7605219
  31.2707587  32.6675223  39.6595822  31.8309618  32.3987172  38.7640290
  30.2340616  32.3498511  39.5480293  31.2560499  34.1553425  39.7223573
  30.2942251  34.8460739  40.4455670  29.5211770  34.4234110  40.9393812
  30.5608795  36.1456017  40.3784123  29.9178807  36.8671098  40.8824735
  31.6581985  36.3171150  39.6426962  32.1235288  35.0906631  39.2352170
  33.0319716  35.0238442  38.6365784  32.0525445  30.5535128  40.6998552
  32.7911961  30.0177024  39.8543170  31.2455849  29.8690794  41.5280396
  30.7768561  30.3760347  42.2651888  31.0085265  28.3962355  41.4185856
  31.9351765  27.8765376  41.1750021  30.4921905  27.8727179  42.7651926
  31.1883699  28.2075766  43.5341550  29.5155452  28.3247196  42.9382777
  30.3680233  26.3774697  42.8198197  29.5934077  26.0430497  42.1297220
  31.3177935  25.9152371  42.5507849  29.9963966  25.9791989  44.2208550
  30.6677355  26.4683052  44.9266723  28.9702693  26.2853492  44.4244086
  30.0980405  24.5374546  44.4025085  30.9694718  24.1847120  44.7716690
  29.1333255  23.6731348  44.1244469  27.9717075  24.0924931  43.6283751
  27.8232537  25.0775893  43.4621011  27.2439634  23.4237158  43.4204688
  29.3372617  22.3758949  44.3396973  30.2221563  22.0618558  44.7117739
  28.6062198  21.7112852  44.1300059  29.9950221  27.9990544  40.3591777
  28.9103563  28.6295225  40.2099561  30.3512577  26.9617626  39.5898521
  31.3053539  26.6316807  39.6189333  29.4202337  26.3099481  38.6708003
  28.4089097  26.6672534  38.8648516  29.7740111  26.6137264  37.2201004
  30.8395388  26.5097881  37.0152912  29.2135511  25.9306174  36.5818632
  29.3893513  28.0064056  36.8021599  28.1552071  28.2400881  36.2332499
  27.4753179  27.4038704  36.0701837  27.7726197  29.5338136  35.8666013
  26.8081278  29.7235385  35.3955805  28.6604679  30.6055374  36.1162705
  28.3553227  31.6227503  35.8707829  29.9161249  30.3698537  36.6712091
  30.6254098  31.1850253  36.8144230  30.2576092  29.0852367  37.0412599
  31.2142503  28.8942399  37.5275293  29.4329219  24.7977447  38.9093081
  30.4718749  24.2352988  39.2118050  28.2720046  24.1758079  38.7834211
  27.4325568  24.7043641  38.5935394  28.1592717  22.7199777  38.9300290
  29.1074492  22.2563872  38.6577379  27.8166526  22.3244982  40.3695321
  28.6552051  22.6449139  40.9878061  26.9264858  22.8905861  40.6438449
  27.5525483  20.7867398  40.5985624  26.5860091  20.5354104  40.1618288
  28.3387749  20.2384509  40.0795958  27.5573326  20.4010414  42.0933938
  27.3453647  21.2970724  42.9516363  27.7632968  19.1945984  42.4151422
  27.0813304  22.2398512  38.0002280  26.0064650  22.8506948  37.9249512
  27.3784625  21.1653923  37.2835749  28.2833383  20.7369791  37.4168459
  26.4748622  20.5842119  36.2880524  25.4512294  20.5905254  36.6625322
  26.5281476  21.4065295  34.9889391  26.2970632  22.4313789  35.2794267
  27.5616628  21.3505649  34.6471582  25.5991788  20.9771030  33.8649792
  25.8495917  19.9633302  33.5524748  24.5671476  21.0044878  34.2146416
  25.7609575  21.9299081  32.6801601  25.4274671  22.9173717  32.9992195
  26.8203817  21.9690729  32.4268109  24.9639439  21.4958461  31.4597879
  25.3805315  20.5669607  31.0702661  23.9250386  21.3349357  31.7476815
  25.0304130  22.5546385  30.4022669  25.9929659  22.7035893  30.1350492
  24.4990386  22.2588567  29.5958834  24.6440504  23.4153320  30.7628631
  26.9670955  19.1501015  36.0966823  28.1250604  18.9355569  35.7298827
  26.0874512  18.1750795  36.3779543  25.1190985  18.4465208  36.4712926
  26.4371921  16.7506900  36.5641533  25.5153777  16.1695640  36.5386587
  27.3936426  16.2008411  35.4958403  28.2996341  16.8045200  35.5492307
  27.6238537  15.1748526  35.7829821  26.8528727  16.2202670  34.0678965
  25.8352263  15.8304306  34.0907884  26.8374739  17.2547661  33.7248606
  27.7037876  15.3745007  33.1064344  28.9629128  15.3338825  33.2750993
  27.1016542  14.7564123  32.1818593  27.0952491  16.6277436  37.9126729
  26.6626840  17.2469572  38.8885376  28.1468577  15.8290389  37.9818403
  28.3747065  15.1630479  37.2575198  28.9527881  15.8403307  39.1790866
  28.4118468  16.3602614  39.9697533  29.2601691  14.4061305  39.6534009
  28.3263292  13.8828903  39.8589782  29.8097017  13.8756477  38.8757751
  30.1010545  14.4169608  40.9219751  30.4451052  15.4803060  41.4332161
  30.4319537  13.2275595  41.4299655  30.9891243  13.1783576  42.2709411
  30.1236104  12.3823589  40.9709872  30.2319242  16.6525961  38.9162715
  31.2562373  16.4327067  39.5809032  30.1645464  17.6085065  37.9750231
  29.3625016  17.6682601  37.3640788  31.3686117  18.3923209  37.6291783
  32.1981885  18.0662665  38.2565460  31.7666335  18.2133619  36.1577859
  32.8501221  18.3319796  36.1487545  31.5129970  17.1786359  35.9273286
  31.1476765  19.1312466  35.1144816  30.1589499  18.7685409  34.8334743
  31.0643108  20.1446748  35.5070571  32.0762349  19.1344093  33.8599477
  32.1245275  18.1402389  33.4156595  31.7159019  19.8464822  33.1175113
  33.4306626  19.5313699  34.2753678  33.9147188  18.9003053  34.8979000
  34.0506452  20.6531059  33.8955628  33.4448970  21.4760551  33.0332108
  32.5283624  21.2444057  32.6776788  33.9066380  22.3255709  32.7412899
  35.2755932  20.9415461  34.3769551  35.7223862  20.3081451  35.0244728
  35.7414680  21.7898546  34.0881089  31.3263008  19.8597375  38.1273472
  30.3674106  20.5709549  37.9123604  32.3655892  20.2575808  38.8480875
  33.1674414  19.6518252  38.9490454  32.4004583  21.5671061  39.4963017
  31.4666912  22.1237369  39.4166757  32.7646531  21.3896562  40.9746801
  33.6672049  20.7826522  41.0457195  33.0101969  22.7482464  41.6371369
  32.1078732  23.3556831  41.5668991  33.2673307  22.6004435  42.6860111
  33.8304145  23.2570471  41.1307140  31.6652143  20.5572370  41.6912173
  30.7760731  21.1827127  41.7706452  31.4454337  19.6919567  41.0658487
  32.0965637  20.0698407  43.1318014  32.3160732  20.9346420  43.7579276
  31.2860358  19.4944415  43.5790817  32.9854357  19.4438875  43.0531311
  33.4761911  22.4003183  38.7904602  34.5842300  21.9301219  38.6377833
  33.1647094  23.6188239  38.3438056  32.2186072  23.9673791  38.2846510
  34.2566549  24.4597026  37.8068409  35.2106670  24.1130935  38.2041094
  34.3089592  24.3892083  36.2707889  35.2212879  24.8453483  35.8864820
  34.2922164  23.3321355  36.0054270  33.1565605  25.0388829  35.5346122
  33.1483739  26.2945918  34.9508373  34.0527121  26.8908840  35.0721136
  31.9466070  26.5272817  34.3160431  31.6931819  27.3730336  33.8255546
  31.1453512  25.4341799  34.4772592  29.8337284  25.2105302  34.0309192
  29.3343557  25.9932432  33.4598798  29.2547160  23.9974923  34.3488905
  28.2377756  23.7832404  34.0202139  29.9501417  23.0264378  35.0910396
  29.4778808  22.0756038  35.3379887  31.2565178  23.2438060  35.5331352
  31.7589062  22.4418851  36.0740876  31.8706403  24.4721042  35.2434199
  34.0786744  25.8938929  38.3327004  33.1224041  26.1916615  39.0875401
  35.0270521  26.7517034  37.9717091  35.7677186  26.4475353  37.3560839
  35.0208576  28.1411645  38.4112559  34.1374435  28.3478001  39.0153920
  36.2729454  28.4178897  39.2607083  37.1519511  28.1886008  38.6583165
  36.3364465  29.8332044  39.7106050  35.4579391  30.0631177  40.3134849
  37.2358729  29.9853285  40.3072537  36.3621564  30.4904760  38.8414482
  36.2880864  27.5754288  40.4393140  37.0753825  27.7620819  40.9559625
  35.0581875  29.0831779  37.1797247  35.6935885  28.7814561  36.1625012
  34.3750884  30.2204898  37.3159056  33.6823617  30.3060356  38.0459131
  34.5647030  31.3562811  36.3960303  35.3302208  31.0937750  35.6658439
  33.2759561  31.7274266  35.6447650  32.4756736  31.8714618  36.3706445
  33.4724271  33.0491485  34.8113814  34.2722946  32.9057236  34.0849227
  32.5468339  33.2908372  34.2889216  33.7343339  33.8670048  35.4826619
  32.8900184  30.5789991  34.6751907  32.7271265  29.6628514  35.2428541
  31.9761456  30.8435637  34.1432679  33.6953035  30.4227349  33.9574176
  35.0635389  32.5066395  37.2535811  34.5065955  32.8211285  38.3344551
  36.1629711  33.0981378  36.8139682  36.6922747  32.7191599  36.0417553
  36.6225306  34.3169802  37.4222233  36.1453826  34.4638185  38.3911750
  38.1354394  34.2845607  37.6233949  38.6090330  34.0632871  36.6669189
  38.6704932  35.6703125  38.1683816  38.1976625  35.8920620  39.1251257
  39.7509737  35.6162055  38.3015540  38.4319544  36.4586484  37.4544296
  38.5189422  33.1645138  38.6259962  38.1902899  32.2004811  38.2377556
  39.6004774  33.1516739  38.7609641  38.0358879  33.3533210  39.5846991
  36.2674246  35.4896361  36.4737045  36.4876546  35.3878685  35.2348409
  35.7662130  36.5790934  37.0531256  35.5586432  36.5710292  38.0415329
  35.5398677  37.8410966  36.2940791  35.7520523  37.6713570  35.2384914
  34.1073515  38.3166716  36.4297105  34.0016038  38.4549545  37.5057191
  33.9901452  39.2768336  35.9272648  33.0390382  37.3518486  35.9350952
  33.1880464  36.3832976  36.4123859  31.6185700  37.8866815  36.2798399
  31.4686416  38.8550589  35.8024874  30.8676486  37.1839959  35.9186601
  31.5232527  37.9960662  37.3601407  33.2217801  37.0963093  34.4098788
  34.2066362  36.6658900  34.2285033  32.4540836  36.4050174  34.0622311
  33.1327147  38.0388993  33.8697951  36.4401325  38.8905080  36.8980998
  36.4978341  39.0068082  38.1179944  37.1606982  39.6447993  36.0507069
  37.1842610  39.4276468  35.0646091  37.9714415  40.7536376  36.5327794
  37.6609602  41.0060786  37.5466700  39.4769976  40.4076912  36.5492355
  39.6314464  39.5695609  37.2287812  39.7758728  40.1178586  35.5418772
  40.3089572  41.5815014  37.0019904  40.3303685  42.3334667  36.2131999
  39.8147034  41.9928701  37.8820973  41.7425943  41.1795510  37.3629304
  41.9020588  40.1224316  37.9535026  42.6965247  41.8922161  37.0343574
  37.6882278  41.9426414  35.6436596  37.7258825  41.8142369  34.4095642
  37.3309635  43.0804642  36.2489838  37.1075603  43.1259642  37.2329148
  37.1899167  44.3072947  35.4424396  37.5326890  44.1306492  34.4229286
  35.7111225  44.7260533  35.3979981  35.6173727  45.5960376  34.7480462
  35.1302224  43.9009632  34.9858314  35.2271922  45.0452827  36.6822329
  34.3041551  45.3020566  36.6216570  38.0708305  45.4105777  36.0193975
  38.4810729  45.3343589  37.1734707  38.3425881  46.4515922  35.2357863
  38.0449906  46.4681492  34.2707677  39.0565860  47.6096832  35.7586692
  38.9543454  47.6143464  36.8438532  40.5835074  47.6148206  35.3989993
  40.9926008  48.5340728  35.8181857  41.0652553  46.7565952  35.8674737
  40.8417404  47.5834349  33.8864824  40.8497676  48.7731418  33.1244777
  40.7062762  49.7250488  33.6357338  41.0334024  48.7454849  31.7676887
  40.9977152  49.6737938  31.1975389  41.2160239  47.5492997  31.1204041
  41.4207402  47.5732292  29.7573368  41.4131994  48.4611385  29.3924259
  41.2405891  46.3490083  31.8330458  41.4151959  45.4007043  31.3247816
  41.0390180  46.3736709  33.2063068  41.0324276  45.4425813  33.7729891
  38.4490859  48.8681914  35.1498822  37.7533071  48.7953909  34.1113000
  38.7554511  49.9839516  35.8105066  39.0847876  49.9159333  36.7628774
  38.5670587  51.3174785  35.2344298  38.3928020  51.2731306  34.1593638
  37.3700334  52.0766029  35.9051984  36.4503460  51.5175045  35.7329097
  37.6110549  52.2139809  37.4216660  38.5303917  52.7734084  37.5947604
  36.7735024  52.7426358  37.8767818  37.6999271  51.2231666  37.8671887
  37.1626961  53.4787081  35.2340844  36.9476831  53.3463334  34.1737314
  36.3279590  53.9911410  35.7123375  38.0681321  54.0745845  35.3490530
  39.8787105  52.0408178  35.4008836  40.6056863  51.8172015  36.3801543
  40.2381554  52.8954907  34.4331319  39.6615221  53.0552557  33.6194559
  41.5071035  53.6232164  34.5398600  41.7242264  54.0134344  35.5341872
  42.7083105  52.7077444  34.0842353  42.7457902  51.8341570  34.7350346
  42.5394588  52.2496957  32.6157455  42.5023598  53.1227816  31.9642506
  43.3829638  51.6205324  32.3315742  41.6139486  51.6826837  32.5155959
  44.0414270  53.3649470  34.3126102  44.1638427  53.5803021  35.3740897
  44.8374985  52.6969430  33.9837630  44.0906284  54.2946532  33.7457535
  41.4043335  54.8551933  33.6352677  40.6304597  54.8499952  32.6890657
  42.1734259  55.8797596  33.9549813  42.7143482  55.8541240  34.8075335
  42.3047673  57.0476469  33.0857922  41.3192437  57.4130734  32.7971643
  43.0423566  58.1637264  33.8245164  44.0367985  57.7868960  34.0636468
  43.1291527  59.0090283  33.1418517  42.3494534  58.6137010  35.1033667
  41.1344975  58.3746229  35.2589332  43.0736565  59.2246269  35.9470179
  43.1349419  56.7353844  31.8257291  44.0609521  55.9242102  31.8440777
  42.8594169  57.4107518  30.7057314  42.0585652  58.0206903  30.6238116
  43.7552031  57.2871244  29.5599001  44.0656465  56.2478796  29.4517599
  43.0504623  57.7358309  28.2442889  42.5627039  58.6868404  28.4582327
  43.8358592  57.8892984  27.5042217  42.0170109  56.7435864  27.6946217
  41.9370829  56.9602955  26.6293755  42.4548605  55.7548743  27.8318740
  40.3642202  56.7702673  28.4330336  39.6979907  58.3157955  27.6954234
  39.6931644  58.2278099  26.6089915  38.6805839  58.4793802  28.0507038
  40.3244686  59.1582808  27.9884168  44.9325194  58.2032925  29.8398131
  44.7025324  59.4085892  30.1179711  46.1816625  57.6783096  29.7749715
  46.6137556  56.2737109  29.6309956  46.1765387  55.8486395  28.7275268
  46.2846484  55.7004538  30.4976926  48.1164582  56.3839073  29.5510222
  48.4057519  56.2444174  28.5094125  48.5423931  55.5836065  30.1561663
  48.5357976  57.7027483  30.0534631  49.3017408  58.0703877  29.3706226
  48.9321473  57.6870024  31.0687260  47.3067860  58.6046883  29.9883740
  47.1202550  59.1752492  30.8981898  47.4659270  59.5714359  28.8007889
  46.9022524  59.3355813  27.7290126  48.2378684  60.6254142  29.0256247
  48.7331813  60.6771555  29.9043097  48.3909573  61.7516245  28.0604717
  47.4224814  62.1977906  27.8344419  49.2942183  62.8290371  28.6921501
  48.8686146  63.0358853  29.6740740  50.2729200  62.3642837  28.8115125
  49.4469483  64.1712005  27.8957783  49.3411151  63.9675056  26.8302228
  48.6433295  64.8322109  28.2203722  50.8126839  64.8524601  28.1575487
  51.2134727  65.0338664  29.3383231  51.5015180  65.1895137  27.1714699
  48.9891228  61.2049324  26.7918918  49.9631221  60.4592149  26.8467709
  48.3879613  61.5295015  25.6368022  47.5675509  62.1183645  25.6204785
  48.9074280  61.0374904  24.3732717  48.6884486  61.7909197  23.6166400
  49.9871879  60.9367943  24.4831726  48.3323065  59.7115532  23.9282989
  48.5957671  59.2798310  22.8194394  47.5293043  59.0576741  24.7718708
  47.3210834  59.4362055  25.6848097  46.9838362  57.7543295  24.4247921
  47.3230963  57.4586470  23.4320315  47.4555730  56.7067206  25.4347074
  47.2454552  57.0935627  26.4318548  46.9235304  55.7663341  25.2908187
  48.9041216  56.4505022  25.3240492  49.6571417  56.8681770  26.1867163
  49.3312980  55.7870819  24.2291941  50.3152124  55.5905805  24.1134377
  48.6651440  55.4900880  23.5305280  45.4700214  57.7392664  24.3492015
  44.7649186  58.3977535  25.1422908  44.9698169  56.9551168  23.4093878
  45.6020100  56.4644927  22.7931742  43.5623416  56.7894071  23.2094809
  43.0380654  57.7326229  23.3630308  43.3237324  56.3281460  21.7815566
  42.2501958  56.3023114  21.5946043  43.7938451  57.0365630  21.0994720
  43.8792897  55.0168631  21.5690332  43.7183067  54.7441775  20.6627623
  42.9397777  55.7742280  24.1769329  43.6873621  55.0396929  24.8930814
  41.5987888  55.7205866  24.1921823  41.0431855  56.4364296  23.7461182
  40.8937726  54.6141815  24.8897817  41.1587788  54.6688257  25.9456628
  39.3695255  54.6437229  24.7662577  39.1110702  54.6878592  23.7082634
  38.9716196  53.7258230  25.1989594  38.7792560  55.8268227  25.4745655
  39.1614911  55.8175756  26.4953062  39.1522269  56.7097314  24.9554661
  37.2637912  55.8602869  25.5030727  36.6128739  54.7761298  25.5255252
  36.7350812  57.0065898  25.5163830  41.3541206  53.2732020  24.3566178
  41.6482285  52.3699992  25.1412669  41.4340609  53.1457197  23.0318964
  41.1130011  53.8694378  22.4047983  41.9042798  51.8882618  22.4555156
  41.2792510  51.0631390  22.7969985  41.8329372  51.9563727  20.9157156
  42.2020365  52.9439249  20.6389385  42.4845451  51.1931464  20.4902830
  40.3876566  51.7698363  20.3659773  39.4722248  51.2449157  21.0785136
  40.1788396  52.1298902  19.1613132  43.3162264  51.5024510  22.9221062
  43.5720311  50.3024847  23.2654875  44.2333191  52.4705291  22.9349013
  43.9865317  53.4274849  22.7265001  45.6185490  52.1812999  23.3639124
  46.0650123  51.4692279  22.6698496  46.4724746  53.4270904  23.3931932
  45.8810218  54.1737136  23.9231333  47.3828037  53.2193898  23.9555645
  46.8446400  53.9650565  21.9897260  46.7467390  53.2205414  20.9719899
  47.2762228  55.1524350  21.9921062  45.5855477  51.6963183  24.8144260
  46.3128415  50.7392941  25.1927227  44.7571352  52.3763492  25.6149706
  44.1476798  53.0890881  25.2399148  44.7604053  52.1517645  27.0987075
  45.7961392  52.1730673  27.4376775  43.9930721  53.2981979  27.7870645
  42.9407448  53.2545901  27.5063407  44.1242093  53.1490543  29.3274021
  45.1763002  53.1930338  29.6089519  43.5830572  53.9577221  29.8186351
  43.7054387  52.1915829  29.6372089  44.6376016  54.5465089  27.3978659
  44.1825407  55.2839578  27.8110112  44.1713712  50.8198783  27.4327296
  44.7893977  50.0203178  28.2226716  43.0132433  50.5406896  26.8326635
  42.4505343  51.2516830  26.3877518  42.4508651  49.1927524  26.9685346
  42.4037648  48.9358668  28.0267834  41.0391518  49.0851984  26.3742092
  41.0824750  49.4257307  25.3396754  40.7423697  48.0366707  26.3989088
  40.0022024  49.9340461  27.1544238  39.9295732  49.5141021  28.1576550
  40.3942035  50.9493944  27.2136257  38.6013446  49.9605316  26.5052205
  37.9873517  50.7202022  26.9889687  38.6934552  50.1903545  25.4437138
  37.9477535  48.6766551  26.6467863  38.3870012  48.0102717  27.2657321
  36.8276596  48.3217205  26.0241597  36.2279312  49.1575517  25.1765323
  36.6265713  50.0694363  25.0043330  35.3776162  48.8751593  24.7103581
  36.3024286  47.1232095  26.2534432  36.7561692  46.4911942  26.8974744
  35.4517908  46.8495504  25.7826728  43.3758249  48.1037046  26.4324988
  43.4760783  47.0353303  27.0332870  44.0615805  48.3296262  25.3175976
  43.9783415  49.1835316  24.7846660  44.9542407  47.2804942  24.8147200
  44.3821147  46.3634291  24.6741401  45.6012034  47.6692781  23.4688123
  45.9720905  48.6897431  23.5646929  46.4391396  46.9931390  23.2991103
  44.6362061  47.5880627  22.2906034  44.0603940  46.6627798  22.3104217
  43.9551485  48.4389405  22.2741880  45.6649202  47.6185330  20.7962192
  47.3370586  47.9324176  21.4566460  47.6147771  47.1301436  22.1402597
  48.0514997  47.9720283  20.6343897  47.3450045  48.8828180  21.9902913
  46.0738586  46.9487532  25.7874186  46.4311852  45.7829162  25.9562076
  46.6938435  47.9948244  26.3385528  46.4390023  48.9244871  26.0370854
  47.7620739  47.8547722  27.3405898  48.5902961  47.2869955  26.9165889
  48.2938558  49.2583660  27.7859374  48.7217545  49.7365648  26.9048427
  47.5209102  49.9006507  28.2079864  49.4045805  49.1781650  28.8195667
  50.7203674  49.0450288  28.4208632  50.9434635  49.0384431  27.3539589
  51.7698127  48.9186461  29.3651051  52.8023809  48.8255995  29.0285846
  51.4816811  48.9136663  30.7101778  52.2884891  48.8377306  31.4391459
  50.1499633  49.0062688  31.1442682  49.9214626  48.9618991  32.2091245
  49.1090263  49.1564050  30.2057165  48.0783276  49.2555913  30.5461898
  47.2350805  47.0705747  28.5767865  47.7689295  45.9962927  28.9071382
  46.1769684  47.5765109  29.2293103  45.7582870  48.4520170  28.9494990
  45.6588744  46.9065494  30.4482456  46.4991403  46.7903360  31.1327504
  44.5655495  47.7779125  31.1437261  43.7136701  47.8956197  30.4739899
  44.2402934  47.2889248  32.0619851  44.9784137  48.7583050  31.3813665
  45.1246222  45.4891384  30.1387839  45.3615231  44.5255776  30.9470609
  44.4354830  45.3340086  29.0046203  44.2301202  46.1261967  28.4127053
  43.9128065  43.9916898  28.5998741  43.2526673  43.6069735  29.3772471
  43.1156595  44.0850056  27.2751243  43.7274258  44.6294382  26.5557953
  42.9694306  43.0625943  26.9267103  41.7612677  44.7731143  27.4140719
  41.2993285  45.1373408  28.5296069  41.1672084  44.9518528  26.3190075
  45.0235990  42.9461055  28.4231294  44.8916948  41.7641441  28.8723202
  46.1556100  43.3538522  27.8273821  46.2410267  44.2868676  27.4501745
  47.2750787  42.4430855  27.6708106  46.9885117  41.5844948  27.0635210
  48.4532428  43.1667024  26.9786329  48.7045352  44.0507903  27.5645861
  49.6944054  42.2574312  26.8621412  49.4439974  41.3732936  26.2758851
  50.5000066  42.8026489  26.3703654  50.0172392  41.9531089  27.8577650
  48.0008619  43.5515140  25.6791128  48.7080916  44.0061583  25.2157285
  47.7077327  41.9010455  29.0259641  47.9095367  40.6597649  29.1984944
  47.8332227  42.8015220  30.0070821  47.6932485  43.7880987  29.8422400
  48.2831066  42.3682517  31.3597296  49.1435030  41.7054420  31.2675313
  48.6825922  43.5881115  32.2758728  47.8585569  44.3015812  32.2809633
  48.9855792  43.1243431  33.7536968  49.8098679  42.4111593  33.7494632
  49.2576248  43.9896967  34.3580600  48.0987969  42.6514170  34.1756681
  49.9088302  44.2636851  31.6940887  49.6858592  44.6183647  30.6878142
  50.1912951  45.1084919  32.3222724  50.7322007  43.5505943  31.6533050
  47.2126537  41.5074414  32.0468769  47.5241341  40.4063207  32.5848649
  45.9821673  42.0224388  32.1010781  45.7814378  42.9286444  31.7028339
  44.9022233  41.3244605  32.8407580  45.2586907  41.1363246  33.8534944
  43.5871045  42.1780877  32.9222752  43.2723035  42.4532692  31.9156597
  42.4665672  41.3519496  33.6063563  42.7804734  41.0767752  34.6132540
  41.5560242  41.9486707  33.6605394  42.2746787  40.4490437  33.0266655
  43.8321838  43.4456983  33.7715488  44.6199914  44.0437957  33.3135740
  42.9148494  44.0321721  33.8229848  44.1348229  43.1564870  34.7779618
  44.6261764  39.9500661  32.2271457  44.4816323  38.9349324  32.9428974
  44.6278350  39.8650489  30.9040681  44.7766855  40.6492125  30.2851737
  44.3073077  38.5619881  30.3110227  43.4093113  38.1651539  30.7845460
  44.0558013  38.6693923  28.7802807  44.9030623  39.2083457  28.3562793
  44.0402010  37.6522148  28.3888644  42.7482540  39.3863957  28.3972976
  41.9269316  38.8167593  28.8320903  42.7792805  40.3789449  28.8467257
  42.5270589  39.5217561  26.8310638  42.2320879  38.5463647  26.4441496
  41.7224732  40.2374733  26.6622734  43.7794779  39.9914458  26.1156671
  43.8977195  41.0578124  26.3079731  44.6289970  39.4510775  26.5333016
  43.7146550  39.7524147  24.6215984  42.9277906  40.2533938  24.2343465
  44.5674257  40.0801398  24.1909265  43.6055195  38.7643085  24.4431756
  45.3969877  37.5162467  30.5856395  45.0794080  36.3417341  30.7986119
  46.6708864  37.9257255  30.5390106  46.9135065  38.8740462  30.2901681
  47.7369744  37.0034925  30.8357656  47.6640569  36.1204555  30.2009208
  49.0865809  37.6885947  30.5708386  48.9663099  38.0717929  29.5575305
  49.2376270  38.5211075  31.2580122  50.3154733  36.7460706  30.6238069
  50.3550851  36.2907041  31.6133386  50.2378301  35.6507581  29.5625415
  50.1986523  36.1053750  28.5726489  51.1181611  35.0119827  29.6338451
  49.3411773  35.0519999  29.7225500  51.6046055  37.5618131  30.5135957
  51.6593758  38.2692685  31.3410053  52.4635269  36.8918077  30.5516484
  51.6109072  38.1065213  29.5694812  47.6381482  36.5745241  32.3139667
  47.8666945  35.3912977  32.6617926  47.3495465  37.5306911  33.1876015
  47.1741623  38.4828899  32.9000999  47.2920607  37.2076235  34.6518747
  48.2400148  36.7781584  34.9759762  47.0300755  38.4725073  35.4579261
  46.2257063  39.0122912  34.9582035  46.7188414  38.2128044  36.4697501
  48.2732328  39.4014920  35.5437111  49.3623868  39.0026827  35.2439382
  48.0619520  40.6287857  35.9966124  48.8340712  41.2753458  36.0733708
  47.1297723  40.9119859  36.2629568  46.1683399  36.1919282  34.8914651
  46.3405157  35.2494197  35.6944066  45.0100102  36.4023309  34.2467976
  44.8254076  37.2359042  33.7071896  43.9035217  35.4297698  34.4415383
  43.7965575  35.2571779  35.5124584  42.5440062  35.8880222  33.8783186
  42.7286484  36.1176502  32.8289009  41.8166621  35.0793833  33.9502472
  41.9894094  37.1456569  34.5917262  42.7430765  37.9323340  34.6267379
  40.7916774  37.6262707  33.7834084  40.0373362  36.8402439  33.7483382
  40.3686615  38.5144160  34.2528297  41.1104962  37.8686574  32.7696512
  41.6220030  36.8304372  36.0606564  42.5100940  36.4893632  36.5926925
  41.2349379  37.7296584  36.5399090  40.8616790  36.0498218  36.0860715
  44.2813414  34.0600932  33.8811061  43.9200305  32.9950002  34.4743744
  45.0062541  34.0468727  32.7555375  45.2271623  34.8972636  32.2574067
  45.4447774  32.7587082  32.1735448  44.5835915  32.0986892  32.0694641
  46.0811450  32.9534966  30.7951639  46.6278954  33.8964503  30.7964468
  46.7747325  32.1321882  30.6149177  45.0482960  32.9785725  29.7159868
  44.8757325  31.9342543  29.4557519  44.1127137  33.4293659  30.0470051
  45.5347052  33.7213371  28.4654638  46.7330813  34.0455244  28.3396724
  44.5956108  34.0678549  27.5896047  44.8531264  34.5594752  26.7457465
  43.6293034  33.8377714  27.7723967  46.4146229  32.0719093  33.1262421
  46.3329520  30.8313831  33.3274151  47.3011208  32.8452172  33.7558430
  47.4020964  33.8251719  33.5331505  48.2598066  32.2385559  34.7142341
  48.6427356  31.3095027  34.2919489  49.4584773  33.1769628  35.0168282
  50.0229476  33.3281107  34.0967049  49.0714415  34.1340891  35.3664174
  50.3930292  32.5659540  36.1050217  49.7585908  32.2575158  36.9359576
  50.8665372  31.6883665  35.6648713  51.4844331  33.5367196  36.6216712
  52.1767112  33.7132816  35.7984605  50.9884124  34.4708336  36.8852883
  52.2795055  32.9946868  37.8687885  51.5793030  32.9374740  38.7021814
  52.6313105  31.9931994  37.6210881  53.4814487  33.8782383  38.2666620
  53.1556243  34.8061650  38.4966408  53.9443718  33.4754903  39.0689065
  54.1306000  33.9310349  37.4947072  47.5395957  31.7938979  35.9973025
  47.8335937  30.7211736  36.5490386  46.5425169  32.5471402  36.4423350
  46.3511164  33.4580273  36.0502255  45.7080905  32.0801030  37.5729272
  46.3304352  31.9631846  38.4601229  44.5916981  33.0820467  37.8864423
  45.1469690  33.9652044  38.2023633  44.0211412  33.3146285  36.9872924
  43.6264140  32.6523662  39.0108889  43.1043766  31.7484790  38.6969372
  44.4090030  32.3686176  40.3527396  44.9309542  33.2722416  40.6675879
  43.7045237  32.0677135  41.1281533  45.1324997  31.5697556  40.1900360
  42.5254097  33.6936850  39.1915063  41.9651637  33.7957951  38.2620994
  41.8521493  33.3769346  39.9880556  42.9714509  34.6531024  39.4535453
  45.1079839  30.7011223  37.2408754  45.1057667  29.8030739  38.1005301
  44.5593582  30.5589540  36.0460080  44.4862073  31.3287035  35.3962127
  43.9603144  29.2751961  35.6723209  43.1795636  29.0568976  36.4009313
  43.3295998  29.3497580  34.2928121  44.1004907  29.5587686  33.5510967
  42.8503758  28.3988506  34.0599605  42.5846094  30.1452460  34.2758606
  44.9887542  28.1178861  35.7332743  44.6814504  27.0276331  36.2798179
  46.1874067  28.3642313  35.1884632  46.3389604  29.2382898  34.7056044
  47.2738898  27.3510023  35.1687032  46.9363707  26.4352848  34.6832738
  48.4863868  27.9138580  34.3782043  48.7415120  28.8863482  34.7992437
  49.7368425  26.9689579  34.4499710  49.4826052  25.9963541  34.0286578
  50.5572120  27.4072959  33.8816817  50.0406728  26.8458387  35.4895042
  48.0606562  28.0521357  33.0119548  48.7840891  28.3992745  32.4849446
  47.6454867  26.9087236  36.5737339  47.6838841  25.6889859  36.8718474
  47.8814561  27.8955771  37.4438279  47.8126956  28.8534293  37.1309532
  48.3030142  27.6481370  38.8003219  49.1465640  26.9655043  38.9029639
  48.6465146  28.9746501  39.5305250  47.8471728  29.6877332  39.3288706
  48.7959923  28.7810201  41.0829289  49.5955149  28.0683691  41.2853963
  49.0361884  29.7373914  41.5474288  47.8600942  28.4028085  41.4942103
  49.8661846  29.6275049  38.8943561  49.6587426  29.8421273  37.8460207
  50.0954715  30.5564769  39.4164080  50.7186810  28.9519176  38.9645885
  47.2248922  26.8741586  39.5503295  47.5364417  25.8177317  40.1822987
  45.9693657  27.3402937  39.4851512  45.7699952  28.2068797  39.0062153
  44.8743031  26.6745534  40.2068829  45.2140788  26.5912135  41.2392133
  43.5849198  27.5028464  40.1809904  43.2273660  27.5874647  39.1547861
  42.8255409  27.0130856  40.7905626  43.7836013  28.4978683  40.5791815
  44.6150357  25.2332194  39.6906797  44.3784948  24.3035941  40.4880825
  44.6790358  25.0640669  38.3742951  44.7864001  25.8674509  37.7716788
  44.4585174  23.7465709  37.7501398  43.5484129  23.3013636  38.1521340
  44.3115478  23.8735369  36.2313308  45.0797210  24.5444616  35.8467932
  44.4245070  22.8915134  35.7720160  42.9262686  24.4378202  35.8959745
  42.1888389  23.6713305  36.1342847  42.7914060  25.2904411  36.5615185
  42.7495743  24.8701719  34.5066724  43.7159794  24.7168129  33.7274990
  41.6424548  25.3436654  34.1519665  45.5760799  22.7594248  38.1771087
  45.3038180  21.6047717  38.5416888  46.8113356  23.2236126  38.1990628
  47.0431673  24.1296853  37.8177680  47.8947248  22.3845513  38.6932036
  47.8550267  21.4399118  38.1508205  49.2185108  23.0315251  38.4306270
  49.2769215  23.9743943  38.9743971  50.0188759  22.3706150  38.7633638
  49.3252172  23.2214270  37.3626147  47.7210251  22.0531694  40.1895112
  47.9331653  20.9015667  40.6071782  47.3512766  23.0452901  41.0046950
  47.3280304  24.0009919  40.6788223  47.0623736  22.7864552  42.4140017
  47.9237219  22.2956291  42.8670670  46.7692674  24.0639850  43.1858543
  46.0433970  24.6467030  42.6187114  46.3407847  23.7898386  44.1498804
  48.0019992  24.8799323  43.4030465  48.6871070  24.3240900  44.0431773
  48.4770526  25.0681195  42.4402319  47.6051802  26.4546935  44.1859945
  47.1406302  25.9845832  45.8659390  47.9788560  25.4814284  46.3479261
  46.8778661  26.8769763  46.4339974  46.2842785  25.3110936  45.8316621
  45.9215524  21.8029117  42.6031160  45.9954485  20.9666860  43.5102020
  44.9081388  21.8751549  41.7359236  44.9053800  22.6209721  41.0548594
  43.7511248  20.9859818  41.7936110  43.3654027  21.0565517  42.8106349
  42.6540616  21.4320741  40.8219407  43.0222925  21.3582802  39.7986810
  41.7804974  20.7909977  40.9402918  42.3776818  22.4648078  41.0344837
  44.1289426  19.5072291  41.5463376  43.5560105  18.6174815  42.1815162
  45.0609742  19.2608553  40.6297171  45.4096213  20.0220259  40.0647712
  45.5639122  17.8826623  40.3491919  44.6983160  17.2246969  40.2722247
  46.3218443  17.8550438  39.0132749  45.6673741  18.2079551  38.2162670
  47.1965485  18.5022179  39.0777597  46.7668631  16.4281381  38.7107477
  47.4217822  16.0746794  39.5071450  45.8926088  15.7804161  38.6456496
  47.5192732  16.4007203  37.3845681  46.8648045  16.7536331  36.5875598
  48.3939778  17.0478932  37.4490547  47.9676070  15.0287305  37.0573954
  47.7477244  14.2832095  37.7023369  48.6468236  14.7326712  35.9528981
  48.9734199  15.6594563  35.0566255  48.7033731  16.6209100  35.2075610
  49.4899808  15.3975430  34.2291800  49.0004023  13.4654093  35.7581415
  48.7508061  12.7640729  36.4407314  49.5168822  13.2102120  34.9285502
  46.4646408  17.3379416  41.4838166  46.5611535  16.1155671  41.6951451
  47.1278582  18.2483663  42.2044057  46.9854089  19.2203951  41.9699542
  48.1693322  17.9131849  43.1916197  48.6970481  17.0076698  42.8921910
  49.1904513  19.0751067  43.2797085  50.0829125  18.7950598  42.7200783
  48.7381338  19.9560339  42.8242129  49.6025682  19.4232952  44.7198656
  50.0269854  18.5584893  45.4852223  49.4792536  20.7124757  45.0834081
  49.7355601  20.9971851  46.0179386  49.1309162  21.3899047  44.4201948
  47.6345228  17.4809088  44.5645655  46.5384816  17.8803053  44.9841308
  48.2499836  16.6626119  45.2442991  48.9271825  46.3857376  36.6733022
  49.1156315  47.0630505  35.4742458  48.1932676  46.9197073  34.4436598
  48.4267546  47.7593858  32.9542915  47.0830158  46.1013576  34.6127355
  46.8944886  45.4247446  35.8125019  47.8171008  45.5674117  36.8437817
  47.6284035  44.8907749  38.0421443  47.3546973  45.8332388  39.0830405
  46.5186373  45.2236152  40.0694956  45.9232448  46.2628578  40.9176386
  45.4472663  47.0926312  41.5924354  48.8924898  44.1021262  38.3881530
  48.9712427  42.8968187  38.1511197  49.8729326  44.8207190  38.9524423
  51.1539488  44.2164804  39.3467037  52.2479695  45.2870852  39.3384569
  52.4469924  45.7362725  38.0372637  52.1800699  47.0634423  37.7151586
  52.3851738  47.4944792  36.4113989  52.1483065  48.7751179  36.0173387
  52.9744896  49.6663896  36.7705061  52.9120916  44.8558484  37.0633062
  53.1169339  45.2919197  35.7587805  52.8500527  46.6175783  35.4423950
  53.0236051  47.1211935  34.1903837  52.2394737  46.3691578  33.2609268
  52.4560629  46.8892992  31.9043989  52.6279188  47.3032796  30.8236585
  49.6571082  46.4976165  37.4883830  49.9942902  47.7119539  35.3410945
  46.3531682  45.9887789  33.7969448  46.0157519  44.7765410  35.9463632
  46.7798875  44.1972611  37.9422992  45.7199783  44.6549061  39.5718214
  47.1210439  44.5444324  40.6911692  44.9999449  47.8722622  42.2268524
  49.7247464  45.8265673  39.1150713  51.0636239  43.7928661  40.3571741
  51.4169439  43.4187406  38.6366236  51.9410107  46.1305043  39.9747293
  53.1839236  44.8576540  39.7252705  51.8124101  47.7608393  38.4816537
  52.3822635  50.1203511  37.5790264  53.8175600  49.1075605  37.2028258
  53.3585767  50.4571539  36.1093117  53.1185092  43.8086190  37.3281613
  53.4845665  44.5974575  34.9893895  52.5393211  45.3111341  33.3002152
  51.1745958  46.4594867  33.5223780  52.7899467  47.6923677  29.8072204
  39.1890228  61.4989261  35.3638629  44.4291727  15.1890152  46.2976348
  32.7740840  58.5309610  26.8446403  53.5081160  48.6978589  52.4768132
  27.8194104  28.6558820  55.1925174  45.9409674  23.7602769  23.5945913
  24.7002162  56.4001606  44.8837177  49.0913385   6.9076545  40.2935148
  35.6037964  13.4992755  46.8018018  35.2314056  10.8734225  41.2891974
  26.5919502  59.4238191  78.5333710   2.9005623  58.5398340  54.6850010
  59.7814239  78.8917885  33.4029455  20.1229832  62.5087798  46.8544243
  61.5379948  28.1926923  34.7787890  64.2048522  37.3434105  58.0044947
  43.2363044  24.3717882  68.0730644  71.2192057  30.5598686  27.5690520
  62.4528235  68.8423486  46.2482474  57.9812458  69.6821153  35.5490147
   2.5804810  43.1271033  60.7907578  25.4792144  59.0275386  19.5990274
  61.1259194  21.9635320   8.3853553  66.1370767  18.1041244  58.2673519
  41.6549910  31.1730570  79.8526459  25.9187592   8.5395706  24.5944402
  67.6620882  36.0243161  42.1659336  12.7990793  20.8821216  27.2865821
  30.7633684  38.8745972  66.5131866  51.0929359  35.5784643  74.2502389
  65.0134907  20.0131375  62.3743044  16.1786789  47.8231643  11.9205548
  33.7645112  13.1035749  16.2258314  22.2959005  32.9449384  41.9201230
  61.7389892  47.2609862  57.3716340  24.5996047  58.6121577  60.7271183
  14.8318536  31.2638162  66.8428850  45.7972072  28.2073255  28.8264743
  48.8486561  31.9712668  -5.5077686  50.5610769  25.2110834   8.1118151
  14.0318754  63.9438167  57.9497131  11.6514603  59.8401048  55.6106038
  52.0597256  27.3859300  26.7970779  11.2375762  34.8659832  14.2497646
  68.5946616  34.3850912  10.8588148  43.0758215  79.1869325  42.8550284
  61.1965093  77.5837610  46.1096544   2.2949219  55.6771969  43.5721108
  12.5094654  51.4109581  29.0183628  62.0154498  38.7335597  69.8858996
  30.1498880  48.6433988  18.5255291  15.2537638  67.4411276  12.3830025
  38.3774006  -1.8107483  26.1606819  57.4338972   6.5676916  68.3224867
  27.1978200  65.5872765  60.7165117  42.6514209  12.8894164  70.0117646
  77.2709913  28.8954402  16.4992954  18.4895828  27.6412770  18.9257516
  29.8449704  25.5812119   5.4595338  18.4348871  36.8802362   4.5411122
  23.1982847   2.4129885  22.7566696  44.9573721  38.0933179  85.7690847
  44.4285193  38.3092813  86.4288153  45.4798741  38.7869318  85.6891816
  44.9562174  38.2276316  85.8546446  36.8473329  41.9896396  84.5698315
  36.2630544  42.4946427  84.9764179  36.4443424  41.7638783  83.8294907
  36.7012633  42.0304644  84.5203340  41.3050544  38.2362048  83.0467235
  41.5446547  38.4440032  82.2342579  41.6266385  37.4319557  83.1556180
  41.3887702  38.1476149  82.9427789  34.5159926  35.8499935  82.1027359
  33.8018103  35.5638115  82.5149792  35.0003894  36.1896561  82.7433747
  34.4819289  35.8581585  82.2582994  41.6907243  44.3529889  82.4789168
  42.1058392  44.0214913  81.7873663  40.8599173  44.1198792  82.3509304
  41.6295252  44.2701145  82.3580015  44.3840634  40.6040449  81.6650369
  44.3020796  40.6742636  82.5305356  45.0220354  41.1670193  81.4734110
  44.4660471  40.6979420  81.7640319  41.4880744  40.6260903  84.6758976
  42.3021383  40.9175796  84.5641747  41.4239885  39.9720765  84.1017269
  41.5983483  40.5726098  84.5747813  37.9991467  39.3184710  84.1406177
  38.3836620  39.0992417  84.8922722  37.7503087  40.1447656  84.2707253
  38.0193540  39.4082857  84.2707253  42.9256766  43.8422703  80.0174781
  43.6929751  43.9022828  79.6080633  42.4788075  43.2703144  79.5331099
  42.9730193  43.7659279  79.8852491  38.9731366  40.1141469  81.4811891
  39.2623891  40.8906352  81.7555465  39.0603165  39.6030201  82.1826390
  39.0285623  40.1533388  81.6254389  43.7662985  35.5074732  85.7365578
  43.2386004  35.5903476  85.0471287  44.2258694  36.2492604  85.7330223
  43.7564836  35.6295395  85.6340273  35.7596050  33.7777252  80.7606473
  35.4108855  34.4296977  81.2238022  35.2792496  33.7634365  80.0330344
  35.6366294  33.8720306  80.7217564  36.1620182  37.2702894  83.6025094
  36.7965261  37.8663319  83.5374556  36.2445792  36.9706351  84.4170964
  36.2676733  37.3143802  83.7128181  40.8010276  35.1424993  85.0761200
  40.2075115  35.4641989  84.5245767  40.8385553  34.2966088  84.8682306
  40.7184665  35.0649321  84.9643972  38.7739508  35.7822243  83.1690530
  39.1538473  35.8001872  82.3841645  38.0332104  36.2276232  83.0481377
  38.7208346  35.8504018  83.0354098  39.5724262  42.6199750  84.5599320
  38.7635585  42.2966423  84.5132630  40.0799171  41.9132972  84.4927569
  39.5273929  42.4681066  84.5429615  48.1760232  15.1066570  74.6200559
  48.1454236  15.9611207  74.7918828  48.7741581  14.8061862  75.1786703
  48.2597390  15.1883066  74.7275361  35.7601057  23.7304939  75.1390721
  35.0083956  23.3520477  74.9106766  36.2087068  23.7623372  74.3909531
  35.7150723  23.6790546  74.9948223  41.2126017  24.1530308  70.5676268
  40.8777385  24.8307230  70.1320490  41.7252887  23.7635620  69.9793140
  41.2391598  24.1954886  70.4163059  40.7530308  26.1044577  76.5087380
  41.1369687  26.6731476  75.9692155  40.6889449  25.3794087  76.0293196
  40.8003735  26.0820040  76.3581242  45.9976807  17.6818872  72.8918869
  45.8816333  18.4326558  73.3211007  46.7932693  17.4242825  73.1414956
  46.0981396  17.7553719  72.9922960  37.1786552  28.6600920  78.8068349
  37.8224008  29.1014084  79.1964508  37.5042808  27.8554346  78.7198608
  37.3218381  28.6066115  78.8513827  37.8807132  21.6712895  74.1788211
  38.2022973  22.2118102  73.5749519  38.5279229  21.1009666  74.3110501
  38.0233187  21.6672070  74.1095247  40.1196776  20.0599335  74.2502389
  40.5590411  19.4516435  74.6957162  39.9701438  19.6806708  73.4787854
  40.1618241  19.9137806  74.2021557  43.7206112  18.4126516  71.2033159
  43.6357407  19.2687483  71.3482727  44.2090495  18.1370840  71.8715318
  43.7795009  18.4983838  71.3235240  44.6524545  15.0311310  72.7030894
  44.1236017  15.2470944  73.3628200  45.1749565  15.7247449  72.6231863
  44.6512998  15.1654447  72.7886493  50.1072598  20.6057615  78.0763938
  49.2770301  20.8168258  78.2397355  50.0581851  19.7794669  77.8006222
  49.9779334  20.5147221  78.0601304  36.5424153  18.9274527  71.5038362
  35.9581368  19.4324559  71.9104226  36.1394248  18.7016914  70.7634954
  36.3963457  18.9682775  71.4543387  41.0001368  15.1740179  69.9807282
  41.2397371  15.3818163  69.1682625  41.3217209  14.3697688  70.0896227
  41.0838525  15.0854280  69.8767835  47.3636913  21.2756969  78.2128654
  46.9272145  21.2793712  78.9687625  47.0299829  21.9562468  77.7808231
  47.2499533  21.3769425  78.2609487  50.4981260  17.9937889  77.1048291
  51.1597694  17.4328558  77.0044200  49.8572672  17.4989920  77.4300982
  50.5010127  17.8374298  77.1380631  41.3858067  21.2908021  69.4129214
  41.8009216  20.9593044  68.7213710  40.5549997  21.0576923  69.2849351
  41.3246076  21.2079276  69.2920062  46.7846090  19.0103272  76.8460280
  47.0201680  19.1548470  76.0187131  46.9335654  19.7745680  77.2391794
  46.8411894  19.1442326  76.7823884  48.6136547  17.8504937  74.6829884
  48.9444764  18.3832578  74.0769979  49.1869635  17.9043825  75.3391835
  48.7470226  17.9374506  74.6907666  44.0791458  17.5418580  68.5990416
  43.9971620  17.6120767  69.4645403  44.7171178  18.1048324  68.4074157
  44.1611295  17.6357551  68.6980365  41.1831568  17.5639034  71.6099022
  41.9972207  17.8553927  71.4981794  41.1190709  16.9098897  71.0357315
  41.2934307  17.5104229  71.5087860  37.6942291  16.2562841  71.0746224
  38.0787444  16.0370548  71.8262769  37.4453911  17.0825787  71.2047300
  37.7144364  16.3460988  71.2047300  37.9765534  24.4767717  73.1478594
  38.2663832  24.0856699  72.4237821  38.7069015  24.6584422  73.5883869
  38.1272418  24.4461531  73.1061401  35.9171449  26.4535100  76.2138744
  35.6971745  26.1632454  77.0065411  35.6965971  25.7950055  75.6856656
  35.8519043  26.3134808  76.2527653  38.0839405  27.8264490  74.9969436
  38.7363463  27.2940932  75.2260462  37.3865014  27.4733142  75.3837310
  38.0770123  27.6954013  75.0881604  46.0779323  20.1468904  74.3400415
  46.6437356  20.8062114  74.2558958  45.4307227  20.4918602  74.8116818
  46.0658080  20.2950845  74.3973172  42.5485901  23.0907688  73.7637495
  42.3072577  22.3575549  73.3564560  42.7287234  23.6394545  73.1103828
  42.5393525  23.0630079  73.6067718  47.2742021  20.1975131  71.1326052
  46.8948830  19.4112269  71.1255341  46.6108267  20.7461988  70.9897696
  47.1200496  20.1619955  71.1106849  40.0988929  23.7488650  74.9714878
  40.8638821  23.4798294  74.6497542  39.9967019  23.2638661  75.6884941
  40.1970425  23.6378215  75.0294706  42.6207590  20.7800834  66.9514828
  43.3880575  20.8400959  66.5420679  42.1738899  20.2081276  66.4671146
  42.6681017  20.7037410  66.8192538  45.5202120  22.4420622  71.4677738
  45.6021957  23.2487609  71.1439189  46.0051862  22.4616582  72.1918511
  45.6039278  22.5641285  71.5264636  41.1560213  16.9915393  74.4369152
  41.6975758  16.4885774  74.9007772  41.4706772  16.9380588  73.6258637
  41.2824610  16.9094814  74.3852964  39.3246663  22.3832745  71.7209180
  39.3939483  21.5247283  71.8602180  40.1035118  22.6004626  71.3928204
  39.4499513  22.2885609  71.6926337  43.7154150  24.8070446  75.9345673
  43.3233942  24.5037161  75.2168539  43.8707222  25.6439536  75.7450627
  43.6807740  24.8854283  75.8002170  43.8793825  21.3720435  75.8751703
  43.5208480  21.5435078  76.6515736  43.3932536  21.8333641  75.3179702
  43.7552522  21.4659406  75.9076973  38.6682190  17.0519600  68.4151938
  38.9574715  17.8284483  68.6895512  38.7553989  16.5408332  69.1166437
  38.7236447  17.0911519  68.5594436  44.4844455  24.2105939  79.3675707
  44.2864144  24.6996753  78.6731919  43.8632166  24.4147180  79.9459841
  44.3632020  24.3122477  79.3498931  43.4613809  12.4452864  72.6705625
  42.9336828  12.5281608  71.9811333  43.9209517  13.1870735  72.6670269
  43.4515660  12.5673526  72.5680320  35.4546874  10.7155383  67.6946520
  35.1059679  11.3675108  68.1578069  34.9743320  10.7012496  66.9670391
  35.3317118  10.8098437  67.6557611  43.0150892  21.0156427  71.8015282
  43.7385091  21.4814540  71.6579855  42.5751483  21.0830037  71.0512879
  43.0566584  21.0940264  71.6700063  43.2754741  25.0777132  71.9613343
  42.5584051  24.9037994  71.4960580  43.9261479  24.8429704  71.4288829
  43.2656592  25.0172925  71.8142561  38.5567903  26.3138891  78.3903491
  38.1428302  25.6513021  78.0007332  39.2415278  26.4616750  77.8699185
  38.5966275  26.2379549  78.2559988  41.9233198  25.4728976  79.1427107
  41.5249481  25.5831246  78.3747928  41.3084417  25.6811042  79.7253667
  41.7732087  25.5202544  79.1158407  49.6575040  20.0480943  72.5270198
  50.0408646  20.7972299  72.7568295  48.8619154  20.2946762  72.2682187
  49.5968822  20.1950637  72.5227772  38.4690332  12.7200374  70.1030577
  38.8489297  12.7380004  69.3181692  37.7282928  13.1654363  69.9821424
  38.4159170  12.7882149  69.9694145  39.2675086  19.5577881  71.4939367
  38.4586409  19.2344554  71.4472676  39.7749995  18.8511103  71.4267616
  39.2224753  19.4059197  71.4769661  59.1492816  30.6251878  74.6200559
  59.1186820  31.4796514  74.7918828  59.7474164  30.3247170  75.1786703
  59.2329974  30.7068374  74.7275361  52.3492501  29.7127529  79.3753489
  51.4930396  29.8736027  79.4262606  52.3960154  28.8419593  79.3958550
  52.2291612  29.6078331  79.3859555  46.7333640  39.2490247  75.1390721
  45.9816540  38.8705785  74.9106766  47.1819652  39.2808680  74.3909531
  46.6883307  39.1975854  74.9948223  52.1858600  39.6715616  70.5676268
  51.8509969  40.3492538  70.1320490  52.6985471  39.2820927  69.9793140
  52.2124181  39.7140194  70.4163059  51.7262891  41.6229885  76.5087380
  52.1102271  42.1916784  75.9692155  51.6622033  40.8979395  76.0293196
  51.7736319  41.6005348  76.3581242  55.1944322  31.7719573  82.0185141
  55.7400282  32.4504659  82.0779111  55.1361198  31.6307034  81.1586722
  55.2660236  31.8511574  81.8997202  48.3118396  39.2608639  77.4053493
  48.4128759  38.4508993  77.7150621  47.7160142  39.1665585  76.7753172
  48.2390935  39.1273667  77.3579732  56.9709390  33.2004180  72.8918869
  56.8548916  33.9511866  73.3211007  57.7665277  32.9428133  73.1414956
  57.0713980  33.2739027  72.9922960  48.1519136  44.1786228  78.8068349
  48.7956591  44.6199392  79.1964508  48.4775392  43.3739654  78.7198608
  48.2950965  44.1251423  78.8513827  41.5083441  35.2828925  77.0305827
  41.2733625  34.4496578  76.9238096  41.6469081  35.5633591  76.2167028
  41.4939103  35.2012429  76.8948182  43.8073528  27.4514656  79.9290135
  43.1878560  26.8607303  79.7600150  43.7057392  28.0426091  79.2954458
  43.7011204  27.4518738  79.8095124  48.8539716  37.1898203  74.1788211
  49.1755557  37.7303410  73.5749519  49.5011812  36.6194974  74.3110501
  48.9965771  37.1857378  74.1095247  50.9041424  29.1914198  74.2622598
  51.6021588  29.3702325  74.7544061  51.2193756  28.6684537  73.6392987
  51.0536761  29.1407970  74.2424608  43.5342661  30.9966938  82.1733704
  43.4101358  31.5829383  82.8083523  44.1860946  30.5027133  82.4745979
  43.6116310  31.0105742  82.3119633  48.5601002  34.1728655  81.4521215
  49.2050005  33.6801098  81.1332163  48.8002779  34.3153441  82.2787293
  48.6911587  34.1206097  81.5270748  51.0987094  37.0183560  81.1028107
  51.3810336  36.2234966  80.8814863  51.8273254  37.4964148  81.1233168
  51.2476657  36.9718157  81.0731123  49.0768287  24.5606594  78.3443873
  48.7471617  25.0117738  77.6747571  48.4013289  24.4822758  78.8916879
  48.9278724  24.6157730  78.3267096  54.6938696  33.9311824  71.2033159
  54.6089991  34.7872791  71.3482727  55.1823079  33.6556148  71.8715318
  54.7527593  34.0169146  71.3235240  56.2844695  20.5492117  76.5893483
  55.9698136  21.2395596  77.0213906  55.7671637  20.4936900  75.8878984
  56.1609166  20.6427006  76.5490432  55.6257129  30.5496618  72.7030894
  55.0968600  30.7656252  73.3628200  56.1482149  31.2432757  72.6231863
  55.6245582  30.6839755  72.7886493  61.0805182  36.1242923  78.0763938
  60.2502885  36.3353566  78.2397355  61.0314434  35.2979977  77.8006222
  60.9511917  36.0332529  78.0601304  47.5156737  34.4459835  71.5038362
  46.9313952  34.9509866  71.9104226  47.1126832  34.2202222  70.7634954
  47.3696041  34.4868083  71.4543387  43.0700765  40.1614596  78.3062033
  42.5868344  40.8865086  78.2821617  43.8824084  40.4590726  78.4172191
  43.1191513  40.3116950  78.3189312  49.1414919  38.9546777  80.9111848
  48.6241861  38.5954192  80.3073156  49.8389311  38.4308951  80.9217914
  49.1680501  38.8244465  80.8242106  51.9733951  30.6925487  69.9807282
  52.2129955  30.9003471  69.1682625  52.2949792  29.8882996  70.0896227
  52.0571109  30.6039588  69.8767835  47.2824241  22.6218883  73.8266820
  48.0370209  22.9897200  73.5883870  47.1051776  22.9958437  74.5946000
  47.3678720  22.7317071  73.9051709  45.9244963  40.6770772  78.4582313
  46.6265542  40.1622761  78.5155070  45.8442446  41.0044923  79.2629188
  46.0168723  40.6484998  78.5855105  45.6381306  25.0289202  70.5244933
  45.4556879  25.2461083  69.6985926  46.5006919  25.1428215  70.5803548
  45.7385896  25.0779100  70.4099420  45.2495738  36.8677124  77.9667921
  46.0884637  37.1000057  78.0141683  45.2807507  35.9981435  77.8974957
  45.3777456  36.7734071  77.9632566  45.8748441  37.2877999  82.2681227
  46.4146666  37.1449130  82.9384599  45.1918387  37.6874750  82.6365253
  45.8540595  37.3257670  82.4215648  51.3181025  22.0315613  73.5593957
  52.0467186  21.8531567  73.1132113  51.4075918  22.8733692  73.7701135
  51.4387687  22.1299491  73.5247475  55.2989326  32.9669000  77.4626251
  56.0546841  33.4000514  77.5015160  55.4051650  32.3173770  78.0360887
  55.4259497  32.9346484  77.5524277  58.3369497  36.7942277  78.2128654
  57.9004729  36.7979020  78.9687625  58.0032413  37.4747776  77.7808231
  58.2232117  36.8954733  78.2609487  41.2785586  33.5078290  82.4215648
  41.0124001  32.6917407  82.5806638  41.2924150  33.5531446  81.5511164
  41.2410308  33.3935195  82.3169130  45.1843333  28.3063374  69.0367406
  44.4701510  28.0201554  69.4489839  45.6687302  28.6460000  69.6773794
  45.1502696  28.3145024  69.1923041  61.4713843  33.5123197  77.1048291
  62.1330277  32.9513866  77.0044200  60.8305255  33.0175228  77.4300982
  61.4742711  33.3559606  77.1380631  52.3590651  36.8093328  69.4129214
  52.7741800  36.4778352  68.7213710  51.5282581  36.5762231  69.2849351
  52.2978660  36.7264584  69.2920062  41.6879000  34.2937069  79.7027392
  41.5054573  34.2683955  78.8499685  42.4228669  34.7636007  79.7416301
  41.7693064  34.3598432  79.5825311  57.7578674  34.5288579  76.8460280
  57.9934263  34.6733778  76.0187131  57.9068238  35.2930987  77.2391794
  57.8144477  34.6627634  76.7823884  59.5869131  33.3690245  74.6829884
  59.9177348  33.9017886  74.0769979  60.1602219  33.4229133  75.3391835
  59.7202810  33.4559814  74.6907666  54.8001020  31.2155148  75.3653464
  54.8947874  31.9544442  75.8193089  54.1759863  30.7872624  75.7988028
  54.7210050  31.2616469  75.4961611  55.0524041  33.0603888  68.5990416
  54.9704204  33.1306075  69.4645403  55.6903762  33.6233632  68.4074157
  55.1343879  33.1542859  68.6980365  48.4117212  32.8264626  78.0664942
  48.1536457  31.9936361  78.0396242  48.4665695  33.0522239  77.2257443
  48.3816990  32.7362397  77.9385079  53.4918262  24.9293077  78.1669035
  52.7874589  24.4402262  78.3252954  53.5403237  24.9415551  77.2957479
  53.3948314  24.8582724  78.0608375  47.3851924  30.3802388  78.5529837
  46.8101516  30.5394557  79.1893798  47.0087601  29.7437797  78.0898288
  47.2454737  30.3100201  78.5784395  51.0525213  28.8525738  83.4122215
  50.6639646  28.4279955  82.7574407  50.3879911  29.1007887  83.9199242
  50.8972141  28.8264459  83.3910083  60.6948482  28.6100742  76.1870045
  60.4385047  27.7980684  75.9967928  61.5377796  28.6178309  75.9600233
  60.7814508  28.4912740  76.1254863  37.1308743  30.0242463  76.5674278
  37.2168995  29.6474331  77.3487808  37.7584541  29.6502909  76.0894236
  37.2365294  29.9127945  76.6119755  52.1564151  33.0824342  71.6099022
  52.9704790  33.3739235  71.4981794  52.0923293  32.4284205  71.0357315
  52.2666890  33.0289537  71.5087860  48.0272060  36.5545860  76.7371334
  48.6646007  36.3157607  77.2823128  48.4527131  36.7583019  76.0024495
  48.1848226  36.5496870  76.7088492  42.7184702  38.7934196  80.6205638
  42.7588847  39.0649047  79.7925418  43.2779226  39.3176104  81.0363426
  42.8068048  38.9109951  80.5597526  48.6674875  31.7748149  71.0746224
  49.0520027  31.5555856  71.8262769  48.4186495  32.6011095  71.2047300
  48.6876947  31.8646296  71.2047300  50.4093532  37.0318282  78.4165121
  50.4832540  36.8693454  79.2706971  51.2263038  37.2208472  78.1725602
  50.5409890  37.0355025  78.5063146  44.1699288  37.3776145  75.4459564
  43.3437406  37.6237882  75.3193843  44.2311279  37.2988226  76.3121622
  44.0573455  37.4021094  75.5548509  46.3875312  23.4445086  76.4055004
  45.5197737  23.5167686  76.4712614  46.6750516  24.2467165  76.5942979
  46.3015060  23.5739233  76.4429771  48.9498117  39.9953025  73.1478594
  49.2396416  39.6042007  72.4237821  49.6801598  40.1769730  73.5883869
  49.1005001  39.9646839  73.1061401  49.5392862  34.7970771  84.2331725
  49.0404556  35.5086539  84.3116613  50.3493087  35.1171438  84.1949887
  49.5848969  34.9497620  84.2388293  46.8904033  41.9720408  76.2138744
  46.6704328  41.6817762  77.0065411  46.6698555  41.3135363  75.6856656
  46.8251627  41.8320116  76.2527653  45.8020980  34.0593724  78.4794446
  45.5134229  33.4331195  79.0140173  46.6704328  34.0014012  78.5459126
  45.8881232  33.9581268  78.5685400  56.5898878  29.2028508  78.7976427
  56.2463644  28.4818843  79.1483677  56.6891920  28.9942359  77.9554786
  56.5540921  29.0652711  78.7248107  49.0571989  43.3449798  74.9969436
  49.7096047  42.8126240  75.2260462  48.3597597  42.9918450  75.3837310
  49.0502707  43.2139321  75.0881604  46.0053253  35.6988975  74.4036811
  46.7599221  36.0802014  74.6172273  45.4123866  36.1500119  74.8583507
  46.0289967  35.8217803  74.5019689  57.0511907  35.6654212  74.3400415
  57.6169940  36.3247422  74.2558958  56.4039810  36.0103910  74.8116818
  57.0390663  35.8136153  74.3973172  47.3251480  36.8697537  79.7776926
  46.8032234  37.0097828  80.4628791  47.7125500  36.1108201  79.9679043
  47.3055181  36.7783060  79.9078002  44.3142664  26.9203345  73.8471881
  44.0267460  26.5504616  73.1103828  45.0013132  27.3898201  73.5855586
  44.3731561  26.9350315  73.6986956  53.5218485  38.6092996  73.7637495
  53.2805161  37.8760857  73.3564560  53.7019818  39.1579853  73.1103828
  53.5126109  38.5815387  73.6067718  48.7517806  33.9001556  75.1758417
  48.5560588  34.5076290  74.5818720  48.9752151  33.2069500  74.6950091
  48.7552447  33.8879081  75.0174498  47.1496336  30.7856294  75.2939285
  47.8718988  30.9497452  74.8343091  46.6704328  31.5065958  75.1878625
  47.1860066  30.9154523  75.2104899  55.1089843  27.1220092  80.6735970
  54.2700944  27.1481371  80.4374234  55.1794211  27.7690828  81.2541317
  54.9958237  27.2216218  80.7245087  44.8003952  33.1914366  84.3993425
  45.3125049  33.4698619  83.7502185  44.5140295  33.9303660  84.7656238
  44.8338816  33.3416720  84.3583303  53.5559122  24.0205469  75.4063586
  54.2585474  23.8213218  74.9283544  53.2903310  23.2481412  75.7132430
  53.6205754  23.8768435  75.3809028  58.9847367  32.3288079  77.9597212
  58.8981342  32.4843505  78.8131991  58.5297847  32.9726155  77.5856617
  58.9050624  32.4463834  78.0304319  41.8870859  27.6984558  74.6957162
  41.9886995  28.5010719  75.0238137  42.6826745  27.4971894  74.3980242
  42.0198764  27.7870457  74.6992517  52.8573183  29.6498826  76.5822772
  52.6107897  29.5694577  77.4159560  53.1858306  28.8652294  76.3885299
  52.8694427  29.5225092  76.6770295  56.7521232  36.3582186  80.3709553
  56.6135591  37.0563231  80.8758295  55.9721230  36.2030842  80.0145735
  56.6164459  36.4382352  80.3935827  48.8170210  32.3855545  85.9945755
  48.9613586  32.9656753  85.3588865  49.1645859  32.7631842  86.6995609
  48.8897672  32.5276249  86.0044750  50.9890128  31.5845713  83.7770886
  50.2413442  31.7776728  83.3719164  51.1431653  30.7590933  83.5395007
  50.9012555  31.4910825  83.6816292  47.8897965  40.5758317  82.8606781
  48.0387529  40.0161233  82.2080186  48.6697967  40.6550318  83.2439300
  48.0272059  40.5043882  82.8203731  58.2474605  35.7160439  71.1326052
  57.8681414  34.9297577  71.1255341  57.5840850  36.2647296  70.9897696
  58.0933080  35.6805263  71.1106849  51.0721513  39.2673958  74.9714878
  51.8371404  38.9983602  74.6497542  50.9699603  38.7823969  75.6884941
  51.1703008  39.1563523  75.0294706  49.1074283  27.4698368  81.5108114
  48.3170357  27.2889828  81.8325450  49.5034906  26.6925320  81.4938408
  49.0491159  27.3285829  81.5560662  53.5940173  36.2986142  66.9514828
  54.3613159  36.3586267  66.5420679  53.1471482  35.7266584  66.4671146
  53.6413601  36.2222718  66.8192538  54.4917969  35.1040798  79.2367560
  53.8162971  34.8726030  79.7380947  54.5010345  34.4961981  78.6109665
  54.3936474  34.9799723  79.2183712  51.6212113  29.9458627  85.9931613
  51.5571254  30.8068583  85.8651750  51.7609301  29.6290620  85.1927164
  51.6327583  30.0258794  85.8559826  56.4934704  37.9605930  71.4677738
  56.5754541  38.7672917  71.1439189  56.9784446  37.9801890  72.1918511
  56.5771861  38.0826593  71.5264636  50.3031207  32.6390766  80.1347816
  49.8793456  32.8395265  79.3986834  50.1276062  31.7919614  80.2472116
  50.2142087  32.5439548  80.0421506  45.5913652  33.1342818  75.5675788
  45.7478271  33.0689621  76.4231780  45.9314245  33.9091370  75.3554468
  45.6646887  33.2392016  75.6630382  52.1292796  32.5100701  74.4369152
  52.6708342  32.0071082  74.9007772  52.4439356  32.4565896  73.6258637
  52.2557194  32.4280122  74.3852964  50.2979246  37.9018053  71.7209180
  50.3672066  37.0432591  71.8602180  51.0767701  38.1189934  71.3928204
  50.4232096  37.8070917  71.6926337  53.2782066  27.4037006  84.4891452
  53.4924035  26.7647920  83.9354806  52.6615965  27.8482830  84.0599314
  53.2187395  27.3747150  84.3441883  54.6886734  40.3255754  75.9345673
  54.2966525  40.0222469  75.2168539  54.8439806  41.1624844  75.7450627
  54.6540324  40.4039591  75.8002170  42.1647913  30.3177768  75.8836555
  42.5446878  30.7362313  75.2196823  41.5903278  30.8991224  76.1905399
  42.1359238  30.4655627  75.8313296  54.8526409  36.8905743  75.8751703
  54.4941063  37.0620386  76.6515736  54.3665119  37.3518949  75.3179702
  54.7285105  36.9844714  75.9076973  52.6696795  20.5136942  79.4778795
  51.7990352  20.4875663  79.4312104  52.9237136  20.3414134  78.6604640
  52.5790355  20.4847085  79.3498932  49.6414774  32.5704908  68.4151938
  49.9307299  33.3469791  68.6895512  49.7286573  32.0593640  69.1166437
  49.6969030  32.6096827  68.5594436  49.6945935  22.5243170  80.9352265
  49.1784424  21.8323361  81.0603844  49.1339864  23.1913947  80.8814864
  49.5352448  22.5206428  80.9458331  57.7388148  29.6298785  81.3884820
  57.3115756  29.5425133  80.6332919  57.1014201  29.7376560  81.9739664
  57.5817755  29.6331445  81.3630261  45.8078715  31.8838173  80.5152050
  44.9666721  31.7842047  80.7230944  46.0168723  32.6533653  80.8666371
  45.7143407  31.9830216  80.5979365  43.2854282  29.5057710  78.3436801
  42.8910980  29.5800722  77.5686910  42.7294399  29.8915656  78.8945162
  43.1457094  29.5739485  78.3104460  54.9219229  22.4839004  78.0240679
  55.1268822  22.4161312  78.8697677  54.5945653  23.2897825  77.9561857
  54.9034477  22.5924944  78.1400335  49.6195380  29.8119572  79.7649647
  49.3158517  29.2575560  80.3660055  48.9174801  29.9911782  79.2777682
  49.4711590  29.7564354  79.7819353  48.6761477  27.1220092  74.3294349
  48.9521211  26.4039004  73.9171917  49.2760146  27.7205012  74.1215455
  48.8054741  27.1040463  74.2375110  47.6813731  37.0269293  84.4721745
  47.5734086  37.0371355  85.3383803  47.8909512  37.8524073  84.2826699
  47.6963842  37.1510368  84.5725837  58.1752916  23.0370768  77.5043445
  57.5627230  23.5241170  77.8897177  58.2717091  22.3614259  78.0481096
  58.0990814  23.0089077  77.6422303  52.1771997  24.7933609  72.6040944
  52.6315744  24.9644170  73.3288789  52.6512043  24.1801720  72.2038720
  52.3140317  24.7284495  72.6514706  45.6987523  34.2781935  81.9343683
  45.1075456  34.9191433  81.9046698  46.4608546  34.7019553  81.9074982
  45.7235783  34.4357774  81.9258830  55.4577039  39.7291247  79.3675707
  55.2596728  40.2182061  78.6731919  54.8364750  39.9332488  79.9459841
  55.3364603  39.8307785  79.3498931  49.5185017  31.4976144  73.7085952
  50.2627062  31.8850420  73.9468901  49.6645714  30.6533569  73.8726439
  49.6495602  31.4306616  73.7679921  51.4364593  23.2926403  78.7417813
  50.5900638  23.4649210  78.6159163  51.4335725  22.4875746  79.0783641
  51.3111743  23.1987432  78.7728940  52.5062893  27.0701617  79.6079871
  52.0322847  26.5443379  80.1185182  52.8781029  26.5231090  79.0394732
  52.4912782  26.9117614  79.5995018  58.7699624  32.1303993  81.0186651
  58.5297847  31.2910408  81.0229078  59.2491631  32.2104159  81.7427425
  58.8051807  32.0185392  81.1261454  54.4346393  27.9638172  72.6705625
  53.9069411  28.0466916  71.9811333  54.8942101  28.7056043  72.6670269
  54.4248243  28.0858834  72.5680320  60.7704811  28.9105450  78.9715910
  60.5314581  28.8701284  78.1336695  60.9338712  29.7576602  79.0981632
  60.7595114  29.0297535  78.8669392  46.2437709  27.8915573  81.6373835
  45.6190779  27.9033965  81.0299788  45.9083304  28.3675748  82.2865075
  46.1023201  27.9634090  81.6430403  46.4279458  26.2340691  67.6946520
  46.0792262  26.8860416  68.1578069  45.9475904  26.2197804  66.9670391
  46.3049702  26.3283745  67.6557611  42.9563385  35.9516033  83.0777599
  42.4263309  35.2608472  83.1272574  43.2288478  35.9426218  82.2490308
  42.9188107  35.8483165  82.9625015  53.9883475  36.5341735  71.8015282
  54.7117674  36.9999848  71.6579855  53.5484066  36.6015345  71.0512879
  54.0299168  36.6125572  71.6700063  53.1569630  33.3939277  83.0515971
  52.5426624  32.8497328  83.3464606  53.6736915  32.8803514  82.5721787
  53.1425293  33.2375686  83.0240199  52.3965928  34.4643547  80.7860269
  51.9693536  33.8393266  80.3525705  52.3890872  34.1818469  81.6119277
  52.3325069  34.3296328  80.8440097  50.7251637  25.3412302  81.0002803
  50.7494124  24.8072414  80.3115583  50.9763111  24.8329611  81.6628394
  50.7661556  25.1873206  80.9967448  38.2359227  32.6243797  80.4345947
  38.1302676  32.5790641  79.5698031  37.4859447  32.9697577  80.7160232
  38.1094830  32.6684705  80.3483277  47.0052960  24.0683120  80.3808548
  47.0451331  24.5692327  81.0943255  46.1802624  24.1593514  80.1114471
  46.8892485  24.1564937  80.4459086  48.4267323  30.5843630  82.6782447
  47.5959253  30.7517448  82.4717695  48.3718840  30.2079581  83.4631332
  48.2956738  30.5533361  82.7630975  46.8003367  28.8599222  73.2072564
  46.9406328  29.3571686  73.9101206  47.2985900  28.1585516  73.3486778
  46.8944448  28.8301200  73.3324143  46.8303589  29.7266333  70.5365141
  47.4648669  30.3226758  70.4714603  46.9129200  29.4269790  71.3511011
  46.9360140  29.7707241  70.6468228  48.4082572  25.6580308  70.5110583
  48.7298413  25.1783391  69.8569845  48.6709516  26.4679954  70.3201395
  48.4948597  25.7070206  70.3866075  53.8041727  25.0452502  82.8734062
  54.2296799  24.5925028  82.2617589  53.1898720  24.4912573  83.1498850
  53.7770372  24.8966478  82.8239088  43.3356577  31.9234173  73.8054687
  43.8448806  32.5198681  74.1865993  43.8090849  31.6560147  73.1231107
  43.4799953  31.9719989  73.7609210  54.2487325  40.5962440  71.9613343
  53.5316635  40.4223302  71.4960580  54.8994063  40.3615012  71.4288829
  54.2389176  40.5358233  71.8142561  52.2435950  21.5167602  76.2824639
  51.6004268  21.3665248  76.8509778  51.9035357  21.2709947  75.5173744
  52.0981027  21.4579724  76.2527654  56.8335296  29.4727029  75.7054648
  56.1626486  30.0156731  75.5767713  57.5275047  29.9421884  75.4636343
  56.8364164  29.6225300  75.6510176  50.8822030  41.6123741  80.9366406
  50.6587684  40.8542570  81.3050432  50.3931873  41.6421762  80.2146846
  50.7765479  41.5045965  80.8843147  56.9963424  25.9282912  78.6145021
  57.3491034  25.5012635  79.2890820  56.1378225  25.8433756  78.7446097
  56.9212868  25.8527653  78.7340032  45.6947109  28.5590432  76.6727868
  44.9759098  28.9754564  76.9400731  46.0659471  29.1244671  76.1219506
  45.6439041  28.7039713  76.6310675  54.9946690  29.1918281  82.5629863
  54.9744617  29.0101576  83.4164642  55.0425890  30.0630299  82.5389447
  54.9981331  29.2934819  82.6853158  49.5300487  41.8324199  78.3903491
  49.1160886  41.1698329  78.0007332  50.2147861  41.9802057  77.8699185
  49.5698859  41.7564857  78.2559988  52.8965781  40.9914284  79.1427107
  52.4982064  41.1016554  78.3747928  52.2817001  41.1996350  79.7253667
  52.7464670  41.0387852  79.1158407  51.4693683  27.5988432  72.0101247
  50.8758522  27.9205428  71.4585814  51.5068961  26.7529527  71.8022353
  51.3868072  27.5212760  71.8984018  54.3451500  27.5567936  75.4402997
  54.1165193  27.5800638  74.5981356  54.6049576  26.7325403  75.5598008
  54.3497688  27.4384016  75.3328195  47.3996262  26.0944483  76.7357193
  47.8753628  26.4561562  76.1007374  46.8984862  26.7500950  77.0157336
  47.3961621  26.2438671  76.6833934  60.6307624  35.5666251  72.5270198
  61.0141230  36.3157607  72.7568295  59.8351737  35.8132070  72.2682187
  60.5701406  35.7135945  72.5227772  49.4422915  28.2385682  70.1030577
  49.8221880  28.2565312  69.3181692  48.7015511  28.6839671  69.9821424
  49.3891753  28.3067457  69.9694145  57.0708206  26.5467874  75.6906156
  57.0702432  26.3916530  76.5490432  56.8664386  27.3930861  75.6347541
  57.0407984  26.6488494  75.8094095  39.1325477  29.9707658  80.1064972
  38.9547238  29.5184267  80.8319888  38.8444499  30.7733819  80.2903450
  39.0638430  30.0230216  80.2408475  54.7949058  31.2265375  79.3442362
  55.2902723  30.5088370  79.3046383  53.9848834  30.9236173  79.2296849
  54.7492951  31.0763022  79.3216088  50.2407669  35.0763189  71.4939367
  49.4318992  34.7529862  71.4472676  50.7482578  34.3696411  71.4267616
  50.1957336  34.9244505  71.4769661  40.8697947  32.5035382  77.2186731
  40.0043466  32.4921072  77.1069502  40.9696763  32.3165605  78.0657870
  40.7572114  32.4741443  77.3275676  56.8600877  33.9769063  82.0319491
  57.2855948  33.4543485  81.4789916  56.4957797  34.5749900  81.5108114
  56.8687479  33.9879290  81.8728501  46.4954957  42.2733280  80.7916837
  46.8101516  43.0869669  80.7994618  46.9048370  41.8883499  81.4598996
  46.6023055  42.3361983  80.8920928  53.4479476  37.6903327  78.3620649
  53.9190654  38.4043590  78.5310634  53.7839655  37.0902077  78.8980518
  53.5674591  37.7074791  78.4653025  49.4342086  24.4647211  72.7858208
  50.2557780  24.6345523  72.5439903  48.9711737  24.6194472  72.0624506
  49.4873248  24.5128944  72.6429853  43.8367977  36.2206389  80.4395445
  44.4412834  36.1802223  79.8109266  43.6295289  37.0677541  80.4699501
  43.8956874  36.3394391  80.3511562  53.6511749  38.4872334  81.6557683
  54.4710123  38.3435300  81.9173978  53.3705827  39.1118533  82.1974120
  53.7308492  38.5582686  81.7745622  39.0719259  35.2041006  80.3094368
  38.9743537  34.3937278  80.6184425  39.8548129  35.1832800  79.9240636
  39.1735395  35.0808097  80.2981231  61.8774007  44.7099506  74.2622598
  62.5754172  44.8887633  74.7544061  62.1926340  44.1869845  73.6392987
  62.0269345  44.6593278  74.2424608  60.0500871  40.0791902  78.3443873
  59.7204201  40.5303046  77.6747571  59.3745873  40.0008066  78.8916879
  59.9011307  40.1343038  78.3267096  67.2577279  36.0677425  76.5893483
  66.9430720  36.7580904  77.0213906  66.7404220  36.0122208  75.8878984
  67.1341749  36.1612314  76.5490432  58.4889320  49.9645143  71.5038362
  57.9046536  50.4695174  71.9104226  58.0859415  49.7387530  70.7634954
  58.3428624  50.0053391  71.4543387  62.9466535  46.2110795  69.9807282
  63.1862538  46.4188779  69.1682625  63.2682376  45.4068304  70.0896227
  63.0303693  46.1224896  69.8767835  58.2556825  38.1404191  73.8266820
  59.0102793  38.5082508  73.5883870  58.0784360  38.5143745  74.5946000
  58.3411303  38.2502379  73.9051709  56.6113890  40.5474510  70.5244933
  56.4289463  40.7646391  69.6985926  57.4739503  40.6613522  70.5803548
  56.7118479  40.5964408  70.4099420  62.2913609  37.5500920  73.5593957
  63.0199769  37.3716875  73.1132113  62.3808502  38.3919000  73.7701135
  62.4120271  37.6484799  73.5247475  56.1575917  43.8248682  69.0367406
  55.4434094  43.5386862  69.4489839  56.6419885  44.1645308  69.6773794
  56.1235280  43.8330332  69.1923041  63.3323235  52.3278636  69.4129214
  63.7474383  51.9963660  68.7213710  62.5015164  52.0947539  69.2849351
  63.2711243  52.2449892  69.2920062  66.0256625  48.5789196  68.5990416
  65.9436787  48.6491383  69.4645403  66.6636345  49.1418940  68.4074157
  66.1076462  48.6728167  68.6980365  48.1041327  45.5427771  76.5674278
  48.1901579  45.1659639  77.3487808  48.7317124  45.1688217  76.0894236
  48.2097878  45.4313253  76.6119755  63.1296735  48.6009650  71.6099022
  63.9437374  48.8924543  71.4981794  63.0655876  47.9469512  71.0357315
  63.2399474  48.5474845  71.5087860  59.6407458  47.2933457  71.0746224
  60.0252611  47.0741164  71.8262769  59.3919079  48.1196403  71.2047300
  59.6609531  47.3831604  71.2047300  57.3607896  38.9630394  76.4055004
  56.4930321  39.0352993  76.4712614  57.6483100  39.7652473  76.5942979
  57.2747644  39.0924541  76.4429771  55.2875248  42.4388653  73.8471881
  55.0000043  42.0689924  73.1103828  55.9745716  42.9083509  73.5855586
  55.3464145  42.4535623  73.6986956  58.1228919  46.3041602  75.2939285
  58.8451571  46.4682760  74.8343091  57.6436912  47.0251266  75.1878625
  58.1592650  46.4339831  75.2104899  64.5291705  39.5390777  75.4063586
  65.2318058  39.3398526  74.9283544  64.2635894  38.7666720  75.7132430
  64.5938337  39.3953743  75.3809028  52.8603442  43.2169866  74.6957162
  52.9619579  44.0196027  75.0238137  53.6559329  43.0157202  74.3980242
  52.9931348  43.3055765  74.6992517  64.5672757  51.8171450  66.9514828
  65.3345742  51.8771575  66.5420679  64.1204066  51.2451892  66.4671146
  64.6146184  51.7408026  66.8192538  53.1380497  45.8363076  75.8836555
  53.5179462  46.2547621  75.2196823  52.5635862  46.4176532  76.1905399
  53.1091822  45.9840935  75.8313296  63.6429378  36.0322249  79.4778795
  62.7722936  36.0060971  79.4312104  63.8969719  35.8599442  78.6604640
  63.5522938  36.0032393  79.3498932  60.6147358  48.0890216  68.4151938
  60.9039882  48.8655099  68.6895512  60.7019156  47.5778948  69.1166437
  60.6701614  48.1282135  68.5594436  59.6494060  42.6405400  74.3294349
  59.9253795  41.9224312  73.9171917  60.2492730  43.2390320  74.1215455
  59.7787325  42.6225771  74.2375110  63.1504581  40.3118917  72.6040944
  63.6048327  40.4829478  73.3288789  63.6244627  39.6987028  72.2038720
  63.2872901  40.2469802  72.6514706  60.4917601  47.0161452  73.7085952
  61.2359646  47.4035728  73.9468901  60.6378297  46.1718877  73.8726439
  60.6228186  46.9491924  73.7679921  62.4097176  38.8111711  78.7417813
  61.5633221  38.9834518  78.6159163  62.4068309  38.0061054  79.0783641
  62.2844326  38.7172739  78.7728940  65.4078976  43.4823479  72.6705625
  64.8801995  43.5652223  71.9811333  65.8674685  44.2241351  72.6670269
  65.3980827  43.6044142  72.5680320  57.4012042  41.7525999  67.6946520
  57.0524846  42.4045724  68.1578069  56.9208487  41.7383112  66.9670391
  57.2782286  41.8469053  67.6557611  57.7735950  44.3784530  73.2072564
  57.9138911  44.8756994  73.9101206  58.2718483  43.6770824  73.3486778
  57.8677031  44.3486508  73.3324143  57.8036173  45.2451641  70.5365141
  58.4381252  45.8412066  70.4714603  57.8861784  44.9455098  71.3511011
  57.9092724  45.2892549  70.6468228  59.3815156  41.1765616  70.5110583
  59.7030997  40.6968698  69.8569845  59.6442099  41.9865262  70.3201395
  59.4681181  41.2255514  70.3866075  54.3089161  47.4419481  73.8054687
  54.8181390  48.0383989  74.1865993  54.7823433  47.1745455  73.1231107
  54.4532536  47.4905297  73.7609210  63.2168533  37.0352910  76.2824639
  62.5736851  36.8850556  76.8509778  62.8767940  36.7895255  75.5173744
  63.0713611  36.9765032  76.2527654  56.6679692  44.0775740  76.6727868
  55.9491681  44.4939872  76.9400731  57.0392055  44.6429979  76.1219506
  56.6171624  44.2225021  76.6310675  62.4426267  43.1173740  72.0101247
  61.8491106  43.4390736  71.4585814  62.4801544  42.2714835  71.8022353
  62.3600656  43.0398068  71.8984018  58.3728846  41.6129791  76.7357193
  58.8486212  41.9746870  76.1007374  57.8717445  42.2686258  77.0157336
  58.3694205  41.7623979  76.6833934  60.4155499  43.7570990  70.1030577
  60.7954464  43.7750620  69.3181692  59.6748095  44.2024979  69.9821424
  60.3624337  43.8252765  69.9694145  61.2140253  50.5948497  71.4939367
  60.4051576  50.2715170  71.4472676  61.7215162  49.8881719  71.4267616
  61.1689920  50.4429813  71.4769661  60.4074670  39.9832519  72.7858208
  61.2290364  40.1530831  72.5439903  59.9444321  40.1379780  72.0624506
  60.4605832  40.0314252  72.6429853  35.4551881   0.6683070  62.0730768
  34.7034780   0.2898608  61.8446813  35.9037892   0.7001504  61.3249578
  35.4101547   0.6168677  61.9288270  40.9076840   1.0908439  57.5016315
  40.5728209   1.7685361  57.0660537  41.4203711   0.7013751  56.9133186
  40.9342422   1.1333018  57.3503106  40.4481132   3.0422708  63.4427426
  40.8320511   3.6109607  62.9032202  40.3840273   2.3172218  62.9633242
  40.4954559   3.0198172  63.2921289  36.8737376   5.5979051  65.7408396
  37.5174832   6.0392215  66.1304555  37.1993632   4.7932477  65.6538655
  37.0169205   5.5444246  65.7853874  37.5757956  -1.3908974  61.1128258
  37.8973797  -0.8503767  60.5089566  38.2230053  -1.9612203  61.2450548
  37.7184011  -1.3949799  61.0435293  37.6716358   1.4145849  60.0818641
  37.9614656   1.0234830  59.3577868  38.4019838   1.5962553  60.5223916
  37.8223242   1.3839662  60.0401448  35.6122273   3.3913231  63.1478791
  35.3922569   3.1010586  63.9405458  35.3916795   2.7328186  62.6196703
  35.5469867   3.2512939  63.1867699  37.7790229   4.7642621  61.9309483
  38.4314287   4.2319063  62.1600509  37.0815838   4.4111273  62.3177357
  37.7720947   4.6332144  62.0221651  42.2436725   0.0285819  60.6977542
  42.0023401  -0.7046320  60.2904606  42.4238058   0.5772676  60.0443875
  42.2344349   0.0008210  60.5407764  39.7939753   0.6866782  61.9054925
  40.5589644   0.4176425  61.5837589  39.6917843   0.2016792  62.6224988
  39.8921249   0.5756346  61.9634753  39.0197487  -0.6789124  58.6549226
  39.0890307  -1.5374585  58.7942227  39.7985942  -0.4617243  58.3268251
  39.1450337  -0.7736260  58.6266384  43.4104974   1.7448577  62.8685720
  43.0184766   1.4415293  62.1508586  43.5658046   2.5817667  62.6790673
  43.3758564   1.8232414  62.7342217  44.1795279   1.1484070  66.3015754
  43.9814968   1.6374885  65.6071965  43.5582990   1.3525312  66.8799887
  44.0582844   1.2500608  66.2838977  42.9705565   2.0155263  58.8953390
  42.2534875   1.8416126  58.4300627  43.6212303   1.7807836  58.3628876
  42.9607416   1.9551056  58.7482607  38.2518727   3.2517022  65.3243538
  37.8379126   2.5891152  64.9347379  38.9366102   3.3994881  64.8039232
  38.2917099   3.1757680  65.1900035  41.6184021   2.4107107  66.0767154
  41.2200305   2.5209378  65.3087974  41.0035241   2.6189174  66.6593714
  41.4682911   2.4580675  66.0498454  58.8443640   7.5630009  61.5540606
  58.8137644   8.4174646  61.7258875  59.4424988   7.2625302  62.1126749
  58.9280797   7.6446506  61.6615408  52.0443324   6.6505660  66.3093536
  51.1881220   6.8114158  66.3602653  52.0910978   5.7797724  66.3298597
  51.9242436   6.5456462  66.3199602  46.4284464  16.1868378  62.0730768
  45.6767364  15.8083916  61.8446813  46.8770476  16.2186811  61.3249578
  46.3834131  16.1353985  61.9288270  51.8809424  16.6093747  57.5016315
  51.5460793  17.2870669  57.0660537  52.3936294  16.2199059  56.9133186
  51.9075005  16.6518326  57.3503106  51.4213715  18.5608016  63.4427426
  51.8053095  19.1294915  62.9032202  51.3572857  17.8357526  62.9633242
  51.4687143  18.5383479  63.2921289  54.8895145   8.7097704  68.9525188
  55.4351106   9.3882791  69.0119157  54.8312022   8.5685165  68.0926769
  54.9611060   8.7889706  68.8337248  48.0069220  16.1986770  64.3393540
  48.1079583  15.3887124  64.6490668  47.4110966  16.1043716  63.7093219
  47.9341759  16.0651798  64.2919779  56.6660214  10.1382311  59.8258916
  56.5499740  10.8889997  60.2551054  57.4616101   9.8806264  60.0755003
  56.7664804  10.2117158  59.9263007  47.8469960  21.1164359  65.7408396
  48.4907415  21.5577523  66.1304555  48.1726215  20.3117785  65.6538655
  47.9901789  21.0629554  65.7853874  41.2034265  12.2207057  63.9645874
  40.9684449  11.3874709  63.8578143  41.3419905  12.5011722  63.1507075
  41.1889927  12.1390560  63.8288229  43.5024352   4.3892787  66.8630182
  42.8829384   3.7985434  66.6940196  43.4008216   4.9804222  66.2294505
  43.3962028   4.3896870  66.7435171  48.5490540  14.1276334  61.1128258
  48.8706381  14.6681541  60.5089566  49.1962636  13.5573105  61.2450548
  48.6916595  14.1235509  61.0435293  50.5992248   6.1292329  61.1962645
  51.2972412   6.3080456  61.6884108  50.9144580   5.6062668  60.5733034
  50.7487585   6.0786101  61.1764655  43.2293485   7.9345069  69.1073751
  43.1052182   8.5207514  69.7423569  43.8811770   7.4405265  69.4086026
  43.3067134   7.9483873  69.2459680  50.7880183  12.5162774  61.1842436
  51.2273819  11.9079874  61.6297209  50.6384846  12.1370147  60.4127901
  50.8301649  12.3701245  61.1361604  48.2551826  11.1106786  68.3861262
  48.9000829  10.6179229  68.0672210  48.4953603  11.2531572  69.2127340
  48.3862411  11.0584228  68.4610795  50.7937917  13.9561692  68.0368154
  51.0761160  13.1613097  67.8154910  51.5224078  14.4342279  68.0573215
  50.9427481  13.9096289  68.0071169  48.7719111   1.4984726  65.2783919
  48.4422441   1.9495869  64.6087618  48.0964113   1.4200889  65.8256926
  48.6229548   1.5535861  65.2607143  54.3889520  10.8689955  58.1373205
  54.3040815  11.7250922  58.2822774  54.8773903  10.5934279  58.8055365
  54.4478417  10.9547277  58.2575287  55.3207953   7.4874749  59.6370941
  54.7919424   7.7034383  60.2968247  55.8432973   8.1810888  59.5571910
  55.3196406   7.6217886  59.7226540  60.7756006  13.0621054  65.0103985
  59.9453709  13.2731698  65.1737402  60.7265258  12.2358108  64.7346269
  60.6462741  12.9710660  64.9941350  47.2107561  11.3837966  58.4378408
  46.6264776  11.8887998  58.8444272  46.8077656  11.1580353  57.6975000
  47.0646864  11.4246215  58.3883434  42.7651589  17.0992727  65.2402080
  42.2819168  17.8243217  65.2161664  43.5774908  17.3968857  65.3512238
  42.8142337  17.2495081  65.2529359  48.8365743  15.8924908  67.8451895
  48.3192685  15.5332323  67.2413203  49.5340135  15.3687082  67.8557961
  48.8631324  15.7622596  67.7582153  52.4929335  16.3419722  73.8068068
  52.5812681  16.1545863  74.6546278  52.9219048  15.6957152  73.4072914
  52.5691438  16.2182730  73.8739819  50.0599795  15.6250882  72.7885730
  49.4970630  15.2123492  73.3125391  50.8220819  15.5503788  73.2078873
  50.0894244  15.5528283  72.9278730  51.6684775   7.6303618  56.9147329
  51.9080779   7.8381602  56.1022672  51.9900616   6.8261127  57.0236274
  51.7521933   7.5417720  56.8107882  45.6195787  17.6148903  65.3922360
  46.3216366  17.1000892  65.4495116  45.5393270  17.9423055  66.1969235
  45.7119547  17.5863129  65.5195152  45.3332130   1.9667333  57.4584980
  45.1507703   2.1839214  56.6325973  46.1957743   2.0806346  57.5143594
  45.4336719   2.0157231  57.3439467  44.9446562  13.8055255  64.9007968
  45.7835461  14.0378188  64.9481730  44.9758331  12.9359567  64.8315003
  45.0728280  13.7112202  64.8972613  45.5699265  14.2256130  69.2021273
  46.1097490  14.0827261  69.8724646  44.8869211  14.6252881  69.5705300
  45.5491419  14.2635801  69.3555695  54.9940150   9.9047131  64.3966298
  55.7497665  10.3378645  64.4355207  55.1002474   9.2551901  64.9700934
  55.1210320   9.8724615  64.4864323  58.0320321  13.7320408  65.1468701
  57.5955553  13.7357151  65.9027672  57.6983236  14.4125907  64.7148278
  57.9182941  13.8332864  65.1949533  52.6049395  15.7728741  76.4711851
  53.3889811  15.8859589  76.8367593  52.4045989  14.9469878  76.6670537
  52.6915420  15.6675461  76.5546237  40.9736410  10.4456421  69.3555695
  40.7074825   9.6295538  69.5146685  40.9874974  10.4909577  68.4851211
  40.9361132  10.3313326  69.2509177  44.8794157   5.2441506  55.9707453
  44.1652334   4.9579685  56.3829886  45.3638126   5.5838131  56.6113841
  44.8453520   5.2523155  56.1263088  52.7619788  17.6838843  70.1178307
  51.9635034  17.4438343  70.3752175  53.2105799  17.7353236  70.8645354
  52.7094399  17.6561234  70.2663231  61.1664667  10.4501328  64.0388338
  61.8281101   9.8891997  63.9384246  60.5256079   9.9553359  64.3641029
  61.1693535  10.2937737  64.0720678  52.0541475  13.7471460  56.3469261
  52.4692623  13.4156483  55.6553757  51.2233405  13.5140362  56.2189398
  51.9929484  13.6642716  56.2260109  41.3829824  11.2315201  66.6367439
  41.2005397  11.2062087  65.7839731  42.1179493  11.7014138  66.6756348
  41.4643888  11.2976563  66.5165358  57.4529498  11.4666711  63.7800327
  57.6885087  11.6111910  62.9527177  57.6019062  12.2309119  64.1731840
  57.5095301  11.6005765  63.7163931  59.2819955  10.3068377  61.6169931
  59.6128172  10.8396017  61.0110025  59.8553043  10.3607264  62.2731882
  59.4153634  10.3937945  61.6247712  54.4951844   8.1533279  62.2993511
  54.5898698   8.8922573  62.7533136  53.8710687   7.7250755  62.7328075
  54.4160874   8.1994600  62.4301658  52.7504318  11.3319492  72.9483792
  53.3243179  10.6946736  73.1032356  52.6719121  11.3323574  72.0793449
  52.8237552  11.2384603  72.8430202  41.3500734   8.1108701  66.7866506
  41.9274237   7.9745152  67.4258751  40.6514796   7.6544485  67.0412090
  41.3321755   8.0230968  66.9188795  54.7474865   9.9982019  55.5330463
  54.6655028  10.0684206  56.3985450  55.3854586  10.5611763  55.3414203
  54.8294702  10.0920990  55.6320412  48.1068036   9.7642757  65.0004989
  47.8487281   8.9314492  64.9736289  48.1616519   9.9900370  64.1597489
  48.0767814   9.6740528  64.8725126  47.0802748   7.3180519  65.4869884
  46.5052340   7.4772688  66.1233845  46.7038425   6.6815929  65.0238334
  46.9405561   7.2478332  65.5124442  50.7476037   5.7903869  70.3462262
  50.3590470   5.3658086  69.6914453  50.0830735   6.0386018  70.8539289
  50.5922965   5.7642590  70.3250130  36.8259567   6.9620594  63.5014324
  36.9119819   6.5852463  64.2827854  37.4535365   6.5881040  63.0234283
  36.9316118   6.8506076  63.5459802  51.8514975  10.0202473  58.5439069
  52.6655614  10.3117366  58.4321841  51.7874117   9.3662336  57.9697362
  51.9617714   9.9667668  58.4427907  47.7222884  13.4923991  63.6711381
  48.3596830  13.2535738  64.2163175  48.1477955  13.6961150  62.9364542
  47.8799050  13.4875001  63.6428539  42.4135526  15.7312327  67.5545685
  42.4539671  16.0027178  66.7265465  42.9730050  16.2554235  67.9703473
  42.5018872  15.8488082  67.4937573  48.3625699   8.7126281  58.0086271
  48.7470851   8.4933987  58.7602816  48.1137319   9.5389226  58.1387347
  48.3827771   8.8024427  58.1387347  59.0960886  12.4872918  69.0196939
  58.7906703  13.2200975  69.3810255  58.3767102  12.0810848  68.7389725
  58.9448228  12.5354651  69.0310076  50.1044356  13.9696413  65.3505168
  50.1783364  13.8071585  66.2047017  50.9213862  14.1586603  65.1065649
  50.2360714  13.9733156  65.4403193  43.8650112  14.3154276  62.3799611
  43.0388230  14.5616013  62.2533890  43.9262103  14.2366357  63.2461669
  43.7524279  14.3399225  62.4888555  46.0826136   0.3823217  63.3395051
  45.2148561   0.4545817  63.4052660  46.3701340   1.1845296  63.5283026
  45.9965884   0.5117364  63.3769818  48.6448941  16.9331156  60.0818641
  48.9347240  16.5420138  59.3577868  49.3752422  17.1147861  60.5223916
  48.7955825  16.9024970  60.0401448  49.2343686  11.7348902  71.1671771
  48.7355380  12.4464670  71.2456660  50.0443911  12.0549569  71.1289934
  49.2799793  11.8875751  71.1728340  46.5854857  18.9098539  63.1478791
  46.3655152  18.6195894  63.9405458  46.3649379  18.2513494  62.6196703
  46.5202451  18.7698247  63.1867699  45.4971804  10.9971855  65.4134492
  45.2085053  10.3709327  65.9480220  46.3655152  10.9392143  65.4799173
  45.5832056  10.8959400  65.5025447  56.2849702   6.1406639  65.7316474
  55.9414468   5.4196974  66.0823724  56.3842744   5.9320490  64.8894832
  56.2491745   6.0030842  65.6588154  48.7522813  20.2827929  61.9309483
  49.4046871  19.7504371  62.1600509  48.0548421  19.9296581  62.3177357
  48.7453530  20.1517452  62.0221651  45.7004077  12.6367106  61.3376857
  46.4550045  13.0180146  61.5512320  45.1074690  13.0878250  61.7923554
  45.7240791  12.7595934  61.4359736  56.7462731  12.6032343  61.2740462
  57.3120764  13.2625553  61.1899005  56.0990634  12.9482041  61.7456864
  56.7341487  12.7514284  61.3313219  47.0202304  13.8075668  66.7116973
  46.4983057  13.9475959  67.3968837  47.4076324  13.0486332  66.9019090
  47.0006005  13.7161192  66.8418049  44.0093488   3.8581477  60.7811927
  43.7218284   3.4882747  60.0443875  44.6963956   4.3276332  60.5195632
  44.0682385   3.8728446  60.6327003  53.2169309  15.5471127  60.6977542
  52.9755985  14.8138988  60.2904606  53.3970642  16.0957984  60.0443875
  53.2076933  15.5193518  60.5407764  48.4468630  10.8379687  62.1098464
  48.2511412  11.4454421  61.5158767  48.6702975  10.1447631  61.6290138
  48.4503271  10.8257212  61.9514545  46.8447160   7.7234425  62.2279332
  47.5669812   7.8875583  61.7683138  46.3655152   8.4444090  62.1218672
  46.8810890   7.8532654  62.1444946  54.8040667   4.0598224  67.6076017
  53.9651768   4.0859502  67.3714280  54.8745034   4.7068959  68.1881364
  54.6909061   4.1594349  67.6585134  44.4954776  10.1292497  71.3333472
  45.0075873  10.4076750  70.6842232  44.2091119  10.8681791  71.6996285
  44.5289639  10.2794851  71.2923350  58.6798191   9.2666210  64.8937259
  58.5932166   9.4221636  65.7472038  58.2248671   9.9104286  64.5196664
  58.6001448   9.3841965  64.9644366  41.5821683   4.6362689  61.6297209
  41.6837819   5.4388850  61.9578184  42.3777569   4.4350025  61.3320289
  41.7149588   4.7248588  61.6332564  52.5524007   6.5876957  63.5162818
  52.3058721   6.5072708  64.3499607  52.8809130   5.8030425  63.3225346
  52.5645251   6.4603223  63.6110341  56.4472056  13.2960317  67.3049600
  56.3086415  13.9941363  67.8098342  55.6672054  13.1408973  66.9485781
  56.3115283  13.3760483  67.3275874  48.5121034   9.3233676  72.9285801
  48.6564410   9.9034884  72.2928911  48.8596683   9.7009973  73.6335656
  48.5848496   9.4654380  72.9384796  50.6840952   8.5223844  70.7110933
  49.9364266   8.7154859  70.3059211  50.8382477   7.6969064  70.4735054
  50.5963379   8.4288956  70.6156339  47.5848789  17.5136448  69.7946828
  47.7338353  16.9539364  69.1420233  48.3648791  17.5928450  70.1779347
  47.7222883  17.4422013  69.7543777  57.9425429  12.6538571  58.0666099
  57.5632237  11.8675708  58.0595388  57.2791674  13.2025428  57.9237743
  57.7883904  12.6183395  58.0446896  50.1102090  17.6851091  71.0731319
  50.0345761  17.0159901  71.6282107  50.0391949  18.3868879  71.5871985
  50.0882697  17.6895998  71.2308167  50.7672337  16.2052090  61.9054925
  51.5322228  15.9361733  61.5837589  50.6650427  15.7202100  62.6224988
  50.8653832  16.0941654  61.9634753  48.8025107   4.4076499  68.4448161
  48.0121181   4.2267959  68.7665497  49.1985729   3.6303452  68.4278455
  48.7441983   4.2663960  68.4900709  53.2890997  13.2364273  53.8854874
  54.0563983  13.2964398  53.4760726  52.8422306  12.6644715  53.4011193
  53.3364425  13.1600849  53.7532585  54.1868793  12.0418929  66.1707607
  53.5113795  11.8104161  66.6720994  54.1961169  11.4340112  65.5449712
  54.0887298  11.9177854  66.1523759  51.3162937   6.8836758  72.9271660
  51.2522078   7.7446715  72.7991796  51.4560125   6.5668751  72.1267211
  51.3278407   6.9636925  72.7899873  56.1885528  14.8984062  58.4017785
  56.2705365  15.7051048  58.0779236  56.6735270  14.9180021  59.1258558
  56.2722685  15.0204724  58.4604683  49.9982031   9.5768897  67.0687863
  49.5744280   9.7773397  66.3326881  49.8226886   8.7297745  67.1812162
  49.9092911   9.4817679  66.9761553  49.4993724  21.0919410  69.5309320
  49.9889655  20.3930200  69.3484984  48.9277957  20.7943280  70.1185377
  49.4878254  20.9445634  69.5910361  45.2864476  10.0720949  62.5015835
  45.4429095  10.0067752  63.3571827  45.6265069  10.8469501  62.2894515
  45.3597711  10.1770147  62.5970429  51.8243620   9.4478832  61.3709198
  52.3659166   8.9449214  61.8347819  52.1390179   9.3944027  60.5598684
  51.9508017   9.3658253  61.3193010  49.9930070  14.8396184  58.6549226
  50.0622890  13.9810722  58.7942227  50.7718525  15.0568065  58.3268251
  50.1182920  14.7449048  58.6266384  52.9732890   4.3415137  71.4231499
  53.1874859   3.7026051  70.8694853  52.3566789   4.7860961  70.9939361
  52.9138219   4.3125281  71.2781930  54.3837558  17.2633885  62.8685720
  53.9917349  16.9600600  62.1508586  54.5390630  18.1002975  62.6790673
  54.3491148  17.3417722  62.7342217  41.8598737   7.2555899  62.8176602
  42.2397702   7.6740444  62.1536870  41.2854102   7.8369355  63.1245446
  41.8310062   7.4033758  62.7653343  54.5477232  13.8283874  62.8091750
  54.1891887  13.9998517  63.5855783  54.0615943  14.2897080  62.2519749
  54.4235929  13.9222845  62.8417019  49.3365598   9.5083040  55.3491985
  49.6258123  10.2847922  55.6235559  49.4237397   8.9971771  56.0506484
  49.3919854   9.5474958  55.4934482  55.7081972  14.7187770  73.7558951
  56.3461692  14.2247966  73.4221407  55.0656063  14.6465171  73.1711178
  55.7076198  14.6346779  73.6201306  55.7636228  15.4107578  70.3964308
  56.5528607  15.0596643  70.5166389  55.9379826  16.2243967  70.1340942
  55.9056510  15.4793436  70.3752176  45.5029539   8.8216304  67.4492097
  44.6617545   8.7220178  67.6570991  45.7119547   9.5911784  67.8006417
  45.4094231   8.9208347  67.5319412  42.9805106   6.4435841  65.2776847
  42.5861804   6.5178853  64.5026957  42.4245223   6.8293787  65.8285209
  42.8407918   6.5117616  65.2444507  49.3146204   6.7497703  66.6989694
  49.0109341   6.1953692  67.3000102  48.6125624   6.9289913  66.2117728
  49.1662413   6.6942486  66.7159400  48.3712301   4.0598223  61.2634396
  48.6472035   3.3417136  60.8511964  48.9710970   4.6583143  61.0555502
  48.5005565   4.0418594  61.1715157  47.3764555  13.9647424  71.4061792
  47.2684910  13.9749486  72.2723850  47.5860336  14.7902204  71.2166746
  47.3914666  14.0888499  71.5065884  45.3938347  11.2160066  68.8683730
  44.8026280  11.8569565  68.8386745  46.1559370  11.6397684  68.8415029
  45.4186607  11.3735905  68.8598877  55.1527863  16.6669378  66.3015754
  54.9547552  17.1560192  65.6071965  54.5315574  16.8710620  66.8799887
  55.0315427  16.7685916  66.2838977  49.2135841   8.4354275  60.6425998
  49.9577886   8.8228551  60.8808948  49.3596537   7.5911700  60.8066486
  49.3446426   8.3684748  60.7019968  52.2013717   4.0079748  66.5419918
  51.7273671   3.4821510  67.0525229  52.5731853   3.4609221  65.9734779
  52.1863606   3.8495745  66.5335065  58.4650448   9.0682124  67.9526698
  58.2248671   8.2288539  67.9569125  58.9442455   9.1482291  68.6767472
  58.5002631   8.9563524  68.0601501  54.1297217   4.9016303  59.6045671
  53.6020235   4.9845047  58.9151380  54.5892925   5.6434174  59.6010316
  54.1199067   5.0236965  59.5020367  60.4655635   5.8483581  65.9055957
  60.2265405   5.8079415  65.0676742  60.6289536   6.6954733  66.0321678
  60.4545938   5.9675666  65.8009439  45.9388533   4.8293704  68.5713882
  45.3141603   4.8412096  67.9639834  45.6034128   5.3053879  69.2205122
  45.7974025   4.9012221  68.5770450  46.1230282   3.1718822  54.6286567
  45.7743086   3.8238548  55.0918116  45.6426728   3.1575935  53.9010438
  46.0000526   3.2661876  54.5897658  53.6834299  13.4719866  58.7355329
  54.4068498  13.9377979  58.5919902  53.2434890  13.5393476  57.9852926
  53.7249992  13.5503703  58.6040110  52.8520454  10.3317409  69.9856018
  52.2377447   9.7875459  70.2804653  53.3687739   9.8181645  69.5061834
  52.8376117  10.1753818  69.9580246  52.0916752  11.4021679  67.7200316
  51.6644360  10.7771397  67.2865752  52.0841696  11.1196600  68.5459323
  52.0275893  11.2674459  67.7780144  37.9310051   9.5621928  67.3685994
  37.8253500   9.5168772  66.5038078  37.1810271   9.9075709  67.6500279
  37.8045654   9.6062836  67.2823324  46.7003783   1.0061251  67.3148594
  46.7402155   1.5070458  68.0283302  45.8753448   1.0971645  67.0454518
  46.5843309   1.0943068  67.3799133  48.1218147   7.5221761  69.6122493
  47.2910077   7.6895579  69.4057742  48.0669664   7.1457712  70.3971379
  47.9907562   7.4911492  69.6971022  46.4954191   5.7977353  60.1412611
  46.6357152   6.2949817  60.8441253  46.9936723   5.0963647  60.2826825
  46.5895272   5.7679332  60.2664190  46.5254413   6.6644464  57.4705188
  47.1599493   7.2604889  57.4054650  46.6080024   6.3647921  58.2851058
  46.6310964   6.7085372  57.5808275  48.1033396   2.5958439  57.4450630
  48.4249237   2.1161522  56.7909892  48.3660340   3.4058085  57.2541442
  48.1899421   2.6448337  57.3206122  51.3330369  13.6177314  70.9649446
  50.8255460  14.1713160  71.4090077  51.0357015  13.6785603  70.1468221
  51.2135254  13.7083625  70.9097903  43.0307401   8.8612305  60.7394734
  43.5399630   9.4576812  61.1206040  43.5041673   8.5938278  60.0571154
  43.1750777   8.9098120  60.6949257  53.9438149  17.5340571  58.8953390
  53.2267459  17.3601433  58.4300627  54.5944887  17.2993144  58.3628876
  53.9339999  17.4736364  58.7482607  56.5286120   6.4105160  62.6394695
  55.8577310   6.9534862  62.5107760  57.2225870   6.8800015  62.3976389
  56.5314988   6.5603431  62.5850222  50.5772854  18.5501872  67.8706453
  50.3538508  17.7920701  68.2390479  50.0882697  18.5799893  67.1486893
  50.4716303  18.4424096  67.8183194  45.3897933   5.4968563  63.6067914
  44.6709922   5.9132696  63.8740778  45.7610295   6.0622802  63.0559553
  45.3389864   5.6417845  63.5650721  54.6897513   6.1296412  69.4969910
  54.6695441   5.9479707  70.3504689  54.7376714   7.0008431  69.4729494
  54.6932154   6.2312950  69.6193205  52.6343843  12.7183604  75.4218387
  52.5939698  12.0733281  74.8363543  53.4467162  12.6620221  75.7343799
  52.7486997  12.6142571  75.3815336  49.2251311  18.7702330  65.3243538
  48.8111710  18.1076460  64.9347379  49.9098685  18.9180189  64.8039232
  49.2649683  18.6942988  65.1900035  52.5916605  17.9292415  66.0767154
  52.1932888  18.0394685  65.3087974  51.9767825  18.1374481  66.6593714
  52.4415494  17.9765983  66.0498454  51.1644507   4.5366563  58.9441294
  50.5709346   4.8583559  58.3925861  51.2019785   3.6907658  58.7362400
  51.0818896   4.4590891  58.8324065  54.0402324   4.4946067  62.3743044
  53.8116017   4.5178769  61.5321402  54.3000400   3.6703535  62.4938055
  54.0448512   4.3762147  62.2668242  47.0947086   3.0322614  63.6697240
  47.5704452   3.3939694  63.0347421  46.5935686   3.6879081  63.9497383
  47.0912445   3.1816803  63.6173981  60.3258448  12.5044382  59.4610245
  60.7092053  13.2535738  59.6908342  59.5302561  12.7510202  59.2022234
  60.2652230  12.6514076  59.4567818  49.1373739   5.1763814  57.0370624
  49.5172704   5.1943443  56.2521739  48.3966335   5.6217802  56.9161471
  49.0842577   5.2445588  56.9034192  38.8276301   6.9085789  67.0405019
  38.6498062   6.4562398  67.7659935  38.5395323   7.7111951  67.2243497
  38.7589254   6.9608347  67.1748522  54.4899882   8.1643507  66.2782409
  54.9853547   7.4466502  66.2386430  53.6799658   7.8614304  66.1636896
  54.4443775   8.0141153  66.2556135  49.9358493  12.0141320  58.4279414
  49.1269816  11.6907993  58.3812723  50.4433402  11.3074542  58.3607662
  49.8908160  11.8622636  58.4109708  40.5648771   9.4413513  64.1526778
  39.6994290   9.4299203  64.0409549  40.6647587   9.2543736  64.9997917
  40.4522938   9.4119574  64.2615722  56.5551701  10.9147194  68.9659538
  56.9806772  10.3921616  68.4129963  56.1908621  11.5128031  68.4448161
  56.5638303  10.9257421  68.8068548  46.1905781  19.2111412  67.7256884
  46.5052339  20.0247800  67.7334665  46.5999194  18.8261630  68.3939043
  46.2973879  19.2740114  67.8260975  53.1430300  14.6281458  65.2960696
  53.6141478  15.3421721  65.4650681  53.4790479  14.0280208  65.8320565
  53.2625415  14.6452923  65.3993071  53.7804247  14.4199393  72.0588388
  53.2325192  13.7957276  71.7908453  54.2417275  14.6093665  71.3432468
  53.7671456  14.3558443  71.9138819  43.5318801  13.1584520  67.3735492
  44.1363658  13.1180354  66.7449313  43.3246113  14.0055672  67.4039548
  43.5907698  13.2772523  67.2851608  53.3462573  15.4250465  68.5897729
  54.1660947  15.2813431  68.8514025  53.0656650  16.0496664  69.1314167
  53.4259316  15.4960817  68.7085669  38.7670083  12.1419138  67.2434415
  38.6694361  11.3315409  67.5524472  39.5498953  12.1210931  66.8580683
  38.8686219  12.0186228  67.2321278  69.8176223  23.0815317  61.5540606
  69.7870228  23.9359954  61.7258875  70.4157572  22.7810609  62.1126749
  69.9013381  23.1631813  61.6615408  63.0175908  22.1690968  66.3093536
  62.1613804  22.3299466  66.3602653  63.0643562  21.2983032  66.3298597
  62.8975019  22.0641770  66.3199602  57.4017048  31.7053686  62.0730768
  56.6499947  31.3269224  61.8446813  57.8503059  31.7372119  61.3249578
  57.3566715  31.6539293  61.9288270  62.8542008  32.1279055  57.5016315
  62.5193376  32.8055977  57.0660537  63.3668878  31.7384367  56.9133186
  62.8807589  32.1703633  57.3503106  62.3946299  34.0793324  63.4427426
  62.7785678  34.6480223  62.9032202  62.3305440  33.3542834  62.9633242
  62.4419726  34.0568787  63.2921289  65.8627729  24.2283012  68.9525188
  66.4083689  24.9068098  69.0119157  65.8044605  24.0870473  68.0926769
  65.9343643  24.3075014  68.8337248  58.9801804  31.7172078  64.3393540
  59.0812167  30.9072432  64.6490668  58.3843549  31.6229024  63.7093219
  58.9074343  31.5837106  64.2919779  67.6392798  25.6567619  59.8258916
  67.5232324  26.4075305  60.2551054  68.4348684  25.3991572  60.0755003
  67.7397387  25.7302466  59.9263007  58.8202544  36.6349667  65.7408396
  59.4639999  37.0762831  66.1304555  59.1458799  35.8303093  65.6538655
  58.9634372  36.5814862  65.7853874  52.1766848  27.7392364  63.9645874
  51.9417033  26.9060017  63.8578143  52.3152489  28.0197030  63.1507075
  52.1622511  27.6575868  63.8288229  54.4756936  19.9078095  66.8630182
  53.8561967  19.3170742  66.6940196  54.3740799  20.4989530  66.2294505
  54.3694611  19.9082178  66.7435171  59.5223123  29.6461642  61.1128258
  59.8438964  30.1866849  60.5089566  60.1695220  29.0758413  61.2450548
  59.6649178  29.6420817  61.0435293  61.5724831  21.6477637  61.1962645
  62.2704996  21.8265764  61.6884108  61.8877164  21.1247976  60.5733034
  61.7220168  21.5971409  61.1764655  54.2026069  23.4530377  69.1073751
  54.0784766  24.0392822  69.7423569  54.8544353  22.9590573  69.4086026
  54.2799718  23.4669181  69.2459680  61.7612767  28.0348082  61.1842436
  62.2006402  27.4265182  61.6297209  61.6117430  27.6555455  60.4127901
  61.8034232  27.8886553  61.1361604  59.2284410  26.6292094  68.3861262
  59.8733412  26.1364537  68.0672210  59.4686187  26.7716880  69.2127340
  59.3594995  26.5769536  68.4610795  61.7670501  29.4747000  68.0368154
  62.0493744  28.6798405  67.8154910  62.4956661  29.9527587  68.0573215
  61.9160065  29.4281597  68.0071169  59.7451695  17.0170034  65.2783919
  59.4155025  17.4681177  64.6087618  59.0696697  16.9386197  65.8256926
  59.5962131  17.0721169  65.2607143  65.3622103  26.3875263  58.1373205
  65.2773398  27.2436230  58.2822774  65.8506486  26.1119587  58.8055365
  65.4211001  26.4732585  58.2575287  66.9528103  13.0055556  63.5233530
  66.6381544  13.6959035  63.9553952  66.4355044  12.9500339  62.8219031
  66.8292573  13.0990445  63.4830479  66.2940536  23.0060057  59.6370941
  65.7652008  23.2219691  60.2968247  66.8165556  23.6996196  59.5571910
  66.2928989  23.1403194  59.7226540  71.7488589  28.5806362  65.0103985
  70.9186292  28.7917005  65.1737402  71.6997842  27.7543416  64.7346269
  71.6195325  28.4895968  64.9941350  58.1840144  26.9023274  58.4378408
  57.5997359  27.4073306  58.8444272  57.7810239  26.6765661  57.6975000
  58.0379448  26.9431522  58.3883434  53.7384173  32.6178035  65.2402080
  53.2551751  33.3428525  65.2161664  54.5507491  32.9154165  65.3512238
  53.7874921  32.7680389  65.2529359  59.8098327  31.4110216  67.8451895
  59.2925269  31.0517631  67.2413203  60.5072718  30.8872390  67.8557961
  59.8363908  31.2807904  67.7582153  63.4661919  31.8605030  73.8068068
  63.5545265  31.6731170  74.6546278  63.8951631  31.2142460  73.4072914
  63.5424021  31.7368038  73.8739819  61.0332379  31.1436190  72.7885730
  60.4703213  30.7308800  73.3125391  61.7953402  31.0689096  73.2078873
  61.0626827  31.0713591  72.9278730  62.6417359  23.1488926  56.9147329
  62.8813362  23.3566910  56.1022672  62.9633200  22.3446435  57.0236274
  62.7254517  23.0603027  56.8107882  57.9507649  15.0782322  60.7606867
  58.7053617  15.4460639  60.5223917  57.7735184  15.4521876  61.5286047
  58.0362127  15.1880510  60.8391756  56.5928370  33.1334211  65.3922360
  57.2948949  32.6186200  65.4495116  56.5125853  33.4608363  66.1969235
  56.6852131  33.1048437  65.5195152  57.6407277  23.3709798  74.5202775
  57.8127780  23.2615693  75.3688056  58.1776634  24.0164204  74.2833967
  57.7452281  23.4501800  74.6107872  56.3064714  17.4852641  57.4584980
  56.1240287  17.7024522  56.6325973  57.1690327  17.5991654  57.5143594
  56.4069303  17.5342539  57.3439467  55.9179146  29.3240563  64.9007968
  56.7568045  29.5563496  64.9481730  55.9490915  28.4544875  64.8315003
  56.0460863  29.2297510  64.8972613  56.5431849  29.7441438  69.2021273
  57.0830074  29.6012569  69.8724646  55.8601795  30.1438189  69.5705300
  56.5224002  29.7821109  69.3555695  61.9864433  14.4879052  60.4934004
  62.7150593  14.3095007  60.0472160  62.0759326  15.3297131  60.7041182
  62.1071095  14.5862930  60.4587521  65.9672733  25.4232439  64.3966298
  66.7230248  25.8563953  64.4355207  66.0735058  24.7737209  64.9700934
  66.0942904  25.3909923  64.4864323  69.0052905  29.2505716  65.1468701
  68.5688136  29.2542459  65.9027672  68.6715820  29.9311215  64.7148278
  68.8915525  29.3518172  65.1949533  63.5781978  31.2914049  76.4711851
  64.3622395  31.4044897  76.8367593  63.3778573  30.4655186  76.6670537
  63.6648004  31.1860768  76.5546237  51.9468994  25.9641729  69.3555695
  51.6807409  25.1480846  69.5146685  51.9607558  26.0094885  68.4851211
  51.9093716  25.8498634  69.2509177  55.8526741  20.7626814  55.9707453
  55.1384918  20.4764993  56.3829886  56.3370709  21.1023439  56.6113841
  55.8186104  20.7708463  56.1263088  56.6967600  19.5020107  72.0022703
  56.0039397  19.0317087  72.2483434  57.3127927  19.2758412  72.5764410
  56.6852130  19.3987239  72.1231855  63.7352372  33.2024151  70.1178307
  62.9367617  32.9623651  70.3752175  64.1838383  33.2538544  70.8645354
  63.6826983  33.1746542  70.2663231  72.1397251  25.9686636  64.0388338
  72.8013685  25.4077305  63.9384246  71.4988663  25.4738667  64.3641029
  72.1426118  25.8123045  64.0720678  63.0274059  29.2656768  56.3469261
  63.4425207  28.9341791  55.6553757  62.1965988  29.0325670  56.2189398
  62.9662067  29.1828024  56.2260109  52.3562407  26.7500509  66.6367439
  52.1737981  26.7247395  65.7839731  53.0912076  27.2199446  66.6756348
  52.4376471  26.8161871  66.5165358  68.4262081  26.9852019  63.7800327
  68.6617671  27.1297217  62.9527177  68.5751645  27.7494427  64.1731840
  68.4827885  27.1191073  63.7163931  55.4208159  23.4685511  73.1449548
  56.1448131  23.4538542  73.6314443  55.5224295  24.1780867  72.6471516
  55.5426368  23.5710215  73.1428335  70.2552538  25.8253684  61.6169931
  70.5860755  26.3581325  61.0110025  70.8285626  25.8792572  62.2731882
  70.3886217  25.9123253  61.6247712  65.4684427  23.6718587  62.2993511
  65.5631282  24.4107881  62.7533136  64.8443271  23.2436063  62.7328075
  65.3893457  23.7179908  62.4301658  63.7236901  26.8504800  72.9483792
  64.2975763  26.2132044  73.1032356  63.6451705  26.8508882  72.0793449
  63.7970136  26.7569911  72.8430202  52.3233318  23.6294009  66.7866506
  52.9006820  23.4930460  67.4258751  51.6247379  23.1729793  67.0412090
  52.3054339  23.5416275  66.9188795  65.7207449  25.5167327  55.5330463
  65.6387611  25.5869514  56.3985450  66.3587169  26.0797071  55.3414203
  65.8027286  25.6106298  55.6320412  59.0800620  25.2828065  65.0004989
  58.8219864  24.4499800  64.9736289  59.1349103  25.5085678  64.1597489
  59.0500398  25.1925836  64.8725126  64.1601670  17.3856516  65.1009082
  63.4557997  16.8965701  65.2593001  64.2086644  17.3978990  64.2297526
  64.0631722  17.3146164  64.9948422  58.0535332  22.8365827  65.4869884
  57.4784923  22.9957996  66.1233845  57.6771008  22.2001237  65.0238334
  57.9138144  22.7663640  65.5124442  61.7208621  21.3089177  70.3462262
  61.3323053  20.8843394  69.6914453  61.0563319  21.5571326  70.8539289
  61.5655548  21.2827898  70.3250130  71.3631890  21.0664181  63.1210092
  71.1068455  20.2544123  62.9307975  72.2061204  21.0741749  62.8940280
  71.4497915  20.9476179  63.0594909  47.7992151  22.4805902  63.5014324
  47.8852403  22.1037770  64.2827854  48.4267948  22.1066348  63.0234283
  47.9048702  22.3691384  63.5459802  62.8247559  25.5387781  58.5439069
  63.6388198  25.8302674  58.4321841  62.7606700  24.8847644  57.9697362
  62.9350298  25.4852976  58.4427907  58.6955467  29.0109299  63.6711381
  59.3329414  28.7721046  64.2163175  59.1210539  29.2146458  62.9364542
  58.8531633  29.0060309  63.6428539  53.3868110  31.2497635  67.5545685
  53.4272255  31.5212486  66.7265465  53.9462634  31.7739543  67.9703473
  53.4751455  31.3673390  67.4937573  59.3358282  24.2311588  58.0086271
  59.7203435  24.0119295  58.7602816  59.0869902  25.0574534  58.1387347
  59.3560355  24.3209735  58.1387347  70.0693470  28.0058226  69.0196939
  69.7639287  28.7386283  69.3810255  69.3499685  27.5996156  68.7389725
  69.9180812  28.0539959  69.0310076  61.0776939  29.4881721  65.3505168
  61.1515947  29.3256893  66.2047017  61.8946445  29.6771911  65.1065649
  61.2093298  29.4918464  65.4403193  54.8382696  29.8339584  62.3799611
  54.0120813  30.0801321  62.2533890  54.8994687  29.7551665  63.2461669
  54.7256863  29.8584533  62.4888555  57.0558720  15.9008525  63.3395051
  56.1881145  15.9731125  63.4052660  57.3433924  16.7030604  63.5283026
  56.9698468  16.0302672  63.3769818  59.6181525  32.4516464  60.0818641
  59.9079823  32.0605446  59.3577868  60.3485006  32.6333169  60.5223916
  59.7688409  32.4210278  60.0401448  60.2076270  27.2534210  71.1671771
  59.7087964  27.9649978  71.2456660  61.0176494  27.5734877  71.1289934
  60.2532377  27.4061059  71.1728340  57.5587440  34.4283847  63.1478791
  57.3387736  34.1381202  63.9405458  57.3381962  33.7698802  62.6196703
  57.4935035  34.2883555  63.1867699  56.4704388  26.5157163  65.4134492
  56.1817636  25.8894635  65.9480220  57.3387736  26.4577451  65.4799173
  56.5564639  26.4144708  65.5025447  67.2582285  21.6591947  65.7316474
  66.9147051  20.9382282  66.0823724  67.3575328  21.4505798  64.8894832
  67.2224328  21.5216150  65.6588154  59.7255396  35.8013237  61.9309483
  60.3779454  35.2689679  62.1600509  59.0281005  35.4481889  62.3177357
  59.7186114  35.6702760  62.0221651  56.6736661  28.1552414  61.3376857
  57.4282629  28.5365453  61.5512320  56.0807274  28.6063558  61.7923554
  56.6973375  28.2781242  61.4359736  67.7195314  28.1217651  61.2740462
  68.2853347  28.7810861  61.1899005  67.0723218  28.4667349  61.7456864
  67.7074071  28.2699592  61.3313219  57.9934888  29.3260976  66.7116973
  57.4715641  29.4661267  67.3968837  58.3808908  28.5671640  66.9019090
  57.9738588  29.2346500  66.8418049  54.9826072  19.3766784  60.7811927
  54.6950867  19.0068055  60.0443875  55.6696540  19.8461640  60.5195632
  55.0414969  19.3913754  60.6327003  64.1901893  31.0656435  60.6977542
  63.9488568  30.3324296  60.2904606  64.3703225  31.6143292  60.0443875
  64.1809517  31.0378826  60.5407764  59.4201213  26.3564995  62.1098464
  59.2243996  26.9639729  61.5158767  59.6435559  25.6632939  61.6290138
  59.4235854  26.3442520  61.9514545  57.8179743  23.2419733  62.2279332
  58.5402395  23.4060891  61.7683138  57.3387736  23.9629397  62.1218672
  57.8543474  23.3717962  62.1444946  65.7773251  19.5783531  67.6076017
  64.9384351  19.6044810  67.3714280  65.8477618  20.2254267  68.1881364
  65.6641644  19.6779657  67.6585134  55.4687360  25.6477805  71.3333472
  55.9808457  25.9262058  70.6842232  55.1823702  26.3867099  71.6996285
  55.5022223  25.7980159  71.2923350  64.2242529  16.4768908  62.3403633
  64.9268882  16.2776657  61.8623591  63.9586718  15.7044851  62.6472476
  64.2889161  16.3331874  62.3149075  69.6530775  24.7851518  64.8937259
  69.5664749  24.9406944  65.7472038  69.1981255  25.4289594  64.5196664
  69.5734031  24.9027273  64.9644366  52.5554266  20.1547997  61.6297209
  52.6570403  20.9574158  61.9578184  53.3510153  19.9535333  61.3320289
  52.6882172  20.2433896  61.6332564  58.9871085  17.7404194  71.3934514
  58.7954282  17.7559328  72.2433937  59.8369681  17.9367868  71.3701168
  59.0846807  17.7718545  71.5157808  53.3717998  20.2695175  69.3718330
  53.2303490  19.4179116  69.4962838  53.6558562  20.3123836  68.5480536
  53.3925844  20.1494925  69.2685954  63.5256591  22.1062265  63.5162818
  63.2791305  22.0258016  64.3499607  63.8541714  21.3215733  63.3225346
  63.5377834  21.9788531  63.6110341  67.4204639  28.8145625  67.3049600
  67.2818999  29.5126670  67.8098342  66.6404637  28.6594281  66.9485781
  67.2847866  28.8945791  67.3275874  59.4853618  24.8418984  72.9285801
  59.6296994  25.4220192  72.2928911  59.8329266  25.2195281  73.6335656
  59.5581079  24.9839688  72.9384796  61.6573535  24.0409152  70.7110933
  60.9096849  24.2340167  70.3059211  61.8115061  23.2154372  70.4735054
  61.5695963  23.9474264  70.6156339  58.5581373  33.0321756  69.7946828
  58.7070937  32.4724672  69.1420233  59.3381375  33.1113757  70.1779347
  58.6955467  32.9607321  69.7543777  68.9158012  28.1723878  58.0666099
  68.5364821  27.3861016  58.0595388  68.2524258  28.7210735  57.9237743
  68.7616487  28.1368702  58.0446896  61.0834674  33.2036399  71.0731319
  61.0078345  32.5345209  71.6282107  61.0124533  33.9054187  71.5871985
  61.0615280  33.2081306  71.2308167  61.8975312  17.9359703  71.6006337
  62.3547926  18.6683677  71.7279129  61.9731641  17.5126168  72.3593593
  61.9766282  17.9816941  71.7307413  54.1408304  18.1825523  72.6895780
  53.6050493  17.5705881  73.0056548  54.2026068  18.7573659  73.3429447
  54.0703936  18.1772450  72.8331207  61.7404920  31.7237397  61.9054925
  62.5054812  31.4547041  61.5837589  61.6383010  31.2387408  62.6224988
  61.8386416  31.6126962  61.9634753  59.7757690  19.9261807  68.4448161
  58.9853765  19.7453267  68.7665497  60.1718313  19.1488760  68.4278455
  59.7174566  19.7849268  68.4900709  64.2623581  28.7549581  53.8854874
  65.0296566  28.8149706  53.4760726  63.8154890  28.1830023  53.4011193
  64.3097008  28.6786157  53.7532585  65.1601377  27.5604237  66.1707607
  64.4846378  27.3289469  66.6720994  65.1693753  26.9525420  65.5449712
  65.0619881  27.4363162  66.1523759  62.2895521  22.4022066  72.9271660
  62.2254662  23.2632023  72.7991796  62.4292708  22.0854059  72.1267211
  62.3010991  22.4822233  72.7899873  67.1618111  30.4169369  58.4017785
  67.2437949  31.2236356  58.0779236  67.6467853  30.4365329  59.1258558
  67.2455269  30.5390032  58.4604683  60.9714614  25.0954205  67.0687863
  60.5476864  25.2958704  66.3326881  60.7959470  24.2483053  67.1812162
  60.8825495  25.0002987  66.9761553  60.4726308  36.6104718  69.5309320
  60.9622238  35.9115508  69.3484984  59.9010540  36.3128588  70.1185377
  60.4610838  36.4630942  69.5910361  56.2597059  25.5906257  62.5015835
  56.4161679  25.5253060  63.3571827  56.5997652  26.3654809  62.2894515
  56.3330294  25.6955455  62.5970429  62.7976204  24.9664140  61.3709198
  63.3391749  24.4634522  61.8347819  63.1122763  24.9129335  60.5598684
  62.9240601  24.8843561  61.3193010  60.9662654  30.3581492  58.6549226
  61.0355474  29.4996030  58.7942227  61.7451109  30.5753373  58.3268251
  61.0915504  30.2634356  58.6266384  63.9465473  19.8600445  71.4231499
  64.1607443  19.2211359  70.8694853  63.3299373  20.3046269  70.9939361
  63.8870803  19.8310589  71.2781930  65.3570141  32.7819193  62.8685720
  64.9649933  32.4785908  62.1508586  65.5123214  33.6188283  62.6790673
  65.3223731  32.8603030  62.7342217  52.8331321  22.7741207  62.8176602
  53.2130286  23.1925752  62.1536870  52.2586686  23.3554663  63.1245446
  52.8042646  22.9219066  62.7653343  65.5209816  29.3469182  62.8091750
  65.1624471  29.5183825  63.5855783  65.0348527  29.8082388  62.2519749
  65.3968513  29.4408153  62.8417019  63.3380202  12.9700381  66.4118842
  62.4673760  12.9439102  66.3652151  63.5920543  12.7977573  65.5944687
  63.2473762  12.9410524  66.2838978  60.3098181  25.0268347  55.3491985
  60.5990706  25.8033230  55.6235559  60.3969980  24.5157079  56.0506484
  60.3652438  25.0660266  55.4934482  60.3629343  14.9806609  67.8692312
  59.8467831  14.2886800  67.9943891  59.8023271  15.6477386  67.8154911
  60.2035856  14.9769867  67.8798378  62.4321576  15.5199569  69.6985165
  62.0453329  15.5448601  70.4798694  61.9454513  14.9541248  69.2459681
  62.3034085  15.4395320  69.7473068  66.6814555  30.2373078  73.7558951
  67.3194276  29.7433274  73.4221407  66.0388647  30.1650479  73.1711178
  66.6808782  30.1532087  73.6201306  68.4071555  22.0862224  68.3224867
  67.9799164  21.9988573  67.5672966  67.7697608  22.1940000  68.9079711
  68.2501163  22.0894884  68.2970308  66.7368812  30.9292886  70.3964308
  67.5261190  30.5781951  70.5166389  66.9112410  31.7429275  70.1340942
  66.8789094  30.9978743  70.3752176  56.4762122  24.3401612  67.4492097
  55.6350129  24.2405486  67.6570991  56.6852130  25.1097092  67.8006417
  56.3826815  24.4393655  67.5319412  53.9537689  21.9621149  65.2776847
  53.5594387  22.0364161  64.5026957  53.3977806  22.3479095  65.8285209
  53.8140502  22.0302924  65.2444507  65.5902636  14.9402443  64.9580726
  65.7952230  14.8724751  65.8037723  65.2629060  15.7461264  64.8901904
  65.5717884  15.0488383  65.0740381  60.2878787  22.2683011  66.6989694
  59.9841925  21.7139000  67.3000102  59.5858208  22.4475221  66.2117728
  60.1394997  22.2127794  66.7159400  59.3444884  19.5783531  61.2634396
  59.6204619  18.8602444  60.8511964  59.9443554  20.1768451  61.0555502
  59.4738149  19.5603902  61.1715157  58.3497138  29.4832732  71.4061792
  58.2417493  29.4934794  72.2723850  58.5592920  30.3087512  71.2166746
  58.3647249  29.6073807  71.5065884  68.8436324  15.4934207  64.4383492
  68.2310637  15.9804609  64.8237224  68.9400499  14.8177698  64.9821143
  68.7674222  15.4652516  64.5762350  62.8455405  17.2497048  59.5380991
  63.2999151  17.4207609  60.2628836  63.3195451  16.6365159  59.1378767
  62.9823725  17.1847934  59.5854753  56.3670930  26.7345374  68.8683730
  55.7758864  27.3754873  68.8386745  57.1291954  27.1582992  68.8415029
  56.3919191  26.8921213  68.8598877  56.7631553  17.8947372  69.5351747
  57.2233035  17.9686302  70.2726871  56.8087660  18.6928626  69.1851569
  56.8382108  18.0241519  69.5924504  58.4114903  18.5614067  74.1023774
  58.0200468  17.9147414  74.5379552  58.5800766  19.1525502  74.7218030
  58.3785813  18.5528335  74.2586480  66.1260447  32.1854686  66.3015754
  65.9280135  32.6745500  65.6071965  65.5048158  32.3895927  66.8799887
  66.0048011  32.2871224  66.2838977  60.1868425  23.9539583  60.6425998
  60.9310470  24.3413859  60.8808948  60.3329121  23.1097008  60.8066486
  60.3179010  23.8870056  60.7019968  62.1048000  15.7489842  65.6757860
  61.2584045  15.9212649  65.5499210  62.1019133  14.9439185  66.0123688
  61.9795150  15.6550871  65.7068987  63.1746301  19.5265056  66.5419918
  62.7006255  19.0006818  67.0525229  63.5464437  18.9794529  65.9734779
  63.1596190  19.3681053  66.5335065  53.5519331  21.5236563  71.9103463
  54.4144944  21.4232272  71.8240793  53.2211114  20.9431272  71.3489036
  53.6304527  21.4228190  71.8148869  69.4383031  24.5867432  67.9526698
  69.1981254  23.7473847  67.9569125  69.9175038  24.6667598  68.6767472
  69.4735215  24.4748831  68.0601501  65.1029800  20.4201611  59.6045671
  64.5752819  20.5030355  58.9151380  65.5625509  21.1619482  59.6010316
  65.0931651  20.5422273  59.5020367  71.4388218  21.3668889  65.9055957
  71.1997988  21.3264723  65.0676742  71.6022120  22.2140041  66.0321678
  71.4278522  21.4860974  65.8009439  56.9121117  20.3479012  68.5713882
  56.2874187  20.3597404  67.9639834  56.5766712  20.8239187  69.2205122
  56.7706609  20.4197529  68.5770450  57.0962866  18.6904130  54.6286567
  56.7475670  19.3423856  55.0918116  56.6159311  18.6761243  53.9010438
  56.9733109  18.7847184  54.5897658  53.6246792  28.4079472  70.0117646
  53.0946717  27.7171911  70.0612621  53.8971886  28.3989657  69.1830354
  53.5871515  28.3046604  69.8965062  64.6566883  28.9905174  58.7355329
  65.3801082  29.4563287  58.5919902  64.2167474  29.0578784  57.9852926
  64.6982575  29.0689011  58.6040110  63.8253038  25.8502716  69.9856018
  63.2110031  25.3060767  70.2804653  64.3420323  25.3366953  69.5061834
  63.8108700  25.6939126  69.9580246  63.0649335  26.9206987  67.7200316
  62.6376943  26.2956705  67.2865752  63.0574280  26.6381908  68.5459323
  63.0008476  26.7859767  67.7780144  56.1811862  21.9572160  70.7888750
  56.3405349  21.2015484  71.1940472  56.0004756  22.5063099  71.4429488
  56.1777221  21.9265973  70.9451456  61.3935045  17.7975741  67.9342850
  61.4177532  17.2635853  67.2455630  61.6446518  17.2893050  68.5968441
  61.4344963  17.6436645  67.9307495  48.9042635  25.0807236  67.3685994
  48.7986084  25.0354080  66.5038078  48.1542855  25.4261017  67.6500279
  48.7778238  25.1248144  67.2823324  57.6736367  16.5246559  67.3148594
  57.7134739  17.0255766  68.0283302  56.8486032  16.6156953  67.0454518
  57.5575893  16.6128376  67.3799133  59.8565980  26.0907299  75.4168889
  59.0061610  26.2279014  75.5526534  60.0194108  25.3571078  75.8616591
  59.7549843  26.0021400  75.5024488  59.0950730  23.0407069  69.6122493
  58.2642660  23.2080887  69.4057742  59.0402248  22.6643020  70.3971379
  58.9640145  23.0096800  69.6971022  57.4686774  21.3162661  60.1412611
  57.6089735  21.8135125  60.8441253  57.9669307  20.6148955  60.2826825
  57.5627855  21.2864639  60.2664190  57.4986997  22.1829772  57.4705188
  58.1332076  22.7790197  57.4054650  57.5812607  21.8833229  58.2851058
  57.6043548  22.2270680  57.5808275  59.0765979  18.1143747  57.4450630
  59.3981821  17.6346830  56.7909892  59.3392923  18.9243393  57.2541442
  59.1632005  18.1633645  57.3206122  62.3062952  29.1362621  70.9649446
  61.7988043  29.6898468  71.4090077  62.0089598  29.1970911  70.1468221
  62.1867837  29.2268933  70.9097903  64.4725134  17.5015941  69.8074109
  64.8980206  17.0488467  69.1957635  63.8582128  16.9476012  70.0838897
  64.4453780  17.3529917  69.7579134  54.0039985  24.3797612  60.7394734
  54.5132214  24.9762120  61.1206040  54.4774257  24.1123586  60.0571154
  54.1483360  24.4283428  60.6949257  64.9170733  33.0525879  58.8953390
  64.2000042  32.8786741  58.4300627  65.5677470  32.8178451  58.3628876
  64.9072583  32.9921672  58.7482607  62.9119357  13.9731041  63.2164686
  62.2687675  13.8228687  63.7849825  62.5718764  13.7273386  62.4513791
  62.7664435  13.9143163  63.1867701  67.5018704  21.9290468  62.6394695
  66.8309894  22.4720170  62.5107760  68.1958454  22.3985323  62.3976389
  67.5047571  22.0788739  62.5850222  61.5505438  34.0687180  67.8706453
  61.3271092  33.3106009  68.2390479  61.0615281  34.0985201  67.1486893
  61.4448887  33.9609404  67.8183194  67.6646831  18.3846351  65.5485068
  68.0174441  17.9576074  66.2230867  66.8061633  18.2997195  65.6786144
  67.5896276  18.3091092  65.6680078  56.3630516  21.0153871  63.6067914
  55.6442505  21.4318004  63.8740778  56.7342879  21.5808110  63.0559553
  56.3122448  21.1603152  63.5650721  65.6630097  21.6481720  69.4969910
  65.6428024  21.4665015  70.3504689  65.7109298  22.5193738  69.4729494
  65.6664738  21.7498258  69.6193205  63.6076427  28.2368912  75.4218387
  63.5672282  27.5918589  74.8363543  64.4199745  28.1805529  75.7343799
  63.7219580  28.1327879  75.3815336  60.1983894  34.2887638  65.3243538
  59.7844293  33.6261768  64.9347379  60.8831269  34.4365497  64.8039232
  60.2382266  34.2128296  65.1900035  63.5649189  33.4477723  66.0767154
  63.1665472  33.5579993  65.3087974  62.9500408  33.6559789  66.6593714
  63.4148078  33.4951291  66.0498454  62.1377091  20.0551871  58.9441294
  61.5441930  20.3768867  58.3925861  62.1752368  19.2092966  58.7362400
  62.0551480  19.9776199  58.8324065  59.2954136  21.8665848  71.9768144
  58.7833039  21.2587031  72.3353176  59.1233632  22.5822441  72.4442120
  59.1943773  21.8829148  72.0984368  54.1419850  20.3103424  74.6270506
  53.9722441  20.9704799  74.0818713  53.6985800  20.5209985  75.3482995
  54.0519184  20.4389406  74.6532136  58.0679670  18.5507922  63.6697240
  58.5437036  18.9125002  63.0347421  57.5668269  19.2064389  63.9497383
  58.0645029  18.7002110  63.6173981  71.2991031  28.0229690  59.4610245
  71.6824637  28.7721046  59.6908342  70.5035145  28.2695509  59.2022234
  71.2384814  28.1699384  59.4567818  51.0421915  23.2150289  69.8858996
  50.4948634  22.5450935  70.0039864  51.8314293  22.8480137  69.9502463
  51.0774099  23.0615276  69.9127697  60.8906323  22.8757746  75.3822407
  61.6417650  23.1909423  75.6961961  61.0828900  22.6736917  74.5556329
  61.0297737  22.8925128  75.3065803  60.1106323  20.6949121  57.0370624
  60.4905288  20.7128751  56.2521739  59.3698919  21.1403110  56.9161471
  60.0575161  20.7630896  56.9034192  67.7391613  19.0031313  62.6246202
  67.7385840  18.8479969  63.4830479  67.5347793  19.8494300  62.5687588
  67.7091391  19.1051933  62.7434142  49.8008884  22.4271097  67.0405019
  49.6230645  21.9747706  67.7659935  49.5127906  23.2297259  67.2243497
  49.7321838  22.4793655  67.1748522  65.4632465  23.6828814  66.2782409
  65.9586131  22.9651810  66.2386430  64.6532241  23.3799612  66.1636896
  65.4176359  23.5326461  66.2556135  60.9091077  27.5326628  58.4279414
  60.1002400  27.2093301  58.3812723  61.4165986  26.8259850  58.3607662
  60.8640744  27.3807944  58.4109708  51.5381354  24.9598821  64.1526778
  50.6726874  24.9484511  64.0409549  51.6380170  24.7729044  64.9997917
  51.4255521  24.9304882  64.2615722  67.5284284  26.4332502  68.9659538
  67.9539356  25.9106924  68.4129963  67.1641204  27.0313339  68.4448161
  67.5370887  26.4442729  68.8068548  57.1638364  34.7296720  67.7256884
  57.4784923  35.5433108  67.7334665  57.5731777  34.3446938  68.3939043
  57.2706462  34.7925422  67.8260975  64.1162884  30.1466766  65.2960696
  64.5874062  30.8607029  65.4650681  64.4523062  29.5465516  65.8320565
  64.2357999  30.1638231  65.3993071  64.7536830  29.9384700  72.0588388
  64.2057776  29.3142584  71.7908453  65.2149859  30.1278972  71.3432468
  64.7404040  29.8743751  71.9138819  60.1025494  16.9210650  59.7198255
  60.9241188  17.0908963  59.4779950  59.6395144  17.0757911  58.9964553
  60.1556656  16.9692383  59.5769900  58.6920825  14.9153412  70.4996684
  59.2365238  14.5744539  71.0901026  58.7457761  15.7738873  70.6417969
  58.7809945  14.9908671  70.6078557  54.5051384  28.6769828  67.3735492
  55.1096242  28.6365662  66.7449313  54.2978697  29.5240980  67.4039548
  54.5640282  28.7957830  67.2851608  64.3195156  30.9435773  68.5897729
  65.1393530  30.7998739  68.8514025  64.0389234  31.5681972  69.1314167
  64.3991900  31.0146125  68.7085669  49.7402667  27.6604446  67.2434415
  49.6426945  26.8500717  67.5524472  50.5231536  27.6396239  66.8580683
  49.8418803  27.5371536  67.2321278  73.9908492  37.6876276  66.3093536
  73.1346387  37.8484774  66.3602653  74.0376145  36.8168340  66.3298597
  73.8707603  37.5827078  66.3199602  68.3749631  47.2238994  62.0730768
  67.6232531  46.8454532  61.8446813  68.8235643  47.2557427  61.3249578
  68.3299298  47.1724601  61.9288270  73.8274591  47.6464363  57.5016315
  73.4925960  48.3241285  57.0660537  74.3401462  47.2569674  56.9133186
  73.8540172  47.6888941  57.3503106  73.3678882  49.5978632  63.4427426
  73.7518262  50.1665531  62.9032202  73.3038024  48.8728142  62.9633242
  73.4152310  49.5754095  63.2921289  76.8360313  39.7468320  68.9525188
  77.3816273  40.4253406  69.0119157  76.7777189  39.6055781  68.0926769
  76.9076227  39.8260321  68.8337248  69.9534387  47.2357386  64.3393540
  70.0544750  46.4257740  64.6490668  69.3576133  47.1414332  63.7093219
  69.8806926  47.1022414  64.2919779  69.7935127  52.1534975  65.7408396
  70.4372583  52.5948139  66.1304555  70.1191383  51.3488401  65.6538655
  69.9366956  52.1000170  65.7853874  63.1499432  43.2577672  63.9645874
  62.9149616  42.4245325  63.8578143  63.2885073  43.5382338  63.1507075
  63.1355094  43.1761176  63.8288229  65.4489519  35.4263403  66.8630182
  64.8294551  34.8356050  66.6940196  65.3473383  36.0174838  66.2294505
  65.3427195  35.4267486  66.7435171  70.4955707  45.1646950  61.1128258
  70.8171548  45.7052157  60.5089566  71.1427803  44.5943721  61.2450548
  70.6381762  45.1606125  61.0435293  72.5457415  37.1662945  61.1962645
  73.2437580  37.3451072  61.6884108  72.8609747  36.6433284  60.5733034
  72.6952752  37.1156717  61.1764655  65.1758652  38.9715685  69.1073751
  65.0517349  39.5578130  69.7423569  65.8276937  38.4775880  69.4086026
  65.2532302  38.9854489  69.2459680  72.7345350  43.5533390  61.1842436
  73.1738986  42.9450490  61.6297209  72.5850013  43.1740763  60.4127901
  72.7766816  43.4071861  61.1361604  70.2016993  42.1477402  68.3861262
  70.8465996  41.6549845  68.0672210  70.4418770  42.2902188  69.2127340
  70.3327578  42.0954844  68.4610795  72.7403085  44.9932308  68.0368154
  73.0226327  44.1983713  67.8154910  73.4689245  45.4712895  68.0573215
  72.8892648  44.9466904  68.0071169  70.7184278  32.5355341  65.2783919
  70.3887608  32.9866485  64.6087618  70.0429280  32.4571505  65.8256926
  70.5694715  32.5906477  65.2607143  76.3354687  41.9060571  58.1373205
  76.2505982  42.7621538  58.2822774  76.8239070  41.6304895  58.8055365
  76.3943584  41.9917893  58.2575287  77.9260686  28.5240864  63.5233530
  77.6114127  29.2144343  63.9553952  77.4087628  28.4685647  62.8219031
  77.8025157  28.6175753  63.4830479  77.2673120  38.5245365  59.6370941
  76.7384591  38.7404999  60.2968247  77.7898140  39.2181504  59.5571910
  77.2661573  38.6588502  59.7226540  69.1572728  42.4208582  58.4378408
  68.5729943  42.9258613  58.8444272  68.7542823  42.1950969  57.6975000
  69.0112032  42.4616830  58.3883434  64.7116756  48.1363343  65.2402080
  64.2284335  48.8613833  65.2161664  65.5240075  48.4339473  65.3512238
  64.7607504  48.2865697  65.2529359  70.7830911  46.9295524  67.8451895
  70.2657852  46.5702939  67.2413203  71.4805302  46.4057698  67.8557961
  70.8096492  46.7993212  67.7582153  73.6149942  38.6674234  56.9147329
  73.8545946  38.8752218  56.1022672  73.9365783  37.8631743  57.0236274
  73.6987100  38.5788335  56.8107882  68.9240233  30.5967630  60.7606867
  69.6786201  30.9645947  60.5223917  68.7467767  30.9707184  61.5286047
  69.0094711  30.7065818  60.8391756  67.5660954  48.6519519  65.3922360
  68.2681533  48.1371508  65.4495116  67.4858437  48.9793670  66.1969235
  67.6584714  48.6233745  65.5195152  68.6139860  38.8895106  74.5202775
  68.7860364  38.7801001  75.3688056  69.1509218  39.5349511  74.2833967
  68.7184864  38.9687108  74.6107872  67.2797297  33.0037949  57.4584980
  67.0972870  33.2209830  56.6325973  68.1422910  33.1176962  57.5143594
  67.3801887  33.0527847  57.3439467  66.8911729  44.8425871  64.9007968
  67.7300629  45.0748804  64.9481730  66.9223498  43.9730183  64.8315003
  67.0193447  44.7482818  64.8972613  67.5164432  45.2626746  69.2021273
  68.0562657  45.1197877  69.8724646  66.8334378  45.6623497  69.5705300
  67.4956586  45.3006417  69.3555695  72.9597016  30.0064360  60.4934004
  73.6883177  29.8280315  60.0472160  73.0491909  30.8482439  60.7041182
  73.0803678  30.1048238  60.4587521  76.9405317  40.9417747  64.3966298
  77.6962832  41.3749261  64.4355207  77.0467641  40.2922517  64.9700934
  77.0675488  40.9095231  64.4864323  62.9201577  41.4827037  69.3555695
  62.6539992  40.6666154  69.5146685  62.9340141  41.5280193  68.4851211
  62.8826300  41.3683942  69.2509177  66.8259324  36.2812122  55.9707453
  66.1117501  35.9950301  56.3829886  67.3103293  36.6208747  56.6113841
  66.7918688  36.2893771  56.1263088  67.6700184  35.0205415  72.0022703
  66.9771980  34.5502395  72.2483434  68.2860511  34.7943720  72.5764410
  67.6584714  34.9172547  72.1231855  74.0006642  44.7842075  56.3469261
  74.4157791  44.4527099  55.6553757  73.1698572  44.5510978  56.2189398
  73.9394651  44.7013331  56.2260109  63.3294991  42.2685817  66.6367439
  63.1470564  42.2432703  65.7839731  64.0644660  42.7384754  66.6756348
  63.4109055  42.3347179  66.5165358  66.3940743  38.9870819  73.1449548
  67.1180715  38.9723850  73.6314443  66.4956879  39.6966175  72.6471516
  66.5158952  39.0895523  73.1428335  76.4417011  39.1903895  62.2993511
  76.5363865  39.9293189  62.7533136  75.8175854  38.7621371  62.7328075
  76.3626041  39.2365216  62.4301658  63.2965901  39.1479317  66.7866506
  63.8739404  39.0115768  67.4258751  62.5979963  38.6915101  67.0412090
  63.2786923  39.0601583  66.9188795  76.6940032  41.0352635  55.5330463
  76.6120195  41.1054822  56.3985450  77.3319753  41.5982379  55.3414203
  76.7759870  41.1291606  55.6320412  70.0533203  40.8013373  65.0004989
  69.7952448  39.9685108  64.9736289  70.1081686  41.0270986  64.1597489
  70.0232981  40.7111144  64.8725126  75.1334254  32.9041824  65.1009082
  74.4290580  32.4151009  65.2593001  75.1819228  32.9164298  64.2297526
  75.0364305  32.8331472  64.9948422  69.0267916  38.3551135  65.4869884
  68.4517507  38.5143304  66.1233845  68.6503592  37.7186544  65.0238334
  68.8870728  38.2848948  65.5124442  72.6941204  36.8274485  70.3462262
  72.3055637  36.4028702  69.6914453  72.0295903  37.0756634  70.8539289
  72.5388132  36.8013206  70.3250130  58.7724734  37.9991210  63.5014324
  58.8584986  37.6223078  64.2827854  59.4000532  37.6251656  63.0234283
  58.8781285  37.8876692  63.5459802  73.7980142  41.0573089  58.5439069
  74.6120781  41.3487982  58.4321841  73.7339284  40.4032952  57.9697362
  73.9082881  41.0038284  58.4427907  69.6688051  44.5294607  63.6711381
  70.3061998  44.2906354  64.2163175  70.0943122  44.7331766  62.9364542
  69.8264217  44.5245617  63.6428539  64.3600693  46.7682943  67.5545685
  64.4004838  47.0397794  66.7265465  64.9195217  47.2924851  67.9703473
  64.4484039  46.8858698  67.4937573  70.3090866  39.7496896  58.0086271
  70.6936018  39.5304603  58.7602816  70.0602486  40.5759842  58.1387347
  70.3292938  39.8395043  58.1387347  72.0509523  45.0067029  65.3505168
  72.1248531  44.8442201  66.2047017  72.8679029  45.1957219  65.1065649
  72.1825881  45.0103772  65.4403193  65.8115279  45.3524892  62.3799611
  64.9853397  45.5986629  62.2533890  65.8727271  45.2736973  63.2461669
  65.6989446  45.3769841  62.4888555  68.0291303  31.4193833  63.3395051
  67.1613729  31.4916433  63.4052660  68.3166507  32.2215912  63.5283026
  67.9431051  31.5487980  63.3769818  70.5914108  47.9701772  60.0818641
  70.8812407  47.5790754  59.3577868  71.3217589  48.1518477  60.5223916
  70.7420993  47.9395586  60.0401448  71.1808854  42.7719518  71.1671771
  70.6820547  43.4835286  71.2456660  71.9909078  43.0920185  71.1289934
  71.2264960  42.9246367  71.1728340  68.5320024  49.9469155  63.1478791
  68.3120319  49.6566509  63.9405458  68.3114546  49.2884110  62.6196703
  68.4667618  49.8068863  63.1867699  67.4436971  42.0342471  65.4134492
  67.1550220  41.4079943  65.9480220  68.3120319  41.9762759  65.4799173
  67.5297223  41.9330015  65.5025447  78.2314869  37.1777255  65.7316474
  77.8879635  36.4567590  66.0823724  78.3307911  36.9691106  64.8894832
  78.1956912  37.0401458  65.6588154  70.6987980  51.3198545  61.9309483
  71.3512038  50.7874987  62.1600509  70.0013588  50.9667197  62.3177357
  70.6918698  51.1888068  62.0221651  67.6469245  43.6737722  61.3376857
  68.4015213  44.0550761  61.5512320  67.0539857  44.1248866  61.7923554
  67.6705958  43.7966550  61.4359736  68.9667471  44.8446284  66.7116973
  68.4448225  44.9846575  67.3968837  69.3541491  44.0856948  66.9019090
  68.9471172  44.7531807  66.8418049  65.9558655  34.8952092  60.7811927
  65.6683451  34.5253363  60.0443875  66.6429123  35.3646948  60.5195632
  66.0147552  34.9099062  60.6327003  75.1634476  46.5841743  60.6977542
  74.9221152  45.8509604  60.2904606  75.3435809  47.1328600  60.0443875
  75.1542100  46.5564134  60.5407764  70.3933797  41.8750303  62.1098464
  70.1976579  42.4825037  61.5158767  70.6168142  41.1818247  61.6290138
  70.3968438  41.8627828  61.9514545  68.7912327  38.7605041  62.2279332
  69.5134979  38.9246199  61.7683138  68.3120320  39.4814705  62.1218672
  68.8276057  38.8903270  62.1444946  76.7505834  35.0968839  67.6076017
  75.9116935  35.1230118  67.3714280  76.8210202  35.7439575  68.1881364
  76.6374228  35.1964965  67.6585134  66.4419943  41.1663113  71.3333472
  66.9541040  41.4447366  70.6842232  66.1556286  41.9052407  71.6996285
  66.4754807  41.3165467  71.2923350  75.1975113  31.9954216  62.3403633
  75.9001465  31.7961965  61.8623591  74.9319301  31.2230159  62.6472476
  75.2621745  31.8517182  62.3149075  63.5286850  35.6733305  61.6297209
  63.6302986  36.4759466  61.9578184  64.3242737  35.4720641  61.3320289
  63.6614755  35.7619204  61.6332564  69.9603669  33.2589502  71.3934514
  69.7686866  33.2744636  72.2433937  70.8102265  33.4553176  71.3701168
  70.0579391  33.2903853  71.5157808  64.3450582  35.7880483  69.3718330
  64.2036074  34.9364424  69.4962838  64.6291145  35.8309144  68.5480536
  64.3658428  35.6680233  69.2685954  74.4989174  37.6247573  63.5162818
  74.2523889  37.5443324  64.3499607  74.8274297  36.8401041  63.3225346
  74.5110418  37.4973839  63.6110341  78.3937223  44.3330933  67.3049600
  78.2551582  45.0311978  67.8098342  77.6137221  44.1779589  66.9485781
  78.2580450  44.4131099  67.3275874  70.4586202  40.3604292  72.9285801
  70.6029577  40.9405500  72.2928911  70.8061850  40.7380589  73.6335656
  70.5313663  40.5024996  72.9384796  72.6306119  39.5594460  70.7110933
  71.8829433  39.7525475  70.3059211  72.7847644  38.7339680  70.4735054
  72.5428546  39.4659572  70.6156339  72.8707896  33.4545011  71.6006337
  73.3280510  34.1868985  71.7279129  72.9464225  33.0311476  72.3593593
  72.9498866  33.5002249  71.7307413  65.1140887  33.7010831  72.6895780
  64.5783077  33.0891189  73.0056548  65.1758652  34.2758967  73.3429447
  65.0436520  33.6957758  72.8331207  72.7137504  47.2422705  61.9054925
  73.4787395  46.9732349  61.5837589  72.6115594  46.7572716  62.6224988
  72.8119000  47.1312270  61.9634753  70.7490274  35.4447115  68.4448161
  69.9586349  35.2638575  68.7665497  71.1450897  34.6674067  68.4278455
  70.6907150  35.3034576  68.4900709  75.2356165  44.2734889  53.8854874
  76.0029150  44.3335014  53.4760726  74.7887474  43.7015331  53.4011193
  75.2829592  44.1971465  53.7532585  76.1333960  43.0789545  66.1707607
  75.4578962  42.8474777  66.6720994  76.1426336  42.4710728  65.5449712
  76.0352465  42.9548470  66.1523759  73.2628104  37.9207374  72.9271660
  73.1987245  38.7817330  72.7991796  73.4025292  37.6039367  72.1267211
  73.2743574  38.0007541  72.7899873  78.1350695  45.9354677  58.4017785
  78.2170532  46.7421664  58.0779236  78.6200437  45.9550637  59.1258558
  78.2187853  46.0575340  58.4604683  71.9447198  40.6139513  67.0687863
  71.5209447  40.8144012  66.3326881  71.7692053  39.7668361  67.1812162
  71.8558079  40.5188295  66.9761553  67.2329643  41.1091565  62.5015835
  67.3894262  41.0438368  63.3571827  67.5730236  41.8840117  62.2894515
  67.3062878  41.2140763  62.5970429  73.7708788  40.4849448  61.3709198
  74.3124333  39.9819829  61.8347819  74.0855347  40.4314643  60.5598684
  73.8973185  40.4028869  61.3193010  71.9395237  45.8766800  58.6549226
  72.0088058  45.0181338  58.7942227  72.7183692  46.0938681  58.3268251
  72.0648087  45.7819664  58.6266384  74.9198057  35.3785753  71.4231499
  75.1340027  34.7396667  70.8694853  74.3031956  35.8231577  70.9939361
  74.8603386  35.3495897  71.2781930  76.3302725  48.3004501  62.8685720
  75.9382517  47.9971216  62.1508586  76.4855797  49.1373591  62.6790673
  76.2956315  48.3788338  62.7342217  63.8063904  38.2926515  62.8176602
  64.1862869  38.7111060  62.1536870  63.2319269  38.8739971  63.1245446
  63.7775229  38.4404374  62.7653343  76.4942400  44.8654490  62.8091750
  76.1357054  45.0369133  63.5855783  76.0081110  45.3267696  62.2519749
  76.3701097  44.9593461  62.8417019  74.3112786  28.4885689  66.4118842
  73.4406344  28.4624410  66.3652151  74.5653127  28.3162881  65.5944687
  74.2206346  28.4595832  66.2838978  71.2830765  40.5453655  55.3491985
  71.5723290  41.3218538  55.6235559  71.3702564  40.0342387  56.0506484
  71.3385021  40.5845574  55.4934482  71.3361926  30.4991917  67.8692312
  70.8200415  29.8072108  67.9943891  70.7755855  31.1662694  67.8154911
  71.1768439  30.4955175  67.8798378  73.4054160  31.0384877  69.6985165
  73.0185913  31.0633908  70.4798694  72.9187097  30.4726556  69.2459681
  73.2766668  30.9580628  69.7473068  67.4494706  39.8586920  67.4492097
  66.6082713  39.7590794  67.6570991  67.6584714  40.6282400  67.8006417
  67.3559399  39.9578963  67.5319412  64.9270273  37.4806457  65.2776847
  64.5326971  37.5549469  64.5026957  64.3710390  37.8664403  65.8285209
  64.7873085  37.5488232  65.2444507  76.5635220  30.4587751  64.9580726
  76.7684813  30.3910059  65.8037723  76.2361644  31.2646572  64.8901904
  76.5450468  30.5673691  65.0740381  71.2611371  37.7868319  66.6989694
  70.9574508  37.2324307  67.3000102  70.5590792  37.9660529  66.2117728
  71.1127581  37.7313102  66.7159400  70.3177468  35.0968839  61.2634396
  70.5937202  34.3787752  60.8511964  70.9176137  35.6953759  61.0555502
  70.4470733  35.0789210  61.1715157  69.3229722  45.0018040  71.4061792
  69.2150077  45.0120102  72.2723850  69.5325503  45.8272820  71.2166746
  69.3379833  45.1259115  71.5065884  73.8187988  32.7682356  59.5380991
  74.2731735  32.9392917  60.2628836  74.2928034  32.1550467  59.1378767
  73.9556309  32.7033242  59.5854753  67.3403514  42.2530682  68.8683730
  66.7491447  42.8940180  68.8386745  68.1024537  42.6768300  68.8415029
  67.3651774  42.4106521  68.8598877  67.7364137  33.4132680  69.5351747
  68.1965618  33.4871609  70.2726871  67.7820243  34.2113934  69.1851569
  67.8114692  33.5426827  69.5924504  69.3847486  34.0799375  74.1023774
  68.9933052  33.4332722  74.5379552  69.5533349  34.6710810  74.7218030
  69.3518397  34.0713643  74.2586480  77.0993030  47.7039994  66.3015754
  76.9012719  48.1930808  65.6071965  76.4780741  47.9081235  66.8799887
  76.9780595  47.8056532  66.2838977  71.1601008  39.4724891  60.6425998
  71.9043053  39.8599167  60.8808948  71.3061705  38.6282316  60.8066486
  71.2911594  39.4055364  60.7019968  73.0780584  31.2675150  65.6757860
  72.2316629  31.4397957  65.5499210  73.0751716  30.4624493  66.0123688
  72.9527734  31.1736179  65.7068987  74.1478884  35.0450364  66.5419918
  73.6738839  34.5192126  67.0525229  74.5197020  34.4979837  65.9734779
  74.1328773  34.8866361  66.5335065  64.5251914  37.0421871  71.9103463
  65.3877527  36.9417580  71.8240793  64.1943697  36.4616580  71.3489036
  64.6037111  36.9413497  71.8148869  76.0762384  35.9386919  59.6045671
  75.5485403  36.0215663  58.9151380  76.5358092  36.6804790  59.6010316
  76.0664234  36.0607581  59.5020367  67.8853700  35.8664320  68.5713882
  67.2606771  35.8782712  67.9639834  67.5499295  36.3424495  69.2205122
  67.7439192  35.9382837  68.5770450  68.0695449  34.2089438  54.6286567
  67.7208253  34.8609163  55.0918116  67.5891895  34.1946551  53.9010438
  67.9465693  34.3032492  54.5897658  64.5979376  43.9264780  70.0117646
  64.0679300  43.2357219  70.0612621  64.8704469  43.9174965  69.1830354
  64.5604098  43.8231912  69.8965062  75.6299466  44.5090482  58.7355329
  76.3533665  44.9748595  58.5919902  75.1900057  44.5764092  57.9852926
  75.6715159  44.5874319  58.6040110  74.7985622  41.3688024  69.9856018
  74.1842615  40.8246075  70.2804653  75.3152906  40.8552261  69.5061834
  74.7841284  41.2124433  69.9580246  74.0381919  42.4392294  67.7200316
  73.6109527  41.8142013  67.2865752  74.0306863  42.1567216  68.5459323
  73.9741060  42.3045075  67.7780144  67.1544446  37.4757467  70.7888750
  67.3137933  36.7200792  71.1940472  66.9737339  38.0248407  71.4429488
  67.1509805  37.4451281  70.9451456  72.3667628  33.3161049  67.9342850
  72.3910116  32.7821161  67.2455630  72.6179102  32.8078358  68.5968441
  72.4077547  33.1621953  67.9307495  59.8775218  40.5992544  67.3685994
  59.7718667  40.5539388  66.5038078  59.1275438  40.9446325  67.6500279
  59.7510821  40.6433452  67.2823324  68.6468951  32.0431867  67.3148594
  68.6867322  32.5441074  68.0283302  67.8218615  32.1342261  67.0454518
  68.5308477  32.1313684  67.3799133  70.0683314  38.5592377  69.6122493
  69.2375244  38.7266195  69.4057742  70.0134831  38.1828328  70.3971379
  69.9372729  38.5282108  69.6971022  68.4419358  36.8347969  60.1412611
  68.5822319  37.3320433  60.8441253  68.9401891  36.1334263  60.2826825
  68.5360439  36.8049947  60.2664190  68.4719580  37.7015080  57.4705188
  69.1064660  38.2975505  57.4054650  68.5545191  37.4018537  58.2851058
  68.5776131  37.7455988  57.5808275  70.0498563  33.6329055  57.4450630
  70.3714404  33.1532138  56.7909892  70.3125507  34.4428701  57.2541442
  70.1364588  33.6818953  57.3206122  75.4457718  33.0201249  69.8074109
  75.8712790  32.5673775  69.1957635  74.8314711  32.4661320  70.0838897
  75.4186363  32.8715225  69.7579134  64.9772568  39.8982920  60.7394734
  65.4864797  40.4947428  61.1206040  65.4506840  39.6308894  60.0571154
  65.1215944  39.9468736  60.6949257  75.8903316  48.5711187  58.8953390
  75.1732626  48.3972049  58.4300627  76.5410054  48.3363759  58.3628876
  75.8805167  48.5106980  58.7482607  73.8851941  29.4916349  63.2164686
  73.2420259  29.3413995  63.7849825  73.5451348  29.2458694  62.4513791
  73.7397018  29.4328471  63.1867701  72.5238021  49.5872488  67.8706453
  72.3003676  48.8291317  68.2390479  72.0347864  49.6170509  67.1486893
  72.4181470  49.4794712  67.8183194  67.3363100  36.5339179  63.6067914
  66.6175089  36.9503312  63.8740778  67.7075462  37.0993418  63.0559553
  67.2855032  36.6788460  63.5650721  76.6362681  37.1667028  69.4969910
  76.6160608  36.9850323  70.3504689  76.6841881  38.0379046  69.4729494
  76.6397322  37.2683566  69.6193205  71.1716478  49.8072946  65.3243538
  70.7576877  49.1447076  64.9347379  71.8563852  49.9550805  64.8039232
  71.2114850  49.7313604  65.1900035  74.5381772  48.9663031  66.0767154
  74.1398055  49.0765301  65.3087974  73.9232992  49.1745097  66.6593714
  74.3880661  49.0136599  66.0498454  73.1109674  35.5737179  58.9441294
  72.5174513  35.8954175  58.3925861  73.1484952  34.7278274  58.7362400
  73.0284063  35.4961507  58.8324065  75.9867491  35.5316683  62.3743044
  75.7581184  35.5549385  61.5321402  76.2465567  34.7074150  62.4938055
  75.9913679  35.4132763  62.2668242  70.2686719  37.3851156  71.9768144
  69.7565622  36.7772339  72.3353176  70.0966215  38.1007749  72.4442120
  70.1676356  37.4014456  72.0984368  65.1152434  35.8288732  74.6270506
  64.9455024  36.4890107  74.0818713  64.6718384  36.0395293  75.3482995
  65.0251768  35.9574714  74.6532136  69.0412253  34.0693230  63.6697240
  69.5169620  34.4310309  63.0347421  68.5400853  34.7249697  63.9497383
  69.0377612  34.2187418  63.6173981  71.0838906  36.2134429  57.0370624
  71.4637871  36.2314059  56.2521739  70.3431502  36.6588418  56.9161471
  71.0307744  36.2816204  56.9034192  78.7124197  34.5216621  62.6246202
  78.7118423  34.3665277  63.4830479  78.5080377  35.3679608  62.5687588
  78.6823975  34.6237241  62.7434142  60.7741468  37.9456405  67.0405019
  60.5963229  37.4933014  67.7659935  60.4860490  38.7482566  67.2243497
  60.7054421  37.9978963  67.1748522  76.4365049  39.2014122  66.2782409
  76.9318714  38.4837117  66.2386430  75.6264825  38.8984920  66.1636896
  76.3908942  39.0511769  66.2556135  71.8823661  43.0511936  58.4279414
  71.0734983  42.7278609  58.3812723  72.3898569  42.3445158  58.3607662
  71.8373327  42.8993252  58.4109708  62.5113938  40.4784129  64.1526778
  61.6459457  40.4669819  64.0409549  62.6112754  40.2914352  64.9997917
  62.3988105  40.4490190  64.2615722  78.5016868  41.9517810  68.9659538
  78.9271939  41.4292232  68.4129963  78.1373788  42.5498647  68.4448161
  78.5103470  41.9628037  68.8068548  68.1370948  50.2482027  67.7256884
  68.4517507  51.0618416  67.7334665  68.5464361  49.8632246  68.3939043
  68.2439046  50.3110730  67.8260975  75.0895467  45.6652074  65.2960696
  75.5606646  46.3792337  65.4650681  75.4255646  45.0650824  65.8320565
  75.2090582  45.6823538  65.3993071  71.0758077  32.4395958  59.7198255
  71.8973771  32.6094271  59.4779950  70.6127728  32.5943219  58.9964553
  71.1289239  32.4877691  59.5769900  69.6653409  30.4338720  70.4996684
  70.2097822  30.0929847  71.0901026  69.7190345  31.2924181  70.6417969
  69.7542528  30.5093979  70.6078557  65.4783968  44.1955136  67.3735492
  66.0828825  44.1550970  66.7449313  65.2711280  45.0426288  67.4039548
  65.5372865  44.3143138  67.2851608  60.7135250  43.1789753  67.2434415
  60.6159528  42.3686025  67.5524472  61.4964120  43.1581547  66.8580683
  60.8151387  43.0556844  67.2321278  77.7991908  51.7997429  55.9707453
  77.0850085  51.5135609  56.3829886  78.2835876  52.1394055  56.6113841
  77.7651271  51.8079079  56.1263088  69.7457318  53.5176518  63.5014324
  69.8317570  53.1408386  64.2827854  70.3733115  53.1436964  63.0234283
  69.8513869  53.4062000  63.5459802  76.9291239  50.4137400  60.7811927
  76.6416034  50.0438671  60.0443875  77.6161707  50.8832256  60.5195632
  76.9880136  50.4284370  60.6327003  74.5019433  51.1918613  61.6297209
  74.6035570  51.9944774  61.9578184  75.2975320  50.9905949  61.3320289
  74.6347339  51.2804512  61.6332564  74.7796488  53.8111823  62.8176602
  75.1595453  54.2296368  62.1536870  74.2051853  54.3925279  63.1245446
  74.7507813  53.9589682  62.7653343  75.9505152  55.4168228  60.7394734
  76.4597381  56.0132736  61.1206040  76.4239424  55.1494202  60.0571154
  76.0948527  55.4654044  60.6949257  78.3095683  52.0524487  63.6067914
  77.5907673  52.4688619  63.8740778  78.6808046  52.6178726  63.0559553
  78.2587615  52.1973768  63.5650721  57.0967872   8.6431817  49.0070815
  56.3450771   8.2647355  48.7786860  57.5453883   8.6750251  48.2589625
  57.0517538   8.5917424  48.8628317  62.5492832   9.0657186  44.4356362
  62.2144200   9.7434108  44.0000584  63.0619702   8.6762498  43.8473233
  62.5758413   9.1081765  44.2843153  62.0897123  11.0171455  50.3767473
  62.4736502  11.5858354  49.8372248  62.0256264  10.2920965  49.8973289
  62.1370550  10.9946919  50.2261336  58.6752628   8.6550209  51.2733587
  58.7762991   7.8450563  51.5830715  58.0794373   8.5607156  50.6433266
  58.6025167   8.5215237  51.2259825  58.5153367  13.5727798  52.6748443
  59.1590823  14.0140962  53.0644601  58.8409623  12.7681224  52.5878702
  58.6585196  13.5192993  52.7193920  51.8717672   4.6770496  50.8985921
  51.6367857   3.8438148  50.7918189  52.0103313   4.9575161  50.0847122
  51.8573335   4.5953999  50.7628276  59.2173947   6.5839773  48.0468305
  59.5389788   7.1244980  47.4429613  59.8646044   6.0136545  48.1790595
  59.3600002   6.5798948  47.9775340  53.4334997   9.5556166  52.1742127
  52.9502575  10.2806656  52.1501710  54.2458315   9.8532297  52.2852285
  53.4825745   9.7058520  52.1869406  59.5049151   8.3488347  54.7791941
  58.9876093   7.9895762  54.1753249  60.2023542   7.8250522  54.7898007
  59.5314732   8.2186035  54.6922200  63.1612743   8.7983161  60.7408114
  63.2496089   8.6109302  61.5886325  63.5902455   8.1520591  60.3412961
  63.2374845   8.6746169  60.8079866  60.7283203   8.0814321  59.7225777
  60.1654037   7.6686931  60.2465438  61.4904226   8.0067227  60.1418920
  60.7577651   8.0091722  59.8618777  56.2879194  10.0712342  52.3262407
  56.9899773   9.5564331  52.3835163  56.2076677  10.3986494  53.1309282
  56.3802955  10.0426569  52.4535199  55.6129970   6.2618694  51.8348015
  56.4518869   6.4941627  51.8821776  55.6441739   5.3923006  51.7655050
  55.7411687   6.1675641  51.8312659  56.2382673   6.6819570  56.1361320
  56.7780897   6.5390701  56.8064693  55.5552619   7.0816320  56.5045346
  56.2174826   6.7199240  56.2895742  63.2732802   8.2292180  63.4051898
  64.0573219   8.3423028  63.7707640  63.0729397   7.4033317  63.6010584
  63.3598828   8.1238900  63.4886284  63.4303195  10.1402282  57.0518354
  62.6318441   9.9001782  57.3092222  63.8789207  10.1916675  57.7985401
  63.3777807  10.1124673  57.2003278  52.0513231   3.6878640  53.5707486
  51.8688804   3.6625526  52.7179778  52.7862900   4.1577578  53.6096395
  52.1327295   3.7540002  53.4505405  58.3906291   5.9487430  50.6051428
  59.0280238   5.7099177  51.1503221  58.8161363   6.1524589  49.8704589
  58.5482457   5.9438440  50.5768585  53.0818933   8.1875766  54.4885732
  53.1223079   8.4590617  53.6605511  53.6413458   8.7117674  54.9043520
  53.1702279   8.3051521  54.4277620  60.7727763   6.4259853  52.2845214
  60.8466771   6.2635024  53.1387064  61.5897269   6.6150042  52.0405696
  60.9044122   6.4296595  52.3743240  54.5333520   6.7717715  49.3139658
  53.7071637   7.0179453  49.1873937  54.5945511   6.6929796  50.1801716
  54.4207687   6.7962664  49.4228602  59.3132349   9.3894596  47.0158688
  59.6030647   8.9983577  46.2917914  60.0435830   9.5711300  47.4563963
  59.4639233   9.3588409  46.9741495  57.2538264  11.3661978  50.0818837
  57.0338560  11.0759333  50.8745504  57.0332786  10.7076933  49.5536750
  57.1885859  11.2261686  50.1207746  59.4206220  12.7391368  48.8649530
  60.0730278  12.2067810  49.0940556  58.7231829  12.3860020  49.2517404
  59.4136938  12.6080891  48.9561698  56.3687485   5.0930546  48.2716904
  57.1233453   5.4743585  48.4852367  55.7758098   5.5441689  48.7263601
  56.3924198   5.2159373  48.3699783  57.6885712   6.2639107  53.6457020
  57.1666465   6.4039399  54.3308884  58.0759732   5.5049771  53.8359137
  57.6689412   6.1724631  53.7758096  63.8852716   8.0034566  47.6317588
  63.6439392   7.2702427  47.2244653  64.0654049   8.5521423  46.9783922
  63.8760340   7.9756957  47.4747811  58.2532197   9.9699887  56.7286875
  58.4021761   9.4102803  56.0760280  59.0332199  10.0491889  57.1119394
  58.3906290   9.8985452  56.6883824  60.7785498  10.1414530  58.0071366
  60.7029169   9.4723340  58.5622154  60.7075357  10.8432318  58.5212032
  60.7566104  10.1459437  58.1648214  61.4355744   8.6615529  48.8394972
  62.2005636   8.3925172  48.5177636  61.3333834   8.1765539  49.5565035
  61.5337240   8.5505093  48.8974799  60.1677132  13.5482850  56.4649367
  60.6573062  12.8493639  56.2825031  59.5961364  13.2506720  57.0525424
  60.1561662  13.4009073  56.5250407  60.6613478   7.2959623  45.5889273
  60.7306298   6.4374162  45.7282274  61.4401933   7.5131504  45.2608298
  60.7866328   7.2012487  45.5606430  65.0520965   9.7197324  49.8025767
  64.6600757   9.4164040  49.0848633  65.2074037  10.5566414  49.6130720
  65.0174555   9.7981161  49.6682264  58.0447962   6.4210863  58.3401839
  57.9368317   6.4312925  59.2063897  58.2543744   7.2465644  58.1506793
  58.0598073   6.5451938  58.4405930  65.8211270   9.1232817  53.2355801
  65.6230959   9.6123632  52.5412012  65.1998982   9.3274059  53.8139934
  65.6998835   9.2249355  53.2179024  53.3197616   5.3457603  56.9457693
  52.7897541   4.6550042  56.9952667  53.5922710   5.3367788  56.1170401
  53.2822339   5.2424735  56.8305109  48.5993459   2.0185367  54.3026041
  48.4936908   1.9732212  53.4378125  47.8493679   2.3639148  54.5840326
  48.4729061   2.0626275  54.2163371  62.0013776   6.0740753  57.8989493
  61.4938867   6.6276599  58.3430123  61.7040422   6.1349043  57.0808267
  61.8818661   6.1647064  57.8437950  64.6121557   9.9904010  45.8293436
  63.8950866   9.8164873  45.3640674  65.2628294   9.7556583  45.2968922
  64.6023407   9.9299803  45.6822654  61.2456261  11.0065311  54.8046500
  61.0221916  10.2484140  55.1730526  60.7566105  11.0363332  54.0826939
  61.1399710  10.8987535  54.7523241  59.8934718  11.2265769  52.2583584
  59.4795117  10.5639899  51.8687426  60.5782093  11.3743628  51.7379279
  59.9333090  11.1506427  52.1240082  63.2600013  10.3855854  53.0107201
  62.8616296  10.4958125  52.2428021  62.6451232  10.5937921  53.5933761
  63.1098902  10.4329422  52.9838500  56.8589188  11.6674851  54.6596930
  57.1735747  12.4811239  54.6674712  57.2682601  11.2825069  55.3279090
  56.9657286  11.7303553  54.7601022  54.2002208   5.6147959  54.3075539
  54.8047066   5.5743793  53.6789360  53.9929521   6.4619111  54.3379595
  54.2591105   5.7335962  54.2191655  64.0145980   7.8813904  55.5237776
  64.8344354   7.7376870  55.7854071  63.7340058   8.5060103  56.0654214
  64.0942724   7.9524256  55.6425716  49.4353490   4.5982577  54.1774462
  49.3377768   3.7878848  54.4864519  50.2182360   4.5774370  53.7920730
  49.5369627   4.4749667  54.1661325  73.6859316  14.6254407  53.2433583
  72.8297211  14.7862905  53.2942700  73.7326969  13.7546471  53.2638644
  73.5658427  14.5205209  53.2539649  68.0700455  24.1617125  49.0070815
  67.3183355  23.7832663  48.7786860  68.5186467  24.1935558  48.2589625
  68.0250122  24.1102732  48.8628317  73.5225415  24.5842494  44.4356362
  73.1876784  25.2619416  44.0000584  74.0352286  24.1947806  43.8473233
  73.5490996  24.6267073  44.2843153  73.0629706  26.5356763  50.3767473
  73.4469086  27.1043662  49.8372248  72.9988848  25.8106273  49.8973289
  73.1103134  26.5132226  50.2261336  76.5311137  16.6846451  55.8865235
  77.0767097  17.3631538  55.9459204  76.4728013  16.5433912  55.0266816
  76.6027051  16.7638453  55.7677295  69.6485211  24.1735517  51.2733587
  69.7495574  23.3635871  51.5830715  69.0526957  24.0792463  50.6433266
  69.5757750  24.0400545  51.2259825  69.4885951  29.0913106  52.6748443
  70.1323406  29.5326270  53.0644601  69.8142207  28.2866532  52.5878702
  69.6317780  29.0378301  52.7193920  62.8450256  20.1955804  50.8985921
  62.6100440  19.3623456  50.7918189  62.9835896  20.4760469  50.0847122
  62.8305918  20.1139307  50.7628276  65.1440343  12.3641534  53.7970228
  64.5245375  11.7734181  53.6280243  65.0424207  12.9552969  53.1634552
  65.0378019  12.3645617  53.6775218  70.1906531  22.1025081  48.0468305
  70.5122372  22.6430288  47.4429613  70.8378627  21.5321852  48.1790595
  70.3332586  22.0984256  47.9775340  72.2408239  14.1041076  48.1302692
  72.9388404  14.2829204  48.6224155  72.5560571  13.5811415  47.5073081
  72.3903576  14.0534848  48.1104702  64.8709476  15.9093816  56.0413797
  64.7468173  16.4956261  56.6763616  65.5227761  15.4154012  56.3426072
  64.9483126  15.9232620  56.1799727  72.4296174  20.4911521  48.1182483
  72.8689810  19.8828622  48.5637256  72.2800837  20.1118894  47.3467948
  72.4717640  20.3449992  48.0701650  69.8967817  19.0855533  55.3201308
  70.5416820  18.5927976  55.0012257  70.1369594  19.2280319  56.1467387
  70.0278402  19.0332975  55.3950842  72.4353909  21.9310439  54.9708201
  72.7177151  21.1361844  54.7494957  73.1640069  22.4091026  54.9913262
  72.5843472  21.8845036  54.9411216  70.4135102   9.4733473  52.2123966
  70.0838432   9.9244616  51.5427665  69.7380104   9.3949636  52.7596973
  70.2645539   9.5284608  52.1947189  76.0305511  18.8438702  45.0713252
  75.9456806  19.6999669  45.2162821  76.5189894  18.5683026  45.7395411
  76.0894408  18.9296024  45.1915334  76.9623944  15.4623497  46.5710987
  76.4335415  15.6783130  47.2308294  77.4848964  16.1559635  46.4911957
  76.9612397  15.5966633  46.6566587  68.8523552  19.3586713  45.3718455
  68.2680767  19.8636745  45.7784319  68.4493647  19.1329100  44.6315047
  68.7062856  19.3994962  45.3223481  64.4067580  25.0741474  52.1742127
  63.9235159  25.7991964  52.1501710  65.2190899  25.3717604  52.2852285
  64.4558328  25.2243828  52.1869406  70.4781734  23.8673655  54.7791941
  69.9608676  23.5081070  54.1753249  71.1756126  23.3435830  54.7898007
  70.5047316  23.7371343  54.6922200  74.1345326  24.3168469  60.7408114
  74.2228672  24.1294610  61.5886325  74.5635039  23.6705899  60.3412961
  74.2107429  24.1931477  60.8079866  71.7015786  23.5999629  59.7225777
  71.1386621  23.1872239  60.2465438  72.4636810  23.5252535  60.1418920
  71.7310235  23.5277030  59.8618777  73.3100766  15.6052365  43.8487376
  73.5496770  15.8130349  43.0362719  73.6316607  14.8009874  43.9576320
  73.3937924  15.5166467  43.7447929  67.2611778  25.5897650  52.3262407
  67.9632357  25.0749639  52.3835163  67.1809261  25.9171802  53.1309282
  67.3535538  25.5611877  52.4535199  68.3090684  15.8273237  61.4542822
  68.4811188  15.7179132  62.3028103  68.8460042  16.4727643  61.2174014
  68.4135688  15.9065239  61.5447918  66.9748121   9.9416080  44.3925027
  66.7923694  10.1587961  43.5666020  67.8373734  10.0555093  44.4483641
  67.0752711   9.9905978  44.2779514  66.5862553  21.7804002  51.8348015
  67.4251452  22.0126935  51.8821776  66.6174322  20.9108314  51.7655050
  66.7144271  21.6860949  51.8312659  67.2115256  22.2004877  56.1361320
  67.7513481  22.0576009  56.8064693  66.5285202  22.6001628  56.5045346
  67.1907410  22.2384548  56.2895742  76.6356141  17.8795878  51.3306345
  77.3913656  18.3127392  51.3695253  76.7418465  17.2300648  51.9040981
  76.7626312  17.8473362  51.4204370  74.2465386  23.7477488  63.4051898
  75.0305802  23.8608336  63.7707640  74.0461980  22.9218625  63.6010584
  74.3331411  23.6424208  63.4886284  62.6152401  18.4205168  56.2895742
  62.3490816  17.6044285  56.4486732  62.6290965  18.4658324  55.4191257
  62.5777123  18.3062073  56.1849224  66.5210148  13.2190253  42.9047500
  65.8068325  12.9328432  43.3169932  67.0054117  13.5586879  43.5453887
  66.4869511  13.2271902  43.0603135  67.3651008  11.9583547  58.9362749
  66.6722804  11.4880526  59.1823481  67.9811335  11.7321851  59.5104457
  67.3535537  11.8550678  59.0571902  74.4035779  25.6587590  57.0518354
  73.6051025  25.4187090  57.3092222  74.8521791  25.7101983  57.7985401
  74.3510390  25.6309981  57.2003278  73.6957466  21.7220207  43.2809308
  74.1108615  21.3905230  42.5893804  72.8649396  21.4889109  43.1529445
  73.6345475  21.6391463  43.1600155  63.0245815  19.2063948  53.5707486
  62.8421388  19.1810834  52.7179778  63.7595484  19.6762886  53.6096395
  63.1059879  19.2725310  53.4505405  66.0891566  15.9248951  60.0789595
  66.8131539  15.9101981  60.5654489  66.1907703  16.6344306  59.5811563
  66.2109776  16.0273654  60.0768381  76.1367835  16.1282026  49.2333558
  76.2314689  16.8671320  49.6873183  75.5126678  15.6999502  49.6668122
  76.0576865  16.1743347  49.3641705  74.3920309  19.3068239  59.8823838
  74.9659170  18.6695483  60.0372402  74.3135112  19.3072321  59.0133496
  74.4653544  19.2133350  59.7770249  62.9916725  16.0857448  53.7206553
  63.5690228  15.9493899  54.3598798  62.2930787  15.6293233  53.9752137
  62.9737747  15.9979715  53.8528842  76.3890856  17.9730766  42.4670510
  76.3071019  18.0432953  43.3325497  77.0270577  18.5360510  42.2754250
  76.4710694  18.0669737  42.5660459  69.7484027  17.7391504  51.9345036
  69.4903272  16.9063239  51.9076335  69.8032510  17.9649117  51.0937536
  69.7183805  17.6489275  51.8065173  68.7218739  15.2929266  52.4209931
  68.1468331  15.4521435  53.0573892  68.3454416  14.6564676  51.9578381
  68.5821552  15.2227079  52.4464489  72.3892028  13.7652616  57.2802309
  72.0006461  13.3406834  56.6254500  71.7246726  14.0134765  57.7879336
  72.2338956  13.7391337  57.2590177  58.4675558  14.9369341  50.4354371
  58.5535810  14.5601210  51.2167901  59.0951356  14.5629787  49.9574329
  58.5732109  14.8254823  50.4799849  73.4930966  17.9951220  45.4779116
  74.3071605  18.2866113  45.3661887  73.4290108  17.3411083  44.9037409
  73.6033705  17.9416415  45.3767953  69.3638875  21.4672738  50.6051428
  70.0012822  21.2284485  51.1503221  69.7893946  21.6709897  49.8704589
  69.5215041  21.4623748  50.5768585  64.0551517  23.7061074  54.4885732
  64.0955662  23.9775925  53.6605511  64.6146041  24.2302982  54.9043520
  64.1434863  23.8236829  54.4277620  70.0041690  16.6875028  44.9426317
  70.3886842  16.4682734  45.6942863  69.7553310  17.5137973  45.0727394
  70.0243762  16.7773174  45.0727394  71.7460347  21.9445160  52.2845214
  71.8199355  21.7820332  53.1387064  72.5629853  22.1335350  52.0405696
  71.8776705  21.9481903  52.3743240  65.5066103  22.2903023  49.3139658
  64.6804221  22.5364760  49.1873937  65.5678094  22.2115104  50.1801716
  65.3940270  22.3147972  49.4228602  67.7242127   8.3571964  50.2735098
  66.8564552   8.4294564  50.3392707  68.0117331   9.1594043  50.4623073
  67.6381875   8.4866111  50.3109865  70.2864932  24.9079903  47.0158688
  70.5763231  24.5168885  46.2917914  71.0168413  25.0896608  47.4563963
  70.4371816  24.8773717  46.9741495  70.8759677  19.7097649  58.1011818
  70.3771371  20.4213417  58.1796707  71.6859902  20.0298316  58.0629981
  70.9215784  19.8624498  58.1068387  68.2270848  26.8847286  50.0818837
  68.0071143  26.5944641  50.8745504  68.0065370  26.2262241  49.5536750
  68.1618442  26.7446994  50.1207746  67.1387795  18.9720602  52.3474539
  66.8501044  18.3458074  52.8820266  68.0071143  18.9140890  52.4139220
  67.2248047  18.8708147  52.4365494  77.9265693  14.1155386  52.6656521
  77.5830459  13.3945721  53.0163771  78.0258735  13.9069237  51.8234879
  77.8907736  13.9779589  52.5928201  70.3938804  28.2576676  48.8649530
  71.0462862  27.7253118  49.0940556  69.6964412  27.9045328  49.2517404
  70.3869522  28.1266199  48.9561698  67.3420068  20.6115853  48.2716904
  68.0966036  20.9928893  48.4852367  66.7490681  21.0626997  48.7263601
  67.3656782  20.7344681  48.3699783  78.3878722  20.5781090  48.2080509
  78.9536755  21.2374300  48.1239052  77.7406625  20.9230788  48.6796911
  78.3757478  20.7263031  48.2653266  68.6618295  21.7824415  53.6457020
  68.1399049  21.9224707  54.3308884  69.0492315  21.0235079  53.8359137
  68.6421996  21.6909939  53.7758096  65.6509479  11.8330224  47.7151974
  65.3634275  11.4631494  46.9783922  66.3379947  12.3025079  47.4535679
  65.7098376  11.8477193  47.5667050  74.8585300  23.5219874  47.6317588
  74.6171976  22.7887735  47.2244653  75.0386633  24.0706731  46.9783922
  74.8492924  23.4942265  47.4747811  70.0884621  18.8128434  49.0438511
  69.8927403  19.4203168  48.4498814  70.3118966  18.1196378  48.5630185
  70.0919262  18.8005959  48.8854591  68.4863151  15.6983172  49.1619379
  69.2085803  15.8624330  48.7023185  68.0071143  16.4192837  49.0558719
  68.5226881  15.8281401  49.0784993  76.4456658  12.0346971  54.5416064
  75.6067759  12.0608249  54.3054327  76.5161026  12.6817706  55.1221411
  76.3325052  12.1343096  54.5925181  63.2237674  12.6111436  48.5637255
  63.3253810  13.4137597  48.8918231  64.0193560  12.4098772  48.2660336
  63.3565579  12.6997335  48.5672611  69.6554493  10.1967633  58.3274560
  69.4637690  10.2122767  59.1773984  70.5053089  10.3931307  58.3041215
  69.7530215  10.2281984  58.4497855  64.0401406  12.7258614  56.3058377
  63.8986898  11.8742555  56.4302885  64.3241969  12.7687275  55.4820583
  64.0609252  12.6058364  56.2026001  74.1939998  14.5625704  50.4502865
  73.9474712  14.4821455  51.2839654  74.5225121  13.7779172  50.2565393
  74.2061242  14.4351970  50.5450388  78.0888047  21.2709064  54.2389646
  77.9502406  21.9690110  54.7438389  77.3088045  21.1157720  53.8825828
  77.9531274  21.3509230  54.2615921  70.1537025  17.2982423  59.8625848
  70.2980401  17.8783631  59.2268958  70.5012674  17.6758720  60.5675703
  70.2264487  17.4403127  59.8724843  72.3256943  16.4972591  57.6450980
  71.5780257  16.6903606  57.2399258  72.4798468  15.6717811  57.4075101
  72.2379370  16.4037703  57.5496386  69.2264780  25.4885195  56.7286875
  69.3754344  24.9288111  56.0760280  70.0064783  25.5677197  57.1119394
  69.3638874  25.4170760  56.6883824  71.7518081  25.6599838  58.0071366
  71.6761752  24.9908648  58.5622154  71.6807940  26.3617626  58.5212032
  71.7298688  25.6644745  58.1648214  72.5658720  10.3923142  58.5346384
  73.0231334  11.1247116  58.6619176  72.6415049   9.9689607  59.2933639
  72.6449690  10.4380380  58.6647460  64.8091711  10.6388962  59.6235827
  64.2733901  10.0269320  59.9396595  64.8709476  11.2137098  60.2769494
  64.7387344  10.6335890  59.7671254  72.4088328  24.1800837  48.8394972
  73.1738219  23.9110480  48.5177636  72.3066418  23.6950847  49.5565035
  72.5069823  24.0690401  48.8974799  70.4441098  12.3825246  55.3788208
  69.6537173  12.2016706  55.7005543  70.8401721  11.6052199  55.3618502
  70.3857974  12.2412707  55.4240756  74.9306989  21.2113020  40.8194921
  75.6979974  21.2713145  40.4100773  74.4838297  20.6393462  40.3351240
  74.9780416  21.1349596  40.6872632  75.8284784  20.0167676  53.1047654
  75.1529786  19.7852908  53.6061041  75.8377160  19.4088859  52.4789759
  75.7303289  19.8926601  53.0863806  72.9578928  14.8585505  59.8611707
  72.8938069  15.7195462  59.7331843  73.0976116  14.5417498  59.0607258
  72.9694398  14.9385672  59.7239919  77.8301519  22.8732809  45.3357831
  77.9121356  23.6799795  45.0119282  78.3151261  22.8928768  46.0598605
  77.9138677  22.9953471  45.3944730  71.6398022  17.5517645  54.0027909
  71.2160271  17.7522144  53.2666928  71.4642877  16.7046492  54.1152209
  71.5508903  17.4566426  53.9101600  71.1409715  29.0668157  56.4649367
  71.6305646  28.3678947  56.2825031  70.5693948  28.7692027  57.0525424
  71.1294245  28.9194381  56.5250407  66.9280467  18.0469696  49.4355882
  67.0845086  17.9816499  50.2911874  67.2681060  18.8218249  49.2234562
  67.0013702  18.1518894  49.5310476  73.4659611  17.4227580  48.3049245
  74.0075157  16.9197961  48.7687866  73.7806171  17.3692774  47.4938730
  73.5924009  17.3407000  48.2533057  71.6346061  22.8144931  45.5889273
  71.7038882  21.9559470  45.7282274  72.4134516  23.0316812  45.2608298
  71.7598911  22.7197795  45.5606430  74.6148881  12.3163884  58.3571546
  74.8290850  11.6774798  57.8034900  73.9982780  12.7609708  57.9279407
  74.5554210  12.2874028  58.2121977  76.0253549  25.2382632  49.8025767
  75.6333341  24.9349348  49.0848633  76.1806621  26.0751722  49.6130720
  75.9907139  25.3166469  49.6682264  63.5014728  15.2304646  49.7516649
  63.8813693  15.6489191  49.0876916  62.9270093  15.8118102  50.0585492
  63.4726053  15.3782505  49.6993390  76.1893224  21.8032621  49.7431797
  75.8307878  21.9747264  50.5195829  75.7031934  22.2645827  49.1859796
  76.0651920  21.8971592  49.7757066  70.9781589  17.4831787  42.2832031
  71.2674114  18.2596669  42.5575606  71.0653388  16.9720518  42.9846531
  71.0335845  17.5223705  42.4274529  77.3497963  22.6936517  60.6898998
  77.9877683  22.1996713  60.3561454  76.7072054  22.6213918  60.1051225
  77.3492189  22.6095526  60.5541353  77.4052220  23.3856325  57.3304355
  78.1944598  23.0345390  57.4506436  77.5795817  24.1992714  57.0680988
  77.5472501  23.4542183  57.3092223  67.1445530  16.7965051  54.3832144
  66.3033537  16.6968925  54.5911037  67.3535538  17.5660531  54.7346464
  67.0510222  16.8957095  54.4659458  64.6221097  14.4184588  52.2116894
  64.2277795  14.4927600  51.4367004  64.0661214  14.8042534  52.7625256
  64.4823909  14.4866363  52.1784554  70.9562195  14.7246450  53.6329741
  70.6525332  14.1702439  54.2340149  70.2541616  14.9038660  53.1457775
  70.8078405  14.6691233  53.6499447  70.0128292  12.0346970  48.1974443
  70.2888026  11.3165883  47.7852010  70.6126961  12.6331890  47.9895549
  70.1421557  12.0167341  48.1055204  69.0180546  21.9396171  58.3401839
  68.9100901  21.9498233  59.2063897  69.2276327  22.7650951  58.1506793
  69.0330657  22.0637246  58.4405930  67.0354338  19.1908813  55.8023776
  66.4442271  19.8318312  55.7726791  67.7975361  19.6146431  55.7755076
  67.0602598  19.3484652  55.7938924  67.4314961  10.3510811  56.4691794
  67.8916442  10.4249741  57.2066918  67.4771067  11.1492065  56.1191615
  67.5065516  10.4804958  56.5264551  69.0798310  11.0177506  61.0363821
  68.6883875  10.3710853  61.4719599  69.2484173  11.6088941  61.6558077
  69.0469221  11.0091774  61.1926527  76.7943854  24.6418125  53.2355801
  76.5963543  25.1308940  52.5412012  76.1731565  24.8459367  53.8139934
  76.6731418  24.7434663  53.2179024  70.8551832  16.4103022  47.5766045
  71.5993877  16.7977298  47.8148995  71.0012529  15.5660447  47.7406533
  70.9862417  16.3433495  47.6360015  73.8429708  11.9828495  53.4759964
  73.3689663  11.4570257  53.9865275  74.2147844  11.4357968  52.9074826
  73.8279597  11.8244492  53.4675112  64.2202738  13.9800002  58.8443510
  65.0828351  13.8795711  58.7580840  63.8894521  13.3994711  58.2829082
  64.2987935  13.8791629  58.7488916  75.7713208  12.8765050  46.5385718
  75.2436227  12.9593794  45.8491427  76.2308916  13.6182921  46.5350363
  75.7615058  12.9985712  46.4360413  67.5804524  12.8042451  55.5053928
  66.9557595  12.8160843  54.8979881  67.2450119  13.2802626  56.1545169
  67.4390016  12.8760968  55.5110497  67.7646273  11.1467569  41.5626613
  67.4159077  11.7987295  42.0258163  67.2842719  11.1324682  40.8350485
  67.6416517  11.2410623  41.5237705  64.2930200  20.8642911  56.9457693
  63.7630124  20.1735350  56.9952667  64.5655293  20.8553096  56.1170401
  64.2554922  20.7610043  56.8305109  75.3250290  21.4468613  45.6695375
  76.0484489  21.9126726  45.5259949  74.8850881  21.5142223  44.9192972
  75.3665983  21.5252450  45.5380157  74.4936445  18.3066156  56.9196064
  73.8793439  17.7624206  57.2144700  75.0103730  17.7930392  56.4401880
  74.4792108  18.1502565  56.8920293  73.7332743  19.3770426  54.6540363
  73.3060351  18.7520144  54.2205798  73.7257687  19.0945348  55.4799370
  73.6691884  19.2423206  54.7120190  66.8495270  14.4135599  57.7228797
  67.0088756  13.6578923  58.1280519  66.6688163  14.9626538  58.3769535
  66.8460629  14.3829412  57.8791503  72.0618452  10.2539180  54.8682897
  72.0860940   9.7199292  54.1795677  72.3129926   9.7456489  55.5308488
  72.1028371  10.1000084  54.8647542  59.5726042  17.5370675  54.3026041
  59.4669491  17.4917519  53.4378125  58.8226262  17.8824456  54.5840326
  59.4461645  17.5811583  54.2163371  68.3419775   8.9809998  54.2488641
  68.3818146   9.4819205  54.9623349  67.5169439   9.0720392  53.9794564
  68.2259300   9.0691815  54.3139179  70.5249387  18.5470738  62.3508936
  69.6745018  18.6842453  62.4866581  70.6877515  17.8134517  62.7956638
  70.4233251  18.4584840  62.4364535  69.7634138  15.4970508  56.5462540
  68.9326068  15.6644326  56.3397788  69.7085655  15.1206459  57.3311426
  69.6323553  15.4660240  56.6311068  68.1370182  13.7726100  47.0752658
  68.2773143  14.2698564  47.7781299  68.6352715  13.0712394  47.2166872
  68.2311263  13.7428079  47.2004237  68.1670404  14.6393211  44.4045235
  68.8015484  15.2353636  44.3394697  68.2496015  14.3396668  45.2191105
  68.2726955  14.6834119  44.5148321  69.7449387  10.5707186  44.3790677
  70.0665228  10.0910269  43.7249939  70.0076331  11.3806832  44.1881488
  69.8315412  10.6197084  44.2546169  72.9746360  21.5926061  57.8989493
  72.4671451  22.1461907  58.3430123  72.6773006  21.6534350  57.0808267
  72.8551245  21.6832372  57.8437950  64.6723392  16.8361052  47.6734781
  65.1815621  17.4325559  48.0546086  65.1457664  16.5687025  46.9911200
  64.8166768  16.8846867  47.6289304  75.5854140  25.5089318  45.8293436
  74.8683450  25.3350181  45.3640674  76.2360878  25.2741891  45.2968922
  75.5755991  25.4485111  45.6822654  78.1702111  14.3853907  49.5734741
  77.4993301  14.9283609  49.4447807  78.8641862  14.8548762  49.3316436
  78.1730979  14.5352178  49.5190269  72.2188845  26.5250619  54.8046500
  71.9954499  25.7669448  55.1730526  71.7298688  26.5548640  54.0826939
  72.1132294  26.4172843  54.7523241  67.0313924  13.4717310  50.5407961
  66.3125913  13.8881443  50.8080825  67.4026286  14.0371549  49.9899599
  66.9805856  13.6166592  50.4990768  76.3313505  14.1045159  56.4309957
  76.3111432  13.9228454  57.2844736  76.3792705  14.9757178  56.4069541
  76.3348146  14.2061697  56.5533252  74.2759834  20.6932351  62.3558434
  74.2355689  20.0482028  61.7703589  75.0883153  20.6368968  62.6683846
  74.3902988  20.5891318  62.3155383  70.8667302  26.7451077  52.2583584
  70.4527701  26.0825207  51.8687426  71.5514676  26.8928936  51.7379279
  70.9065674  26.6691735  52.1240082  74.2332596  25.9041162  53.0107201
  73.8348879  26.0143433  52.2428021  73.6183816  26.1123229  53.5933761
  74.0831485  25.9514730  52.9838500  72.8060498  12.5115310  45.8781341
  72.2125337  12.8332307  45.3265908  72.8435776  11.6656405  45.6702447
  72.7234887  12.4339638  45.7664112  75.6818315  12.4694815  49.3083091
  75.4532008  12.4927516  48.4661449  75.9416391  11.6452282  49.4278101
  75.6864503  12.3510894  49.2008289  69.9637543  14.3229288  58.9108191
  69.4516446  13.7150471  59.2693223  69.7917039  15.0385880  59.3782167
  69.8627180  14.3392587  59.0324415  64.8103258  12.7666863  61.5610553
  64.6405848  13.4268238  61.0158760  64.3669208  12.9773424  62.2823042
  64.7202591  12.8952845  61.5872182  68.7363077  11.0071361  50.6037287
  69.2120444  11.3688441  49.9687468  68.2351677  11.6627828  50.8837429
  68.7328436  11.1565550  50.5514028  61.7105322  15.6713728  56.8199043
  61.1632042  15.0014374  56.9379911  62.4997701  15.3043576  56.8842510
  61.7457506  15.5178715  56.8467743  71.5589731  15.3321186  62.3162454
  72.3101058  15.6472862  62.6302008  71.7512307  15.1300356  61.4896376
  71.6981145  15.3488567  62.2405850  70.7789730  13.1512561  43.9710671
  71.1588695  13.1692190  43.1861785  70.0382326  13.5966549  43.8501518
  70.7258568  13.2194335  43.8374239  60.4692292  14.8834536  53.9745066
  60.2914053  14.4311145  54.6999981  60.1811314  15.6860698  54.1583543
  60.4005245  14.9357094  54.1088569  76.1315873  16.1392254  53.2122456
  76.6269538  15.4215249  53.1726476  75.3215649  15.8363051  53.0976943
  76.0859766  15.9889900  53.1896182  71.5774484  19.9890067  45.3619461
  70.7685807  19.6656740  45.3152770  72.0849393  19.2823289  45.2947709
  71.5324151  19.8371383  45.3449755  62.2064762  17.4162260  51.0866825
  61.3410281  17.4047950  50.9749596  62.3063578  17.2292483  51.9337964
  62.0938929  17.3868321  51.1955769  78.1967692  18.8895941  55.8999585
  78.6222763  18.3670363  55.3470010  77.8324612  19.4876779  55.3788208
  78.2054294  18.9006168  55.7408595  67.8321772  27.1860159  54.6596930
  68.1468331  27.9996547  54.6674712  68.2415185  26.8010377  55.3279090
  67.9389870  27.2488861  54.7601022  74.7846291  22.6030205  52.2300742
  75.2557469  23.3170468  52.3990728  75.1206470  22.0028956  52.7660612
  74.9041406  22.6201670  52.3333118  75.4220238  22.3948140  58.9928435
  74.8741184  21.7706023  58.7248500  75.8833266  22.5842412  58.2772514
  75.4087447  22.3307190  58.8478866  70.7708901   9.3774089  46.6538302
  71.5924595   9.5472402  46.4119997  70.3078552   9.5321350  45.9304600
  70.8240063   9.4255822  46.5109946  65.1734792  21.1333267  54.3075539
  65.7779649  21.0929101  53.6789360  64.9662104  21.9804419  54.3379595
  65.2323689  21.2521270  54.2191655  74.9878564  23.3999212  55.5237776
  75.8076938  23.2562178  55.7854071  74.7072642  24.0245411  56.0654214
  75.0675307  23.4709564  55.6425716  60.4086074  20.1167885  54.1774462
  60.3110352  19.3064156  54.4864519  61.1914944  20.0959678  53.7920730
  60.5102211  19.9934975  54.1661325  73.8182839  35.7141112  50.8985921
  73.5833024  34.8808764  50.7918189  73.9568480  35.9945777  50.0847122
  73.8038502  35.6324615  50.7628276  76.1172927  27.8826842  53.7970228
  75.4977958  27.2919489  53.6280243  76.0156790  28.4738277  53.1634552
  76.0110602  27.8830925  53.6775218  75.8442060  31.4279124  56.0413797
  75.7200757  32.0141569  56.6763616  76.4960344  30.9339320  56.3426072
  75.9215709  31.4417928  56.1799727  75.3800164  40.5926782  52.1742127
  74.8967742  41.3177272  52.1501710  76.1923482  40.8902912  52.2852285
  75.4290912  40.7429136  52.1869406  78.2344361  41.1082958  52.3262407
  78.9364941  40.5934947  52.3835163  78.1541844  41.4357110  53.1309282
  78.3268122  41.0797184  52.4535199  77.9480705  25.4601388  44.3925027
  77.7656278  25.6773269  43.5666020  78.8106318  25.5740401  44.4483641
  78.0485294  25.5091286  44.2779514  77.5595137  37.2989310  51.8348015
  78.3984036  37.5312243  51.8821776  77.5906906  36.4293622  51.7655050
  77.6876854  37.2046257  51.8312659  78.1847840  37.7190185  56.1361320
  78.7246065  37.5761316  56.8064693  77.5017786  38.1186936  56.5045346
  78.1639994  37.7569856  56.2895742  73.5884985  33.9390476  56.2895742
  73.3223400  33.1229593  56.4486732  73.6023549  33.9843632  55.4191257
  73.5509707  33.8247381  56.1849224  77.4942732  28.7375561  42.9047500
  76.7800909  28.4513740  43.3169932  77.9786700  29.0772186  43.5453887
  77.4602095  28.7457210  43.0603135  78.3383591  27.4768854  58.9362749
  77.6455388  27.0065834  59.1823481  78.9543918  27.2507159  59.5104457
  78.3268121  27.3735986  59.0571902  73.9978398  34.7249256  53.5707486
  73.8153972  34.6996142  52.7179778  74.7328067  35.1948193  53.6096395
  74.0792462  34.7910618  53.4505405  77.0624150  31.4434258  60.0789595
  77.7864122  31.4287289  60.5654489  77.1640287  32.1529614  59.5811563
  77.1842359  31.5458962  60.0768381  73.9649309  31.6042756  53.7206553
  74.5422811  31.4679207  54.3598798  73.2663370  31.1478540  53.9752137
  73.9470330  31.5165022  53.8528842  69.4408142  30.4554649  50.4354371
  69.5268394  30.0786518  51.2167901  70.0683939  30.0815095  49.9574329
  69.5464693  30.3440131  50.4799849  75.0284101  39.2246382  54.4885732
  75.0688246  39.4961233  53.6605511  75.5878625  39.7488290  54.9043520
  75.1167447  39.3422137  54.4277620  76.4798687  37.8088331  49.3139658
  75.6536805  38.0550068  49.1873937  76.5410678  37.7300412  50.1801716
  76.3672854  37.8333280  49.4228602  76.6242063  27.3515531  47.7151974
  76.3366858  26.9816802  46.9783922  77.3112531  27.8210387  47.4535679
  76.6830960  27.3662501  47.5667050  77.1103351  33.6226552  58.2673519
  77.6224448  33.9010805  57.6182279  76.8239694  34.3615846  58.6336332
  77.1438214  33.7728906  58.2263397  74.1970257  28.1296744  48.5637255
  74.2986394  28.9322905  48.8918231  74.9926144  27.9284080  48.2660336
  74.3298163  28.2182643  48.5672611  75.0133989  28.2443922  56.3058377
  74.8719481  27.3927863  56.4302885  75.2974553  28.2872583  55.4820583
  75.0341835  28.1243672  56.2026001  75.7824295  26.1574270  59.6235827
  75.2466484  25.5454628  59.9396595  75.8442059  26.7322406  60.2769494
  75.7119927  26.1521198  59.7671254  77.9013050  33.5655004  49.4355882
  78.0577670  33.5001807  50.2911874  78.2413644  34.3403556  49.2234562
  77.9746285  33.6704202  49.5310476  74.4747312  30.7489954  49.7516649
  74.8546277  31.1674499  49.0876916  73.9002677  31.3303410  50.0585492
  74.4458637  30.8967813  49.6993390  78.1178114  32.3150359  54.3832144
  77.2766120  32.2154233  54.5911037  78.3268121  33.0845839  54.7346464
  78.0242806  32.4142402  54.4659458  75.5953680  29.9369896  52.2116894
  75.2010378  30.0112908  51.4367004  75.0393797  30.3227842  52.7625256
  75.4556493  30.0051671  52.1784554  78.0086921  34.7094121  55.8023776
  77.4174855  35.3503620  55.7726791  78.7707945  35.1331739  55.7755076
  78.0335182  34.8669960  55.7938924  78.4047544  25.8696119  56.4691794
  78.8649026  25.9435049  57.2066918  78.4503651  26.6677373  56.1191615
  78.4798100  25.9990266  56.5264551  75.1935322  29.4985310  58.8443510
  76.0560935  29.3981019  58.7580840  74.8627105  28.9180019  58.2829082
  75.2720518  29.3976937  58.7488916  78.5537108  28.3227759  55.5053928
  77.9290178  28.3346151  54.8979881  78.2182703  28.7987934  56.1545169
  78.4122600  28.3946276  55.5110497  78.7378857  26.6652877  41.5626613
  78.3891661  27.3172603  42.0258163  78.2575302  26.6509990  40.8350485
  78.6149101  26.7595931  41.5237705  75.2662783  36.3828219  56.9457693
  74.7362708  35.6920658  56.9952667  75.5387877  36.3738404  56.1170401
  75.2287506  36.2795351  56.8305109  77.8227853  29.9320907  57.7228797
  77.9821340  29.1764231  58.1280519  77.6420747  30.4811846  58.3769535
  77.8193212  29.9014720  57.8791503  70.5458626  33.0555983  54.3026041
  70.4402075  33.0102827  53.4378125  69.7958846  33.4009764  54.5840326
  70.4194229  33.0996891  54.2163371  75.6455976  32.3546359  47.6734781
  76.1548205  32.9510867  48.0546086  76.1190248  32.0872333  46.9911200
  75.7899351  32.4032175  47.6289304  78.0046507  28.9902618  50.5407961
  77.2858496  29.4066751  50.8080825  78.3758870  29.5556857  49.9899599
  77.9538439  29.1351899  50.4990768  75.7835841  28.2852171  61.5610553
  75.6138432  28.9453546  61.0158760  75.3401791  28.4958732  62.2823042
  75.6935175  28.4138153  61.5872182  72.6837906  31.1899036  56.8199043
  72.1364625  30.5199682  56.9379911  73.4730284  30.8228884  56.8842510
  72.7190090  31.0364023  56.8467743  71.4424875  30.4019844  53.9745066
  71.2646637  29.9496453  54.6999981  71.1543898  31.2046006  54.1583543
  71.3737829  30.4542402  54.1088569  73.1797345  32.9347568  51.0866825
  72.3142865  32.9233258  50.9749596  73.2796161  32.7477791  51.9337964
  73.0671512  32.9053629  51.1955769  76.1467375  36.6518575  54.3075539
  76.7512233  36.6114409  53.6789360  75.9394688  37.4989727  54.3379595
  76.2056273  36.7706577  54.2191655  71.3818658  35.6353193  54.1774462
  71.2842936  34.8249464  54.4864519  72.1647527  35.6144986  53.7920730
  71.4834794  35.5120283  54.1661325  73.5133663  12.6519243  37.8325968
  73.2783848  11.8186895  37.7258236  73.6519304  12.9323908  37.0187168
  73.4989326  12.5702746  37.6968322  75.0750988  17.5304913  39.1082174
  74.5918566  18.2555403  39.0841757  75.8874306  17.8281044  39.2192331
  75.1241736  17.6807267  39.1209453  77.9295185  18.0461089  39.2602453
  78.6315764  17.5313078  39.3175210  77.8492668  18.3735241  40.0649329
  78.0218946  18.0175316  39.3875246  77.2545961  14.2367441  38.7688062
  78.0934860  14.4690374  38.8161823  77.2857730  13.3671753  38.6995097
  77.3827678  14.1424388  38.7652706  77.8798664  14.6568317  43.0701367
  78.4196889  14.5139448  43.7404739  77.1968610  15.0565067  43.4385393
  77.8590817  14.6947988  43.2235789  73.2835809  10.8768607  43.2235789
  73.0174224  10.0607724  43.3826779  73.2974373  10.9221763  42.3531304
  73.2460531  10.7625512  43.1189271  73.6929222  11.6627387  40.5047533
  73.5104796  11.6374273  39.6519825  74.4278891  12.1326325  40.5436442
  73.7743286  11.7288749  40.3845451  74.7234925  16.1624513  41.4225779
  74.7639070  16.4339365  40.5945558  75.2829449  16.6866422  41.8383567
  74.8118270  16.2800269  41.3617667  76.1749511  14.7466462  36.2479705
  75.3487628  14.9928200  36.1213983  76.2361502  14.6678543  37.1141763
  76.0623678  14.7711411  36.3568649  78.8954255  19.3410725  37.0158884
  78.6754551  19.0508080  37.8085551  78.6748777  18.6825680  36.4876797
  78.8301850  19.2010433  37.0547793  78.0103476  13.0679293  35.2056951
  78.7649444  13.4492332  35.4192414  77.4174089  13.5190436  35.6603648
  78.0340190  13.1908120  35.3039829  77.7037745  11.6472253  42.7363823
  77.1125679  12.2881751  42.7066838  78.4658769  12.0709870  42.7095123
  77.7286006  11.8048091  42.7278970  74.9613607  13.3206350  43.8797740
  74.4313532  12.6298789  43.9292714  75.2338701  13.3116535  43.0510448
  74.9238330  13.2173482  43.7645155  70.2409450   9.9934114  41.2366088
  70.1352899   9.9480959  40.3718172  69.4909670  10.3387895  41.5180373
  70.1145053  10.0375022  41.1503418  78.5005179  19.6423598  41.5936977
  78.8151738  20.4559986  41.6014759  78.9098592  19.2573816  42.2619136
  78.6073277  19.7052300  41.6941069  75.8418199  13.5896706  41.2415586
  76.4463057  13.5492540  40.6129406  75.6345512  14.4367858  41.2719641
  75.9007097  13.7084709  41.1531702  71.0769482  12.5731324  41.1114509
  70.9793760  11.7627595  41.4204565  71.8598351  12.5523117  40.7260777
  71.1785618  12.4498414  41.1001372  26.6160598  30.3518533  74.3465919
  26.5854603  31.2063170  74.5184189  27.2141947  30.0513826  74.9052063
  26.6997756  30.4335030  74.4540722  14.2001423  38.9756902  74.8656081
  13.4484322  38.5972440  74.6372126  14.6487434  39.0075335  74.1174892
  14.1551090  38.9242509  74.7213584  19.6526383  39.3982271  70.2941628
  19.3177751  40.0759193  69.8585851  20.1653253  39.0087583  69.7058500
  19.6791964  39.4406850  70.1428420  19.1930674  41.3496540  76.2352740
  19.5770053  41.9183439  75.6957515  19.1289815  40.6246050  75.7558556
  19.2404101  41.3272003  76.0846603  24.4377173  32.9270835  72.6184229
  24.3216699  33.6778521  73.0476367  25.2333059  32.6694788  72.8680316
  24.5381762  33.0005682  72.7188321  15.6186919  43.9052883  78.5333710
  16.2624374  44.3466047  78.9229868  15.9443174  43.1006309  78.4463969
  15.7618747  43.8518078  78.5779187  16.3207498  36.9164858  73.9053572
  16.6423339  37.4570065  73.3014880  16.9679595  36.3461629  74.0375861
  16.4633553  36.9124033  73.8360607  18.5597142  35.3051298  73.9767750
  18.9990777  34.6968399  74.4222523  18.4101805  34.9258671  73.2053215
  18.6018607  35.1589769  73.9286917  22.1606478  33.6578479  70.9298519
  22.0757773  34.5139446  71.0748088  22.6490861  33.3822803  71.5980678
  22.2195376  33.7435801  71.0500601  23.0924911  30.2763273  72.4296254
  22.5636383  30.4922907  73.0893560  23.6149931  30.9699412  72.3497224
  23.0913364  30.4106410  72.5151853  28.5472964  35.8509578  77.8029299
  27.7170668  36.0620222  77.9662715  28.4982217  35.0246632  77.5271582
  28.4179700  35.7599184  77.7866664  14.9824519  34.1726490  71.2303722
  14.3981735  34.6776522  71.6369586  14.5794614  33.9468877  70.4900314
  14.8363823  34.2134739  71.1808747  19.4401734  30.4192142  69.7072643
  19.6797737  30.6270126  68.8947986  19.7617575  29.6149651  69.8161587
  19.5238892  30.3306244  69.6033196  25.8037280  36.5208932  77.9394014
  25.3672511  36.5245675  78.6952986  25.4700195  37.2014431  77.5073592
  25.6899900  36.6221388  77.9874847  12.6511116  28.0330030  68.7632767
  11.9369293  27.7468209  69.1755199  13.1355084  28.3726656  69.4039154
  12.6170479  28.0411679  68.9188402  28.9381626  33.2389852  76.8313652
  29.5998060  32.6780521  76.7309560  28.2973038  32.7441883  77.1566343
  28.9410493  33.0826261  76.8645992  19.8258434  36.5359984  69.1394575
  20.2409582  36.2045007  68.4479071  18.9950363  36.3028886  69.0114712
  19.7646442  36.4531240  69.0185422  25.2246457  34.2555235  76.5725640
  25.4602046  34.4000434  75.7452491  25.3736020  35.0197643  76.9657154
  25.2812260  34.3894289  76.5089244  27.0536913  33.0956901  74.4095244
  27.3845130  33.6284541  73.8035339  27.6270001  33.1495788  75.0657195
  27.1870592  33.1826469  74.4173026  22.5191824  32.7870543  68.3255776
  22.4371986  32.8572730  69.1910763  23.1571544  33.3500287  68.1339517
  22.6011661  32.8809514  68.4245726  19.6231934  32.8090997  71.3364383
  20.4372573  33.1005890  71.2247154  19.5591075  32.1550860  70.7622676
  19.7334673  32.7556192  71.2353220  16.1342657  31.5014805  70.8011584
  16.5187810  31.2822511  71.5528129  15.8854278  32.3277750  70.9312661
  16.1544730  31.5912951  70.9312661  16.4165900  39.7219680  72.8743955
  16.7064198  39.3308662  72.1503181  17.1469381  39.9036385  73.3149230
  16.5672784  39.6913494  72.8326762  14.3571815  41.6987063  75.9404104
  14.1372111  41.4084418  76.7330771  14.1366337  41.0402018  75.4122017
  14.2919410  41.5586771  75.9793013  16.5239771  43.0716453  74.7234797
  17.1763829  42.5392895  74.9525823  15.8265380  42.7185105  75.1102671
  16.5170489  42.9405976  74.8146964  24.5179689  35.3920867  74.0665776
  25.0837722  36.0514077  73.9824319  23.8707593  35.7370565  74.5382178
  24.5058446  35.5402808  74.1238532  20.9886268  38.3359651  73.4902855
  20.7472943  37.6027512  73.0829920  21.1687600  38.8846508  72.8369188
  20.9793892  38.3082042  73.3333078  25.7142387  35.4427095  70.8591412
  25.3349196  34.6564232  70.8520702  25.0508633  35.9913952  70.7163057
  25.5600862  35.4071919  70.8372209  18.5389296  38.9940614  74.6980239
  19.3039187  38.7250257  74.3762903  18.4367385  38.5090624  75.4150301
  18.6370791  38.8830178  74.7560066  21.0607956  36.0252797  66.6780188
  21.8280941  36.0852922  66.2686040  20.6139265  35.4533239  66.1936507
  21.1081383  35.9489373  66.5457898  23.9602486  37.6872586  71.1943098
  24.0422324  38.4939572  70.8704549  24.4452228  37.7068545  71.9183872
  24.0439644  37.8093248  71.2529997  19.5960579  32.2367357  74.1634512
  20.1376124  31.7337738  74.6273133  19.9107138  32.1832551  73.3523997
  19.7224976  32.1546777  74.1118324  17.7647029  37.6284708  71.4474540
  17.8339849  36.7699247  71.5867540  18.5435484  37.8456589  71.1193565
  17.8899879  37.5337572  71.4191697  22.1554516  40.0522409  75.6611033
  21.7634308  39.7489124  74.9433899  22.3107589  40.8891499  75.4715987
  22.1208106  40.1306246  75.5267530  22.3194191  36.6172398  75.6017064
  21.9608846  36.7887041  76.3781096  21.8332902  37.0785604  75.0445062
  22.1952888  36.7111369  75.6342333  17.1082556  32.2971564  68.1417298
  17.3975081  33.0736446  68.4160873  17.1954355  31.7860295  68.8431798
  17.1636813  32.3363482  68.2859796  22.9244822  39.4557902  79.0941068
  22.7264510  39.9448717  78.3997279  22.3032533  39.6599144  79.6725201
  22.8032386  39.5574440  79.0764291  21.9014175  27.6904827  72.3970985
  21.3737194  27.7733571  71.7076694  22.3609884  28.4322698  72.3935630
  21.8916026  27.8125489  72.2945680  13.8947241  25.9607346  67.4211880
  13.5460045  26.6127072  67.8843430  13.4143686  25.9464459  66.6935751
  13.7717484  26.0550400  67.3822972  21.4551258  36.2608390  71.5280642
  22.1785457  36.7266503  71.3845215  21.0151849  36.3282000  70.7778239
  21.4966950  36.3392227  71.3965424  14.2971372  29.4532988  70.2630502
  14.9316451  30.0493413  70.1979963  14.3796982  29.1536445  71.0776372
  14.4027923  29.4973896  70.3733588  21.7155108  40.3229095  71.6878703
  20.9984417  40.1489957  71.2225941  22.3661845  40.0881668  71.1554189
  21.7056958  40.2624888  71.5407921  16.9968270  41.5590854  78.1168851
  16.5828668  40.8964984  77.7272693  17.6815644  41.7068713  77.5964545
  17.0366641  41.4831512  77.9825348  20.3633564  40.7180939  78.8692468
  19.9649847  40.8283210  78.1013288  19.7484783  40.9263005  79.4519028
  20.2132453  40.7654507  78.8423767  28.0975406  35.2932906  72.2535558
  28.4809012  36.0424262  72.4833655  27.3019520  35.5398726  71.9947548
  28.0369189  35.4402600  72.2493132  16.9090698  27.9652338  69.8295937
  17.2889663  27.9831967  69.0447052  16.1683294  28.4106326  69.7086785
  16.8559536  28.0334112  69.6959506  17.7075452  34.8029844  71.2204727
  16.8986775  34.4796517  71.1738037  18.2150361  34.0963066  71.1532976
  17.6625119  34.6511160  71.2035022  37.5893182  45.8703841  74.3465919
  37.5587186  46.7248478  74.5184189  38.1874531  45.5699134  74.9052063
  37.6730340  45.9520337  74.4540722  30.7892867  44.9579492  79.1018850
  29.9330762  45.1187990  79.1527967  30.8360520  44.0871556  79.1223911
  30.6691978  44.8530294  79.1124916  25.1734006  54.4942210  74.8656081
  24.4216906  54.1157748  74.6372126  25.6220018  54.5260643  74.1174892
  25.1283673  54.4427817  74.7213584  30.6258966  54.9167579  70.2941628
  30.2910335  55.5944501  69.8585851  31.1385837  54.5272891  69.7058500
  30.6524547  54.9592158  70.1428420  30.1663258  56.8681848  76.2352740
  30.5502637  57.4368747  75.6957515  30.1022399  56.1431358  75.7558556
  30.2136685  56.8457311  76.0846603  33.6344688  47.0171536  81.7450501
  34.1800648  47.6956622  81.8044471  33.5761564  46.8758997  80.8852083
  33.7060602  47.0963538  81.6262562  26.7518763  54.5060602  77.1318854
  26.8529125  53.6960956  77.4415982  26.1560508  54.4117548  76.5018532
  26.6791301  54.3725630  77.0845092  35.4109756  48.4456143  72.6184229
  35.2949282  49.1963829  73.0476367  36.2065643  48.1880096  72.8680316
  35.5114346  48.5190990  72.7188321  19.9483807  50.5280889  76.7571188
  19.7133991  49.6948541  76.6503456  20.0869448  50.8085554  75.9432388
  19.9339469  50.4464392  76.6213543  22.2473894  42.6966619  79.6555495
  21.6278926  42.1059266  79.4865510  22.1457758  43.2878054  79.0219818
  22.1411570  42.6970702  79.5360485  27.2940082  52.4350166  73.9053572
  27.6155923  52.9755373  73.3014880  27.9412178  51.8646937  74.0375861
  27.4366137  52.4309341  73.8360607  29.3441790  44.4366161  73.9887958
  30.0421955  44.6154288  74.4809422  29.6594122  43.9136500  73.3658348
  29.4937127  44.3859933  73.9689968  21.9743027  46.2418901  81.8999064
  21.8501724  46.8281346  82.5348883  22.6261312  45.7479097  82.2011339
  22.0516677  46.2557705  82.0384993  29.5329725  50.8236606  73.9767750
  29.9723361  50.2153706  74.4222523  29.3834388  50.4443979  73.2053215
  29.5751191  50.6775077  73.9286917  27.0001368  49.4180618  81.1786575
  27.6450371  48.9253061  80.8597524  27.2403145  49.5605404  82.0052654
  27.1311953  49.3658060  81.2536109  29.5387460  52.2635524  80.8293468
  29.8210702  51.4686929  80.6080224  30.2673620  52.7416111  80.8498529
  29.6877023  52.2170121  80.7996483  27.5168653  39.8058558  78.0709233
  27.1871984  40.2569701  77.4012932  26.8413655  39.7274721  78.6182239
  27.3679090  39.8609693  78.0532456  33.1339062  49.1763787  70.9298519
  33.0490357  50.0324754  71.0748088  33.6223445  48.9008111  71.5980678
  33.1927959  49.2621109  71.0500601  34.7245061  35.7944080  76.3158844
  34.4098502  36.4847559  76.7479266  34.2072003  35.7388863  75.6144344
  34.6009532  35.8878969  76.2755793  34.0657495  45.7948581  72.4296254
  33.5368967  46.0108215  73.0893560  34.5882515  46.4884720  72.3497224
  34.0645948  45.9291718  72.5151853  39.5205548  51.3694886  77.8029299
  38.6903251  51.5805530  77.9662715  39.4714800  50.5431940  77.5271582
  39.3912283  51.2784492  77.7866664  25.9557103  49.6911798  71.2303722
  25.3714318  50.1961830  71.6369586  25.5527198  49.4654185  70.4900314
  25.8096407  49.7320046  71.1808747  21.5101131  55.4066559  78.0327394
  21.0268710  56.1317049  78.0086977  22.3224450  55.7042689  78.1437551
  21.5591879  55.5568913  78.0454673  27.5815286  54.1998740  80.6377208
  27.0642227  53.8406155  80.0338516  28.2789677  53.6760914  80.6483274
  27.6080867  54.0696428  80.5507467  30.4134317  45.9377450  69.7072643
  30.6530321  46.1455434  68.8947986  30.7350158  45.1334959  69.8161587
  30.4971475  45.8491551  69.6033196  25.7224608  37.8670846  73.5532181
  26.4770576  38.2349163  73.3149231  25.5452142  38.2410400  74.3211360
  25.8079086  37.9769034  73.6317069  24.3645329  55.9222735  78.1847673
  25.0665908  55.4074724  78.2420430  24.2842812  56.2496887  78.9894549
  24.4569089  55.8936961  78.3120466  39.0159506  44.0165287  81.5979720
  38.1787927  44.0867474  81.8327314  38.9847737  44.0189781  80.7254022
  38.8877789  44.0275514  81.5039268  24.0781672  40.2741165  70.2510294
  23.8957245  40.4913046  69.4251286  24.9407285  40.3880178  70.3068908
  24.1786262  40.3231063  70.1364781  23.6896104  52.1129087  77.6933282
  24.5285004  52.3452020  77.7407043  23.7207873  51.2433399  77.6240317
  23.8177822  52.0186034  77.6897926  24.3148807  52.5329962  81.9946587
  24.8547032  52.3901093  82.6649959  23.6318753  52.9326713  82.3630613
  24.2940961  52.5709633  82.1481009  29.7581391  37.2767576  73.2859317
  30.4867552  37.0983531  72.8397474  29.8476284  38.1185655  73.4966496
  29.8788053  37.3751454  73.2512835  33.7389692  48.2120963  77.1891611
  34.4947207  48.6452477  77.2280520  33.8452017  47.5625733  77.7626247
  33.8659863  48.1798447  77.2789637  36.7769863  52.0394240  77.9394014
  36.3405095  52.0430983  78.6952986  36.4432779  52.7199739  77.5073592
  36.6632483  52.1406696  77.9874847  36.6967346  39.0808068  80.1823442
  37.3393255  39.1506173  80.7685358  36.9490367  38.4137291  79.6802984
  36.8289478  38.9934417  80.1950722  23.6243699  43.5515338  68.7632767
  22.9101876  43.2653517  69.1755199  24.1087668  43.8911963  69.4039154
  23.5903063  43.5596987  68.9188402  39.9114209  48.7575160  76.8313652
  40.5730643  48.1965829  76.7309560  39.2705621  48.2627191  77.1566343
  39.9143077  48.6011569  76.8645992  30.7991017  52.0545292  69.1394575
  31.2142166  51.7230315  68.4479071  29.9682947  51.8214194  69.0114712
  30.7379026  51.9716548  69.0185422  20.1279366  49.5389033  79.4292753
  19.9454939  49.5135919  78.5765045  20.8629035  50.0087970  79.4681662
  20.2093430  49.6050395  79.3090671  36.1979040  49.7740543  76.5725640
  36.4334629  49.9185741  75.7452491  36.3468604  50.5382951  76.9657154
  36.2544843  49.9079597  76.5089244  38.0269497  48.6142208  74.4095244
  38.3577714  49.1469849  73.8035339  38.6002585  48.6681096  75.0657195
  38.1603176  48.7011777  74.4173026  33.2401386  46.4607111  75.0918824
  33.3348240  47.1996405  75.5458450  32.6160230  46.0324587  75.5253389
  33.1610416  46.5068432  75.2226972  20.0950276  46.4182533  79.5791819
  20.6723779  46.2818984  80.2184065  19.3964338  45.9618317  79.8337404
  20.0771298  46.3304799  79.7114109  33.4924407  48.3055851  68.3255776
  33.4104570  48.3758038  69.1910763  34.1304128  48.8685595  68.1339517
  33.5744245  48.3994822  68.4245726  26.8517578  48.0716589  77.7930303
  26.5936823  47.2388324  77.7661602  26.9066061  48.2974202  76.9522803
  26.8217356  47.9814360  77.6650439  31.9318629  40.1745040  77.8934395
  31.2274955  39.6854225  78.0518314  31.9803603  40.1867514  77.0222840
  31.8348680  40.1034688  77.7873735  25.8252291  45.6254351  78.2795197
  25.2501882  45.7846520  78.9159158  25.4487967  44.9889761  77.8163648
  25.6855103  45.5552164  78.3049756  29.4925579  44.0977701  83.1387576
  29.1040012  43.6731918  82.4839767  28.8280278  44.3459850  83.6464602
  29.3372507  44.0716422  83.1175444  39.1348848  43.8552705  75.9135406
  38.8785413  43.0432647  75.7233289  39.9778162  43.8630273  75.6865593
  39.2214874  43.7364703  75.8520223  15.5709109  45.2694426  76.2939638
  15.6569361  44.8926295  77.0753168  16.1984907  44.8954872  75.8159596
  15.6765660  45.1579908  76.3385115  33.3151941  37.7952329  80.6511560
  33.6962453  37.1130501  81.0379434  32.5115225  37.5061932  80.4687225
  33.2528402  37.6519378  80.6815616  30.5964517  48.3276305  71.3364383
  31.4105156  48.6191198  71.2247154  30.5323659  47.6736168  70.7622676
  30.7067257  48.2741500  71.2353220  26.4672426  51.7997823  76.4636695
  27.1046373  51.5609570  77.0088488  26.8927497  52.0034982  75.7289855
  26.6248592  51.7948833  76.4353852  27.1075241  47.0200113  70.8011584
  27.4920393  46.8007819  71.5528129  26.8586861  47.8463058  70.9312661
  27.1277313  47.1098259  70.9312661  28.8493898  52.2770245  78.1430481
  28.9232906  52.1145417  78.9972331  29.6663404  52.4660435  77.8990963
  28.9810256  52.2806988  78.2328507  22.6099654  52.6228108  75.1724925
  21.7837772  52.8689845  75.0459203  22.6711646  52.5440189  76.0386983
  22.4973821  52.6473057  75.2813869  24.8275678  38.6897049  76.1320365
  23.9598104  38.7619649  76.1977974  25.1150882  39.4919128  76.3208340
  24.7415426  38.8191196  76.1695131  33.9508567  38.8374909  84.4631687
  34.6962159  38.6484719  84.0495112  33.5345871  39.3633147  83.9045543
  33.9993541  38.8877054  84.3196260  27.3898483  55.2404988  72.8743955
  27.6796782  54.8493970  72.1503181  28.1201964  55.4221693  73.3149230
  27.5405368  55.2098802  72.8326762  41.3270838  46.2084137  79.4137192
  41.8778759  45.5752206  79.6534284  41.3114953  46.7399530  80.1052696
  41.4056034  46.1933085  79.5516050  27.9793229  50.0422734  83.9597085
  27.4804922  50.7538502  84.0381973  28.7893453  50.3623401  83.9215247
  28.0249335  50.1949583  83.9653654  25.3304399  57.2172371  75.9404104
  25.1104694  56.9269726  76.7330771  25.1098921  56.5587326  75.4122017
  25.2651993  57.0772079  75.9793013  24.2421346  49.3045687  78.2059806
  23.9534595  48.6783159  78.7405533  25.1104694  49.2465975  78.2724486
  24.3281598  49.2033232  78.2950761  35.0299244  44.4480471  78.5241788
  34.6864010  43.7270806  78.8749037  35.1292287  44.2394322  77.6820146
  34.9941287  44.3104674  78.4513468  27.4972355  58.5901761  74.7234797
  28.1496413  58.0578203  74.9525823  26.7997963  58.2370413  75.1102671
  27.4903073  58.4591284  74.8146964  24.4453620  50.9440938  74.1302171
  25.1999588  51.3253977  74.3437634  23.8524232  51.3952082  74.5848868
  24.4690333  51.0669766  74.2285049  35.4912273  50.9106175  74.0665776
  36.0570306  51.5699385  73.9824319  34.8440176  51.2555873  74.5382178
  35.4791029  51.0588116  74.1238532  25.7651846  52.1149500  79.5042286
  25.2432600  52.2549791  80.1894151  26.1525866  51.3560164  79.6944404
  25.7455547  52.0235024  79.6343363  22.7543030  42.1655308  73.5737241
  22.4667826  41.7956579  72.8369188  23.4413498  42.6350164  73.3120946
  22.8131927  42.1802278  73.4252317  31.9618851  53.8544959  73.4902855
  31.7205527  53.1212820  73.0829920  32.1420184  54.4031816  72.8369188
  31.9526475  53.8267350  73.3333078  27.1918172  49.1453519  74.9023777
  26.9960954  49.7528253  74.3084080  27.4152517  48.4521463  74.4215451
  27.1952813  49.1331044  74.7439858  25.5896702  46.0308257  75.0204646
  26.3119354  46.1949415  74.5608452  25.1104695  46.7517922  74.9143986
  25.6260432  46.1606486  74.9370260  33.5490209  42.3672055  80.4001331
  32.7101310  42.3933334  80.1639594  33.6194577  43.0142791  80.9806677
  33.4358603  42.4668181  80.4510448  31.9959488  39.2657433  75.1328947
  32.6985840  39.0665181  74.6548905  31.7303676  38.4933375  75.4397790
  32.0606120  39.1220399  75.1074388  37.4247733  47.5740042  77.6862572
  37.3381708  47.7295468  78.5397351  36.9698213  48.2178118  77.3121978
  37.3450990  47.6915797  77.7569679  20.3271225  42.9436521  74.4222522
  20.4287361  43.7462682  74.7503498  21.1227112  42.7423857  74.1245603
  20.4599130  43.0322420  74.4257878  31.2973549  44.8950789  76.3088132
  31.0508264  44.8146540  77.1424921  31.6258672  44.1104257  76.1150659
  31.3094793  44.7677055  76.4035655  35.1921598  51.6034149  80.0974913
  35.0535957  52.3015195  80.6023656  34.4121596  51.4482805  79.7411095
  35.0564825  51.6834315  80.1201187  27.2570577  47.6307508  85.7211115
  27.4013952  48.2108716  85.0854225  27.6046225  48.0083805  86.4260970
  27.3298038  47.7728212  85.7310110  29.4290494  46.8297676  83.5036247
  28.6813808  47.0228691  83.0984525  29.5832019  46.0042896  83.2660368
  29.3412921  46.7362788  83.4081653  26.3298332  55.8210280  82.5872142
  26.4787895  55.2613196  81.9345546  27.1098334  55.9002281  82.9704661
  26.4672425  55.7495845  82.5469091  36.6874971  50.9612402  70.8591412
  36.3081780  50.1749540  70.8520702  36.0241216  51.5099259  70.7163057
  36.5333446  50.9257226  70.8372209  34.1419597  33.9038102  78.2625493
  34.2603165  34.3614566  77.5292796  33.9681773  33.0983363  77.9761711
  34.1338768  33.8531874  78.1126427  29.5121879  54.5125922  74.6980239
  30.2771770  54.2435565  74.3762903  29.4099969  54.0275932  75.4150301
  29.6103375  54.4015486  74.7560066  27.5474649  42.7150331  81.2373474
  26.7570724  42.5341791  81.5590810  27.9435272  41.9377284  81.2203769
  27.4891525  42.5737792  81.2826023  32.0340540  51.5438105  66.6780188
  32.8013525  51.6038230  66.2686040  31.5871849  50.9718547  66.1936507
  32.0813967  51.4674681  66.5457898  32.9318335  50.3492761  78.9632920
  32.2563337  50.1177993  79.4646307  32.9410711  49.7413944  78.3375025
  32.8336840  50.2251686  78.9449073  30.0612479  45.1910590  85.7196973
  29.9971620  46.0520547  85.5917110  30.2009667  44.8742583  84.9192525
  30.0727949  45.2710757  85.5825186  34.9335070  53.2057894  71.1943098
  35.0154907  54.0124880  70.8704549  35.4184812  53.2253853  71.9183872
  35.0172228  53.3278556  71.2529997  28.7431573  47.8842729  79.8613176
  28.3193822  48.0847228  79.1252195  28.5676428  47.0371577  79.9737476
  28.6542454  47.7891511  79.7686866  24.0314018  48.3794781  75.2941149
  24.1878637  48.3141584  76.1497141  24.3714611  49.1543333  75.0819828
  24.1047253  48.4843979  75.3895743  30.5693163  47.7552664  74.1634512
  31.1108708  47.2523046  74.6273133  30.8839722  47.7017859  73.3523997
  30.6957560  47.6732085  74.1118324  28.7379612  53.1470016  71.4474540
  28.8072433  52.2884554  71.5867540  29.5168067  53.3641897  71.1193565
  28.8632462  53.0522880  71.4191697  31.7182432  42.6488969  84.2156812
  31.9324402  42.0099883  83.6620166  31.1016331  43.0934793  83.7864674
  31.6587761  42.6199113  84.0707244  33.1287100  55.5707717  75.6611033
  32.7366892  55.2674432  74.9433899  33.2840172  56.4076807  75.4715987
  33.0940690  55.6491554  75.5267530  20.6048279  45.5629731  75.6101916
  20.9847244  45.9814276  74.9462183  20.0303644  46.1443187  75.9170759
  20.5759604  45.7107590  75.5578657  33.8821520  44.2578034  85.1540120
  33.0698202  43.9503925  85.2353292  34.3411455  43.7777034  85.7182832
  33.8301905  44.1414527  85.2494714  33.2926775  52.1357706  75.6017064
  32.9341429  52.3072349  76.3781096  32.8065485  52.5970912  75.0445062
  33.1685472  52.2296677  75.6342333  31.1097161  35.7588905  79.2044155
  30.2390719  35.7327626  79.1577465  31.3637502  35.5866097  78.3870001
  31.0190721  35.7299048  79.0764292  28.0815140  47.8156872  68.1417298
  28.3707665  48.5921754  68.4160873  28.1686939  47.3045603  68.8431798
  28.1369396  47.8548790  68.2859796  28.1346301  37.7695133  80.6617626
  27.6184790  37.0775325  80.7869205  27.5740230  38.4365910  80.6080224
  27.9752814  37.7658391  80.6723692  36.1788514  44.8750748  81.1150180
  35.7516122  44.7877097  80.3598280  35.5414567  44.9828524  81.7005024
  36.0218121  44.8783408  81.0895622  24.2479081  47.1290136  80.2417410
  23.4067088  47.0294010  80.4496304  24.4569089  47.8985616  80.5931731
  24.1543774  47.2282179  80.3244725  21.7254648  44.7509673  78.0702161
  21.3311346  44.8252685  77.2952271  21.1694765  45.1367619  78.6210523
  21.5857460  44.8191448  78.0369821  33.3619595  37.7290967  77.7506040
  33.5669188  37.6613275  78.5963037  33.0346019  38.5349788  77.6827217
  33.3434843  37.8376907  77.8665695  28.0595746  45.0571535  79.4915008
  27.7558883  44.5027524  80.0925416  27.3575167  45.2363745  79.0043042
  27.9111956  45.0016318  79.5084714  27.1161843  42.3672055  74.0559710
  27.3921577  41.6490968  73.6437277  27.7160512  42.9656975  73.8480816
  27.2455108  42.3492426  73.9640471  36.6153282  38.2822731  77.2308805
  36.0027596  38.7693133  77.6162537  36.7117457  37.6066222  77.7746457
  36.5391180  38.2541040  77.3687664  30.6172363  40.0385572  72.3306305
  31.0716110  40.2096133  73.0554149  31.0912409  39.4253683  71.9304080
  30.7540684  39.9736458  72.3780066  24.1387889  49.5233898  81.6609043
  23.5475822  50.1643397  81.6312058  24.9008912  49.9471516  81.6340343
  24.1636150  49.6809737  81.6524190  33.8977405  54.9743210  79.0941068
  33.6997094  55.4634024  78.3997279  33.2765116  55.1784451  79.6725201
  33.7764970  55.0759748  79.0764291  27.9585383  46.7428107  73.4351312
  28.7027428  47.1302383  73.6734262  28.1046080  45.8985532  73.5991800
  28.0895969  46.6758580  73.4945282  29.8764959  38.5378366  78.4683173
  29.0301004  38.7101173  78.3424523  29.8736091  37.7327709  78.8049002
  29.7512109  38.4439395  78.4994300  30.9463259  42.3153580  79.3345231
  30.4723214  41.7895342  79.8450542  31.3181395  41.7683053  78.7660093
  30.9313148  42.1569577  79.3260378  37.2099990  47.3755956  80.7452012
  36.9698213  46.5362371  80.7494438  37.6891997  47.4556122  81.4692785
  37.2452174  47.2637355  80.8526814  32.8746759  43.2090135  72.3970985
  32.3469778  43.2918879  71.7076694  33.3342467  43.9508006  72.3935630
  32.8648609  43.3310797  72.2945680  39.2105177  44.1557413  78.6981271
  38.9714947  44.1153247  77.8602056  39.3739078  45.0028565  78.8246992
  39.1995480  44.2749498  78.5934753  24.6838075  43.1367536  81.3639195
  24.0591146  43.1485928  80.7565148  24.3483670  43.6127711  82.0130435
  24.5423567  43.2086053  81.3695764  24.8679824  41.4792654  67.4211880
  24.5192628  42.1312380  67.8843430  24.3876270  41.4649767  66.6935751
  24.7450068  41.5735708  67.3822972  32.4283842  51.7793698  71.5280642
  33.1518040  52.2451811  71.3845215  31.9884433  51.8467308  70.7778239
  32.4699534  51.8577535  71.3965424  31.5969997  48.6391241  82.7781331
  30.9826990  48.0949291  83.0729966  32.1137282  48.1255477  82.2987147
  31.5825659  48.4827650  82.7505560  30.8366294  49.7095511  80.5125630
  30.4093902  49.0845229  80.0791065  30.8291238  49.4270432  81.3384637
  30.7725435  49.5748291  80.5705457  29.1652003  40.5864265  80.7268164
  29.1894491  40.0524377  80.0380944  29.4163477  40.0781574  81.3893754
  29.2061922  40.4325169  80.7232808  25.4453326  39.3135083  80.1073908
  25.4851697  39.8144290  80.8208615  24.6202990  39.4045477  79.8379831
  25.3292852  39.4016900  80.1724446  26.8667689  45.8295593  82.4047807
  26.0359619  45.9969411  82.1983055  26.8119206  45.4531544  83.1896692
  26.7357104  45.7985324  82.4896335  25.2403733  44.1051185  72.9337925
  25.3806694  44.6023649  73.6366566  25.7386266  43.4037479  73.0752138
  25.3344814  44.0753163  73.0589504  25.2703955  44.9718296  70.2630502
  25.9049035  45.5678721  70.1979963  25.3529566  44.6721753  71.0776372
  25.3760506  45.0159204  70.3733588  26.8482938  40.9032271  70.2375944
  27.1698779  40.4235354  69.5835206  27.1109882  41.7131917  70.0466755
  26.9348964  40.9522169  70.1131436  30.0779911  51.9251145  83.7574760
  29.5705002  52.4786992  84.2015390  29.7806557  51.9859435  82.9393534
  29.9584796  52.0157457  83.7023216  32.2442093  40.2904465  82.5999423
  32.6697165  39.8376992  81.9882949  31.6299086  39.7364536  82.8764210
  32.2170738  40.1418441  82.5504448  21.7756943  47.1686136  73.5320048
  22.2849172  47.7650644  73.9131353  22.2491215  46.9012110  72.8496467
  21.9200319  47.2171952  73.4874570  32.6887691  55.8414403  71.6878703
  31.9717001  55.6675265  71.2225941  33.3394429  55.6066975  71.1554189
  32.6789542  55.7810196  71.5407921  30.6836316  36.7619565  76.0090000
  30.0404634  36.6117211  76.5775138  30.3435723  36.5161910  75.2439104
  30.5381393  36.7031687  75.9793015  35.2735662  44.7178992  75.4320008
  34.6026852  45.2608694  75.3033074  35.9675413  45.1873847  75.1901703
  35.2764530  44.8677263  75.3775536  29.3222396  56.8575704  80.6631767
  29.0988051  56.0994533  81.0315793  28.8332239  56.8873725  79.9412206
  29.2165845  56.7497928  80.6108508  35.4363790  41.1734875  78.3410382
  35.7891400  40.7464598  79.0156180  34.5778591  41.0885719  78.4711458
  35.3613235  41.0979616  78.4605392  24.1347475  43.8042395  76.3993228
  23.4159464  44.2206528  76.6666092  24.5059837  44.3696634  75.8484866
  24.0839407  43.9491676  76.3576035  33.4347056  44.4370244  82.2895224
  33.4144983  44.2553539  83.1430003  33.4826256  45.3082262  82.2654807
  33.4381697  44.5386782  82.4118518  27.9700853  57.0776162  78.1168851
  27.5561252  56.4150292  77.7272693  28.6548227  57.2254021  77.5964545
  28.0099225  57.0016820  77.9825348  31.3366147  56.2366247  78.8692468
  30.9382430  56.3468517  78.1013288  30.7217367  56.4448313  79.4519028
  31.1865037  56.2839815  78.8423767  29.9094049  42.8440395  71.7366608
  29.3158889  43.1657391  71.1851175  29.9469327  41.9981490  71.5287714
  29.8268438  42.7664723  71.6249379  36.8687850  36.2953287  79.2694694
  36.3618715  35.5882427  79.2015872  37.6655284  35.9646476  79.3995771
  36.9115089  36.1426439  79.2793689  32.7851866  42.8019899  75.1668358
  32.5565559  42.8252601  74.3246716  33.0449942  41.9777366  75.2863368
  32.7898054  42.6835979  75.0593555  25.8396628  41.3396446  76.4622553
  26.3153995  41.7013526  75.8272735  25.3385228  41.9952913  76.7422696
  25.8361987  41.4890634  76.4099294  39.0707990  50.8118214  72.2535558
  39.4541596  51.5609570  72.4833655  38.2752103  51.0584033  71.9947548
  39.0101772  50.9587908  72.2493132  27.8823281  43.4837646  69.8295937
  28.2622246  43.5017275  69.0447052  27.1415878  43.9291634  69.7086785
  27.8292119  43.5519420  69.6959506  35.5108572  41.7919837  75.4171516
  35.5102798  41.6368493  76.2755792  35.3064752  42.6382824  75.3612902
  35.4808350  41.8940457  75.5359455  17.5725843  45.2159621  79.8330333
  17.3947604  44.7636230  80.5585248  17.2844865  46.0185783  80.0168810
  17.5038796  45.2682179  79.9673836  33.2349424  46.4717339  79.0707723
  33.7303089  45.7540334  79.0311743  32.4249200  46.1688136  78.9562210
  33.1893317  46.3214985  79.0481449  28.6808036  50.3215152  71.2204727
  27.8719358  49.9981825  71.1738037  29.1882944  49.6148374  71.1532976
  28.6357702  50.1696468  71.2035022  19.3098313  47.7487345  76.9452092
  18.4443832  47.7373035  76.8334863  19.4097129  47.5617568  77.7923231
  19.1972480  47.7193406  77.0541036  35.3001243  49.2221026  81.7584852
  35.7256314  48.6995448  81.2055277  34.9358163  49.8201863  81.2373475
  35.3087845  49.2331253  81.5993861  24.9355323  57.5185244  80.5182197
  25.2501882  58.3321632  80.5259979  25.3448736  57.1335462  81.1864356
  25.0423421  57.5813946  80.6186289  31.8879842  52.9355290  78.0886009
  32.3591021  53.6495553  78.2575994  32.2240021  52.3354040  78.6245879
  32.0074957  52.9526755  78.1918385  35.3347653  40.7958579  82.2364894
  34.7510642  41.2967785  81.8242461  35.6551947  40.2888135  81.6029217
  35.2960828  40.7950414  82.0823401  27.8742452  39.7099174  72.5123569
  28.6958147  39.8797487  72.2705264  27.4112103  39.8646435  71.7889867
  27.9273614  39.7580907  72.3695213  22.2768343  51.4658352  80.1660806
  22.8813200  51.4254186  79.5374626  22.0695655  52.3129504  80.1964861
  22.3357240  51.5846354  80.0776922  32.0912115  53.7324297  81.3823043
  32.9110489  53.5887263  81.6439338  31.8106193  54.3570496  81.9239481
  32.1708858  53.8034649  81.5010982  40.3174373  59.9551469  73.9887958
  41.0154538  60.1339596  74.4809422  40.6326706  59.4321808  73.3658348
  40.4669711  59.9045241  73.9689968  38.4901237  55.3243866  78.0709233
  38.1604567  55.7755009  77.4012932  37.8146239  55.2460029  78.6182239
  38.3411673  55.3795001  78.0532456  45.6977645  51.3129388  76.3158844
  45.3831086  52.0032867  76.7479266  45.1804586  51.2574171  75.6144344
  45.5742115  51.4064277  76.2755793  36.9289686  65.2097106  71.2303722
  36.3446902  65.7147137  71.6369586  36.5259782  64.9839493  70.4900314
  36.7828990  65.2505354  71.1808747  41.3866901  61.4562758  69.7072643
  41.6262905  61.6640742  68.8947986  41.7082742  60.6520267  69.8161587
  41.4704059  61.3676859  69.6033196  36.6957191  53.3856154  73.5532181
  37.4503159  53.7534471  73.3149231  36.5184726  53.7595708  74.3211360
  36.7811670  53.4954342  73.6317069  35.0514256  55.7926473  70.2510294
  34.8689829  56.0098354  69.4251286  35.9139869  55.9065486  70.3068908
  35.1518845  55.8416371  70.1364781  40.7313975  52.7952884  73.2859317
  41.4600135  52.6168839  72.8397474  40.8208868  53.6370963  73.4966496
  40.8520637  52.8936762  73.2512835  34.5976283  59.0700646  68.7632767
  33.8834460  58.7838825  69.1755199  35.0820251  59.4097271  69.4039154
  34.5635646  59.0782295  68.9188402  41.7723601  67.5730600  69.1394575
  42.1874749  67.2415623  68.4479071  40.9415530  67.3399502  69.0114712
  41.7111609  67.4901855  69.0185422  44.4656991  63.8241159  68.3255776
  44.3837153  63.8943346  69.1910763  45.1036711  64.3870903  68.1339517
  44.5476828  63.9180130  68.4245726  26.5441693  60.7879734  76.2939638
  26.6301945  60.4111602  77.0753168  27.1717491  60.4140180  75.8159596
  26.6498244  60.6765216  76.3385115  41.5697101  63.8461613  71.3364383
  42.3837740  64.1376506  71.2247154  41.5056242  63.1921476  70.7622676
  41.6799840  63.7926808  71.2353220  38.0807824  62.5385420  70.8011584
  38.4652977  62.3193127  71.5528129  37.8319445  63.3648366  70.9312661
  38.1009897  62.6283567  70.9312661  35.8008262  54.2082357  76.1320365
  34.9330687  54.2804957  76.1977974  36.0883466  55.0104436  76.3208340
  35.7148010  54.3376504  76.1695131  33.7275614  57.6840616  73.5737241
  33.4400410  57.3141887  72.8369188  34.4146082  58.1535472  73.3120946
  33.7864511  57.6987586  73.4252317  36.5629285  61.5493565  75.0204646
  37.2851937  61.7134723  74.5608452  36.0837278  62.2703229  74.9143986
  36.5993016  61.6791794  74.9370260  42.9692071  54.7842740  75.1328947
  43.6718424  54.5850489  74.6548905  42.7036260  54.0118683  75.4397790
  43.0338704  54.6405706  75.1074388  31.3003808  58.4621829  74.4222522
  31.4019945  59.2647990  74.7503498  32.0959695  58.2609165  74.1245603
  31.4331714  58.5507728  74.4257878  45.1152180  49.4223410  78.2625493
  45.2335749  49.8799873  77.5292796  44.9414356  48.6168671  77.9761711
  45.1071351  49.3717182  78.1126427  43.0073123  67.0623413  66.6780188
  43.7746108  67.1223538  66.2686040  42.5604432  66.4903855  66.1936507
  43.0546550  66.9859989  66.5457898  31.5780863  61.0815039  75.6101916
  31.9579828  61.4999584  74.9462183  31.0036228  61.6628495  75.9170759
  31.5492188  61.2292898  75.5578657  42.0829744  51.2774213  79.2044155
  41.2123302  51.2512934  79.1577465  42.3370085  51.1051405  78.3870001
  41.9923304  51.2484356  79.0764292  39.0547724  63.3342179  68.1417298
  39.3440248  64.1107062  68.4160873  39.1419522  62.8230911  68.8431798
  39.1101980  63.3734098  68.2859796  38.0894427  57.8857363  74.0559710
  38.3654161  57.1676276  73.6437277  38.6893096  58.4842283  73.8480816
  38.2187691  57.8677734  73.9640471  41.5904947  55.5570880  72.3306305
  42.0448694  55.7281441  73.0554149  42.0644993  54.9438991  71.9304080
  41.7273267  55.4921766  72.3780066  38.9317967  62.2613415  73.4351312
  39.6760012  62.6487691  73.6734262  39.0778663  61.4170840  73.5991800
  39.0628552  62.1943888  73.4945282  40.8497543  54.0563674  78.4683173
  40.0033588  54.2286481  78.3424523  40.8468675  53.2513017  78.8049002
  40.7244692  53.9624703  78.4994300  43.8479343  58.7275443  72.3970985
  43.3202361  58.8104187  71.7076694  44.3075051  59.4693314  72.3935630
  43.8381193  58.8496105  72.2945680  35.8412408  56.9977962  67.4211880
  35.4925212  57.6497687  67.8843430  35.3608854  56.9835075  66.6935751
  35.7182652  57.0921016  67.3822972  36.2136316  59.6236493  72.9337925
  36.3539278  60.1208957  73.6366566  36.7118849  58.9222787  73.0752138
  36.3077397  59.5938471  73.0589504  36.2436539  60.4903604  70.2630502
  36.8781618  61.0864029  70.1979963  36.3262150  60.1907061  71.0776372
  36.3493090  60.5344512  70.3733588  37.8215522  56.4217579  70.2375944
  38.1431363  55.9420662  69.5835206  38.0842465  57.2317225  70.0466755
  37.9081547  56.4707477  70.1131436  32.7489527  62.6871444  73.5320048
  33.2581756  63.2835952  73.9131353  33.2223799  62.4197418  72.8496467
  32.8932902  62.7357260  73.4874570  41.6568900  52.2804873  76.0090000
  41.0137217  52.1302519  76.5775138  41.3168307  52.0347218  75.2439104
  41.5113977  52.2216995  75.9793015  35.1080058  59.3227703  76.3993228
  34.3892048  59.7391836  76.6666092  35.4792421  59.8881942  75.8484866
  35.0571990  59.4676984  76.3576035  40.8826633  58.3625703  71.7366608
  40.2891472  58.6842699  71.1851175  40.9201911  57.5166798  71.5287714
  40.8001022  58.2850031  71.6249379  36.8129212  56.8581754  76.4622553
  37.2886578  57.2198833  75.8272735  36.3117812  57.5138221  76.7422696
  36.8094571  57.0075942  76.4099294  38.8555865  59.0022953  69.8295937
  39.2354830  59.0202583  69.0447052  38.1148461  59.4476942  69.7086785
  38.8024703  59.0704728  69.6959506  39.6540619  65.8400460  71.2204727
  38.8451942  65.5167133  71.1738037  40.1615528  65.1333682  71.1532976
  39.6090286  65.6881776  71.2035022  30.2830896  63.2672653  76.9452092
  29.4176416  63.2558343  76.8334863  30.3829712  63.0802876  77.7923231
  30.1705063  63.2378714  77.0541036  38.8475036  55.2284482  72.5123569
  39.6690730  55.3982795  72.2705264  38.3844687  55.3831743  71.7889867
  38.9006198  55.2766215  72.3695213  26.3111422   7.2896664  61.2805966
  26.2805427   8.1441301  61.4524236  26.9092771   6.9891957  61.8392110
  26.3948580   7.3713161  61.3880768  13.8952247  15.9135033  61.7996128
  13.1435146  15.5350571  61.5712173  14.3438258  15.9453467  61.0514938
  13.8501914  15.8620640  61.6553630  19.3477207  16.3360403  57.2281675
  19.0128575  17.0137324  56.7925897  19.8604077  15.9465714  56.6398547
  19.3742788  16.3784981  57.0768467  18.8881498  18.2874671  63.1692787
  19.2720877  18.8561570  62.6297562  18.8240639  17.5624182  62.6898603
  18.9354925  18.2650135  63.0186649  24.1327997   9.8648966  59.5524276
  24.0167523  10.6156652  59.9816414  24.9283883   9.6072919  59.8020363
  24.2332586   9.9383813  59.6528368  15.3137742  20.8431014  65.4673757
  15.9575198  21.2844178  65.8569915  15.6393998  20.0384441  65.3804015
  15.4569571  20.7896209  65.5119234  16.0158322  13.8542989  60.8393618
  16.3374163  14.3948197  60.2354927  16.6630419  13.2839761  60.9715908
  16.1584377  13.8502164  60.7700654  18.2547966  12.2429429  60.9107797
  18.6941601  11.6346530  61.3562569  18.1052629  11.8636803  60.1393262
  18.2969431  12.0967900  60.8626964  21.8557302  10.5956610  57.8638566
  21.7708597  11.4517577  58.0088135  22.3441685  10.3200935  58.5320725
  21.9146199  10.6813932  57.9840647  22.7875735   7.2141405  59.3636301
  22.2587207   7.4301038  60.0233607  23.3100755   7.9077543  59.2837270
  22.7864188   7.3484542  59.4491900  28.2423788  12.7887709  64.7369345
  27.4121491  12.9998353  64.9002762  28.1933041  11.9624764  64.4611629
  28.1130524  12.6977315  64.7206711  14.6775343  11.1104621  58.1643769
  14.0932558  11.6154653  58.5709633  14.2745438  10.8847008  57.4240361
  14.5314647  11.1512870  58.1148794  19.1352558   7.3570274  56.6412690
  19.3748561   7.5648257  55.8288033  19.4568399   6.5527782  56.7501634
  19.2189716   7.2684375  56.5373243  25.4988104  13.4587064  64.8734061
  25.0623335  13.4623806  65.6293033  25.1651019  14.1392563  64.4413639
  25.3850724  13.5599519  64.9214894  28.6332450  10.1767983  63.7653698
  29.2948884   9.6158652  63.6649607  27.9923862   9.6820014  64.0906390
  28.6361317  10.0204392  63.7986039  19.5209258  13.4738115  56.0734622
  19.9360406  13.1423139  55.3819117  18.6901187  13.2407017  55.9454758
  19.4597266  13.3909371  55.9525469  24.9197280  11.1933366  63.5065687
  25.1552870  11.3378565  62.6792538  25.0686844  11.9575774  63.8997201
  24.9763084  11.3272420  63.4429291  26.7487737  10.0335032  61.3435291
  27.0795954  10.5662672  60.7375386  27.3220825  10.0873920  61.9997242
  26.8821416  10.1204601  61.3513073  22.2142648   9.7248674  55.2595823
  22.1322810   9.7950861  56.1250810  22.8522368  10.2878418  55.0679564
  22.2962485   9.8187645  55.3585773  19.3182758   9.7469129  58.2704430
  20.1323397  10.0384021  58.1587201  19.2541899   9.0928991  57.6962723
  19.4285497   9.6934323  58.1693267  15.8293481   8.4392936  57.7351631
  16.2138634   8.2200642  58.4868176  15.5805101   9.2655881  57.8652707
  15.8495554   8.5291082  57.8652708  16.1116724  16.6597812  59.8084001
  16.4015022  16.2686793  59.0843228  16.8420205  16.8414517  60.2489277
  16.2623608  16.6291625  59.7666808  14.0522639  18.6365194  62.8744151
  13.8322935  18.3462549  63.6670818  13.8317161  17.9780149  62.3462063
  13.9870234  18.4964902  62.9133060  16.2190595  20.0094584  61.6574843
  16.8714653  19.4771026  61.8865870  15.5216204  19.6563236  62.0442718
  16.2121313  19.8784107  61.7487011  24.2130513  12.3298998  61.0005823
  24.7788546  12.9892208  60.9164366  23.5658417  12.6748696  61.4722225
  24.2009270  12.4780939  61.0578579  20.6837092  15.2737782  60.4242902
  20.4423767  14.5405643  60.0169967  20.8638424  15.8224639  59.7709235
  20.6744715  15.2460173  60.2673125  25.4093211  12.3805226  57.7931459
  25.0300020  11.5942364  57.7860749  24.7459457  12.9292083  57.6503103
  25.2551686  12.3450050  57.7712256  18.2340119  15.9318745  61.6320286
  18.9990011  15.6628389  61.3102950  18.1318209  15.4468755  62.3490348
  18.3321615  15.8208309  61.6900113  20.7558780  12.9630929  53.6120235
  21.5231765  13.0231054  53.2026087  20.3090089  12.3911370  53.1276553
  20.8032207  12.8867504  53.4797945  23.6553310  14.6250717  58.1283145
  23.7373147  15.4317703  57.8044596  24.1403052  14.6446676  58.8523919
  23.7390468  14.7471379  58.1870044  17.4597853  14.5662839  58.3814587
  17.5290673  13.7077378  58.5207587  18.2386308  14.7834720  58.0533611
  17.5850703  14.4715703  58.3531744  21.8505340  16.9900541  62.5951080
  21.4585132  16.6867256  61.8773946  22.0058412  17.8269630  62.4056034
  21.8158930  17.0684377  62.4607577  22.0145015  13.5550529  62.5357111
  21.6559670  13.7265172  63.3121143  21.5283726  14.0163735  61.9785109
  21.8903712  13.6489500  62.5682380  16.8033380   9.2349695  55.0757345
  17.0925905  10.0114577  55.3500919  16.8905179   8.7238426  55.7771844
  16.8587637   9.2741613  55.2199843  22.6195646  16.3936033  66.0281114
  22.4215334  16.8826848  65.3337326  21.9983357  16.5977275  66.6065248
  22.4983210  16.4952571  66.0104338  21.5964999   4.6282958  59.3311032
  21.0688018   4.7111702  58.6416741  22.0560708   5.3700829  59.3275677
  21.5866850   4.7503620  59.2285727  21.1502082  13.1986522  58.4620689
  21.8736281  13.6644634  58.3185262  20.7102673  13.2660131  57.7118286
  21.1917774  13.2770358  58.3305470  21.4105932  17.2607226  58.6218750
  20.6935241  17.0868089  58.1565987  22.0612669  17.0259799  58.0894236
  21.4007782  17.2003019  58.4747968  16.6919093  18.4968985  65.0508898
  16.2779492  17.8343115  64.6612740  17.3766468  18.6446844  64.5304592
  16.7317465  18.4209643  64.9165395  20.0584388  17.6559070  65.8032515
  19.6600671  17.7661341  65.0353335  19.4435607  17.8641137  66.3859074
  19.9083277  17.7032638  65.7763814  27.7926230  12.2311037  59.1875605
  28.1759836  12.9802393  59.4173702  26.9970344  12.4776857  58.9287594
  27.7320012  12.3780731  59.1833179  16.6041522   4.9030469  56.7635984
  16.9840487   4.9210098  55.9787099  15.8634118   5.3484458  56.6426832
  16.5510360   4.9712243  56.6299552  17.4026276  11.7407975  58.1544774
  16.5937599  11.4174649  58.1078084  17.9101185  11.0341197  58.0873023
  17.3575943  11.5889291  58.1375069  37.2844006  22.8081972  61.2805966
  37.2538010  23.6626609  61.4524236  37.8825354  22.5077265  61.8392110
  37.3681164  22.8898469  61.3880768  30.4843691  21.8957623  66.0358897
  29.6281586  22.0566121  66.0868013  30.5311344  21.0249687  66.0563958
  30.3642802  21.7908425  66.0464963  24.8684830  31.4320341  61.7996128
  24.1167730  31.0535879  61.5712173  25.3170842  31.4638775  61.0514938
  24.8234497  31.3805948  61.6553630  33.7937407  28.1644149  75.6419353
  34.5004174  27.6696179  75.7706287  33.9825343  28.6053230  74.9122011
  33.9265313  28.1562499  75.5528398  30.3209790  31.8545710  57.2281675
  29.9861159  32.5322632  56.7925897  30.8336661  31.4651022  56.6398547
  30.3475371  31.8970289  57.0768467  29.8614081  33.8059979  63.1692787
  30.2453461  34.3746878  62.6297562  29.7973223  33.0809489  62.6898603
  29.9087509  33.7835443  63.0186649  33.3295512  23.9549667  68.6790548
  33.8751472  24.6334754  68.7384518  33.2712388  23.8137128  67.8192130
  33.4011426  24.0341669  68.5602609  26.4469586  31.4438733  64.0658901
  26.5479949  30.6339087  64.3756028  25.8511332  31.3495680  63.4358579
  26.3742125  31.3103761  64.0185139  35.1060580  25.3834274  59.5524276
  34.9900106  26.1341960  59.9816414  35.9016467  25.1258227  59.8020363
  35.2065170  25.4569121  59.6528368  26.2870326  36.3616322  65.4673757
  26.9307782  36.8029486  65.8569915  26.6126582  35.5569748  65.3804015
  26.4302155  36.3081517  65.5119234  19.6434631  27.4659020  63.6911234
  19.4084815  26.6326672  63.5843503  19.7820271  27.7463685  62.8772435
  19.6290293  27.3842523  63.5553589  21.9424718  19.6344750  66.5895542
  21.3229750  19.0437398  66.4205557  21.8408582  20.2256186  65.9559865
  21.8362394  19.6348833  66.4700532  26.9890906  29.3728297  60.8393618
  27.3106747  29.9133504  60.2354927  27.6363002  28.8025069  60.9715908
  27.1316961  29.3687472  60.7700654  29.0392614  21.3744292  60.9228005
  29.7372779  21.5532420  61.4149468  29.3544946  20.8514631  60.2998394
  29.1887951  21.3238064  60.9030015  21.6693851  23.1797032  68.8339111
  21.5452548  23.7659478  69.4688930  22.3212136  22.6857228  69.1351386
  21.7467501  23.1935836  68.9725040  29.2280549  27.7614737  60.9107797
  29.6674185  27.1531838  61.3562569  29.0785212  27.3822110  60.1393262
  29.2702015  27.6153208  60.8626964  26.6952192  26.3558749  68.1126622
  27.3401195  25.8631192  67.7937571  26.9353969  26.4983536  68.9392700
  26.8262777  26.3036191  68.1876155  29.2338284  29.2013655  67.7633515
  29.5161526  28.4065061  67.5420271  29.9624444  29.6794242  67.7838576
  29.3827847  29.1548252  67.7336530  27.2119477  16.7436689  65.0049280
  26.8822807  17.1947832  64.3352978  26.5364479  16.6652852  65.5522286
  27.0629914  16.7987824  64.9872503  32.8289886  26.1141918  57.8638566
  32.7441181  26.9702885  58.0088135  33.3174269  25.8386242  58.5320725
  32.8878783  26.1999240  57.9840647  34.4195885  12.7322212  63.2498890
  34.1049326  13.4225690  63.6819313  33.9022827  12.6766994  62.5484391
  34.2960356  12.8257100  63.2095840  33.7608319  22.7326713  59.3636301
  33.2319790  22.9486346  60.0233607  34.2833339  23.4262851  59.2837270
  33.7596772  22.8669849  59.4491900  39.2156372  28.3073017  64.7369345
  38.3854075  28.5183661  64.9002762  39.1665624  27.4810072  64.4611629
  39.0863107  28.2162623  64.7206711  25.6507927  26.6289929  58.1643769
  25.0665142  27.1339961  58.5709633  25.2478022  26.4032316  57.4240361
  25.5047231  26.6698178  58.1148794  21.2051955  32.3444690  64.9667440
  20.7219534  33.0695180  64.9427024  22.0175274  32.6420821  65.0777598
  21.2542703  32.4947044  64.9794720  27.2766109  31.1376871  67.5717255
  26.7593051  30.7784286  66.9678563  27.9740501  30.6139046  67.5823321
  27.3031691  31.0074559  67.4847514  30.9329701  31.5871685  73.5333428
  31.0213047  31.3997826  74.3811638  31.3619414  30.9409115  73.1338275
  31.0091804  31.4634693  73.6005179  28.5000161  30.8702845  72.5151090
  27.9370996  30.4575455  73.0390751  29.2621185  30.7955751  72.9344233
  28.5294610  30.7980246  72.6544091  30.1085141  22.8755581  56.6412690
  30.3481145  23.0833565  55.8288033  30.4300982  22.0713090  56.7501634
  30.1922299  22.7869683  56.5373243  25.4175431  14.8048977  60.4872227
  26.1721400  15.1727294  60.2489278  25.2402966  15.1788532  61.2551407
  25.5029910  14.9147165  60.5657116  24.0596153  32.8600866  65.1187720
  24.7616732  32.3452855  65.1760477  23.9793636  33.1875018  65.9234595
  24.1519913  32.8315093  65.2460513  38.7110330  20.9543418  68.5319767
  37.8738751  21.0245605  68.7667361  38.6798561  20.9567913  67.6594069
  38.5828613  20.9653645  68.4379315  23.7732496  17.2119296  57.1850340
  23.5908069  17.4291177  56.3591333  24.6358109  17.3258309  57.2408955
  23.8737086  17.2609194  57.0704828  23.3846928  29.0507218  64.6273328
  24.2235828  29.2830151  64.6747090  23.4158697  28.1811530  64.5580364
  23.5128646  28.9564165  64.6237973  24.0099631  29.4708094  68.9286634
  24.5497856  29.3279225  69.5990006  23.3269577  29.8704844  69.2970660
  23.9891785  29.5087765  69.0821056  29.4532215  14.2145707  60.2199364
  30.1818376  14.0361662  59.7737521  29.5427108  15.0563787  60.4306542
  29.5738877  14.3129585  60.1852882  33.4340516  25.1499094  64.1231658
  34.1898031  25.5830609  64.1620567  33.5402840  24.5003864  64.6966294
  33.5610687  25.1176578  64.2129684  36.4720687  28.9772371  64.8734061
  36.0355919  28.9809114  65.6293033  36.1383603  29.6577870  64.4413639
  36.3583307  29.0784827  64.9214894  31.0449761  31.0180704  76.1977212
  31.8290177  31.1311552  76.5632954  30.8446355  30.1921841  76.3935897
  31.1315786  30.9127424  76.2811598  19.4136776  25.6908384  69.0821055
  19.1475191  24.8747501  69.2412046  19.4275340  25.7361540  68.2116571
  19.3761499  25.5765289  68.9774537  36.3918170  16.0186199  67.1163489
  37.0344078  16.0884304  67.7025404  36.6441191  15.3515422  66.6143031
  36.5240302  15.9312548  67.1290768  23.3194523  20.4893469  55.6972814
  22.6052700  20.2031648  56.1095246  23.8038492  20.8290095  56.3379201
  23.2853886  20.4975118  55.8528448  31.2020154  32.9290806  69.8443667
  30.4035400  32.6890306  70.1017536  31.6506166  32.9805199  70.5910715
  31.1494765  32.9013197  69.9928591  39.6065033  25.6953291  63.7653698
  40.2681467  25.1343960  63.6649607  38.9656445  25.2005322  64.0906390
  39.6093901  25.5389700  63.7986039  30.4941841  28.9923423  56.0734622
  30.9092990  28.6608447  55.3819117  29.6633771  28.7592325  55.9454758
  30.4329850  28.9094679  55.9525469  19.8230190  26.4767164  66.3632800
  19.6405763  26.4514050  65.5105092  20.5579859  26.9466102  66.4021708
  19.9044254  26.5428526  66.2430718  35.8929864  26.7118674  63.5065687
  36.1285453  26.8563873  62.6792538  36.0419428  27.4761082  63.8997201
  35.9495667  26.8457728  63.4429291  37.7220321  25.5520340  61.3435291
  38.0528538  26.0847980  60.7375386  38.2953409  25.6059227  61.9997242
  37.8554000  25.6389909  61.3513073  32.9352210  23.3985242  62.0258871
  33.0299064  24.1374536  62.4798497  32.3111053  22.9702718  62.4593436
  32.8561240  23.4446563  62.1567019  31.1904684  26.5771455  72.6749152
  31.7643545  25.9398699  72.8297716  31.1119487  26.5775537  71.8058810
  31.2637919  26.4836566  72.5695563  19.7901100  23.3560664  66.5131866
  20.3674603  23.2197115  67.1524112  19.0915162  22.8996449  66.7677451
  19.7722122  23.2682931  66.6454156  33.1875231  25.2433982  55.2595823
  33.1055394  25.3136169  56.1250810  33.8254952  25.8063726  55.0679564
  33.2695069  25.3372953  55.3585773  26.5468402  25.0094720  64.7270350
  26.2887647  24.1766455  64.7001649  26.6016885  25.2352333  63.8862850
  26.5168180  24.9192491  64.5990486  31.6269453  17.1123171  64.8274442
  30.9225779  16.6232356  64.9858361  31.6754427  17.1245645  63.9562887
  31.5299504  17.0412819  64.7213782  25.5203115  22.5632483  65.2135244
  24.9452706  22.7224651  65.8499205  25.1438791  21.9267892  64.7503695
  25.3805927  22.4930296  65.2389803  29.1876403  21.0355832  70.0727623
  28.7990836  20.6110050  69.4179814  28.5231102  21.2837982  70.5804649
  29.0323331  21.0094553  70.0515491  38.8299672  20.7930837  62.8475453
  38.5736237  19.9810778  62.6573335  39.6728986  20.8008404  62.6205640
  38.9165698  20.6742834  62.7860270  15.2659933  22.2072557  63.2279685
  15.3520185  21.8304426  64.0093215  15.8935731  21.8333003  62.7499643
  15.3716484  22.0958040  63.2725162  33.0102765  14.7330461  67.5851607
  33.3913276  14.0508632  67.9719481  32.2066049  14.4440063  67.4027271
  32.9479226  14.5897509  67.6155663  30.2915341  25.2654436  58.2704430
  31.1055980  25.5569329  58.1587201  30.2274483  24.6114299  57.6962723
  30.4018080  25.2119631  58.1693267  36.5124832  27.9480433  72.6834005
  36.2763469  27.1168497  72.5646066  37.1568061  27.8966040  73.2688849
  36.5719502  27.8178121  72.7519899  26.1623250  28.7375954  63.3976742
  26.7997197  28.4987701  63.9428535  26.5878321  28.9413113  62.6629902
  26.3199416  28.7326964  63.3693899  20.8535892  30.9764290  67.2811046
  20.8940037  31.2479141  66.4530825  21.4130416  31.5006198  67.6968833
  20.9419238  31.0940045  67.2202934  26.8026065  23.9578244  57.7351631
  27.1871217  23.7385950  58.4868176  26.5537685  24.7841189  57.8652707
  26.8228137  24.0476390  57.8652708  37.5361252  27.7324881  68.7462300
  37.2307069  28.4652938  69.1075615  36.8167468  27.3262811  68.4655086
  37.3848595  27.7806614  68.7575437  28.5444722  29.2148377  65.0770528
  28.6183730  29.0523548  65.9312378  29.3614228  29.4038566  64.8331010
  28.6761080  29.2185119  65.1668554  22.3050478  29.5606239  62.1064971
  21.4788596  29.8067977  61.9799250  22.3662470  29.4818320  62.9727030
  22.1924645  29.5851188  62.2153916  24.5226502  15.6275180  63.0660412
  23.6548928  15.6997780  63.1318021  24.8101706  16.4297259  63.2548387
  24.4366250  15.7569327  63.1035178  27.0849307  32.1783120  59.8084001
  27.3747606  31.7872101  59.0843228  27.8152788  32.3599825  60.2489277
  27.2356192  32.1476933  59.7666808  41.0221662  23.1462268  66.3477238
  41.5729583  22.5130337  66.5874331  41.0065777  23.6777661  67.0392743
  41.1006858  23.1311216  66.4856097  27.6744053  26.9800866  70.8937132
  27.1755746  27.6916633  70.9722020  28.4844277  27.3001532  70.8555294
  27.7200159  27.1327714  70.8993700  25.0255223  34.1550502  62.8744151
  24.8055518  33.8647857  63.6670818  24.8049745  33.4965457  62.3462063
  24.9602817  34.0150210  62.9133060  23.9372170  26.2423819  65.1399853
  23.6485419  25.6161290  65.6745580  24.8055518  26.1844106  65.2064533
  24.0232422  26.1411363  65.2290807  34.7250068  21.3858602  65.4581835
  34.3814834  20.6648937  65.8089084  34.8243110  21.1772453  64.6160193
  34.6892111  21.2482805  65.3853515  27.1923179  35.5279892  61.6574843
  27.8447237  34.9956334  61.8865870  26.4948787  35.1748544  62.0442718
  27.1853897  35.3969415  61.7487011  24.1404443  27.8819070  61.0642218
  24.8950411  28.2632109  61.2777680  23.5475056  28.3330213  61.5188914
  24.1641157  28.0047897  61.1625096  35.1863097  27.8484306  61.0005823
  35.7521130  28.5077516  60.9164366  34.5391000  28.1934004  61.4722225
  35.1741853  27.9966247  61.0578579  25.4602670  29.0527631  66.4382333
  24.9383424  29.1927923  67.1234198  25.8476690  28.2938295  66.6284451
  25.4406371  28.9613155  66.5683410  22.4493854  19.1033440  60.5077288
  22.1618650  18.7334710  59.7709235  23.1364322  19.5728295  60.2460993
  22.5082751  19.1180409  60.3592364  31.6569675  30.7923090  60.4242902
  31.4156351  30.0590951  60.0169967  31.8371008  31.3409947  59.7709235
  31.6477299  30.7645481  60.2673125  26.8868996  26.0831650  61.8363824
  26.6911778  26.6906384  61.2424127  27.1103341  25.3899594  61.3555498
  26.8903637  26.0709175  61.6779905  25.2847526  22.9686388  61.9544693
  26.0070178  23.1327546  61.4948499  24.8055519  23.6896053  61.8484032
  25.3211256  23.0984617  61.8710307  33.2441033  19.3050187  67.3341378
  32.4052134  19.3311466  67.0979641  33.3145401  19.9520922  67.9146724
  33.1309427  19.4046312  67.3850494  22.9355142  25.3744460  71.0598832
  23.4476239  25.6528714  70.4107592  22.6491485  26.1133754  71.4261646
  22.9690006  25.5246814  71.0188711  31.6910312  16.2035564  62.0668993
  32.3936664  16.0043312  61.5888952  31.4254500  15.4311506  62.3737837
  31.7556944  16.0598530  62.0414435  37.1198557  24.5118173  64.6202619
  37.0332532  24.6673599  65.4737398  36.6649037  25.1556249  64.2462024
  37.0401814  24.6293929  64.6909726  20.0222049  19.8814652  61.3562569
  20.1238185  20.6840814  61.6843544  20.8177935  19.6801988  61.0585650
  20.1549954  19.9700551  61.3597924  30.9924373  21.8328921  63.2428179
  30.7459087  21.7524671  64.0764968  31.3209496  21.0482388  63.0490706
  31.0045617  21.7055186  63.3375702  34.8872422  28.5412280  67.0314960
  34.7486781  29.2393326  67.5363702  34.1072420  28.3860936  66.6751142
  34.7515649  28.6212447  67.0541234  33.2250507  24.8408655  73.2837342
  33.2198546  23.9688472  73.2879768  33.9311501  25.0396824  72.8106797
  33.3295511  24.7412529  73.2144377  26.9521400  24.5685639  72.6551162
  27.0964776  25.1486847  72.0194272  27.2997049  24.9461936  73.3601016
  27.0248862  24.7106343  72.6650157  29.1241318  23.7675808  70.4376293
  28.3764632  23.9606822  70.0324572  29.2782843  22.9421027  70.2000415
  29.0363745  23.6740919  70.3421699  26.0249155  32.7588411  69.5212189
  26.1738719  32.1991327  68.8685593  26.8049158  32.8380413  69.9044708
  26.1623249  32.6873976  69.4809138  36.3825795  27.8990534  57.7931459
  36.0032604  27.1127672  57.7860749  35.7192040  28.4477391  57.6503103
  36.2284270  27.8635358  57.7712256  28.5502456  32.9303054  70.7996680
  28.4746127  32.2611864  71.3547468  28.4792315  33.6320842  71.3137346
  28.5283063  32.9347961  70.9573528  33.8370421  10.8416233  65.1965540
  33.9553989  11.2992697  64.4632843  33.6632597  10.0361495  64.9101758
  33.8289592  10.7910006  65.0466474  29.2072703  31.4504053  61.6320286
  29.9722594  31.1813696  61.3102950  29.1050793  30.9654063  62.3490348
  29.3054199  31.3393617  61.6900113  27.2425473  19.6528462  68.1713521
  26.4521548  19.4719922  68.4930857  27.6386096  18.8755415  68.1543816
  27.1842349  19.5115923  68.2166070  31.7291364  28.4816236  53.6120235
  32.4964349  28.5416361  53.2026087  31.2822673  27.9096678  53.1276553
  31.7764791  28.4052812  53.4797945  32.6269159  27.2870892  65.8972967
  31.9514161  27.0556125  66.3986354  32.6361535  26.6792075  65.2715072
  32.5287664  27.1629818  65.8789119  29.7563303  22.1288721  72.6537020
  29.6922444  22.9898678  72.5257157  29.8960491  21.8120714  71.8532571
  29.7678773  22.2088888  72.5165233  34.6285894  30.1436025  58.1283145
  34.7105731  30.9503011  57.8044596  35.1135636  30.1631984  58.8523919
  34.7123052  30.2656687  58.1870044  28.4382397  24.8220861  66.7953223
  28.0144646  25.0225360  66.0592241  28.2627252  23.9749709  66.9077523
  28.3493278  24.7269642  66.7026913  27.9394090  36.3371374  69.2574680
  28.4290021  35.6382163  69.0750345  27.3678323  36.0395244  69.8450738
  27.9278620  36.1897597  69.3175721  23.7264842  25.3172912  62.2281196
  23.8829461  25.2519715  63.0837188  24.0665435  26.0921465  62.0159875
  23.7998077  25.4222110  62.3235790  30.2643987  24.6930796  61.0974559
  30.8059532  24.1901177  61.5613179  30.5790546  24.6395990  60.2864044
  30.3908384  24.6110217  61.0458371  34.1361094  28.9033443  78.2101471
  34.9495959  28.6318592  78.3706603  33.9756060  28.6040983  77.4061667
  34.2331042  28.8188369  78.1146877  28.4330436  30.0848147  58.3814587
  28.5023257  29.2262686  58.5207587  29.2118891  30.3020028  58.0533611
  28.5583286  29.9901011  58.3531744  31.4133256  19.5867100  71.1496859
  31.6275225  18.9478014  70.5960213  30.7967155  20.0312924  70.7204721
  31.3538585  19.5577244  71.0047290  32.8237924  32.5085848  62.5951080
  32.4317716  32.2052564  61.8773946  32.9790996  33.3454938  62.4056034
  32.7891514  32.5869685  62.4607577  20.2999103  22.5007863  62.5441963
  20.6798068  22.9192407  61.8802230  19.7254468  23.0821318  62.8510806
  20.2710428  22.6485721  62.4918704  33.5772344  21.1956165  72.0880166
  32.7649026  20.8882056  72.1693339  34.0362279  20.7155165  72.6522879
  33.5252729  21.0792658  72.1834761  32.9877599  29.0735837  62.5357111
  32.6292253  29.2450480  63.3121143  32.5016309  29.5349043  61.9785109
  32.8636296  29.1674808  62.5682380  30.8047985  12.6967036  66.1384202
  29.9341543  12.6705757  66.0917512  31.0588326  12.5244228  65.3210048
  30.7141545  12.6677180  66.0104339  27.7765964  24.7535003  55.0757345
  28.0658489  25.5299885  55.3500919  27.8637763  24.2423734  55.7771844
  27.8320220  24.7926921  55.2199843  34.1482338  29.9639733  73.4824312
  34.7862058  29.4699929  73.1486768  33.5056430  29.8917134  72.8976538
  34.1476564  29.8798742  73.3466667  35.8739338  21.8128879  68.0490227
  35.4466946  21.7255228  67.2938327  35.2365391  21.9206655  68.6345071
  35.7168945  21.8161539  68.0235669  34.2036595  30.6559542  70.1229668
  34.9928973  30.3048606  70.2431750  34.3780192  31.4695930  69.8606302
  34.3456876  30.7245399  70.1017536  23.9429905  24.0668267  67.1757457
  23.1017912  23.9672141  67.3836351  24.1519913  24.8363748  67.5271778
  23.8494598  24.1660311  67.2584772  21.4205472  21.6887804  65.0042208
  21.0262170  21.7630816  64.2292317  20.8645589  22.0745751  65.5550570
  21.2808284  21.7569579  64.9709868  33.0570419  14.6669098  64.6846087
  33.2620012  14.5991406  65.5303084  32.7296843  15.4727919  64.6167264
  33.0385667  14.7755039  64.8005742  27.7546570  21.9949666  66.4255055
  27.4509707  21.4405655  67.0265462  27.0525991  22.1741876  65.9383089
  27.6062780  21.9394449  66.4424760  26.8112667  19.3050186  60.9899757
  27.0872401  18.5869099  60.5777324  27.4111336  19.9035106  60.7820863
  26.9405932  19.2870557  60.8980518  25.8164921  29.2099387  71.1327152
  25.7085276  29.2201449  71.9989211  26.0260702  30.0354168  70.9432106
  25.8315032  29.3340462  71.2331244  36.3104106  15.2200863  64.1648852
  35.6978420  15.7071265  64.5502584  36.4068281  14.5444353  64.7086503
  36.2342004  15.1919171  64.3027710  30.3123187  16.9763704  59.2646352
  30.7666934  17.1474264  59.9894196  30.7863233  16.3631814  58.8644127
  30.4491508  16.9114589  59.3120113  23.8338713  26.4612030  68.5949090
  23.2426646  27.1021528  68.5652105  24.5959736  26.8849647  68.5680390
  23.8586973  26.6187868  68.5864237  39.9529134  26.2917799  69.5926368
  40.0112258  26.7404448  70.3386345  39.3195602  26.7016612  69.1556448
  39.8680429  26.4191534  69.6378917  33.5928229  31.9121341  66.0281114
  33.3947918  32.4012156  65.3337326  32.9715940  32.1162583  66.6065248
  33.4715794  32.0137879  66.0104338  27.6536207  23.6806238  60.3691359
  28.3978252  24.0680514  60.6074309  27.7996904  22.8363663  60.5331847
  27.7846793  23.6136711  60.4285328  29.5715783  15.4756497  65.4023220
  28.7251828  15.6479305  65.2764570  29.5686915  14.6705841  65.7389049
  29.4462933  15.3817526  65.4334347  30.6414083  19.2531711  66.2685278
  30.1674038  18.7273473  66.7790589  31.0132219  18.7061184  65.7000140
  30.6263972  19.0947708  66.2600425  36.9050814  24.3134087  67.6792059
  36.6649037  23.4740502  67.6834485  37.3842821  24.3934254  68.4032832
  36.9402998  24.2015487  67.7866861  32.5697583  20.1468266  59.3311032
  32.0420602  20.2297010  58.6416741  33.0293291  20.8886137  59.3275677
  32.5599433  20.2688928  59.2285727  38.9056001  21.0935544  65.6321318
  38.6665771  21.0531378  64.7942102  39.0689902  21.9406696  65.7587039
  38.8946304  21.2127629  65.5274800  35.5102031  25.4785493  71.5626363
  36.2336230  25.0258020  71.3837383  35.2451993  25.7590159  70.7798691
  35.5783304  25.4536462  71.4205078  24.3788899  20.0745667  68.2979242
  23.7541970  20.0864059  67.6905195  24.0434494  20.5505842  68.9470482
  24.2374391  20.1464184  68.3035811  24.5630648  18.4170785  54.3551927
  24.2143452  19.0690511  54.8183476  24.0827094  18.4027899  53.6275798
  24.4400892  18.5113839  54.3163018  21.0914575  28.1346127  69.7383006
  20.5614499  27.4438566  69.7877981  21.3639668  28.1256312  68.9095715
  21.0539297  28.0313259  69.6230422  32.1234665  28.7171829  58.4620689
  32.8468864  29.1829942  58.3185262  31.6835256  28.7845439  57.7118286
  32.1650358  28.7955666  58.3305470  31.2920821  25.5769372  69.7121378
  30.6777814  25.0327422  70.0070013  31.8088105  25.0633608  69.2327194
  31.2776483  25.4205781  69.6845606  30.5317118  26.6473642  67.4465677
  30.1044726  26.0223360  67.0131112  30.5242062  26.3648564  68.2724684
  30.4676259  26.5126422  67.5045504  28.8602827  17.5242396  67.6608211
  28.8845315  16.9902509  66.9720991  29.1114301  17.0159705  68.3233801
  28.9012746  17.3703300  67.6572855  16.3710417  24.8073891  67.0951355
  16.2653866  24.7620736  66.2303439  15.6210637  25.1527672  67.3765640
  16.2446020  24.8514799  67.0088684  25.1404150  16.2513215  67.0413955
  25.1802521  16.7522421  67.7548662  24.3153814  16.3423608  66.7719878
  25.0243676  16.3395031  67.1064493  26.5618513  22.7673724  69.3387854
  25.7310443  22.9347542  69.1323102  26.5070030  22.3909675  70.1236739
  26.4307928  22.7363456  69.4236382  24.9354557  21.0429316  59.8677972
  25.0757518  21.5401780  60.5706613  25.4337090  20.3415610  60.0092185
  25.0295638  21.0131295  59.9929551  24.9654779  21.9096427  57.1970548
  25.5999859  22.5056852  57.1320010  25.0480390  21.6099885  58.0116419
  25.0711330  21.9537335  57.3073635  37.9437345  24.4411904  70.0656913
  38.5355185  25.0809155  70.0975111  38.3796339  23.7434941  70.3548979
  38.0955776  24.4330255  70.1137745  26.5433762  17.8410402  57.1715990
  26.8649603  17.3613485  56.5175253  26.8060706  18.6510048  56.9806802
  26.6299787  17.8900300  57.0471482  29.7730735  28.8629277  70.6914807
  29.2655826  29.4165124  71.1355437  29.4757381  28.9237567  69.8733581
  29.6535620  28.9535588  70.6363263  31.9392917  17.2282596  69.5339470
  32.3647989  16.7755123  68.9222996  31.3249910  16.6742667  69.8104257
  31.9121562  17.0796572  69.4844495  21.4707767  24.1064268  60.4660094
  21.9799996  24.7028775  60.8471400  21.9442039  23.8390241  59.7836514
  21.6151143  24.1550083  60.4214617  32.3838515  32.7792534  58.6218750
  31.6667825  32.6053397  58.1565987  33.0345253  32.5445107  58.0894236
  32.3740366  32.7188327  58.4747968  30.3787140  13.6997696  62.9430047
  29.7355458  13.5495342  63.5115185  30.0386547  13.4540041  62.1779151
  30.2332217  13.6409819  62.9133062  34.9686486  21.6557123  62.3660055
  34.2977676  22.1986825  62.2373121  35.6626237  22.1251978  62.1241750
  34.9715354  21.8055394  62.3115583  29.0173220  33.7953835  67.5971813
  28.7938875  33.0372664  67.9655840  28.5283063  33.8251856  66.8752253
  28.9116669  33.6876059  67.5448554  35.1314614  18.1113007  65.2750428
  35.4842224  17.6842729  65.9496227  34.2729415  18.0263850  65.4051505
  35.0564058  18.0357747  65.3945439  23.8298299  20.7420526  63.3333275
  23.1110288  21.1584659  63.6006138  24.2010661  21.3074765  62.7824913
  23.7790231  20.8869808  63.2916082  33.1297880  21.3748375  69.2235271
  33.1095807  21.1931670  70.0770049  33.1777080  22.2460394  69.1994854
  33.1332521  21.4764913  69.3458565  31.0744209  27.9635567  75.1483747
  31.0340064  27.3185244  74.5628903  31.8867528  27.9072184  75.4609159
  31.1887363  27.8594534  75.1080696  27.6651677  34.0154293  65.0508898
  27.2512076  33.3528423  64.6612740  28.3499051  34.1632152  64.5304592
  27.7050049  33.9394951  64.9165395  31.0316971  33.1744378  65.8032515
  30.6333254  33.2846649  65.0353335  30.4168191  33.3826445  66.3859074
  30.8815860  33.2217946  65.7763814  29.6044873  19.7818526  58.6706654
  29.0109712  20.1035523  58.1191221  29.6420151  18.9359622  58.4627760
  29.5219262  19.7042854  58.5589426  36.5638674  13.2331418  66.2034741
  36.0569539  12.5260558  66.1355918  37.3606108  12.9024607  66.3335817
  36.6065913  13.0804570  66.2133736  32.4802690  19.7398031  62.1008405
  32.2516383  19.7630732  61.2586763  32.7400766  18.9155498  62.2203415
  32.4848878  19.6214111  61.9933602  25.5347452  18.2774577  63.3962600
  26.0104819  18.6391657  62.7612781  25.0336052  18.9331044  63.6762743
  25.5312811  18.4268766  63.3439341  38.7658814  27.7496345  59.1875605
  39.1492420  28.4987701  59.4173702  37.9702927  27.9962165  58.9287594
  38.7052596  27.8966039  59.1833179  27.5774105  20.4215777  56.7635984
  27.9573070  20.4395406  55.9787099  26.8366701  20.8669766  56.6426832
  27.5242943  20.4897551  56.6299552  35.2059396  18.7297968  62.3511563
  35.2053622  18.5746624  63.2095839  35.0015576  19.5760955  62.2952948
  35.1759174  18.8318589  62.4699502  17.2676667  22.1537752  66.7670379
  17.0898428  21.7014361  67.4925295  16.9795689  22.9563914  66.9508857
  17.1989620  22.2060310  66.9013882  32.9300248  23.4095470  66.0047770
  33.4253913  22.6918465  65.9651790  32.1200024  23.1066267  65.8902257
  32.8844141  23.2593116  65.9821496  28.3758860  27.2593283  58.1544774
  27.5670182  26.9359957  58.1078084  28.8833768  26.5526505  58.0873023
  28.3308526  27.1074599  58.1375069  19.0049137  24.6865476  63.8792139
  18.1394656  24.6751167  63.7674910  19.1047953  24.4995699  64.7263278
  18.8923304  24.6571537  63.9881083  34.9952067  26.1599157  68.6924899
  35.4207138  25.6373579  68.1395324  34.6308987  26.7579995  68.1713521
  35.0038669  26.1709384  68.5333908  24.6306147  34.4563375  67.4522244
  24.9452706  35.2699763  67.4600026  25.0399560  34.0713593  68.1204403
  24.7374245  34.5192077  67.5526336  31.5830666  29.8733421  65.0226056
  32.0541844  30.5873684  65.1916041  31.9190845  29.2732172  65.5585925
  31.7025781  29.8904886  65.1258432  33.6707651  31.4834735  77.2018128
  33.7804616  30.6943295  77.5574875  33.9998547  31.3940671  76.3992466
  33.7360057  31.3540588  77.1360519  32.2204613  29.6651356  71.7853749
  31.6725559  29.0409239  71.5173814  32.6817641  29.8545628  71.0697828
  32.2071822  29.6010406  71.6404180  35.0298477  17.7336710  69.1704941
  34.4461466  18.2345917  68.7582508  35.3502771  17.2266266  68.5369264
  34.9911652  17.7328545  69.0163448  27.5693276  16.6477305  59.4463616
  28.3908970  16.8175618  59.2045311  27.1062927  16.8024566  58.7229913
  27.6224438  16.6959038  59.3035260  21.9719167  28.4036483  67.1000852
  22.5764024  28.3632317  66.4714673  21.7646479  29.2507635  67.1304908
  22.0308064  28.5224486  67.0116969  31.7862939  30.6702428  68.3163090
  32.6061313  30.5265394  68.5779385  31.5057017  31.2948627  68.8579528
  31.8659682  30.7412780  68.4351029  17.2070449  27.3871101  66.9699776
  17.1094727  26.5767372  67.2789832  17.9899319  27.3662894  66.5846044
  17.3086586  27.2638191  66.9586638  41.4576274  37.4142931  66.0358897
  40.6014170  37.5751429  66.0868013  41.5043928  36.5434995  66.0563958
  41.3375386  37.3093733  66.0464963  44.7669991  43.6829457  75.6419353
  45.4736758  43.1881487  75.7706287  44.9557926  44.1238538  74.9122011
  44.8997896  43.6747807  75.5528398  44.3028095  39.4734975  68.6790548
  44.8484055  40.1520062  68.7384518  44.2444971  39.3322436  67.8192130
  44.3744010  39.5526977  68.5602609  37.4202170  46.9624041  64.0658901
  37.5212533  46.1524395  64.3756028  36.8243915  46.8680987  63.4358579
  37.3474709  46.8289069  64.0185139  37.2602910  51.8801630  65.4673757
  37.9040365  52.3214794  65.8569915  37.5859165  51.0755056  65.3804015
  37.4034738  51.8266825  65.5119234  30.6167214  42.9844328  63.6911234
  30.3817399  42.1511980  63.5843503  30.7552855  43.2648993  62.8772435
  30.6022877  42.9027831  63.5553589  32.9157302  35.1530058  66.5895542
  32.2962333  34.5622705  66.4205557  32.8141165  35.7441493  65.9559865
  32.8094977  35.1534141  66.4700532  40.0125197  36.8929600  60.9228005
  40.7105362  37.0717728  61.4149468  40.3277530  36.3699939  60.2998394
  40.1620535  36.8423372  60.9030015  32.6426435  38.6982340  68.8339111
  32.5185132  39.2844785  69.4688930  33.2944719  38.2042536  69.1351386
  32.7200084  38.7121144  68.9725040  37.6684776  41.8744057  68.1126622
  38.3133778  41.3816500  67.7937571  37.9086553  42.0168843  68.9392700
  37.7995361  41.8221499  68.1876155  40.2070867  44.7198963  67.7633515
  40.4894110  43.9250368  67.5420271  40.9357028  45.1979550  67.7838576
  40.3560431  44.6733560  67.7336530  38.1852061  32.2621997  65.0049280
  37.8555391  32.7133140  64.3352978  37.5097063  32.1838160  65.5522286
  38.0362497  32.3173132  64.9872503  45.3928469  28.2507520  63.2498890
  45.0781910  28.9410998  63.6819313  44.8755410  28.1952302  62.5484391
  45.2692939  28.3442408  63.2095840  36.6240510  42.1475237  58.1643769
  36.0397726  42.6525269  58.5709633  36.2210606  41.9217624  57.4240361
  36.4779814  42.1883486  58.1148794  32.1784539  47.8629998  64.9667440
  31.6952117  48.5880488  64.9427024  32.9907857  48.1606128  65.0777598
  32.2275287  48.0132352  64.9794720  38.2498693  46.6562179  67.5717255
  37.7325635  46.2969594  66.9678563  38.9473084  46.1324354  67.5823321
  38.2764274  46.5259867  67.4847514  41.9062285  47.1056993  73.5333428
  41.9945631  46.9183134  74.3811638  42.3351998  46.4594423  73.1338275
  41.9824387  46.9820001  73.6005179  39.4732745  46.3888153  72.5151090
  38.9103580  45.9760763  73.0390751  40.2353768  46.3141059  72.9344233
  39.5027193  46.3165554  72.6544091  36.3908015  30.3234285  60.4872227
  37.1453983  30.6912602  60.2489278  36.2135550  30.6973839  61.2551407
  36.4762493  30.4332473  60.5657116  35.0328736  48.3786174  65.1187720
  35.7349316  47.8638163  65.1760477  34.9526219  48.7060326  65.9234595
  35.1252497  48.3500401  65.2460513  49.6842914  36.4728726  68.5319767
  48.8471335  36.5430913  68.7667361  49.6531145  36.4753220  67.6594069
  49.5561196  36.4838953  68.4379315  36.0807643  38.6161761  74.2468135
  36.2528147  38.5067656  75.0953417  36.6177000  39.2616167  74.0099328
  36.1852647  38.6953763  74.3373232  34.7465080  32.7304604  57.1850340
  34.5640653  32.9476485  56.3591333  35.6090693  32.8443617  57.2408955
  34.8469669  32.7794502  57.0704828  34.3579512  44.5692526  64.6273328
  35.1968411  44.8015459  64.6747090  34.3891281  43.6996838  64.5580364
  34.4861229  44.4749473  64.6237973  34.9832215  44.9893402  68.9286634
  35.5230440  44.8464533  69.5990006  34.3002161  45.3890152  69.2970660
  34.9624369  45.0273072  69.0821056  40.4264799  29.7331015  60.2199364
  41.1550959  29.5546970  59.7737521  40.5159692  30.5749095  60.4306542
  40.5471461  29.8314893  60.1852882  44.4073100  40.6684402  64.1231658
  45.1630615  41.1015916  64.1620567  44.5135424  40.0189172  64.6966294
  44.5343270  40.6361886  64.2129684  47.4453271  44.4957679  64.8734061
  47.0088503  44.4994422  65.6293033  47.1116186  45.1763178  64.4413639
  47.3315891  44.5970135  64.9214894  42.0182344  46.5366012  76.1977212
  42.8022761  46.6496860  76.5632954  41.8178939  45.7107149  76.3935897
  42.1048370  46.4312732  76.2811598  30.3869360  41.2093692  69.0821055
  30.1207775  40.3932809  69.2412046  30.4007924  41.2546848  68.2116571
  30.3494082  41.0950597  68.9774537  47.3650754  31.5371507  67.1163489
  48.0076662  31.6069612  67.7025404  47.6173774  30.8700730  66.6143031
  47.4972886  31.4497856  67.1290768  35.1367966  34.7472071  71.7288063
  34.4439763  34.2769050  71.9748795  35.7528293  34.5210375  72.3029770
  35.1252496  34.6439202  71.8497216  42.1752738  48.4476114  69.8443667
  41.3767983  48.2075614  70.1017536  42.6238749  48.4990507  70.5910715
  42.1227349  48.4198505  69.9928591  30.7962773  41.9952472  66.3632800
  30.6138347  41.9699358  65.5105092  31.5312442  42.4651410  66.4021708
  30.8776837  42.0613834  66.2430718  46.8662448  42.2303982  63.5065687
  47.1018037  42.3749181  62.6792538  47.0152011  42.9946390  63.8997201
  46.9228251  42.3643036  63.4429291  33.8608525  38.7137475  72.8714908
  34.5848497  38.6990505  73.3579803  33.9624662  39.4232830  72.3736877
  33.9826734  38.8162178  72.8693695  41.2353475  42.1936559  77.7363855
  40.4426455  42.5080071  77.9216475  41.3502402  42.4088028  76.8984640
  41.1348885  42.2720396  77.6402190  42.1637267  42.0956763  72.6749152
  42.7376129  41.4584007  72.8297716  42.0852071  42.0960845  71.8058810
  42.2370502  42.0021874  72.5695563  37.5200986  40.5280028  64.7270350
  37.2620230  39.6951763  64.7001649  37.5749469  40.7537641  63.8862850
  37.4900764  40.4377799  64.5990486  42.6002036  32.6308479  64.8274442
  41.8958363  32.1417664  64.9858361  42.6487010  32.6430953  63.9562887
  42.5032088  32.5598127  64.7213782  36.4935698  38.0817791  65.2135244
  35.9185289  38.2409959  65.8499205  36.1171374  37.4453200  64.7503695
  36.3538510  38.0115603  65.2389803  40.1608987  36.5541140  70.0727623
  39.7723419  36.1295358  69.4179814  39.4963685  36.8023289  70.5804649
  40.0055915  36.5279861  70.0515491  49.8032256  36.3116144  62.8475453
  49.5468821  35.4996086  62.6573335  50.6461570  36.3193712  62.6205640
  49.8898281  36.1928142  62.7860270  26.2392517  37.7257865  63.2279685
  26.3252769  37.3489734  64.0093215  26.8668314  37.3518311  62.7499643
  26.3449068  37.6143347  63.2725162  43.9835348  30.2515769  67.5851607
  44.3645860  29.5693940  67.9719481  43.1798633  29.9625371  67.4027271
  43.9211810  30.1082817  67.6155663  47.4857415  43.4665741  72.6834005
  47.2496053  42.6353805  72.5646066  48.1300644  43.4151348  73.2688849
  47.5452086  43.3363428  72.7519899  37.1355833  44.2561262  63.3976742
  37.7729780  44.0173009  63.9428535  37.5610905  44.4598421  62.6629902
  37.2931999  44.2512272  63.3693899  31.8268476  46.4949598  67.2811046
  31.8672621  46.7664449  66.4530825  32.3863000  47.0191506  67.6968833
  31.9151822  46.6125353  67.2202934  37.7758648  39.4763552  57.7351631
  38.1603801  39.2571258  58.4868176  37.5270269  40.3026497  57.8652707
  37.7960721  39.5661698  57.8652708  37.9427189  32.7569967  77.4514215
  37.6280630  33.5269530  77.1883778  37.6217121  32.1940223  76.8666442
  37.8486108  32.7880236  77.3255565  48.5093836  43.2510189  68.7462300
  48.2039653  43.9838246  69.1075615  47.7900051  42.8448119  68.4655086
  48.3581178  43.2991922  68.7575437  39.5177305  44.7333684  65.0770528
  39.5916313  44.5708856  65.9312378  40.3346812  44.9223874  64.8331010
  39.6493664  44.7370427  65.1668554  54.2095628  39.8903190  68.0730644
  54.1420128  39.9099149  67.2033231  54.1951290  40.7333517  68.2986315
  54.1974384  40.0176925  67.9783121  33.2783062  45.0791547  62.1064971
  32.4521180  45.3253284  61.9799250  33.3395053  45.0003628  62.9727030
  33.1657229  45.1036496  62.2153916  35.4959086  31.1460488  63.0660412
  34.6281511  31.2183088  63.1318021  35.7834290  31.9482567  63.2548387
  35.4098834  31.2754635  63.1035178  44.6191974  31.2938348  71.3971733
  45.3645566  31.1048158  70.9835159  44.2029279  31.8196586  70.8385590
  44.6676949  31.3440493  71.2536307  51.9954245  38.6647576  66.3477238
  52.5462167  38.0315645  66.5874331  51.9798361  39.1962969  67.0392743
  52.0739442  38.6496524  66.4856097  38.6476636  42.4986173  70.8937132
  38.1488330  43.2101941  70.9722020  39.4576860  42.8186840  70.8555294
  38.6932743  42.6513022  70.8993700  35.9987807  49.6735810  62.8744151
  35.7788102  49.3833165  63.6670818  35.7782329  49.0150765  62.3462063
  35.9335401  49.5335518  62.9133060  34.9104754  41.7609126  65.1399853
  34.6218002  41.1346598  65.6745580  35.7788102  41.7029414  65.2064533
  34.9965006  41.6596671  65.2290807  45.6982651  36.9043910  65.4581835
  45.3547417  36.1834245  65.8089084  45.7975694  36.6957761  64.6160193
  45.6624694  36.7668113  65.3853515  38.1655762  51.0465200  61.6574843
  38.8179820  50.5141642  61.8865870  37.4681371  50.6933852  62.0442718
  38.1586480  50.9154723  61.7487011  35.1137027  43.4004378  61.0642218
  35.8682995  43.7817417  61.2777680  34.5207640  43.8515521  61.5188914
  35.1373741  43.5233205  61.1625096  37.5743694  35.3567218  76.1899430
  36.7643470  35.6624998  76.0789272  38.0518381  36.0772800  76.3052014
  37.5247173  35.5081819  76.1906501  36.4335254  44.5712939  66.4382333
  35.9116007  44.7113231  67.1234198  36.8209274  43.8123603  66.6284451
  36.4138955  44.4798463  66.5683410  33.4226438  34.6218748  60.5077288
  33.1351233  34.2520018  59.7709235  34.1096906  35.0913603  60.2460993
  33.4815335  34.6365717  60.3592364  37.8601579  41.6016958  61.8363824
  37.6644362  42.2091692  61.2424127  38.0835925  40.9084902  61.3555498
  37.8636220  41.5894483  61.6779905  36.2580109  38.4871696  61.9544693
  36.9802761  38.6512854  61.4948499  35.7788102  39.2081361  61.8484032
  36.2943840  38.6169925  61.8710307  44.2173617  34.8235495  67.3341378
  43.3784718  34.8496773  67.0979641  44.2877984  35.4706230  67.9146724
  44.1042010  34.9231620  67.3850494  33.9087726  40.8929768  71.0598832
  34.4208823  41.1714021  70.4107592  33.6224069  41.6319062  71.4261646
  33.9422589  41.0432122  71.0188711  42.6642895  31.7220872  62.0668993
  43.3669248  31.5228620  61.5888952  42.3987084  30.9496814  62.3737837
  42.7289527  31.5783838  62.0414435  48.0931141  40.0303481  64.6202619
  48.0065115  40.1858907  65.4737398  47.6381621  40.6741557  64.2462024
  48.0134397  40.1479236  64.6909726  30.9954632  35.3999960  61.3562569
  31.0970769  36.2026121  61.6843544  31.7910519  35.1987296  61.0585650
  31.1282538  35.4885859  61.3597924  37.4271451  32.9856157  71.1199874
  37.2354648  33.0011291  71.9699298  38.2770047  33.1819831  71.0966529
  37.5247173  33.0170508  71.2423169  31.8118364  35.5147138  69.0983691
  31.6703856  34.6631079  69.2228198  32.0958928  35.5575799  68.2745897
  31.8326211  35.3946888  68.9951315  41.9656957  37.3514228  63.2428179
  41.7191671  37.2709979  64.0764968  42.2942080  36.5667696  63.0490706
  41.9778200  37.2240494  63.3375702  45.8605006  44.0597588  67.0314960
  45.7219365  44.7578634  67.5363702  45.0805003  43.9046244  66.6751142
  45.7248232  44.1397754  67.0541234  44.1983091  40.3593963  73.2837342
  44.1931129  39.4873780  73.2879768  44.9044085  40.5582132  72.8106797
  44.3028095  40.2597837  73.2144377  37.9253984  40.0870947  72.6551162
  38.0697360  40.6672155  72.0194272  38.2729633  40.4647244  73.3601016
  37.9981445  40.2291651  72.6650157  40.0973901  39.2861115  70.4376293
  39.3497215  39.4792130  70.0324572  40.2515427  38.4606335  70.2000415
  40.0096329  39.1926227  70.3421699  36.9981739  48.2773719  69.5212189
  37.1471303  47.7176635  68.8685593  37.7781741  48.3565721  69.9044708
  37.1355833  48.2059284  69.4809138  39.5235040  48.4488362  70.7996680
  39.4478711  47.7797172  71.3547468  39.4524899  49.1506150  71.3137346
  39.5015647  48.4533269  70.9573528  40.3375678  33.1811666  71.3271697
  40.7948293  33.9135640  71.4544489  40.4132007  32.7578131  72.0858953
  40.4166648  33.2268904  71.4572774  32.5808670  33.4277486  72.4161141
  32.0450859  32.8157844  72.7321908  32.6426434  34.0025622  73.0694808
  32.5104302  33.4224414  72.5596568  44.8103004  26.3601541  65.1965540
  44.9286572  26.8178005  64.4632843  44.6365180  25.5546803  64.9101758
  44.8022175  26.3095313  65.0466474  38.2158056  35.1713770  68.1713521
  37.4254131  34.9905230  68.4930857  38.6118679  34.3940723  68.1543816
  38.1574933  35.0301231  68.2166070  43.6001743  42.8056200  65.8972967
  42.9246744  42.5741432  66.3986354  43.6094119  42.1977383  65.2715072
  43.5020247  42.6815125  65.8789119  40.7295887  37.6474029  72.6537020
  40.6655028  38.5083986  72.5257157  40.8693074  37.3306022  71.8532571
  40.7411357  37.7274196  72.5165233  39.4114981  40.3406169  66.7953223
  38.9877230  40.5410668  66.0592241  39.2359836  39.4935017  66.9077523
  39.3225861  40.2454950  66.7026913  38.9126674  51.8556682  69.2574680
  39.4022604  51.1567471  69.0750345  38.3410906  51.5580552  69.8450738
  38.9011204  51.7082905  69.3175721  34.6997426  40.8358220  62.2281196
  34.8562045  40.7705023  63.0837188  35.0398019  41.6106773  62.0159875
  34.7730660  40.9407418  62.3235790  45.1093678  44.4218751  78.2101471
  45.9228543  44.1503900  78.3706603  44.9488644  44.1226291  77.4061667
  45.2063626  44.3373677  78.1146877  42.3865840  35.1052408  71.1496859
  42.6007809  34.4663322  70.5960213  41.7699739  35.5498232  70.7204721
  42.3271169  35.0762552  71.0047290  43.7970507  48.0271156  62.5951080
  43.4050299  47.7237872  61.8773946  43.9523580  48.8640246  62.4056034
  43.7624097  48.1054993  62.4607577  31.2731687  38.0193170  62.5441963
  31.6530652  38.4377715  61.8802230  30.6987052  38.6006626  62.8510806
  31.2443012  38.1671029  62.4918704  44.5504928  36.7141473  72.0880166
  43.7381609  36.4067364  72.1693339  45.0094862  36.2340473  72.6522879
  44.4985312  36.5977966  72.1834761  43.9610182  44.5921145  62.5357111
  43.6024837  44.7635788  63.3121143  43.4748893  45.0534351  61.9785109
  43.8368879  44.6860116  62.5682380  41.7780568  28.2152344  66.1384202
  40.9074126  28.1891065  66.0917512  42.0320909  28.0429536  65.3210048
  41.6874128  28.1862487  66.0104339  41.6458435  38.1201545  76.8708869
  42.1158066  38.7443661  77.2576743  41.6920315  37.4518520  77.4302083
  41.7226311  38.1136225  77.0108940  38.8029709  30.2258572  67.5957672
  38.2868197  29.5338764  67.7209251  38.2423638  30.8929349  67.5420271
  38.6436222  30.2221830  67.6063738  40.8721942  30.7651532  69.4250525
  40.4853695  30.7900564  70.2064055  40.3854879  30.1993211  68.9725042
  40.7434451  30.6847283  69.4738429  45.1214922  45.4825041  73.4824312
  45.7594642  44.9885237  73.1486768  44.4789013  45.4102442  72.8976538
  45.1209148  45.3984050  73.3466667  46.8471922  37.3314187  68.0490227
  46.4199530  37.2440536  67.2938327  46.2097975  37.4391963  68.6345071
  46.6901529  37.3346847  68.0235669  40.5379084  27.6518518  71.7160785
  41.1672202  28.1878818  71.4381855  40.7064947  27.5595877  72.5674351
  40.6556878  27.7179880  71.8009313  40.3392999  32.4389712  73.9887197
  41.1666428  32.1674861  74.0445811  40.3600845  33.2350554  74.3451015
  40.4645849  32.5169467  74.0502379  45.1769178  46.1744849  70.1229668
  45.9661556  45.8233914  70.2431750  45.3512776  46.9881238  69.8606302
  45.3189460  46.2430707  70.1017536  34.9162489  39.5853575  67.1757457
  34.0750495  39.4857449  67.3836351  35.1252496  40.3549055  67.5271778
  34.8227181  39.6845619  67.2584772  32.3938056  37.2073112  65.0042208
  31.9994753  37.2816124  64.2292317  31.8378172  37.5931058  65.5550570
  32.2540868  37.2754887  64.9709868  44.0303002  30.1854406  64.6846087
  44.2352596  30.1176714  65.5303084  43.7029426  30.9913227  64.6167264
  44.0118250  30.2940347  64.8005742  38.7279153  37.5134974  66.4255055
  38.4242291  36.9590963  67.0265462  38.0258574  37.6927184  65.9383089
  38.5795363  37.4579757  66.4424760  37.7845251  34.8235494  60.9899757
  38.0604985  34.1054407  60.5777324  38.3843920  35.4220414  60.7820863
  37.9138515  34.8055865  60.8980518  36.7897504  44.7284695  71.1327152
  36.6817859  44.7386757  71.9989211  36.9993286  45.5539476  70.9432106
  36.8047615  44.8525770  71.2331244  47.2836690  30.7386170  64.1648852
  46.6711004  31.2256573  64.5502584  47.3800865  30.0629661  64.7086503
  47.2074588  30.7104479  64.3027710  41.2855771  32.4949012  59.2646352
  41.7399518  32.6659572  59.9894196  41.7595817  31.8817122  58.8644127
  41.4224091  32.4299897  59.3120113  34.8071296  41.9797338  68.5949090
  34.2159230  42.6206836  68.5652105  35.5692320  42.4034955  68.5680390
  34.8319557  42.1373176  68.5864237  35.2031919  33.1399335  69.2617108
  35.6633401  33.2138265  69.9992231  35.2488026  33.9380589  68.9116929
  35.2782475  33.2693482  69.3189864  36.8515269  33.8066030  73.8289135
  36.4600834  33.1599377  74.2644913  37.0201132  34.3977465  74.4483390
  36.8186179  33.7980298  73.9851841  50.9261718  41.8103107  69.5926368
  50.9844842  42.2589756  70.3386345  50.2928186  42.2201920  69.1556448
  50.8413013  41.9376842  69.6378917  44.5660813  47.4306649  66.0281114
  44.3680501  47.9197464  65.3337326  43.9448524  47.6347891  66.6065248
  44.4448377  47.5323187  66.0104338  38.6268791  39.1991546  60.3691359
  39.3710836  39.5865822  60.6074309  38.7729487  38.3548971  60.5331847
  38.7579376  39.1322019  60.4285328  40.5448366  30.9941805  65.4023220
  39.6984412  31.1664613  65.2764570  40.5419499  30.1891149  65.7389049
  40.4195516  30.9002834  65.4334347  41.6146667  34.7717019  66.2685278
  41.1406621  34.2458781  66.7790589  41.9864803  34.2246492  65.7000140
  41.5996556  34.6133016  66.2600425  31.9919697  36.7688526  71.6368824
  32.8545310  36.6684235  71.5506154  31.6611480  36.1883235  71.0754396
  32.0704893  36.6680153  71.5414230  47.8783397  39.8319395  67.6792059
  47.6381620  38.9925810  67.6834485  48.3575405  39.9119562  68.4032832
  47.9135581  39.7200795  67.7866861  49.8788584  36.6120852  65.6321318
  49.6398354  36.5716686  64.7942102  50.0422486  37.4592004  65.7587039
  49.8678888  36.7312937  65.5274800  46.4834615  40.9970801  71.5626363
  47.2068813  40.5443328  71.3837383  46.2184577  41.2775467  70.7798691
  46.5515888  40.9721770  71.4205078  35.3521483  35.5930975  68.2979242
  34.7274553  35.6049367  67.6905195  35.0167078  36.0691150  68.9470482
  35.2106975  35.6649492  68.3035811  32.0647159  43.6531435  69.7383006
  31.5347083  42.9623874  69.7877981  32.3372252  43.6441620  68.9095715
  32.0271881  43.5498567  69.6230422  42.2653404  41.0954680  69.7121378
  41.6510397  40.5512730  70.0070013  42.7820689  40.5818916  69.2327194
  42.2509067  40.9391089  69.6845606  41.5049701  42.1658950  67.4465677
  41.0777309  41.5408668  67.0131112  41.4974646  41.8833872  68.2724684
  41.4408842  42.0311730  67.5045504  34.6212228  37.2024123  70.5154111
  34.7805715  36.4467447  70.9205832  34.4405122  37.7515062  71.1694848
  34.6177587  37.1717936  70.6716817  42.5632531  29.3685358  71.0704900
  42.0673093  29.5649033  70.3796467  43.3201593  29.7678027  70.8993702
  42.6019356  29.4563092  70.9425037  39.8335411  33.0427704  67.6608211
  39.8577898  32.5087816  66.9720991  40.0846885  32.5345013  68.3233801
  39.8745330  32.8888608  67.6572855  27.3443001  40.3259199  67.0951355
  27.2386450  40.2806044  66.2303439  26.5943221  40.6712980  67.3765640
  27.2178604  40.3700107  67.0088684  36.1136733  31.7698522  67.0413955
  36.1535105  32.2707729  67.7548662  35.2886398  31.8608916  66.7719878
  35.9976259  31.8580339  67.1064493  38.2966346  41.3359262  75.1434249
  37.4461977  41.4730977  75.2791894  38.4594474  40.6023041  75.5881951
  38.1950210  41.2473364  75.2289849  37.5351097  38.2859032  69.3387854
  36.7043026  38.4532850  69.1323102  37.4802614  37.9094983  70.1236739
  37.4040511  38.2548764  69.4236382  35.3434880  31.7767925  74.9744265
  35.9687583  31.2330058  75.2473697  34.8885360  31.2962843  74.4052055
  35.3683140  31.6257407  74.9305858  35.9087140  36.5614624  59.8677972
  36.0490101  37.0587088  60.5706613  36.4069673  35.8600918  60.0092185
  36.0028221  36.5316603  59.9929551  35.9387363  37.4281735  57.1970548
  36.5732442  38.0242160  57.1320010  36.0212974  37.1285192  58.0116419
  36.0443914  37.4722643  57.3073635  48.9169929  39.9597212  70.0656913
  49.5087769  40.5994463  70.0975111  49.3528923  39.2620249  70.3548979
  49.0688360  39.9515563  70.1137745  37.5166346  33.3595710  57.1715990
  37.8382187  32.8798793  56.5175253  37.7793289  34.1695356  56.9806802
  37.6032371  33.4085608  57.0471482  40.7463318  44.3814585  70.6914807
  40.2388409  44.9350431  71.1355437  40.4489965  44.4422874  69.8733581
  40.6268203  44.4720896  70.6363263  42.9125501  32.7467904  69.5339470
  43.3380572  32.2940431  68.9222996  42.2982494  32.1927975  69.8104257
  42.8854146  32.5981880  69.4844495  32.4440351  39.6249576  60.4660094
  32.9532580  40.2214083  60.8471400  32.9174623  39.3575549  59.7836514
  32.5883726  39.6735391  60.4214617  41.3519723  29.2183004  62.9430047
  40.7088041  29.0680650  63.5115185  41.0119130  28.9725349  62.1779151
  41.2064801  29.1595126  62.9133062  39.9905804  49.3139143  67.5971813
  39.7671458  48.5557972  67.9655840  39.5015647  49.3437164  66.8752253
  39.8849253  49.2061367  67.5448554  46.1047197  33.6298314  65.2750428
  46.4574807  33.2028037  65.9496227  45.2461999  33.5449158  65.4051505
  46.0296642  33.5543055  65.3945439  34.8030882  36.2605834  63.3333275
  34.0842872  36.6769967  63.6006138  35.1743245  36.8260073  62.7824913
  34.7522814  36.4055116  63.2916082  44.1030463  36.8933683  69.2235271
  44.0828391  36.7116978  70.0770049  44.1509664  37.7645702  69.1994854
  44.1065104  36.9950221  69.3458565  42.0476793  43.4820875  75.1483747
  42.0072648  42.8370552  74.5628903  42.8600111  43.4257492  75.4609159
  42.1619947  43.3779842  75.1080696  38.6384261  49.5339601  65.0508898
  38.2244659  48.8713731  64.6612740  39.3231635  49.6817460  64.5304592
  38.6782632  49.4580259  64.9165395  42.0049555  48.6929686  65.8032515
  41.6065838  48.8031957  65.0353335  41.3900774  48.9011753  66.3859074
  41.8548444  48.7403254  65.7763814  40.5777457  35.3003834  58.6706654
  39.9842296  35.6220831  58.1191221  40.6152734  34.4544929  58.4627760
  40.4951846  35.2228162  58.5589426  47.5371257  28.7516726  66.2034741
  47.0302122  28.0445866  66.1355918  48.3338691  28.4209915  66.3335817
  47.5798497  28.5989878  66.2133736  37.7354502  37.1117812  71.7033505
  37.2233405  36.5038995  72.0618536  37.5633998  37.8274404  72.1707481
  37.6344139  37.1281111  71.8249728  32.5820216  35.5555387  74.3535867
  32.4122807  36.2156762  73.8084073  32.1386166  35.7661948  75.0748356
  32.4919550  35.6841369  74.3797496  36.5080036  33.7959885  63.3962600
  36.9837402  34.1576965  62.7612781  36.0068635  34.4516352  63.6762743
  36.5045395  33.9454074  63.3439341  41.6123572  35.0342056  74.1435760
  42.1695002  34.8055866  73.5114226  41.2884637  35.7947722  73.8670973
  41.6469982  35.1125893  74.0092257  29.4822281  38.4602252  69.6124356
  28.9349000  37.7902898  69.7305225  30.2714659  38.0932100  69.6767824
  29.5174465  38.3067239  69.6393057  39.3306689  38.1209710  75.1087767
  40.0818016  38.4361386  75.4227322  39.5229266  37.9188880  74.2821689
  39.4698104  38.1377091  75.0331163  46.1791980  34.2483276  62.3511563
  46.1786206  34.0931932  63.2095839  45.9748160  35.0946263  62.2952948
  46.1491757  34.3503897  62.4699502  28.2409250  37.6723060  66.7670379
  28.0631012  37.2199669  67.4925295  27.9528273  38.4749222  66.9508857
  28.1722204  37.7245618  66.9013882  43.9032832  38.9280778  66.0047770
  44.3986497  38.2103773  65.9651790  43.0932607  38.6251575  65.8902257
  43.8576725  38.7778424  65.9821496  29.9781720  40.2050784  63.8792139
  29.1127240  40.1936474  63.7674910  30.0780536  40.0181007  64.7263278
  29.8655887  40.1756845  63.9881083  45.9684650  41.6784465  68.6924899
  46.3939722  41.1558887  68.1395324  45.6041570  42.2765303  68.1713521
  45.9771253  41.6894692  68.5333908  35.6038730  49.9748683  67.4522244
  35.9185289  50.7885071  67.4600026  36.0132144  49.5898901  68.1204403
  35.7106828  50.0377385  67.5526336  42.5563250  45.3918729  65.0226056
  43.0274428  46.1058992  65.1916041  42.8923428  44.7917480  65.5585925
  42.6758365  45.4090194  65.1258432  44.6440234  47.0020043  77.2018128
  44.7537200  46.2128603  77.5574875  44.9731131  46.9125979  76.3992466
  44.7092640  46.8725896  77.1360519  39.4732745  30.1646200  71.9784151
  39.6060650  29.3677193  72.3065126  39.8577898  30.6912603  72.5582426
  39.5489074  30.1246117  72.1127654  43.1937196  45.1836664  71.7853749
  42.6458142  44.5594547  71.5173814  43.6550225  45.3730936  71.0697828
  43.1804406  45.1195714  71.6404180  42.5465100  27.0876526  68.5765244
  41.7411064  26.9774256  68.8933082  42.4171835  27.1888982  67.7195110
  42.4085233  27.0860196  68.4973284  46.0031061  33.2522018  69.1704941
  45.4194049  33.7531225  68.7582508  46.3235355  32.7451574  68.5369264
  45.9644236  33.2513853  69.0163448  38.5425860  32.1662613  59.4463616
  39.3641554  32.3360926  59.2045311  38.0795511  32.3209874  58.7229913
  38.5957022  32.2144346  59.3035260  37.1321192  30.1605375  70.2262045
  37.6765605  29.8196502  70.8166386  37.1858127  31.0190837  70.3683329
  37.2210311  30.2360634  70.3343918  32.9451750  43.9221791  67.1000852
  33.5496608  43.8817625  66.4714673  32.7379063  44.7692943  67.1304908
  33.0040648  44.0409794  67.0116969  42.7595523  46.1887736  68.3163090
  43.5793896  46.0450702  68.5779385  42.4789600  46.8133935  68.8579528
  42.8392266  46.2598088  68.4351029  28.1803033  42.9056409  66.9699776
  28.0827311  42.0952680  67.2789832  28.9631902  42.8848202  66.5846044
  28.2819169  42.7823499  66.9586638  59.2309173  53.8452588  61.2805966
  59.2003177  54.6997225  61.4524236  59.8290522  53.5447881  61.8392110
  59.3146331  53.9269085  61.3880768  52.4308858  52.9328239  66.0358897
  51.5746753  53.0936737  66.0868013  52.4776511  52.0620303  66.0563958
  52.3107969  52.8279041  66.0464963  46.8149997  62.4690957  61.7996128
  46.0632897  62.0906495  61.5712173  47.2636009  62.5009390  61.0514938
  46.7699664  62.4176564  61.6553630  52.2674957  62.8916326  57.2281675
  51.9326326  63.5693248  56.7925897  52.7801828  62.5021638  56.6398547
  52.2940538  62.9340905  57.0768467  51.8079249  64.8430595  63.1692787
  52.1918628  65.4117494  62.6297562  51.7438390  64.1180105  62.6898603
  51.8552676  64.8206058  63.0186649  55.2760679  54.9920283  68.6790548
  55.8216639  55.6705369  68.7384518  55.2177555  54.8507744  67.8192130
  55.3476593  55.0712285  68.5602609  48.3934754  62.4809349  64.0658901
  48.4945117  61.6709703  64.3756028  47.7976499  62.3866295  63.4358579
  48.3207292  62.3474377  64.0185139  57.0525747  56.4204890  59.5524276
  56.9365273  57.1712576  59.9816414  57.8481634  56.1628843  59.8020363
  57.1530337  56.4939737  59.6528368  48.2335493  67.3986938  65.4673757
  48.8772949  67.8400102  65.8569915  48.5591749  66.5940364  65.3804015
  48.3767322  67.3452133  65.5119234  41.5899798  58.5029636  63.6911234
  41.3549982  57.6697288  63.5843503  41.7285439  58.7834301  62.8772435
  41.5755460  58.4213139  63.5553589  43.8889885  50.6715366  66.5895542
  43.2694917  50.0808013  66.4205557  43.7873749  51.2626801  65.9559865
  43.7827561  50.6719449  66.4700532  48.9356073  60.4098913  60.8393618
  49.2571914  60.9504120  60.2354927  49.5828169  59.8395684  60.9715908
  49.0782128  60.4058088  60.7700654  50.9857781  52.4114908  60.9228005
  51.6837946  52.5903035  61.4149468  51.3010114  51.8885247  60.2998394
  51.1353118  52.3608680  60.9030015  43.6159018  54.2167648  68.8339111
  43.4917715  54.8030093  69.4688930  44.2677303  53.7227844  69.1351386
  43.6932668  54.2306452  68.9725040  51.1745716  58.7985353  60.9107797
  51.6139352  58.1902453  61.3562569  51.0250379  58.4192726  60.1393262
  51.2167182  58.6523824  60.8626964  48.6417359  57.3929365  68.1126622
  49.2866362  56.9001808  67.7937571  48.8819136  57.5354151  68.9392700
  48.7727944  57.3406807  68.1876155  51.1803451  60.2384271  67.7633515
  51.4626694  59.4435676  67.5420271  51.9089611  60.7164858  67.7838576
  51.3293014  60.1918868  67.7336530  54.7755053  57.1512534  57.8638566
  54.6906348  58.0073501  58.0088135  55.2639436  56.8756858  58.5320725
  54.8343950  57.2369856  57.9840647  56.3661052  43.7692827  63.2498890
  56.0514493  44.4596306  63.6819313  55.8487994  43.7137610  62.5484391
  56.2425523  43.8627716  63.2095840  55.7073486  53.7697328  59.3636301
  55.1784958  53.9856962  60.0233607  56.2298506  54.4633467  59.2837270
  55.7061939  53.9040465  59.4491900  61.1621539  59.3443633  64.7369345
  60.3319242  59.5554277  64.9002762  61.1130791  58.5180687  64.4611629
  61.0328274  59.2533239  64.7206711  47.5973094  57.6660545  58.1643769
  47.0130309  58.1710577  58.5709633  47.1943189  57.4402932  57.4240361
  47.4512398  57.7068794  58.1148794  43.1517123  63.3815306  64.9667440
  42.6684701  64.1065796  64.9427024  43.9640441  63.6791436  65.0777598
  43.2007870  63.5317660  64.9794720  49.2231277  62.1747487  67.5717255
  48.7058218  61.8154902  66.9678563  49.9205668  61.6509661  67.5823321
  49.2496858  62.0445175  67.4847514  52.0550308  53.9126197  56.6412690
  52.2946312  54.1204181  55.8288033  52.3766149  53.1083706  56.7501634
  52.1387466  53.8240298  56.5373243  46.0061320  63.8971482  65.1187720
  46.7081899  63.3823471  65.1760477  45.9258803  64.2245634  65.9234595
  46.0985080  63.8685708  65.2460513  60.6575497  51.9914034  68.5319767
  59.8203918  52.0616221  68.7667361  60.6263728  51.9938528  67.6594069
  60.5293780  52.0024261  68.4379315  47.0540226  54.1347069  74.2468135
  47.2260730  54.0252964  75.0953417  47.5909584  54.7801475  74.0099328
  47.1585230  54.2139071  74.3373232  45.3312095  60.0877834  64.6273328
  46.1700995  60.3200767  64.6747090  45.3623864  59.2182146  64.5580364
  45.4593813  59.9934781  64.6237973  45.9564798  60.5078709  68.9286634
  46.4963023  60.3649840  69.5990006  45.2734745  60.9075460  69.2970660
  45.9356952  60.5458380  69.0821056  55.3805683  56.1869710  64.1231658
  56.1363198  56.6201224  64.1620567  55.4868008  55.5374480  64.6966294
  55.5075854  56.1547194  64.2129684  58.4185854  60.0142987  64.8734061
  57.9821086  60.0179730  65.6293033  58.0848770  60.6948486  64.4413639
  58.3048474  60.1155443  64.9214894  41.3601943  56.7279000  69.0821055
  41.0940359  55.9118117  69.2412046  41.3740507  56.7732156  68.2116571
  41.3226666  56.6135905  68.9774537  58.3383337  47.0556815  67.1163489
  58.9809246  47.1254920  67.7025404  58.5906358  46.3886038  66.6143031
  58.4705469  46.9683164  67.1290768  46.1100550  50.2657379  71.7288063
  45.4172346  49.7954358  71.9748795  46.7260877  50.0395683  72.3029770
  46.0985080  50.1624510  71.8497216  61.5530200  56.7323907  63.7653698
  62.2146635  56.1714576  63.6649607  60.9121612  56.2375938  64.0906390
  61.5559068  56.5760316  63.7986039  52.4407008  60.0294039  56.0734622
  52.8558157  59.6979062  55.3819117  51.6098938  59.7962941  55.9454758
  52.3795017  59.9465295  55.9525469  41.7695357  57.5137780  66.3632800
  41.5870930  57.4884666  65.5105092  42.5045026  57.9836717  66.4021708
  41.8509421  57.5799142  66.2430718  57.8395031  57.7489290  63.5065687
  58.0750620  57.8934488  62.6792538  57.9884595  58.5131698  63.8997201
  57.8960834  57.8828344  63.4429291  44.8341109  54.2322782  72.8714908
  45.5581081  54.2175813  73.3579803  44.9357245  54.9418138  72.3736877
  44.9559318  54.3347486  72.8693695  59.6685488  56.5890956  61.3435291
  59.9993705  57.1218596  60.7375386  60.2418576  56.6429843  61.9997242
  59.8019167  56.6760524  61.3513073  54.8817377  54.4355858  62.0258871
  54.9764231  55.1745152  62.4798497  54.2576221  54.0073334  62.4593436
  54.8026407  54.4817179  62.1567019  41.7366267  54.3931280  66.5131866
  42.3139770  54.2567731  67.1524112  41.0380329  53.9367064  66.7677451
  41.7187289  54.3053547  66.6454156  55.1340398  56.2804598  55.2595823
  55.0520561  56.3506785  56.1250810  55.7720119  56.8434342  55.0679564
  55.2160236  56.3743569  55.3585773  48.4933570  56.0465336  64.7270350
  48.2352814  55.2137071  64.7001649  48.5482052  56.2722949  63.8862850
  48.4633347  55.9563107  64.5990486  47.4668282  53.6003098  65.2135244
  46.8917873  53.7595267  65.8499205  47.0903958  52.9638508  64.7503695
  47.3271094  53.5300911  65.2389803  51.1341570  52.0726448  70.0727623
  50.7456003  51.6480665  69.4179814  50.4696269  52.3208597  70.5804649
  50.9788498  52.0465169  70.0515491  60.7764839  51.8301452  62.8475453
  60.5201404  51.0181394  62.6573335  61.6194153  51.8379020  62.6205640
  60.8630865  51.7113450  62.7860270  37.2125101  53.2443173  63.2279685
  37.2985352  52.8675042  64.0093215  37.8400898  52.8703619  62.7499643
  37.3181652  53.1328655  63.2725162  54.9567932  45.7701076  67.5851607
  55.3378444  45.0879248  67.9719481  54.1531216  45.4810679  67.4027271
  54.8944394  45.6268125  67.6155663  52.2380509  56.3025052  58.2704430
  53.0521147  56.5939945  58.1587201  52.1739650  55.6484915  57.6962723
  52.3483248  56.2490247  58.1693267  48.1088417  59.7746570  63.3976742
  48.7462364  59.5358317  63.9428535  48.5343488  59.9783729  62.6629902
  48.2664583  59.7697580  63.3693899  42.8001059  62.0134906  67.2811046
  42.8405204  62.2849757  66.4530825  43.3595583  62.5376814  67.6968833
  42.8884405  62.1310661  67.2202934  48.7491232  54.9948860  57.7351631
  49.1336385  54.7756566  58.4868176  48.5002852  55.8211805  57.8652707
  48.7693304  55.0847006  57.8652708  48.9159772  48.2755275  77.4514215
  48.6013213  49.0454837  77.1883778  48.5949705  47.7125531  76.8666442
  48.8218691  48.3065543  77.3255565  50.4909889  60.2518992  65.0770528
  50.5648897  60.0894164  65.9312378  51.3079395  60.4409182  64.8331010
  50.6226247  60.2555735  65.1668554  44.2515645  60.5976855  62.1064971
  43.4253763  60.8438592  61.9799250  44.3127637  60.5188936  62.9727030
  44.1389812  60.6221804  62.2153916  46.4691669  46.6645796  63.0660412
  45.6014095  46.7368396  63.1318021  46.7566874  47.4667875  63.2548387
  46.3831417  46.7939943  63.1035178  55.5924558  46.8123656  71.3971733
  56.3378150  46.6233466  70.9835159  55.1761863  47.3381894  70.8385590
  55.6409532  46.8625801  71.2536307  49.0314474  63.2153735  59.8084001
  49.3212773  62.8242717  59.0843228  49.7617955  63.3970440  60.2489277
  49.1821359  63.1847549  59.7666808  62.9686829  54.1832884  66.3477238
  63.5194750  53.5500953  66.5874331  62.9530944  54.7148277  67.0392743
  63.0472025  54.1681832  66.4856097  49.6209220  58.0171481  70.8937132
  49.1220913  58.7287249  70.9722020  50.4309444  58.3372148  70.8555294
  49.6665326  58.1698330  70.8993700  46.9720390  65.1921118  62.8744151
  46.7520685  64.9018473  63.6670818  46.7514912  64.5336073  62.3462063
  46.9067984  65.0520826  62.9133060  45.8837337  57.2794434  65.1399853
  45.5950586  56.6531906  65.6745580  46.7520685  57.2214722  65.2064533
  45.9697589  57.1781979  65.2290807  56.6715235  52.4229218  65.4581835
  56.3280001  51.7019553  65.8089084  56.7708278  52.2143069  64.6160193
  56.6357278  52.2853421  65.3853515  49.1388346  66.5650508  61.6574843
  49.7912404  66.0326950  61.8865870  48.4413955  66.2119160  62.0442718
  49.1319064  66.4340031  61.7487011  46.0869611  58.9189685  61.0642218
  46.8415579  59.3002724  61.2777680  45.4940223  59.3700829  61.5188914
  46.1106324  59.0418513  61.1625096  57.1328264  58.8854922  61.0005823
  57.6986297  59.5448132  60.9164366  56.4856168  59.2304620  61.4722225
  57.1207021  59.0336863  61.0578579  48.5476278  50.8752526  76.1899430
  47.7376053  51.1810305  76.0789272  49.0250964  51.5958108  76.3052014
  48.4979756  51.0267127  76.1906501  47.4067837  60.0898247  66.4382333
  46.8848591  60.2298538  67.1234198  47.7941858  59.3308911  66.6284451
  47.3871538  59.9983771  66.5683410  44.3959021  50.1404056  60.5077288
  44.1083817  49.7705326  59.7709235  45.0829490  50.6098911  60.2460993
  44.4547919  50.1551025  60.3592364  53.6034842  61.8293706  60.4242902
  53.3621518  61.0961567  60.0169967  53.7836175  62.3780563  59.7709235
  53.5942466  61.8016097  60.2673125  48.8334163  57.1202266  61.8363824
  48.6376946  57.7277000  61.2424127  49.0568508  56.4270210  61.3555498
  48.8368804  57.1079791  61.6779905  47.2312693  54.0057004  61.9544693
  47.9535345  54.1698162  61.4948499  46.7520686  54.7266669  61.8484032
  47.2676424  54.1355233  61.8710307  55.1906200  50.3420803  67.3341378
  54.3517301  50.3682081  67.0979641  55.2610568  50.9891538  67.9146724
  55.0774594  50.4416928  67.3850494  44.8820310  56.4115076  71.0598832
  45.3941407  56.6899329  70.4107592  44.5956652  57.1504370  71.4261646
  44.9155173  56.5617430  71.0188711  59.0663724  55.5488789  64.6202619
  58.9797699  55.7044215  65.4737398  58.6114204  56.1926865  64.2462024
  58.9866981  55.6664544  64.6909726  41.9687216  50.9185268  61.3562569
  42.0703352  51.7211429  61.6843544  42.7643103  50.7172604  61.0585650
  42.1015122  51.0071167  61.3597924  48.4004035  48.5041465  71.1199874
  48.2087232  48.5196599  71.9699298  49.2502631  48.7005139  71.0966529
  48.4979757  48.5355816  71.2423169  42.7850948  51.0332446  69.0983691
  42.6436440  50.1816387  69.2228198  43.0691511  51.0761107  68.2745897
  42.8058794  50.9132196  68.9951315  52.9389540  52.8699536  63.2428179
  52.6924255  52.7895287  64.0764968  53.2674663  52.0853004  63.0490706
  52.9510784  52.7425802  63.3375702  56.8337589  59.5782896  67.0314960
  56.6951948  60.2763942  67.5363702  56.0537587  59.4231552  66.6751142
  56.6980816  59.6583062  67.0541234  48.8986568  55.6056255  72.6551162
  49.0429943  56.1857463  72.0194272  49.2462216  55.9832552  73.3601016
  48.9714029  55.7476959  72.6650157  51.0706485  54.8046423  70.4376293
  50.3229799  54.9977438  70.0324572  51.2248010  53.9791643  70.2000415
  50.9828913  54.7111535  70.3421699  58.3290962  58.9361150  57.7931459
  57.9497771  58.1498287  57.7860749  57.6657207  59.4848007  57.6503103
  58.1749437  58.9005973  57.7712256  51.3108262  48.6996974  71.3271697
  51.7680876  49.4320948  71.4544489  51.3864591  48.2763439  72.0858953
  51.3899232  48.7454212  71.4572774  43.5541253  48.9462794  72.4161141
  43.0183443  48.3343152  72.7321908  43.6159018  49.5210930  73.0694808
  43.4836886  48.9409722  72.5596568  55.7835588  41.8786849  65.1965540
  55.9019156  42.3363313  64.4632843  55.6097764  41.0732110  64.9101758
  55.7754759  41.8280621  65.0466474  51.1537870  62.4874669  61.6320286
  51.9187761  62.2184312  61.3102950  51.0515960  62.0024679  62.3490348
  51.2519366  62.3764233  61.6900113  49.1890640  50.6899078  68.1713521
  48.3986715  50.5090538  68.4930857  49.5851263  49.9126031  68.1543816
  49.1307516  50.5486539  68.2166070  53.6756531  59.5186852  53.6120235
  54.4429516  59.5786977  53.2026087  53.2287840  58.9467294  53.1276553
  53.7229958  59.4423428  53.4797945  54.5734326  58.3241508  65.8972967
  53.8979328  58.0926740  66.3986354  54.5826702  57.7162691  65.2715072
  54.4752831  58.2000433  65.8789119  51.7028470  53.1659337  72.6537020
  51.6387611  54.0269294  72.5257157  51.8425658  52.8491330  71.8532571
  51.7143940  53.2459504  72.5165233  56.5751061  61.1806641  58.1283145
  56.6570898  61.9873627  57.8044596  57.0600803  61.2002600  58.8523919
  56.6588219  61.3027303  58.1870044  50.3847564  55.8591476  66.7953223
  49.9609813  56.0595976  66.0592241  50.2092419  55.0120324  66.9077523
  50.2958445  55.7640258  66.7026913  45.6730009  56.3543528  62.2281196
  45.8294628  56.2890331  63.0837188  46.0130602  57.1292080  62.0159875
  45.7463244  56.4592726  62.3235790  52.2109154  55.7301411  61.0974559
  52.7524699  55.2271793  61.5613179  52.5255713  55.6766606  60.2864044
  52.3373551  55.6480832  61.0458371  50.3795603  61.1218763  58.3814587
  50.4488424  60.2633301  58.5207587  51.1584059  61.3390644  58.0533611
  50.5048453  61.0271627  58.3531744  53.3598423  50.6237716  71.1496859
  53.5740393  49.9848630  70.5960213  52.7432322  51.0683540  70.7204721
  53.3003752  50.5947860  71.0047290  54.7703091  63.5456464  62.5951080
  54.3782883  63.2423179  61.8773946  54.9256163  64.3825554  62.4056034
  54.7356681  63.6240301  62.4607577  42.2464271  53.5378478  62.5441963
  42.6263235  53.9563023  61.8802230  41.6719635  54.1191934  62.8510806
  42.2175595  53.6856337  62.4918704  55.5237511  52.2326781  72.0880166
  54.7114193  51.9252672  72.1693339  55.9827446  51.7525781  72.6522879
  55.4717896  52.1163274  72.1834761  54.9342766  60.1106453  62.5357111
  54.5757420  60.2821096  63.3121143  54.4481477  60.5719659  61.9785109
  54.8101463  60.2045424  62.5682380  52.7513152  43.7337652  66.1384202
  51.8806710  43.7076373  66.0917512  53.0053493  43.5614844  65.3210048
  52.6606712  43.7047795  66.0104339  49.7231131  55.7905619  55.0757345
  50.0123656  56.5670501  55.3500919  49.8102930  55.2794350  55.7771844
  49.7785387  55.8297537  55.2199843  49.7762292  45.7443880  67.5957672
  49.2600781  45.0524072  67.7209251  49.2156221  46.4114657  67.5420271
  49.6168805  45.7407138  67.6063738  51.8454526  46.2836840  69.4250525
  51.4586279  46.3085872  70.2064055  51.3587463  45.7178519  68.9725042
  51.7167035  46.2032591  69.4738429  57.8204505  52.8499495  68.0490227
  57.3932113  52.7625844  67.2938327  57.1830558  52.9577271  68.6345071
  57.6634112  52.8532155  68.0235669  51.5111667  43.1703826  71.7160785
  52.1404785  43.7064126  71.4381855  51.6797530  43.0781185  72.5674351
  51.6289462  43.2365188  71.8009313  51.3125582  47.9575020  73.9887197
  52.1399012  47.6860169  74.0445811  51.3333428  48.7535862  74.3451015
  51.4378432  48.0354775  74.0502379  45.8895072  55.1038883  67.1757457
  45.0483079  55.0042757  67.3836351  46.0985080  55.8734363  67.5271778
  45.7959765  55.2030926  67.2584772  43.3670639  52.7258420  65.0042208
  42.9727337  52.8001432  64.2292317  42.8110756  53.1116366  65.5550570
  43.2273451  52.7940195  64.9709868  55.0035586  45.7039714  64.6846087
  55.2085179  45.6362022  65.5303084  54.6762010  46.5098535  64.6167264
  54.9850834  45.8125655  64.8005742  49.7011737  53.0320282  66.4255055
  49.3974875  52.4776271  67.0265462  48.9991158  53.2112492  65.9383089
  49.5527947  52.9765065  66.4424760  47.7630088  60.2470003  71.1327152
  47.6550443  60.2572065  71.9989211  47.9725869  61.0724783  70.9432106
  47.7780199  60.3711078  71.2331244  58.2569274  46.2571478  64.1648852
  57.6443587  46.7441880  64.5502584  58.3533448  45.5814969  64.7086503
  58.1807171  46.2289787  64.3027710  45.7803880  57.4982645  68.5949090
  45.1891813  58.1392144  68.5652105  46.5424904  57.9220263  68.5680390
  45.8052141  57.6558484  68.5864237  46.1764503  48.6584643  69.2617108
  46.6365984  48.7323573  69.9992231  46.2220610  49.4565897  68.9116929
  46.2515058  48.7878790  69.3189864  47.8247853  49.3251338  73.8289135
  47.4333418  48.6784685  74.2644913  47.9933715  49.9162773  74.4483390
  47.7918763  49.3165606  73.9851841  55.5393396  62.9491957  66.0281114
  55.3413085  63.4382771  65.3337326  54.9181107  63.1533199  66.6065248
  55.4180961  63.0508495  66.0104338  49.6001375  54.7176854  60.3691359
  50.3443420  55.1051130  60.6074309  49.7462071  53.8734279  60.5331847
  49.7311960  54.6507327  60.4285328  52.5879250  50.2902327  66.2685278
  52.1139205  49.7644089  66.7790589  52.9597386  49.7431800  65.7000140
  52.5729139  50.1318324  66.2600425  42.9652281  52.2873834  71.6368824
  43.8277894  52.1869543  71.5506154  42.6344064  51.7068543  71.0754396
  43.0437477  52.1865461  71.5414230  58.8515981  55.3504703  67.6792059
  58.6114204  54.5111118  67.6834485  59.3307988  55.4304870  68.4032832
  58.8868165  55.2386103  67.7866861  60.8521168  52.1306160  65.6321318
  60.6130938  52.0901994  64.7942102  61.0155069  52.9777312  65.7587039
  60.8411472  52.2498245  65.5274800  46.3254067  51.1116283  68.2979242
  45.7007137  51.1234675  67.6905195  45.9899661  51.5876458  68.9470482
  46.1839558  51.1834800  68.3035811  43.0379742  59.1716743  69.7383006
  42.5079667  58.4809182  69.7877981  43.3104835  59.1626928  68.9095715
  43.0004464  59.0683875  69.6230422  54.0699833  59.7542445  58.4620689
  54.7934031  60.2200558  58.3185262  53.6300424  59.8216055  57.7118286
  54.1115525  59.8326282  58.3305470  53.2385988  56.6139988  69.7121378
  52.6242981  56.0698038  70.0070013  53.7553273  56.1004224  69.2327194
  53.2241650  56.4576397  69.6845606  52.4782285  57.6844258  67.4465677
  52.0509893  57.0593976  67.0131112  52.4707229  57.4019179  68.2724684
  52.4141426  57.5497038  67.5045504  45.5944812  52.7209431  70.5154111
  45.7538299  51.9652755  70.9205832  45.4137706  53.2700370  71.1694848
  45.5910171  52.6903244  70.6716817  53.5365115  44.8870666  71.0704900
  53.0405676  45.0834340  70.3796467  54.2934177  45.2863334  70.8993702
  53.5751940  44.9748400  70.9425037  50.8067995  48.5613012  67.6608211
  50.8310482  48.0273124  66.9720991  51.0579468  48.0530321  68.3233801
  50.8477913  48.4073916  67.6572855  38.3175584  55.8444507  67.0951355
  38.2119033  55.7991351  66.2303439  37.5675804  56.1898288  67.3765640
  38.1911187  55.8885415  67.0088684  47.0869317  47.2883830  67.0413955
  47.1267688  47.7893037  67.7548662  46.2618981  47.3794224  66.7719878
  46.9708843  47.3765647  67.1064493  48.5083680  53.8044340  69.3387854
  47.6775610  53.9718158  69.1323102  48.4535197  53.4280291  70.1236739
  48.3773095  53.7734071  69.4236382  46.3167463  47.2953233  74.9744265
  46.9420167  46.7515366  75.2473697  45.8617943  46.8148151  74.4052055
  46.3415724  47.1442714  74.9305858  46.8819724  52.0799932  59.8677972
  47.0222685  52.5772396  60.5706613  47.3802257  51.3786226  60.0092185
  46.9760805  52.0501911  59.9929551  46.9119946  52.9467043  57.1970548
  47.5465026  53.5427468  57.1320010  46.9945557  52.6470500  58.0116419
  47.0176497  52.9907951  57.3073635  48.4898929  48.8781018  57.1715990
  48.8114770  48.3984101  56.5175253  48.7525873  49.6880664  56.9806802
  48.5764955  48.9270916  57.0471482  53.8858084  48.2653212  69.5339470
  54.3113156  47.8125739  68.9222996  53.2715077  47.7113283  69.8104257
  53.8586730  48.1167188  69.4844495  43.4172934  55.1434884  60.4660094
  43.9265164  55.7399391  60.8471400  43.8907207  54.8760857  59.7836514
  43.5616310  55.1920699  60.4214617  54.3303682  63.8163150  58.6218750
  53.6132992  63.6424012  58.1565987  54.9810420  63.5815722  58.0894236
  54.3205533  63.7558943  58.4747968  56.9151653  52.6927739  62.3660055
  56.2442843  53.2357441  62.2373121  57.6091404  53.1622594  62.1241750
  56.9180521  52.8426010  62.3115583  50.9638387  64.8324451  67.5971813
  50.7404042  64.0743280  67.9655840  50.4748231  64.8622472  66.8752253
  50.8581836  64.7246675  67.5448554  57.0779781  49.1483622  65.2750428
  57.4307391  48.7213345  65.9496227  56.2194582  49.0634466  65.4051505
  57.0029226  49.0728363  65.3945439  45.7763466  51.7791142  63.3333275
  45.0575455  52.1955275  63.6006138  46.1475828  52.3445381  62.7824913
  45.7255398  51.9240424  63.2916082  55.0763047  52.4118991  69.2235271
  55.0560974  52.2302286  70.0770049  55.1242247  53.2831009  69.1994854
  55.0797688  52.5135529  69.3458565  49.6116844  65.0524909  65.0508898
  49.1977243  64.3899039  64.6612740  50.2964218  65.2002768  64.5304592
  49.6515216  64.9765567  64.9165395  52.9782138  64.2114994  65.8032515
  52.5798422  64.3217264  65.0353335  52.3633358  64.4197060  66.3859074
  52.8281028  64.2588562  65.7763814  58.5103841  44.2702034  66.2034741
  58.0034706  43.5631174  66.1355918  59.3071275  43.9395223  66.3335817
  58.5531080  44.1175186  66.2133736  54.4267857  50.7768646  62.1008405
  54.1981550  50.8001348  61.2586763  54.6865933  49.9526113  62.2203415
  54.4314045  50.6584726  61.9933602  48.7087085  52.6303119  71.7033505
  48.1965988  52.0224302  72.0618536  48.5366582  53.3459712  72.1707481
  48.6076722  52.6466419  71.8249728  43.5552800  51.0740695  74.3535867
  43.3855390  51.7342070  73.8084073  43.1118750  51.2847256  75.0748356
  43.4652134  51.2026677  74.3797496  47.4812619  49.3145193  63.3962600
  47.9569986  49.6762273  62.7612781  46.9801219  49.9701660  63.6762743
  47.4777978  49.4639382  63.3439341  60.7123981  58.7866961  59.1875605
  61.0957587  59.5358317  59.4173702  59.9168094  59.0332781  58.9287594
  60.6517763  58.9336655  59.1833179  52.5856156  50.5527364  74.1435760
  53.1427586  50.3241174  73.5114226  52.2617221  51.3133030  73.8670973
  52.6202566  50.6311201  74.0092257  40.4554865  53.9787560  69.6124356
  39.9081584  53.3088206  69.7305225  41.2447243  53.6117408  69.6767824
  40.4907048  53.8252547  69.6393057  49.5239273  51.4586393  56.7635984
  49.9038237  51.4766022  55.9787099  48.7831869  51.9040381  56.6426832
  49.4708110  51.5268167  56.6299552  57.1524563  49.7668584  62.3511563
  57.1518790  49.6117240  63.2095839  56.9480743  50.6131571  62.2952948
  57.1224341  49.8689205  62.4699502  39.2141834  53.1908368  66.7670379
  39.0363595  52.7384977  67.4925295  38.9260856  53.9934530  66.9508857
  39.1454787  53.2430926  66.9013882  54.8765415  54.4466086  66.0047770
  55.3719080  53.7289081  65.9651790  54.0665191  54.1436883  65.8902257
  54.8309308  54.2963732  65.9821496  50.3224027  58.2963899  58.1544774
  49.5135349  57.9730572  58.1078084  50.8298936  57.5897121  58.0873023
  50.2773693  58.1445215  58.1375069  40.9514304  55.7236092  63.8792139
  40.0859823  55.7121782  63.7674910  41.0513120  55.5366315  64.7263278
  40.8388471  55.6942153  63.9881083  56.9417234  57.1969773  68.6924899
  57.3672306  56.6744195  68.1395324  56.5774154  57.7950610  68.1713521
  56.9503837  57.2080000  68.5333908  46.5771314  65.4933991  67.4522244
  46.8917873  66.3070379  67.4600026  46.9864727  65.1084209  68.1204403
  46.6839412  65.5562693  67.5526336  53.5295833  60.9104037  65.0226056
  54.0007012  61.6244300  65.1916041  53.8656012  60.3102787  65.5585925
  53.6490949  60.9275502  65.1258432  50.4465328  45.6831508  71.9784151
  50.5793234  44.8862501  72.3065126  50.8310481  46.2097911  72.5582426
  50.5221657  45.6431425  72.1127654  53.5197684  42.6061834  68.5765244
  52.7143647  42.4959564  68.8933082  53.3904419  42.7074290  67.7195110
  53.3817816  42.6045504  68.4973284  56.9763644  48.7707326  69.1704941
  56.3926633  49.2716532  68.7582508  57.2967938  48.2636882  68.5369264
  56.9376819  48.7699161  69.0163448  48.1053775  45.6790683  70.2262045
  48.6498188  45.3381810  70.8166386  48.1590711  46.5376145  70.3683329
  48.1942895  45.7545942  70.3343918  43.9184334  59.4407099  67.1000852
  44.5229191  59.4002933  66.4714673  43.7111646  60.2878251  67.1304908
  43.9773231  59.5595102  67.0116969  53.7328106  61.7073044  68.3163090
  54.5526480  61.5636010  68.5779385  53.4522184  62.3319243  68.8579528
  53.8124849  61.7783396  68.4351029  39.1535616  58.4241717  66.9699776
  39.0559894  57.6137988  67.2789832  39.9364486  58.4033510  66.5846044
  39.2551753  58.3008807  66.9586638  61.9590365  67.9300216  60.9228005
  62.6570529  68.1088343  61.4149468  62.2742697  67.4070555  60.2998394
  62.1085702  67.8793988  60.9030015  60.1317228  63.2992613  65.0049280
  59.8020558  63.7503756  64.3352978  59.4562230  63.2208776  65.5522286
  59.9827664  63.3543748  64.9872503  67.3393636  59.2878135  63.2498890
  67.0247077  59.9781614  63.6819313  66.8220578  59.2322918  62.5484391
  67.2158106  59.3813024  63.2095840  58.5705678  73.1845853  58.1643769
  57.9862893  73.6895885  58.5709633  58.1675773  72.9588240  57.4240361
  58.4244981  73.2254101  58.1148794  63.0282892  69.4311505  56.6412690
  63.2678896  69.6389489  55.8288033  63.3498733  68.6269014  56.7501634
  63.1120050  69.3425606  56.5373243  58.3373182  61.3604901  60.4872227
  59.0919150  61.7283218  60.2489278  58.1600717  61.7344455  61.2551407
  58.4227661  61.4703089  60.5657116  56.6930247  63.7675220  57.1850340
  56.5105820  63.9847101  56.3591333  57.5555860  63.8814233  57.2408955
  56.7934836  63.8165118  57.0704828  62.3729966  60.7701631  60.2199364
  63.1016126  60.5917586  59.7737521  62.4624859  61.6119710  60.4306542
  62.4936628  60.8685509  60.1852882  56.2392274  67.0449393  55.6972814
  55.5250451  66.7587572  56.1095246  56.7236243  67.3846018  56.3379201
  56.2051637  67.0531042  55.8528448  63.4139592  75.5479347  56.0734622
  63.8290740  75.2164370  55.3819117  62.5831521  75.3148249  55.9454758
  63.3527601  75.4650603  55.9525469  66.1072982  71.7989906  55.2595823
  66.0253144  71.8692093  56.1250810  66.7452702  72.3619650  55.0679564
  66.1892819  71.8928877  55.3585773  48.1857684  68.7628481  63.2279685
  48.2717936  68.3860349  64.0093215  48.8133482  68.3888927  62.7499643
  48.2914235  68.6513963  63.2725162  63.2113092  71.8210360  58.2704430
  64.0253731  72.1125253  58.1587201  63.1472233  71.1670223  57.6962723
  63.3215831  71.7675555  58.1693267  59.7223815  70.5134167  57.7351631
  60.1068968  70.2941874  58.4868176  59.4735436  71.3397113  57.8652707
  59.7425888  70.6032314  57.8652708  57.4424253  62.1831104  63.0660412
  56.5746678  62.2553704  63.1318021  57.7299457  62.9853183  63.2548387
  57.3564001  62.3125251  63.1035178  55.3691605  65.6589363  60.5077288
  55.0816401  65.2890634  59.7709235  56.0562073  66.1284219  60.2460993
  55.4280502  65.6736333  60.3592364  58.2045276  69.5242312  61.9544693
  58.9267928  69.6883470  61.4948499  57.7253269  70.2451976  61.8484032
  58.2409007  69.6540541  61.8710307  64.6108062  62.7591487  62.0668993
  65.3134415  62.5599236  61.5888952  64.3452251  61.9867430  62.3737837
  64.6754695  62.6154453  62.0414435  52.9419799  66.4370576  61.3562569
  53.0435936  67.2396737  61.6843544  53.7375686  66.2357912  61.0585650
  53.0747705  66.5256475  61.3597924  66.7568172  57.3972157  65.1965540
  66.8751740  57.8548620  64.4632843  66.5830347  56.5917418  64.9101758
  66.7487343  57.3465929  65.0466474  64.6489114  75.0372160  53.6120235
  65.4162099  75.0972285  53.2026087  64.2020423  74.4652602  53.1276553
  64.6962542  74.9608736  53.4797945  53.2196854  69.0563786  62.5441963
  53.5995819  69.4748331  61.8802230  52.6452219  69.6377242  62.8510806
  53.1908179  69.2041645  62.4918704  63.7245735  59.2522960  66.1384202
  62.8539293  59.2261681  66.0917512  63.9786077  59.0800152  65.3210048
  63.6339295  59.2233103  66.0104339  60.6963715  71.3090926  55.0757345
  60.9856240  72.0855809  55.3500919  60.7835514  70.7979658  55.7771844
  60.7517971  71.3482845  55.2199843  59.7310418  65.8606110  60.9899757
  60.0070152  65.1425023  60.5777324  60.3309087  66.4591030  60.7820863
  59.8603682  65.8426481  60.8980518  63.2320938  63.5319627  59.2646352
  63.6864685  63.7030188  59.9894196  63.7060984  62.9187738  58.8644127
  63.3689258  63.4670513  59.3120113  60.5733958  70.2362162  60.3691359
  61.3176003  70.6236438  60.6074309  60.7194654  69.3919587  60.5331847
  60.7044543  70.1692635  60.4285328  65.4895334  66.7024190  59.3311032
  64.9618352  66.7852934  58.6416741  65.9491042  67.4442061  59.3275677
  65.4797184  66.8244852  59.2285727  57.4828399  64.9726709  54.3551927
  57.1341203  65.6246434  54.8183476  57.0024845  64.9583822  53.6275798
  57.3598643  65.0669763  54.3163018  57.8552308  67.5985240  59.8677972
  57.9955269  68.0957704  60.5706613  58.3534840  66.8971534  60.0092185
  57.9493388  67.5687218  59.9929551  57.8852530  68.4652351  57.1970548
  58.5197609  69.0612776  57.1320010  57.9678141  68.1655808  58.0116419
  57.9909081  68.5093259  57.3073635  59.4631513  64.3966326  57.1715990
  59.7847354  63.9169409  56.5175253  59.7258457  65.2065972  56.9806802
  59.5497538  64.4456224  57.0471482  54.3905518  70.6620191  60.4660094
  54.8997747  71.2584699  60.8471400  54.8639790  70.3946165  59.7836514
  54.5348893  70.7106007  60.4214617  63.2984891  60.2553620  62.9430047
  62.6553209  60.1051266  63.5115185  62.9584298  60.0095965  62.1779151
  63.1529968  60.1965742  62.9133062  56.7496050  67.2976450  63.3333275
  56.0308039  67.7140583  63.6006138  57.1208412  67.8630689  62.7824913
  56.6987981  67.4425731  63.2916082  62.5242624  66.3374450  58.6706654
  61.9307463  66.6591446  58.1191221  62.5617902  65.4915545  58.4627760
  62.4417013  66.2598778  58.5589426  58.4545203  64.8330501  63.3962600
  58.9302569  65.1947581  62.7612781  57.9533803  65.4886968  63.6762743
  58.4510562  64.9824689  63.3439341  60.4971856  66.9771700  56.7635984
  60.8770821  66.9951330  55.9787099  59.7564452  67.4225689  56.6426832
  60.4440694  67.0453475  56.6299552  61.2956610  73.8149207  58.1544774
  60.4867933  73.4915880  58.1078084  61.8031519  73.1082429  58.0873023
  61.2506277  73.6630523  58.1375069  60.4891027  63.2033229  59.4463616
  61.3106721  63.3731542  59.2045311  60.0260678  63.3580490  58.7229913
  60.5422189  63.2514962  59.3035260  36.9794830  -0.2539897  48.2146013
  36.9488834   0.6004740  48.3864282  37.5776178  -0.5544604  48.7732157
  37.0631988  -0.1723400  48.3220815  30.1794515  -1.1664246  52.9698943
  29.3232410  -1.0055747  53.0208060  30.2262168  -2.0372182  52.9904004
  30.0593626  -1.2713444  52.9805009  24.5635654   8.3698472  48.7336175
  23.8118554   7.9914010  48.5052220  25.0121666   8.4016906  47.9854985
  24.5185321   8.3184079  48.5893677  33.4888231   5.1022280  62.5759400
  34.1954998   4.6074311  62.7046334  33.6776166   5.5431361  61.8462058
  33.6216137   5.0940630  62.4868445  30.0160614   8.7923842  44.1621722
  29.6811983   9.4700763  43.7265944  30.5287485   8.4029153  43.5738594
  30.0426195   8.8348420  44.0108514  29.5564905  10.7438110  50.1032834
  29.9404285  11.3125009  49.5637609  29.4924047  10.0187621  49.6238650
  29.6038333  10.7213574  49.9526696  33.0246336   0.8927798  55.6130595
  33.5702296   1.5712885  55.6724565  32.9663212   0.7515259  54.7532177
  33.0962250   0.9719800  55.4942656  26.1420410   8.3816864  50.9998947
  26.2430773   7.5717218  51.3096075  25.5462156   8.2873811  50.3698626
  26.0692949   8.2481892  50.9525186  34.8011404   2.3212405  46.4864323
  34.6850930   3.0720091  46.9156461  35.5967291   2.0636359  46.7360410
  34.9015994   2.3947252  46.5868414  25.9821150  13.2994453  52.4013804
  26.6258605  13.7407618  52.7909962  26.3077406  12.4947880  52.3144062
  26.1252979  13.2459648  52.4459281  19.3385455   4.4037151  50.6251281
  19.1035639   3.5704803  50.5183550  19.4771095   4.6841817  49.8112482
  19.3241117   4.3220654  50.4893636  26.6841730   6.3106428  47.7733665
  27.0057571   6.8511636  47.1694973  27.3313826   5.7403200  47.9055955
  26.8267785   6.3065603  47.7040701  28.7343438  -1.6877577  47.8568052
  29.4323602  -1.5089449  48.3489515  29.0495770  -2.2107237  47.2338441
  28.8838775  -1.7383805  47.8370062  21.3644675   0.1175163  55.7679158
  21.2403372   0.7037609  56.4028977  22.0162960  -0.3764641  56.0691433
  21.4418325   0.1313968  55.9065087  28.9231373   4.6992868  47.8447843
  29.3625009   4.0909969  48.2902616  28.7736036   4.3200242  47.0733308
  28.9652839   4.5531339  47.7967011  26.3903016   3.2936880  55.0466669
  27.0352019   2.8009323  54.7277617  26.6304793   3.4361667  55.8732747
  26.5213601   3.2414322  55.1216202  28.9289108   6.1391786  54.6973561
  29.2112350   5.3443192  54.4760317  29.6575268   6.6172373  54.7178622
  29.0778671   6.0926383  54.6676577  32.5240710   3.0520050  44.7978613
  32.4392005   3.9081016  44.9428181  33.0125093   2.7764374  45.4660772
  32.5829607   3.1377371  44.9180694  33.4559143  -0.3295156  46.2976348
  32.9270614  -0.1135523  46.9573654  33.9784163   0.3640982  46.2177317
  33.4547596  -0.1952019  46.3831947  38.9107196   5.2451148  51.6709392
  38.0804899   5.4561792  51.8342809  38.8616448   4.4188203  51.3951676
  38.7813931   5.1540755  51.6546758  25.3458751   3.5668061  45.0983816
  24.7615966   4.0718092  45.5049680  24.9428846   3.3410447  44.3580408
  25.1998055   3.6076309  45.0488841  20.9002779   9.2822822  51.9007487
  20.4170358  10.0073311  51.8767071  21.7126098   9.5798952  52.0117645
  20.9493527   9.4325175  51.9134767  26.9716933   8.0755002  54.5057302
  26.4543875   7.7162417  53.9018610  27.6691325   7.5517177  54.5163368
  26.9982515   7.9452690  54.4187560  30.6280525   8.5249816  60.4673475
  30.7163871   8.3375957  61.3151685  31.0570238   7.8787246  60.0678322
  30.7042628   8.4012824  60.5345226  28.1950985   7.8080976  59.4491137
  27.6321820   7.3953586  59.9730798  28.9572009   7.7333882  59.8684280
  28.2245434   7.7358377  59.5884137  29.8035965  -0.1866287  43.5752736
  30.0431969   0.0211696  42.7628079  30.1251806  -0.9908779  43.6841681
  29.8873123  -0.2752186  43.4713289  23.7546977   9.7978998  52.0527767
  24.4567556   9.2830987  52.1100524  23.6744460  10.1253149  52.8574642
  23.8470737   9.7693224  52.1800559  38.4061154  -2.1078451  55.4659814
  37.5689575  -2.0376264  55.7007408  38.3749385  -2.1053956  54.5934116
  38.2779437  -2.0968224  55.3719362  23.0797752   5.9885350  51.5613375
  23.9186651   6.2208282  51.6087137  23.1109521   5.1189661  51.4920411
  23.2079470   5.8942296  51.5578020  23.7050455   6.4086225  55.8626681
  24.2448680   6.2657356  56.5330053  23.0220401   6.8082976  56.2310707
  23.6842609   6.4465896  56.0161102  33.1291340   2.0877225  51.0571705
  33.8848855   2.5208740  51.0960614  33.2353664   1.4381995  51.6306341
  33.2561511   2.0554709  51.1469731  36.1671511   5.9150503  51.8074108
  35.7306743   5.9187245  52.5633079  35.8334427   6.5956002  51.3753686
  36.0534131   6.0162958  51.8554941  30.7400585   7.9558835  63.1317258
  31.5241001   8.0689683  63.4973001  30.5397179   7.1299973  63.3275944
  30.8266610   7.8505555  63.2151644  19.1087600   2.6286516  56.0161102
  18.8426015   1.8125632  56.1752093  19.1226164   2.6739671  55.1456618
  19.0712322   2.5143420  55.9114584  23.0145347  -2.5728400  42.6312860
  22.3003524  -2.8590221  43.0435293  23.4989316  -2.2331774  43.2719248
  22.9804710  -2.5646750  42.7868495  30.8970978   9.8668938  56.7783714
  30.0986224   9.6268438  57.0357583  31.3456990   9.9183330  57.5250762
  30.8445589   9.8391329  56.9268638  39.3015857   2.6331423  50.6993745
  39.9632291   2.0722091  50.5989654  38.6607269   2.1383453  51.0246436
  39.3044725   2.4767832  50.7326085  30.1892665   5.9301554  43.0074669
  30.6043814   5.5986578  42.3159164  29.3584595   5.6970456  42.8794805
  30.1280674   5.8472810  42.8865516  19.5181014   3.4145295  53.2972846
  19.3356587   3.3892181  52.4445139  20.2530683   3.8844233  53.3361755
  19.5995078   3.4806657  53.1770765  35.5880688   3.6496805  50.4405734
  35.8236277   3.7942004  49.6132585  35.7370252   4.4139213  50.8337248
  35.6446491   3.7835859  50.3769338  37.4171145   2.4898471  48.2775338
  37.7479362   3.0226111  47.6715433  37.9904233   2.5437359  48.9337289
  37.5504824   2.5768040  48.2853120  32.6303034   0.3363374  48.9598918
  32.7249888   1.0752668  49.4138543  32.0061877  -0.0919151  49.3933483
  32.5512064   0.3824694  49.0907066  30.8855508   3.5149586  59.6089199
  31.4594369   2.8776830  59.7637763  30.8070311   3.5153669  58.7398857
  30.9588743   3.4214698  59.5035610  19.4851924   0.2938796  53.4471913
  20.0625427   0.1575246  54.0864158  18.7865986  -0.1625420  53.7017497
  19.4672946   0.2061062  53.5794203  32.8826055   2.1812113  42.1935870
  32.8006218   2.2514300  43.0590857  33.5205776   2.7441857  42.0019611
  32.9645893   2.2751084  42.2925819  26.2419226   1.9472851  51.6610396
  25.9838471   1.1144586  51.6341696  26.2967709   2.1730464  50.8202897
  26.2119004   1.8570623  51.5330533  25.2153938  -0.4989386  52.1475291
  24.6403530  -0.3397218  52.7839252  24.8389615  -1.1353977  51.6843742
  25.0756751  -0.5691573  52.1729849  28.8827227  -2.0266037  57.0067669
  28.4941660  -2.4511819  56.3519861  28.2181925  -1.7783887  57.5144696
  28.7274155  -2.0527316  56.9855537  29.9866165   2.2032568  45.2044476
  30.8006804   2.4947460  45.0927248  29.9225307   1.5492430  44.6302769
  30.0968904   2.1497762  45.1033314  36.2075656   4.8858564  59.6174052
  35.9714293   4.0546629  59.4986113  36.8518884   4.8344171  60.2028896
  36.2670326   4.7556252  59.6859946  25.8574074   5.6754085  50.3316789
  26.4948021   5.4365833  50.8768582  26.2829145   5.8791244  49.5969949
  26.0150240   5.6705095  50.3033946  20.5486716   7.9142422  54.2151092
  20.5890861   8.1857273  53.3870872  21.1081240   8.4384330  54.6308880
  20.6370062   8.0318177  54.1542980  26.4976889   0.8956375  44.6691678
  26.8822041   0.6764082  45.4208223  26.2488509   1.7219320  44.7992754
  26.5178961   0.9854521  44.7992754  37.2312076   4.6703013  55.6802347
  36.9257893   5.4031069  56.0415662  36.5118292   4.2640942  55.3995133
  37.0799418   4.7184746  55.6915484  28.2395546   6.1526508  52.0110575
  28.3134554   5.9901680  52.8652425  29.0565052   6.3416697  51.7671056
  28.3711904   6.1563250  52.1008600  42.9313868   1.3096013  55.0070691
  42.8638369   1.3291972  54.1373277  42.9169531   2.1526340  55.2326361
  42.9192625   1.4369748  54.9123168  22.0001302   6.4984371  49.0405018
  21.1739420   6.7446108  48.9139297  22.0613293   6.4196451  49.9067076
  21.8875469   6.5229320  49.1493963  26.7800131   9.1161251  46.7424048
  27.0698430   8.7250232  46.0183275  27.5103612   9.2977956  47.1829323
  26.9307015   9.0855065  46.7006855  40.7172486   0.0840399  53.2817285
  41.2680407  -0.5491532  53.5214377  40.7016601   0.6155792  53.9732790
  40.7957682   0.0689348  53.4196143  27.3694876   3.9178997  57.8277179
  26.8706570   4.6294764  57.9062067  28.1795101   4.2379663  57.7895341
  27.4150983   4.0705845  57.8333747  24.7206047  11.0928633  49.8084198
  24.5006342  10.8025988  50.6010865  24.5000569  10.4343588  49.2802110
  24.6553641  10.9528342  49.8473107  23.6322994   3.1801950  52.0739900
  23.3436243   2.5539421  52.6085627  24.5006342   3.1222237  52.1404580
  23.7183246   3.0789494  52.1630854  34.4200892  -1.6763267  52.3921881
  34.0765658  -2.3972932  52.7429131  34.5193934  -1.8849416  51.5500240
  34.3842935  -1.8139064  52.3193561  26.8874003  12.4658023  48.5914890
  27.5398061  11.9334465  48.8205916  26.1899611  12.1126675  48.9782764
  26.8804721  12.3347546  48.6827058  23.8355267   4.8197201  47.9982265
  24.5901235   5.2010240  48.2117727  23.2425880   5.2708344  48.4528961
  23.8591981   4.9426028  48.0965143  34.8813921   4.7862437  47.9345870
  35.4471954   5.4455647  47.8504413  34.2341824   5.1312135  48.4062272
  34.8692677   4.9344378  47.9918626  25.1553494   5.9905762  53.3722380
  24.6334248   6.1306054  54.0574245  25.5427514   5.2316426  53.5624497
  25.1357195   5.8991286  53.5023457  31.3520499   7.7301221  47.3582949
  31.1107175   6.9969082  46.9510014  31.5321832   8.2788078  46.7049282
  31.3428123   7.7023613  47.2013172  26.5819820   3.0209781  48.7703871
  26.3862602   3.6284516  48.1764174  26.8054165   2.3277725  48.2895545
  26.5854461   3.0087307  48.6119952  24.9798350  -0.0935481  48.8884739
  25.7021002   0.0705677  48.4288545  24.5006342   0.6274184  48.7824079
  25.0162080   0.0362749  48.8050353  32.9391857  -3.7571682  54.2681424
  32.1002958  -3.7310403  54.0319688  33.0096225  -3.1100947  54.8486771
  32.8260251  -3.6575556  54.3190541  22.6305966   2.3122591  57.9938879
  23.1427063   2.5906845  57.3447639  22.3442309   3.0511886  58.3601692
  22.6640830   2.4624945  57.9528757  36.8149381   1.4496305  51.5542666
  36.7283356   1.6051731  52.4077445  36.3599861   2.0934380  51.1802071
  36.7352638   1.5672060  51.6249773  30.6875197  -1.2292948  50.1768226
  30.4409911  -1.3097197  51.0105015  31.0160320  -2.0139480  49.9830753
  30.6996441  -1.3566683  50.2715749  34.5823246   5.4790411  53.9655007
  34.4437605   6.1771457  54.4703749  33.8023244   5.3239068  53.6091189
  34.4466473   5.5590578  53.9881281  32.9201331   1.7786786  60.2177389
  32.9149370   0.9066603  60.2219815  33.6262325   1.9774956  59.7446844
  33.0246335   1.6790661  60.1484424  26.6472224   1.5063770  59.5891209
  26.7915600   2.0864978  58.9534319  26.9947873   1.8840067  60.2941063
  26.7199686   1.6484474  59.5990204  28.8192142   0.7053939  57.3716340
  28.0715456   0.8984953  56.9664618  28.9733667  -0.1200842  57.1340462
  28.7314569   0.6119050  57.2761746  25.7199979   9.6966542  56.4552236
  25.8689543   9.1369458  55.8025640  26.4999982   9.7758544  56.8384754
  25.8574073   9.6252108  56.4149185  36.0776619   4.8368665  44.7271506
  35.6983428   4.0505803  44.7200795  35.4142864   5.3855522  44.5843150
  35.9235094   4.8013489  44.7052303  28.2453280   9.8681185  57.7336726
  28.1696951   9.1989996  58.2887515  28.1743139  10.5698973  58.2477393
  28.2233887   9.8726092  57.8913574  28.9023527   8.3882184  48.5660332
  29.6673418   8.1191828  48.2442997  28.8001617   7.9032194  49.2830395
  29.0005022   8.2771749  48.6240160  26.9376297  -3.4093407  55.1053568
  26.1472371  -3.5901947  55.4270904  27.3336920  -4.1866454  55.0883863
  26.8793173  -3.5505946  55.1506116  31.4242188   5.4194368  40.5460282
  32.1915173   5.4794493  40.1366133  30.9773496   4.8474809  40.0616600
  31.4715615   5.3430943  40.4137992  32.3219983   4.2249023  52.8313014
  31.6464985   3.9934256  53.3326401  32.3312359   3.6170206  52.2055119
  32.2238488   4.1007949  52.8129166  29.4514127  -0.9333148  59.5877067
  29.3873268  -0.0723191  59.4597204  29.5911315  -1.2501154  58.7872618
  29.4629597  -0.8532981  59.4505280  34.3236718   7.0814156  45.0623192
  34.4056555   7.8881142  44.7384643  34.8086460   7.1010115  45.7863965
  34.4073875   7.2034818  45.1210091  28.1333221   1.7598992  53.7293270
  27.7095470   1.9603491  52.9932288  27.9578076   0.9127840  53.8417570
  28.0444102   1.6647773  53.6366960  27.6344914  13.2749505  56.1914727
  28.1240845  12.5760294  56.0090392  27.0629147  12.9773375  56.7790784
  27.6229444  13.1275728  56.2515768  23.4215666   2.2551043  49.1621242
  23.5780285   2.1897846  50.0177234  23.7616259   3.0299596  48.9499922
  23.4948901   2.3600241  49.2575837  29.9594810   1.6308927  48.0314606
  30.5010356   1.1279308  48.4953226  30.2741370   1.5774121  47.2204091
  30.0859208   1.5488348  47.9798418  33.8311918   5.8411574  65.1441518
  34.6446783   5.5696723  65.3046650  33.6706884   5.5419114  64.3401714
  33.9281866   5.7566500  65.0486924  28.1281260   7.0226278  45.3154634
  28.1974080   6.1640817  45.4547634  28.9069715   7.2398159  44.9873658
  28.2534110   6.9279142  45.2871791  31.1084080  -3.4754769  58.0836906
  31.3226049  -4.1143854  57.5300260  30.4917979  -3.0308945  57.6544768
  31.0489409  -3.5044625  57.9387337  32.5188748   9.4463980  49.5291127
  32.1268540   9.1430695  48.8113993  32.6741820  10.2833070  49.3396081
  32.4842338   9.5247816  49.3947624  19.9949927  -0.5614006  49.4782010
  20.3748892  -0.1429461  48.8142277  19.4205292   0.0199449  49.7850853
  19.9661252  -0.4136147  49.4258751  33.2723168  -1.8665704  59.0220213
  32.4599850  -2.1739813  59.1033386  33.7313102  -2.3466703  59.5862925
  33.2203553  -1.9829211  59.1174807  32.6828423   6.0113968  49.4697158
  32.3243077   6.1828611  50.2461190  32.1967133   6.4727174  48.9125156
  32.5587119   6.1052940  49.5022427  27.4716788   1.6913134  42.0097392
  27.7609313   2.4678016  42.2840966  27.5588587   1.1801865  42.7111891
  27.5271044   1.7305052  42.1539890  33.8433162   6.9017864  60.4164358
  34.4812882   6.4078060  60.0826814  33.2007253   6.8295265  59.8316585
  33.8427388   6.8176873  60.2806713  35.5690162  -1.2492990  54.9830274
  35.1417770  -1.3366641  54.2278374  34.9316215  -1.1415214  55.5685118
  35.4119769  -1.2460330  54.9575716  33.8987418   7.5937673  57.0569715
  34.6879797   7.2426737  57.1771797  34.0731016   8.4074061  56.7946349
  34.0407700   7.6623530  57.0357583  23.6380729   1.0046398  54.1097504
  22.7968735   0.9050273  54.3176398  23.8470737   1.7741879  54.4611825
  23.5445421   1.1038442  54.1924819  21.1156296  -1.3734065  51.9382255
  20.7212994  -1.2991053  51.1632364  20.5596413  -0.9876118  52.4890616
  20.9759108  -1.3052290  51.9049914  27.4497394  -1.0672202  53.3595102
  27.1460531  -1.6216214  53.9605509  26.7476815  -0.8879992  52.8723136
  27.3013604  -1.1227420  53.3764807  26.5063491  -3.7571683  47.9239803
  26.7823225  -4.4752770  47.5117371  27.1062160  -3.1586763  47.7160909
  26.6356755  -3.7751312  47.8320565  25.5115745   6.1477518  58.0667199
  25.4036100   6.1579580  58.9329257  25.7211526   6.9732299  57.8772153
  25.5265856   6.2718593  58.1671291  23.5289537   3.3990161  55.5289137
  22.9377470   4.0399659  55.4992152  24.2910560   3.8227778  55.5020436
  23.5537797   3.5565999  55.5204284  39.6479958   3.2295930  56.5266415
  39.7063082   3.6782579  57.2726392  39.0146426   3.6394743  56.0896495
  39.5631253   3.3569665  56.5718963  33.2879053   8.8499472  52.9621161
  33.0898742   9.3390287  52.2677373  32.6666764   9.0540714  53.5405295
  33.1666617   8.9516011  52.9444385  27.3487031   0.6184369  47.3031406
  28.0929076   1.0058645  47.5414355  27.4947728  -0.2258205  47.4671893
  27.4797616   0.5514842  47.3625375  30.3364907  -3.8090158  53.2025325
  29.8624861  -4.3348396  53.7130636  30.7083043  -4.3560685  52.6340186
  30.3214796  -3.9674161  53.1940472  36.6001638   1.2512218  54.6132105
  36.3599861   0.4118633  54.6174532  37.0793645   1.3312385  55.3372879
  36.6353821   1.1393618  54.7206908  32.2648407  -2.9153603  46.2651079
  31.7371425  -2.8324859  45.5756788  32.7244115  -2.1735732  46.2615723
  32.2550257  -2.7932941  46.1625774  38.6006825  -1.9686325  52.5661365
  38.3616595  -2.0090491  51.7282149  38.7640726  -1.1215173  52.6927086
  38.5897128  -1.8494240  52.4614847  35.2052855   2.4163625  58.4966410
  35.9287054   1.9636151  58.3177430  34.9402817   2.6968290  57.7138738
  35.2734128   2.3914593  58.3545125  24.0739723  -2.9876202  55.2319289
  23.4492793  -2.9757810  54.6245242  23.7385318  -2.5116027  55.8810529
  23.9325215  -2.9157685  55.2375857  20.7865399   5.0724258  56.6723053
  20.2565323   4.3816697  56.7218028  21.0590492   5.0634444  55.8435762
  20.7490121   4.9691390  56.5570469  31.8185489   5.6549961  45.3960736
  32.5419688   6.1208074  45.2525309  31.3786080   5.7223570  44.6458333
  31.8601182   5.7333797  45.2645517  30.9871644   2.5147503  56.6461425
  30.3728638   1.9705553  56.9410060  31.5038929   2.0011739  56.1667241
  30.9727307   2.3583912  56.6185653  30.2267942   3.5851773  54.3805723
  29.7995550   2.9601492  53.9471159  30.2192886   3.3026695  55.2064731
  30.1627083   3.4504554  54.4385551  16.0661241   1.7452022  54.0291401
  15.9604690   1.6998867  53.1643486  15.3161461   2.0905803  54.3105686
  15.9396844   1.7892931  53.9428731  26.2569337  -0.2948145  56.2727901
  25.4261267  -0.1274327  56.0663149  26.2020854  -0.6712194  57.0576786
  26.1258752  -0.3258413  56.3576429  24.6305381  -2.0192553  46.8018018
  24.7708342  -1.5220089  47.5046660  25.1287914  -2.7206259  46.9432232
  24.7246462  -2.0490574  46.9269597  24.6605603  -1.1525442  44.1310595
  25.2950683  -0.5565017  44.0660057  24.7431214  -1.4521984  44.9456465
  24.7662154  -1.1084534  44.2413682  37.6388169   1.3790035  56.9996959
  38.2306009   2.0187286  57.0315157  38.0747163   0.6813072  57.2889026
  37.7906600   1.3708386  57.0477792  26.2384586  -5.2211467  44.1056037
  26.5600427  -5.7008384  43.4515300  26.5011530  -4.4111820  43.9146849
  26.3250611  -5.1721569  43.9811529  29.4681559   5.8007408  57.6254853
  28.9606650   6.3543255  58.0695484  29.1708205   5.8615698  56.8073628
  29.3486444   5.8913719  57.5703310  21.1658591   1.0442399  47.4000141
  21.6750820   1.6406906  47.7811447  21.6392863   0.7768372  46.7176561
  21.3101967   1.0928214  47.3554664  32.0789339   9.7170666  45.5558797
  31.3618649   9.5431528  45.0906034  32.7296077   9.4823238  45.0234283
  32.0691190   9.6566458  45.4088015  34.6637310  -1.4064746  49.3000102
  33.9928500  -0.8635044  49.1713167  35.3577061  -0.9369891  49.0581797
  34.6666178  -1.2566475  49.2455630  28.7124044  10.7331966  54.5311860
  28.4889698   9.9750795  54.8995887  28.2233887  10.7629987  53.8092300
  28.6067493  10.6254191  54.4788601  23.5249123  -2.3201343  50.2673322
  22.8061112  -1.9037210  50.5346185  23.8961485  -1.7547104  49.7164960
  23.4741055  -2.1752061  50.2256129  32.8248704  -1.6873494  56.1575317
  32.8046631  -1.8690199  57.0110096  32.8727904  -0.8161475  56.1334901
  32.8283345  -1.5856955  56.2798612  30.7695033   4.9013698  62.0823794
  30.7290888   4.2563375  61.4968950  31.5818352   4.8450316  62.3949206
  30.8838187   4.7972665  62.0420743  27.3602501  10.9532424  51.9848945
  26.9462900  10.2906554  51.5952787  28.0449875  11.1010283  51.4644639
  27.4000873  10.8773082  51.8505442  30.7267795  10.1122509  52.7372561
  30.3284078  10.2224780  51.9693382  30.1119015  10.3204576  53.3199121
  30.5766684  10.1596077  52.7103861  29.2995697  -3.2803343  45.6046701
  28.7060536  -2.9586346  45.0531268  29.3370975  -4.1262247  45.3967807
  29.2170086  -3.3579014  45.4929472  32.1753514  -3.3223838  49.0348451
  31.9467207  -3.2991137  48.1926810  32.4351590  -4.1466371  49.1543462
  32.1799702  -3.4407758  48.9273649  25.2298276  -4.7847292  50.3302647
  25.7055642  -4.4230212  49.6952828  24.7286876  -4.1290824  50.6102790
  25.2263635  -4.6353103  50.2779388  38.4609638   4.6874476  46.1215652
  38.8443244   5.4365832  46.3513749  37.6653751   4.9340296  45.8627641
  38.4003420   4.8344170  46.1173226  27.2724929  -2.6406092  43.6976031
  27.6523894  -2.6226463  42.9127146  26.5317525  -2.1952103  43.5766878
  27.2193767  -2.5724317  43.5639599  32.6251072   0.3473601  52.9387817
  33.1204737  -0.3703404  52.8991837  31.8150848   0.0444399  52.8242304
  32.5794965   0.1971247  52.9161542  28.0709683   4.1971414  45.0884821
  27.2621006   3.8738088  45.0418130  28.5784592   3.4904636  45.0213070
  28.0259350   4.0452730  45.0715115  18.6999961   1.6243607  50.8132185
  17.8345480   1.6129298  50.7014957  18.7998777   1.4373830  51.6603325
  18.5874128   1.5949668  50.9221130  34.6902891   3.0977288  55.6264945
  35.1157962   2.5751710  55.0735370  34.3259811   3.6958126  55.1053568
  34.6989493   3.1087515  55.4673955  24.3256971  11.3941506  54.3862291
  24.6403530  12.2077894  54.3940073  24.7350384  11.0091725  55.0544450
  24.4325069  11.4570208  54.4866382  31.2781490   6.8111553  51.9566103
  31.7492668   7.5251815  52.1256088  31.6141669   6.2110303  52.4925972
  31.3976605   6.8283017  52.0598479  33.3658475   8.4212866  64.1358175
  33.4755440   7.6321427  64.4914922  33.6949371   8.3318802  63.3332513
  33.4310881   8.2918719  64.0700566  31.9155437   6.6029487  58.7193795
  31.3676383   5.9787370  58.4513861  32.3768465   6.7923759  58.0037875
  31.9022646   6.5388537  58.5744227  21.6669991   5.3414614  54.0340899
  22.2714848   5.3010448  53.4054720  21.4597303   6.1885766  54.0644955
  21.7258888   5.4602617  53.9457016  31.4813763   7.6080559  55.2503137
  32.3012137   7.4643526  55.5119432  31.2007841   8.2326758  55.7919575
  31.5610506   7.6790912  55.3691076  16.9021273   4.3249232  53.9039822
  16.8045551   3.5145503  54.2129879  17.6850143   4.3041025  53.5186090
  17.0037410   4.2016322  53.8926685  41.1527098  14.3521062  52.9698943
  40.2964994  14.5129560  53.0208060  41.1994752  13.4813126  52.9904004
  41.0326210  14.2471864  52.9805009  44.4620815  20.6207588  62.5759400
  45.1687582  20.1259619  62.7046334  44.6508750  21.0616669  61.8462058
  44.5948720  20.6125938  62.4868445  43.9978919  16.4113106  55.6130595
  44.5434879  17.0898193  55.6724565  43.9395795  16.2700567  54.7532177
  44.0694833  16.4905108  55.4942656  36.9553734  28.8179761  52.4013804
  37.5991189  29.2592925  52.7909962  37.2809989  28.0133188  52.3144062
  37.0985562  28.7644956  52.4459281  30.3118038  19.9222459  50.6251281
  30.0768223  19.0890111  50.5183550  30.4503679  20.2027124  49.8112482
  30.2973701  19.8405962  50.4893636  32.6108126  12.0908189  53.5235589
  31.9913157  11.5000837  53.3545604  32.5091989  12.6819625  52.8899912
  32.5045801  12.0912272  53.4040578  39.7076021  13.8307731  47.8568052
  40.4056186  14.0095859  48.3489515  40.0228354  13.3078071  47.2338441
  39.8571359  13.7801503  47.8370062  32.3377259  15.6360471  55.7679158
  32.2135956  16.2222917  56.4028977  32.9895543  15.1420667  56.0691433
  32.4150908  15.6499276  55.9065087  39.8963957  20.2178176  47.8447843
  40.3357592  19.6095277  48.2902616  39.7468620  19.8385550  47.0733308
  39.9385422  20.0716647  47.7967011  37.3635600  18.8122188  55.0466669
  38.0084602  18.3194631  54.7277617  37.6037377  18.9546975  55.8732747
  37.4946185  18.7599630  55.1216202  39.9021691  21.6577094  54.6973561
  40.1844934  20.8628500  54.4760317  40.6307852  22.1357681  54.7178622
  40.0511255  21.6111691  54.6676577  37.8802885   9.2000128  51.9389327
  37.5506215   9.6511271  51.2693025  37.2047887   9.1216291  52.4862333
  37.7313321   9.2551263  51.9212550  45.0879293   5.1885651  50.1838937
  44.7732734   5.8789129  50.6159360  44.5706234   5.1330433  49.4824438
  44.9643763   5.2820539  50.1435886  49.8839779  20.7636456  51.6709392
  49.0537483  20.9747100  51.8342809  49.8349032  19.9373511  51.3951676
  49.7546515  20.6726062  51.6546758  36.3191334  19.0853368  45.0983816
  35.7348550  19.5903400  45.5049680  35.9161430  18.8595755  44.3580408
  36.1730638  19.1261617  45.0488841  31.8735363  24.8008130  51.9007487
  31.3902941  25.5258619  51.8767071  32.6858681  25.0984260  52.0117645
  31.9226111  24.9510483  51.9134767  37.9449517  23.5940310  54.5057302
  37.4276459  23.2347725  53.9018610  38.6423908  23.0702485  54.5163368
  37.9715098  23.4637998  54.4187560  41.6013109  24.0435124  60.4673475
  41.6896455  23.8561265  61.3151685  42.0302822  23.3972554  60.0678322
  41.6775211  23.9198132  60.5345226  39.1683569  23.3266284  59.4491137
  38.6054404  22.9138894  59.9730798  39.9304592  23.2519190  59.8684280
  39.1978017  23.2543685  59.5884137  40.7768549  15.3319021  43.5752736
  41.0164552  15.5397004  42.7628079  41.0984390  14.5276529  43.6841681
  40.8605707  15.2433122  43.4713289  36.0858839   7.2612416  47.4212274
  36.8404807   7.6290733  47.1829324  35.9086374   7.6351971  48.1891454
  36.1713317   7.3710604  47.4997163  34.7279560  25.3164306  52.0527767
  35.4300140  24.8016295  52.1100524  34.6477043  25.6438457  52.8574642
  34.8203321  25.2878532  52.1800559  49.3793738  13.4106857  55.4659814
  48.5422159  13.4809044  55.7007408  49.3481969  13.4131352  54.5934116
  49.2512020  13.4217084  55.3719362  35.7758467  15.5539892  61.1808182
  35.9478970  15.4445787  62.0293464  36.3127824  16.1994298  60.9439375
  35.8803471  15.6331894  61.2713279  34.4415904   9.6682735  44.1190387
  34.2591477   9.8854616  43.2931380  35.3041517   9.7821748  44.1749002
  34.5420493   9.7172633  44.0044874  34.0530336  21.5070657  51.5613375
  34.8919235  21.7393590  51.6087137  34.0842105  20.6374969  51.4920411
  34.1812053  21.4127604  51.5578020  34.6783039  21.9271533  55.8626681
  35.2181264  21.7842664  56.5330053  33.9952985  22.3268283  56.2310707
  34.6575193  21.9651204  56.0161102  40.1215623   6.6709146  47.1539411
  40.8501783   6.4925101  46.7077567  40.2110516   7.5127226  47.3646589
  40.2422285   6.7693024  47.1192929  44.1023924  17.6062533  51.0571705
  44.8581439  18.0394048  51.0960614  44.2086248  16.9567303  51.6306341
  44.2294094  17.5740017  51.1469731  47.1404095  21.4335811  51.8074108
  46.7039327  21.4372553  52.5633079  46.8067010  22.1141310  51.3753686
  47.0266715  21.5348266  51.8554941  41.7133168  23.4744143  63.1317258
  42.4973585  23.5874991  63.4973001  41.5129763  22.6485280  63.3275944
  41.7999194  23.3690863  63.2151644  30.0820184  18.1471823  56.0161102
  29.8158599  17.3310940  56.1752093  30.0958748  18.1924979  55.1456618
  30.0444906  18.0328728  55.9114584  47.0601578   8.4749638  54.0503536
  47.7027486   8.5447743  54.6365451  47.3124598   7.8078861  53.5483078
  47.1923710   8.3875987  54.0630815  33.9877931  12.9456908  42.6312860
  33.2736108  12.6595087  43.0435293  34.4721899  13.2853534  43.2719248
  33.9537294  12.9538558  42.7868495  34.8318790  11.6850202  58.6628110
  34.1390587  11.2147181  58.9088842  35.4479117  11.4588506  59.2369817
  34.8203320  11.5817334  58.7837263  41.8703562  25.3854245  56.7783714
  41.0718807  25.1453746  57.0357583  42.3189573  25.4368638  57.5250762
  41.8178173  25.3576637  56.9268638  50.2748441  18.1516730  50.6993745
  50.9364875  17.5907399  50.5989654  49.6339853  17.6568761  51.0246436
  50.2777308  17.9953139  50.7326085  30.4913597  18.9330603  53.2972846
  30.3089171  18.9077489  52.4445139  31.2263266  19.4029541  53.3361755
  30.5727661  18.9991965  53.1770765  46.5613272  19.1682113  50.4405734
  46.7968861  19.3127312  49.6132585  46.7102835  19.9324521  50.8337248
  46.6179075  19.3021167  50.3769338  33.5559349  15.6515606  59.8054955
  34.2799321  15.6368636  60.2919850  33.6575486  16.3610961  59.3076923
  33.6777558  15.7540309  59.8033742  40.9304298  19.1314690  64.6703902
  40.1377279  19.4458202  64.8556522  41.0453226  19.3466159  63.8324687
  40.8299709  19.2098527  64.5742237  43.6035617  15.8548681  48.9598918
  43.6982472  16.5937976  49.4138543  42.9794461  15.4266157  49.3933483
  43.5244648  15.9010002  49.0907066  41.8588091  19.0334894  59.6089199
  42.4326953  18.3962138  59.7637763  41.7802895  19.0338977  58.7398857
  41.9321326  18.9400006  59.5035610  30.4584508  15.8124104  53.4471913
  31.0358010  15.6760554  54.0864158  29.7598569  15.3559888  53.7017497
  30.4405529  15.7246370  53.5794203  37.2151810  17.4658159  51.6610396
  36.9571054  16.6329894  51.6341696  37.2700293  17.6915772  50.8202897
  37.1851588  17.3755930  51.5330533  42.2952860   9.5686610  51.7614489
  41.5909187   9.0795795  51.9198408  42.3437834   9.5809084  50.8902933
  42.1982912   9.4976258  51.6553829  36.1886522  15.0195922  52.1475291
  35.6136113  15.1788090  52.7839252  35.8122198  14.3831331  51.6843742
  36.0489334  14.9493735  52.1729849  39.8559811  13.4919271  57.0067669
  39.4674243  13.0673489  56.3519861  39.1914509  13.7401421  57.5144696
  39.7006738  13.4657992  56.9855537  49.4983080  13.2494276  49.7815500
  49.2419645  12.4374217  49.5913382  50.3412394  13.2571843  49.5545687
  49.5849105  13.1306273  49.7200317  25.9343341  14.6635996  50.1619732
  26.0203593  14.2867865  50.9433262  26.5619138  14.2896442  49.6839690
  26.0399892  14.5521479  50.2065209  43.6786172   7.1893900  54.5191654
  44.0596684   6.5072071  54.9059528  42.8749457   6.9003502  54.3367318
  43.6162634   7.0460948  54.5495710  40.9598749  17.7217876  45.2044476
  41.7739388  18.0132768  45.0927248  40.8957890  17.0677738  44.6302769
  41.0701488  17.6683070  45.1033314  47.1808239  20.4043872  59.6174052
  46.9446876  19.5731937  59.4986113  47.8251468  20.3529479  60.2028896
  47.2402910  20.2741560  59.6859946  36.8306657  21.1939393  50.3316789
  37.4680604  20.9551141  50.8768582  37.2561729  21.3976552  49.5969949
  36.9882823  21.1890403  50.3033946  31.5219300  23.4327730  54.2151092
  31.5623445  23.7042581  53.3870872  32.0813824  23.9569638  54.6308880
  31.6102646  23.5503485  54.1542980  37.4709472  16.4141683  44.6691678
  37.8554625  16.1949390  45.4208223  37.2221093  17.2404628  44.7992754
  37.4911545  16.5039829  44.7992754  37.6378013   9.6948098  64.3854262
  37.3231454  10.4647661  64.1223825  37.3167945   9.1318354  63.8006489
  37.5436932   9.7258367  64.2595612  48.2044660  20.1888320  55.6802347
  47.8990477  20.9216377  56.0415662  47.4850875  19.7826250  55.3995133
  48.0532002  20.2370053  55.6915484  39.2128129  21.6711816  52.0110575
  39.2867137  21.5086988  52.8652425  40.0297635  21.8602005  51.7671056
  39.3444488  21.6748558  52.1008600  53.9046452  16.8281321  55.0070691
  53.8370952  16.8477280  54.1373277  53.8902114  17.6711648  55.2326361
  53.8925208  16.9555056  54.9123168  32.9733886  22.0169678  49.0405018
  32.1472004  22.2631416  48.9139297  33.0345877  21.9381759  49.9067076
  32.8608053  22.0414627  49.1493963  35.1909910   8.0838619  50.0000458
  34.3232335   8.1561219  50.0658068  35.4785114   8.8860698  50.1888434
  35.1049658   8.2132767  50.0375225  44.3142798   8.2316479  58.3311780
  45.0596390   8.0426289  57.9175206  43.8980103   8.7574717  57.7725637
  44.3627773   8.2818624  58.1876354  51.6905069  15.6025707  53.2817285
  52.2412991  14.9693776  53.5214377  51.6749185  16.1341100  53.9732790
  51.7690266  15.5874655  53.4196143  38.3427460  19.4364305  57.8277179
  37.8439154  20.1480072  57.9062067  39.1527684  19.7564971  57.7895341
  38.3883567  19.5891153  57.8333747  34.6055578  18.6987258  52.0739900
  34.3168826  18.0724729  52.6085627  35.4738926  18.6407545  52.1404580
  34.6915830  18.5974802  52.1630854  45.3933475  13.8422041  52.3921881
  45.0498241  13.1212376  52.7429131  45.4926518  13.6335892  51.5500240
  45.3575518  13.7046244  52.3193561  45.8546505  20.3047745  47.9345870
  46.4204537  20.9640955  47.8504413  45.2074408  20.6497443  48.4062272
  45.8425261  20.4529686  47.9918626  37.2694518  12.2945349  63.1239477
  36.4594294  12.6003129  63.0129319  37.7469205  13.0150931  63.2392061
  37.2197997  12.4459950  63.1246548  36.1286078  21.5091070  53.3722380
  35.6066831  21.6491362  54.0574245  36.5160098  20.7501734  53.5624497
  36.1089779  21.4176594  53.5023457  33.1177262  11.5596879  47.4417335
  32.8302057  11.1898149  46.7049282  33.8047730  12.0291734  47.1801040
  33.1766159  11.5743848  47.2932410  37.5552403  18.5395089  48.7703871
  37.3595186  19.1469824  48.1764174  37.7786749  17.8463033  48.2895545
  37.5587044  18.5272615  48.6119952  35.9530933  15.4249827  48.8884739
  36.6753585  15.5890985  48.4288545  35.4738926  16.1459492  48.7824079
  35.9894664  15.5548057  48.8050353  43.9124441  11.7613626  54.2681424
  43.0735541  11.7874905  54.0319688  43.9828808  12.4084361  54.8486771
  43.7992834  11.8609752  54.3190541  33.6038550  17.8307899  57.9938879
  34.1159647  18.1092153  57.3447639  33.3174893  18.5697193  58.3601692
  33.6373413  17.9810253  57.9528757  42.3593719   8.6599003  49.0009040
  43.0620072   8.4606751  48.5228999  42.0937908   7.8874945  49.3077884
  42.4240351   8.5161969  48.9754482  47.7881965  16.9681613  51.5542666
  47.7015939  17.1237039  52.4077445  47.3332445  17.6119688  51.1802071
  47.7085221  17.0857368  51.6249773  30.6905456  12.3378091  48.2902616
  30.7921593  13.1404253  48.6183591  31.4861343  12.1365427  47.9925696
  30.8233362  12.4263990  48.2937971  37.1222275   9.9234288  58.0539921
  36.9305472   9.9389422  58.9039344  37.9720871  10.1197962  58.0306576
  37.2197997   9.9548639  58.1763216  31.5069188  12.4525269  56.0323737
  31.3654680  11.6009210  56.1568245  31.7909752  12.4953930  55.2085943
  31.5277034  12.3325019  55.9291361  41.6607781  14.2892360  50.1768226
  41.4142495  14.2088111  51.0105015  41.9892904  13.5045827  49.9830753
  41.6729024  14.1618625  50.2715749  45.5555830  20.9975719  53.9655007
  45.4170189  21.6956765  54.4703749  44.7755827  20.8424375  53.6091189
  45.4199056  21.0775886  53.9881281  43.8933915  17.2972094  60.2177389
  43.8881953  16.4251911  60.2219815  44.5994909  17.4960263  59.7446844
  43.9978919  17.1975969  60.1484424  37.6204808  17.0249078  59.5891209
  37.7648184  17.6050286  58.9534319  37.9680457  17.4025375  60.2941063
  37.6932269  17.1669782  59.5990204  39.7924725  16.2239247  57.3716340
  39.0448039  16.4170261  56.9664618  39.9466251  15.3984466  57.1340462
  39.7047153  16.1304358  57.2761746  36.6932563  25.2151850  56.4552236
  36.8422127  24.6554766  55.8025640  37.4732565  25.2943852  56.8384754
  36.8306657  25.1437416  56.4149185  39.2185864  25.3866493  57.7336726
  39.1429535  24.7175304  58.2887515  39.1475723  26.0884281  58.2477393
  39.1966471  25.3911400  57.8913574  40.0326502  10.1189797  58.2611744
  40.4899117  10.8513772  58.3884536  40.1082831   9.6956263  59.0199000
  40.1117472  10.1647035  58.3912821  32.2759494  10.3655617  59.3501188
  31.7401683   9.7535975  59.6661955  32.3377258  10.9403753  60.0034854
  32.2055126  10.3602545  59.4936614  44.5053828   3.2979673  52.1305587
  44.6237396   3.7556136  51.3972890  44.3316004   2.4924934  51.8441805
  44.4972999   3.2473445  51.9806521  37.9108880  12.1091901  55.1053568
  37.1204955  11.9283361  55.4270904  38.3069503  11.3318854  55.0883863
  37.8525757  11.9679362  55.1506116  43.2952567  19.7434331  52.8313014
  42.6197568  19.5119564  53.3326401  43.3044943  19.1355514  52.2055119
  43.1971071  19.6193257  52.8129166  40.4246711  14.5852160  59.5877067
  40.3605852  15.4462117  59.4597204  40.5643898  14.2684154  58.7872618
  40.4362181  14.6652327  59.4505280  39.1065804  17.2784300  53.7293270
  38.6828054  17.4788799  52.9932288  38.9310660  16.4313148  53.8417570
  39.0176685  17.1833081  53.6366960  38.6077498  28.7934813  56.1914727
  39.0973428  28.0945602  56.0090392  38.0361730  28.4958683  56.7790784
  38.5962028  28.6461036  56.2515768  34.3948249  17.7736351  49.1621242
  34.5512869  17.7083154  50.0177234  34.7348843  18.5484904  48.9499922
  34.4681484  17.8785549  49.2575837  40.9327394  17.1494235  48.0314606
  41.4742940  16.6464616  48.4953226  41.2473953  17.0959429  47.2204091
  41.0591791  17.0673656  47.9798418  44.8044501  21.3596882  65.1441518
  45.6179367  21.0882031  65.3046650  44.6439468  21.0604422  64.3401714
  44.9014450  21.2751808  65.0486924  42.0816663  12.0430539  58.0836906
  42.2958633  11.4041453  57.5300260  41.4650563  12.4876363  57.6544768
  42.0221993  12.0140683  57.9387337  30.9682511  14.9571302  49.4782010
  31.3481476  15.3755847  48.8142277  30.3937876  15.5384757  49.7850853
  30.9393836  15.1049160  49.4258751  44.2455751  13.6519604  59.0220213
  43.4332433  13.3445495  59.1033386  44.7045686  13.1718605  59.5862925
  44.1936136  13.5356097  59.1174807  43.6561006  21.5299276  49.4697158
  43.2975661  21.7013919  50.2461190  43.1699717  21.9912482  48.9125156
  43.5319703  21.6238247  49.5022427  41.4731392   5.1530475  53.0724249
  40.6024950   5.1269196  53.0257558  41.7271733   4.9807667  52.2550095
  41.3824952   5.1240619  52.9444386  38.4449372  17.2098442  42.0097392
  38.7341896  17.9863324  42.2840966  38.5321170  16.6987173  42.7111891
  38.5003628  17.2490360  42.1539890  41.3409259  15.0579676  63.8048915
  41.8108890  15.6821792  64.1916790  41.3871139  14.3896651  64.3642130
  41.4177135  15.0514356  63.9448987  38.4980533   7.1636703  54.5297719
  37.9819021   6.4716895  54.6549298  37.9374461   7.8307480  54.4760318
  38.3387046   7.1599961  54.5403785  40.5672766   7.7029663  56.3590572
  40.1804519   7.7278695  57.1404102  40.0805703   7.1371342  55.9065088
  40.4385275   7.6225414  56.4078476  44.8165745  22.4203172  60.4164358
  45.4545466  21.9263368  60.0826814  44.1739837  22.3480573  59.8316585
  44.8159972  22.3362181  60.2806713  46.5422746  14.2692318  54.9830274
  46.1150354  14.1818667  54.2278374  45.9048799  14.3770094  55.5685118
  46.3852353  14.2724978  54.9575716  40.2329908   4.5896649  58.6500832
  40.8623026   5.1256949  58.3721902  40.4015770   4.4974008  59.5014397
  40.3507702   4.6558011  58.7349360  40.0343823   9.3767844  60.9227243
  40.8617252   9.1052992  60.9785858  40.0551669  10.1728685  61.2791061
  40.1596673   9.4547598  60.9842426  44.8720002  23.1122981  57.0569715
  45.6612380  22.7612045  57.1771797  45.0463600  23.9259369  56.7946349
  45.0140284  23.1808838  57.0357583  34.6113312  16.5231706  54.1097504
  33.7701319  16.4235581  54.3176398  34.8203320  17.2927187  54.4611825
  34.5178005  16.6223750  54.1924819  32.0888879  14.1451243  51.9382255
  31.6945577  14.2194255  51.1632364  31.5328996  14.5309190  52.4890616
  31.9491692  14.2133018  51.9049914  43.7253826   7.1232537  51.6186134
  43.9303420   7.0554845  52.4643131  43.3980250   7.9291359  51.5507311
  43.7069074   7.2318478  51.7345789  38.4229977  14.4513106  53.3595102
  38.1193115  13.8969094  53.9605509  37.7209398  14.6305316  52.8723136
  38.2746187  14.3957888  53.3764807  37.4796074  11.7613625  47.9239803
  37.7555809  11.0432538  47.5117371  38.0794744  12.3598545  47.7160909
  37.6089339  11.7433996  47.8320565  36.4848328  21.6662826  58.0667199
  36.3768683  21.6764888  58.9329257  36.6944110  22.4917607  57.8772153
  36.4998439  21.7903901  58.1671291  46.9787514   7.6764302  51.0988899
  46.3661828   8.1634704  51.4842631  47.0751689   7.0007792  51.6426550
  46.9025412   7.6482610  51.2367757  40.9806595   9.4327143  46.1986398
  41.4350341   9.6037703  46.9234243  41.4546641   8.8195253  45.7984174
  41.1174915   9.3678028  46.2460160  34.5022120  18.9175469  55.5289137
  33.9110054  19.5584967  55.4992152  35.2643144  19.3413086  55.5020436
  34.5270381  19.0751307  55.5204284  34.8982743  10.0777466  56.1957154
  35.3584225  10.1516396  56.9332278  34.9438850  10.8758720  55.8456976
  34.9733298  10.2071613  56.2529911  36.5466093  10.7444161  60.7629182
  36.1551658  10.0977508  61.1984959  36.7151956  11.3355597  61.3823437
  36.5137003  10.7358429  60.9191888  50.6212542  18.7481238  56.5266415
  50.6795666  19.1967887  57.2726392  49.9879010  19.1580051  56.0896495
  50.5363837  18.8754973  56.5718963  44.2611637  24.3684780  52.9621161
  44.0631325  24.8575595  52.2677373  43.6399348  24.5726022  53.5405295
  44.1399201  24.4701319  52.9444385  38.3219615  16.1369677  47.3031406
  39.0661660  16.5243953  47.5414355  38.4680311  15.2927102  47.4671893
  38.4530200  16.0700150  47.3625375  40.2399190   7.9319936  52.3363267
  39.3935235   8.1042744  52.2104617  40.2370323   7.1269280  52.6729095
  40.1146340   7.8380965  52.3674394  41.3097491  11.7095150  53.2025325
  40.8357445  11.1836912  53.7130636  41.6815627  11.1624623  52.6340186
  41.2947380  11.5511147  53.1940472  31.6870521  13.7066657  58.5708871
  32.5496134  13.6062366  58.4846201  31.3562304  13.1261366  58.0094443
  31.7655717  13.6058284  58.4754277  47.5734221  16.7697526  54.6132105
  47.3332444  15.9303941  54.6174532  48.0526229  16.8497693  55.3372879
  47.6086405  16.6578926  54.7206908  43.2380990  12.6031705  46.2651079
  42.7104009  12.6860449  45.5756788  43.6976699  13.3449576  46.2615723
  43.2282841  12.7252367  46.1625774  49.5739408  13.5498983  52.5661365
  49.3349178  13.5094817  51.7282149  49.7373310  14.3970135  52.6927086
  49.5629712  13.6691068  52.4614847  46.1785439  17.9348933  58.4966410
  46.9019637  17.4821459  58.3177430  45.9135401  18.2153598  57.7138738
  46.2466712  17.9099901  58.3545125  35.0472307  12.5309106  55.2319289
  34.4225377  12.5427498  54.6245242  34.7117902  13.0069281  55.8810529
  34.9057799  12.6027623  55.2375857  31.7597982  20.5909566  56.6723053
  31.2297907  19.9002005  56.7218028  32.0323076  20.5819752  55.8435762
  31.7222705  20.4876698  56.5570469  41.9604228  18.0332811  56.6461425
  41.3461221  17.4890861  56.9410060  42.4771513  17.5197047  56.1667241
  41.9459890  17.8769220  56.6185653  41.2000525  19.1037081  54.3805723
  40.7728133  18.4786799  53.9471159  41.1925470  18.8212003  55.2064731
  41.1359666  18.9689861  54.4385551  34.3163052  14.1402254  57.4494157
  34.4756539  13.3845578  57.8545879  34.1355946  14.6893193  58.1034895
  34.3128411  14.1096068  57.6056863  42.2583355   6.3063489  58.0044947
  41.7623917   6.5027164  57.3136514  43.0152417   6.7056158  57.8333749
  42.2970180   6.3941223  57.8765084  39.5286235   9.9805835  54.5948257
  39.5528722   9.4465948  53.9061037  39.7797708   9.4723144  55.2573848
  39.5696154   9.8266739  54.5912902  27.0393825  17.2637330  54.0291401
  26.9337274  17.2184175  53.1643486  26.2894045  17.6091111  54.3105686
  26.9129428  17.3078238  53.9428731  35.8087557   8.7076654  53.9754002
  35.8485929   9.2085860  54.6888709  34.9837222   8.7987047  53.7059925
  35.6927083   8.7958470  54.0404540  37.9917170  18.2737394  62.0774296
  37.1412801  18.4109108  62.2131941  38.1545298  17.5401172  62.5221998
  37.8901034  18.1851495  62.1629895  37.2301921  15.2237163  56.2727901
  36.3993850  15.3910981  56.0663149  37.1753438  14.8473114  57.0576786
  37.0991335  15.1926895  56.3576429  35.0385704   8.7146056  61.9084311
  35.6638407   8.1708189  62.1813744  34.5836184   8.2340974  61.3392102
  35.0633964   8.5635538  61.8645905  35.6338187  14.3659866  44.1310595
  36.2683266  14.9620291  44.0660057  35.7163798  14.0663324  44.9456465
  35.7394738  14.4100774  44.2413682  48.6120753  16.8975343  56.9996959
  49.2038593  17.5372594  57.0315157  49.0479747  16.1998380  57.2889026
  48.7639184  16.8893694  57.0477792  37.2117170  10.2973841  44.1056037
  37.5333011   9.8176924  43.4515300  37.4744113  11.1073487  43.9146849
  37.2983195  10.3463739  43.9811529  40.4414142  21.3192716  57.6254853
  39.9339233  21.8728563  58.0695484  40.1440789  21.3801006  56.8073628
  40.3219027  21.4099027  57.5703310  42.6076325   9.6846035  56.4679516
  43.0331396   9.2318562  55.8563043  41.9933318   9.1306106  56.7444304
  42.5804970   9.5360012  56.4184542  32.1391175  16.5627707  47.4000141
  32.6483404  17.1592214  47.7811447  32.6125447  16.2953680  46.7176561
  32.2834550  16.6113522  47.3554664  41.0470547   6.1561135  49.8770093
  40.4038865   6.0058782  50.4455232  40.7069954   5.9103480  49.1119198
  40.9015625   6.0973258  49.8473108  45.6369894  14.1120562  49.3000102
  44.9661084  14.6550264  49.1713167  46.3309644  14.5815417  49.0581797
  45.6398761  14.2618833  49.2455630  39.6856628  26.2517274  54.5311860
  39.4622282  25.4936103  54.8995887  39.1966471  26.2815295  53.8092300
  39.5800077  26.1439499  54.4788601  45.7998021  10.5676446  52.2090475
  46.1525631  10.1406169  52.8836274  44.9412823  10.4827289  52.3391552
  45.7247466  10.4921186  52.3285486  34.4981706  13.1983965  50.2673322
  33.7793695  13.6148098  50.5346185  34.8694069  13.7638204  49.7164960
  34.4473638  13.3433247  50.2256129  43.7981287  13.8311814  56.1575317
  43.7779214  13.6495109  57.0110096  43.8460488  14.7023833  56.1334901
  43.8015928  13.9328352  56.2798612  41.7427617  20.4199006  62.0823794
  41.7023472  19.7748683  61.4968950  42.5550935  20.3635624  62.3949206
  41.8570771  20.3157973  62.0420743  41.7000379  25.6307817  52.7372561
  41.3016662  25.7410088  51.9693382  41.0851598  25.8389884  53.3199121
  41.5499268  25.6781385  52.7103861  40.2728281  12.2381965  45.6046701
  39.6793120  12.5598962  45.0531268  40.3103558  11.3923061  45.3967807
  40.1902670  12.1606293  45.4929472  47.2322081   5.6894857  53.1374788
  46.7252946   4.9823997  53.0695965  48.0289515   5.3588046  53.2675864
  47.2749321   5.5368009  53.1473783  43.1486097  12.1961470  49.0348451
  42.9199790  12.2194171  48.1926810  43.4084173  11.3718937  49.1543462
  43.1532285  12.0777550  48.9273649  37.4305326  14.0495943  58.6373552
  36.9184229  13.4417126  58.9958583  37.2584822  14.7652535  59.1047527
  37.3294963  14.0659242  58.7589775  32.2771040  12.4933518  61.2875913
  32.1073631  13.1534893  60.7424120  31.8336990  12.7040079  62.0088402
  32.1870374  12.6219500  61.3137543  36.2030860  10.7338016  50.3302647
  36.6788226  11.0955096  49.6952828  35.7019459  11.3894484  50.6102790
  36.1996219  10.8832205  50.2779388  41.3074396  11.9720187  61.0775807
  41.8645826  11.7433997  60.4454273  40.9835461  12.7325853  60.8011020
  41.3420806  12.0504024  60.9432304  29.1773105  15.3980384  56.5464403
  28.6299824  14.7281029  56.6645272  29.9665483  15.0310232  56.6107870
  29.2125289  15.2445370  56.5733104  39.0257513  15.0587841  62.0427814
  39.7768840  15.3739518  62.3567368  39.2180090  14.8567012  61.2161736
  39.1648927  15.0755223  61.9671210  38.2457513  12.8779216  43.6976031
  38.6256478  12.8958845  42.9127146  37.5050109  13.3233205  43.5766878
  38.1926351  12.9460990  43.5639599  45.8742803  11.1861407  49.2851610
  45.8737030  11.0310064  50.1435886  45.6698984  12.0324394  49.2292995
  45.8442581  11.2882028  49.4039549  27.9360074  14.6101191  53.7010426
  27.7581836  14.1577800  54.4265342  27.6479097  15.4127353  53.8848904
  27.8673028  14.6623749  53.8353929  43.5983656  15.8658909  52.9387817
  44.0937321  15.1481904  52.8991837  42.7883431  15.5629706  52.8242304
  43.5527549  15.7156555  52.9161542  29.6732544  17.1428915  50.8132185
  28.8078064  17.1314606  50.7014957  29.7731360  16.9559138  51.6603325
  29.5606711  17.1134976  50.9221130  45.6635474  18.6162596  55.6264945
  46.0890546  18.0937018  55.0735370  45.2992394  19.2143434  55.1053568
  45.6722077  18.6272823  55.4673955  35.2989554  26.9126814  54.3862291
  35.6136113  27.7263202  54.3940073  35.7082968  26.5277032  55.0544450
  35.4057652  26.9755516  54.4866382  42.2514074  22.3296861  51.9566103
  42.7225252  23.0437123  52.1256088  42.5874252  21.7295611  52.4925972
  42.3709189  22.3468325  52.0598479  44.3391058  23.9398174  64.1358175
  44.4488024  23.1506735  64.4914922  44.6681955  23.8504110  63.3332513
  44.4043464  23.8104027  64.0700566  39.1683569   7.1024331  58.9124198
  39.3011474   6.3055325  59.2405173  39.5528722   7.6290734  59.4922473
  39.2439898   7.0624248  59.0467701  42.8888020  22.1214795  58.7193795
  42.3408966  21.4972678  58.4513861  43.3501049  22.3109067  58.0037875
  42.8755230  22.0573845  58.5744227  42.2415924   4.0254657  55.5105291
  41.4361888   3.9152387  55.8273129  42.1122659   4.1267113  54.6535157
  42.1036057   4.0238327  55.4313331  45.6981885  10.1900149  56.1044988
  45.1144873  10.6909356  55.6922555  46.0186179   9.6829705  55.4709311
  45.6595060  10.1891984  55.9503495  38.2376684   9.1040744  46.3803663
  39.0592378   9.2739057  46.1385357  37.7746335   9.2588005  45.6569960
  38.2907846   9.1522477  46.2375307  36.8272016   7.0983506  57.1602091
  37.3716429   6.7574633  57.7506433  36.8808951   7.9568968  57.3023376
  36.9161135   7.1738766  57.2683965  32.6402574  20.8599922  54.0340899
  33.2447432  20.8195756  53.4054720  32.4329887  21.7071074  54.0644955
  32.6991472  20.9787925  53.9457016  42.4546346  23.1265867  55.2503137
  43.2744720  22.9828833  55.5119432  42.1740424  23.7512066  55.7919575
  42.5343090  23.1976219  55.3691076  27.8753857  19.8434540  53.9039822
  27.7778135  19.0330811  54.2129879  28.6582726  19.8226333  53.5186090
  27.9769993  19.7201630  53.8926685  58.9259997  30.7830719  48.2146013
  58.8954001  31.6375356  48.3864282  59.5241346  30.4826012  48.7732157
  59.0097155  30.8647216  48.3220815  52.1259682  29.8706370  52.9698943
  51.2697577  30.0314868  53.0208060  52.1727335  28.9998434  52.9904004
  52.0058793  29.7657172  52.9805009  55.4353398  36.1392896  62.5759400
  56.1420165  35.6444926  62.7046334  55.6241334  36.5801977  61.8462058
  55.5681304  36.1311246  62.4868445  54.9711503  31.9298414  55.6130595
  55.5167463  32.6083501  55.6724565  54.9128379  31.7885875  54.7532177
  55.0427417  32.0090416  55.4942656  43.5840709  27.6093497  53.5235589
  42.9645741  27.0186145  53.3545604  43.4824573  28.2004933  52.8899912
  43.4778385  27.6097580  53.4040578  50.6808605  29.3493039  47.8568052
  51.3788770  29.5281167  48.3489515  50.9960937  28.8263378  47.2338441
  50.8303942  29.2986811  47.8370062  43.3109842  31.1545779  55.7679158
  43.1868539  31.7408225  56.4028977  43.9628127  30.6605975  56.0691433
  43.3883492  31.1684583  55.9065087  48.8535469  24.7185436  51.9389327
  48.5238799  25.1696579  51.2693025  48.1780470  24.6401599  52.4862333
  48.7045905  24.7736571  51.9212550  56.0611876  20.7070959  50.1838937
  55.7465317  21.3974437  50.6159360  55.5438818  20.6515741  49.4824438
  55.9376347  20.8005847  50.1435886  60.8572363  36.2821764  51.6709392
  60.0270066  36.4932408  51.8342809  60.8081615  35.4558819  51.3951676
  60.7279098  36.1911370  51.6546758  60.3526321  28.9292165  55.4659814
  59.5154742  28.9994352  55.7007408  60.3214552  28.9316660  54.5934116
  60.2244604  28.9402392  55.3719362  46.7491050  31.0725200  61.1808182
  46.9211554  30.9631095  62.0293464  47.2860408  31.7179606  60.9439375
  46.8536054  31.1517202  61.2713279  58.1136678  36.9521119  51.8074108
  57.6771910  36.9557861  52.5633079  57.7799594  37.6326617  51.3753686
  57.9999298  37.0533574  51.8554941  52.6865752  38.9929451  63.1317258
  53.4706168  39.1060299  63.4973001  52.4862346  38.1670588  63.3275944
  52.7731777  38.8876171  63.2151644  58.0334161  23.9934946  54.0503536
  58.6760070  24.0633051  54.6365451  58.2857182  23.3264169  53.5483078
  58.1656293  23.9061295  54.0630815  45.8051374  27.2035510  58.6628110
  45.1123170  26.7332489  58.9088842  46.4211701  26.9773814  59.2369817
  45.7935904  27.1002642  58.7837263  61.2481024  33.6702038  50.6993745
  61.9097459  33.1092707  50.5989654  60.6072436  33.1754069  51.0246436
  61.2509892  33.5138447  50.7326085  57.5345855  34.6867421  50.4405734
  57.7701444  34.8312620  49.6132585  57.6835419  35.4509829  50.8337248
  57.5911658  34.8206475  50.3769338  44.5291933  31.1700914  59.8054955
  45.2531905  31.1553944  60.2919850  44.6308069  31.8796269  59.3076923
  44.6510142  31.2725617  59.8033742  59.3636312  33.5269087  48.2775338
  59.6944529  34.0596727  47.6715433  59.9369400  33.5807974  48.9337289
  59.4969991  33.6138656  48.2853120  51.9036882  34.6499998  64.6703902
  51.1109863  34.9643510  64.8556522  52.0185809  34.8651467  63.8324687
  51.8032293  34.7283835  64.5742237  52.8320675  34.5520202  59.6089199
  53.4059537  33.9147446  59.7637763  52.7535479  34.5524284  58.7398857
  52.9053910  34.4585313  59.5035610  53.2685444  25.0871918  51.7614489
  52.5641770  24.5981103  51.9198408  53.3170418  25.0994392  50.8902933
  53.1715495  25.0161566  51.6553829  50.8292394  29.0104579  57.0067669
  50.4406827  28.5858797  56.3519861  50.1647093  29.2586729  57.5144696
  50.6739322  28.9843300  56.9855537  60.4715663  28.7679584  49.7815500
  60.2152228  27.9559525  49.5913382  61.3144977  28.7757151  49.5545687
  60.5581689  28.6491581  49.7200317  54.6518756  22.7079208  54.5191654
  55.0329268  22.0257379  54.9059528  53.8482040  22.4188810  54.3367318
  54.5895218  22.5646256  54.5495710  58.1540823  35.9229180  59.6174052
  57.9179460  35.0917244  59.4986113  58.7984052  35.8714787  60.2028896
  58.2135493  35.7926868  59.6859946  48.6110596  25.2133406  64.3854262
  48.2964037  25.9832969  64.1223825  48.2900529  24.6503662  63.8006489
  48.5169515  25.2443675  64.2595612  59.1777243  35.7073628  55.6802347
  58.8723060  36.4401685  56.0415662  58.4583459  35.3011558  55.3995133
  59.0264586  35.7555361  55.6915484  64.8779035  32.3466629  55.0070691
  64.8103536  32.3662588  54.1373277  64.8634698  33.1896956  55.2326361
  64.8657792  32.4740364  54.9123168  46.1642493  23.6023927  50.0000458
  45.2964919  23.6746527  50.0658068  46.4517697  24.4046006  50.1888434
  46.0782241  23.7318074  50.0375225  55.2875382  23.7501787  58.3311780
  56.0328974  23.5611597  57.9175206  54.8712687  24.2760025  57.7725637
  55.3360356  23.8003932  58.1876354  62.6637653  31.1211015  53.2817285
  63.2145574  30.4879084  53.5214377  62.6481768  31.6526408  53.9732790
  62.7422849  31.1059963  53.4196143  49.3160044  34.9549613  57.8277179
  48.8171737  35.6665380  57.9062067  50.1260268  35.2750279  57.7895341
  49.3616150  35.1076461  57.8333747  56.3666059  29.3607349  52.3921881
  56.0230825  28.6397684  52.7429131  56.4659102  29.1521200  51.5500240
  56.3308102  29.2231552  52.3193561  48.2427102  27.8130657  63.1239477
  47.4326877  28.1188437  63.0129319  48.7201788  28.5336239  63.2392061
  48.1930580  27.9645258  63.1246548  54.8857024  27.2798934  54.2681424
  54.0468125  27.3060213  54.0319688  54.9561392  27.9269669  54.8486771
  54.7725418  27.3795060  54.3190541  44.5771134  33.3493207  57.9938879
  45.0892230  33.6277461  57.3447639  44.2907476  34.0882501  58.3601692
  44.6105997  33.4995561  57.9528757  53.3326303  24.1784311  49.0009040
  54.0352656  23.9792059  48.5228999  53.0670491  23.4060253  49.3077884
  53.3972935  24.0347277  48.9754482  58.7614548  32.4866920  51.5542666
  58.6748523  32.6422347  52.4077445  58.3065028  33.1304996  51.1802071
  58.6817805  32.6042676  51.6249773  48.0954859  25.4419596  58.0539921
  47.9038056  25.4574730  58.9039344  48.9453455  25.6383270  58.0306576
  48.1930581  25.4733947  58.1763216  42.4801772  27.9710577  56.0323737
  42.3387264  27.1194518  56.1568245  42.7642335  28.0139238  55.2085943
  42.5009618  27.8510327  55.9291361  52.6340364  29.8077668  50.1768226
  52.3875079  29.7273418  51.0105015  52.9625487  29.0231135  49.9830753
  52.6461608  29.6803933  50.2715749  56.5288413  36.5161027  53.9655007
  56.3902772  37.2142073  54.4703749  55.7488411  36.3609683  53.6091189
  56.3931640  36.5961194  53.9881281  54.8666498  32.8157402  60.2177389
  54.8614537  31.9437219  60.2219815  55.5727492  33.0145571  59.7446844
  54.9711502  32.7161276  60.1484424  48.5937392  32.5434386  59.5891209
  48.7380767  33.1235594  58.9534319  48.9413040  32.9210683  60.2941063
  48.6664853  32.6855090  59.5990204  50.7657309  31.7424555  57.3716340
  50.0180623  31.9355569  56.9664618  50.9198834  30.9169774  57.1340462
  50.6779737  31.6489666  57.2761746  51.0059086  25.6375105  58.2611744
  51.4631700  26.3699080  58.3884536  51.0815415  25.2141571  59.0199000
  51.0850056  25.6832343  58.3912821  43.2492077  25.8840925  59.3501188
  42.7134267  25.2721283  59.6661955  43.3109842  26.4589061  60.0034854
  43.1787710  25.8787853  59.4936614  55.4786412  18.8164980  52.1305587
  55.5969980  19.2741444  51.3972890  55.3048588  18.0110242  51.8441805
  55.4705583  18.7658753  51.9806521  48.8841464  27.6277209  55.1053568
  48.0937539  27.4468669  55.4270904  49.2802087  26.8504162  55.0883863
  48.8258340  27.4864670  55.1506116  51.3979294  30.1037468  59.5877067
  51.3338435  30.9647425  59.4597204  51.5376482  29.7869462  58.7872618
  51.4094764  30.1837635  59.4505280  55.7777085  36.8782190  65.1441518
  56.5911950  36.6067339  65.3046650  55.6172051  36.5789730  64.3401714
  55.8747034  36.7937116  65.0486924  53.0549247  27.5615847  58.0836906
  53.2691217  26.9226761  57.5300260  52.4383146  28.0061671  57.6544768
  52.9954576  27.5325991  57.9387337  55.2188335  29.1704912  59.0220213
  54.4065017  28.8630803  59.1033386  55.6778270  28.6903912  59.5862925
  55.1668720  29.0541405  59.1174807  52.4463976  20.6715783  53.0724249
  51.5757534  20.6454504  53.0257558  52.7004317  20.4992975  52.2550095
  52.3557536  20.6425927  52.9444386  52.3141843  30.5764984  63.8048915
  52.7841474  31.2007100  64.1916790  52.3603723  29.9081959  64.3642130
  52.3909718  30.5699664  63.9448987  49.4713116  22.6822011  54.5297719
  48.9551605  21.9902203  54.6549298  48.9107045  23.3492788  54.4760318
  49.3119629  22.6785269  54.5403785  51.5405350  23.2214971  56.3590572
  51.1537103  23.2464003  57.1404102  51.0538287  22.6556650  55.9065088
  51.4117859  23.1410722  56.4078476  55.7898329  37.9388480  60.4164358
  56.4278050  37.4448676  60.0826814  55.1472421  37.8665881  59.8316585
  55.7892556  37.8547489  60.2806713  57.5155329  29.7877626  54.9830274
  57.0882937  29.7003975  54.2278374  56.8781382  29.8955402  55.5685118
  57.3584936  29.7910286  54.9575716  51.2062491  20.1081957  58.6500832
  51.8355609  20.6442257  58.3721902  51.3748354  20.0159316  59.5014397
  51.3240286  20.1743319  58.7349360  51.0076406  24.8953151  60.9227243
  51.8349836  24.6238300  60.9785858  51.0284252  25.6913993  61.2791061
  51.1329256  24.9732906  60.9842426  55.8452586  38.6308289  57.0569715
  56.6344964  38.2797353  57.1771797  56.0196183  39.4444677  56.7946349
  55.9872867  38.6994146  57.0357583  54.6986410  22.6417845  51.6186134
  54.9036003  22.5740153  52.4643131  54.3712834  23.4476666  51.5507311
  54.6801658  22.7503786  51.7345789  49.3962561  29.9698413  53.3595102
  49.0925698  29.4154402  53.9605509  48.6941982  30.1490623  52.8723136
  49.2478771  29.9143196  53.3764807  57.9520098  23.1949610  51.0988899
  57.3394411  23.6820012  51.4842631  58.0484272  22.5193100  51.6426550
  57.8757995  23.1667918  51.2367757  51.9539179  24.9512451  46.1986398
  52.4082925  25.1223011  46.9234243  52.4279224  24.3380561  45.7984174
  52.0907499  24.8863336  46.2460160  45.8715327  25.5962774  56.1957154
  46.3316808  25.6701704  56.9332278  45.9171433  26.3944028  55.8456976
  45.9465882  25.7256921  56.2529911  47.5198676  26.2629469  60.7629182
  47.1284242  25.6162816  61.1984959  47.6884539  26.8540905  61.3823437
  47.4869587  26.2543737  60.9191888  61.5945125  34.2666546  56.5266415
  61.6528249  34.7153195  57.2726392  60.9611593  34.6765359  56.0896495
  61.5096421  34.3940281  56.5718963  55.2344220  39.8870088  52.9621161
  55.0363909  40.3760903  52.2677373  54.6131931  40.0911330  53.5405295
  55.1131785  39.9886626  52.9444385  51.2131774  23.4505244  52.3363267
  50.3667819  23.6228052  52.2104617  51.2102906  22.6454588  52.6729095
  51.0878924  23.3566273  52.3674394  52.2830074  27.2280458  53.2025325
  51.8090029  26.7022220  53.7130636  52.6548210  26.6809931  52.6340186
  52.2679963  27.0696455  53.1940472  42.6603105  29.2251965  58.5708871
  43.5228718  29.1247674  58.4846201  42.3294888  28.6446674  58.0094443
  42.7388301  29.1243592  58.4754277  58.5466805  32.2882834  54.6132105
  58.3065028  31.4489249  54.6174532  59.0258812  32.3683001  55.3372879
  58.5818989  32.1764234  54.7206908  54.2113574  28.1217013  46.2651079
  53.6836593  28.2045757  45.5756788  54.6709282  28.8634884  46.2615723
  54.2015425  28.2437675  46.1625774  60.5471992  29.0684291  52.5661365
  60.3081762  29.0280125  51.7282149  60.7105893  29.9155443  52.6927086
  60.5362295  29.1876376  52.4614847  57.1518022  33.4534240  58.4966410
  57.8752221  33.0006767  58.3177430  56.8867984  33.7338906  57.7138738
  57.2199295  33.4285209  58.3545125  46.0204890  28.0494414  55.2319289
  45.3957961  28.0612806  54.6245242  45.6850485  28.5254589  55.8810529
  45.8790382  28.1212931  55.2375857  52.9336812  33.5518119  56.6461425
  52.3193805  33.0076169  56.9410060  53.4504097  33.0382355  56.1667241
  52.9192474  33.3954528  56.6185653  45.2895636  29.6587562  57.4494157
  45.4489123  28.9030886  57.8545879  45.1088529  30.2078501  58.1034895
  45.2860995  29.6281376  57.6056863  53.2315939  21.8248797  58.0044947
  52.7356500  22.0212472  57.3136514  53.9885001  22.2241466  57.8333749
  53.2702764  21.9126531  57.8765084  50.5018818  25.4991143  54.5948257
  50.5261306  24.9651256  53.9061037  50.7530292  24.9908452  55.2573848
  50.5428737  25.3452047  54.5912902  46.7820141  24.2261962  53.9754002
  46.8218512  24.7271168  54.6888709  45.9569805  24.3172355  53.7059925
  46.6659667  24.3143778  54.0404540  48.9649754  33.7922702  62.0774296
  48.1145384  33.9294416  62.2131941  49.1277881  33.0586480  62.5221998
  48.8633617  33.7036803  62.1629895  48.2034504  30.7422471  56.2727901
  47.3726434  30.9096289  56.0663149  48.1486021  30.3658422  57.0576786
  48.0723919  30.7112203  56.3576429  46.0118287  24.2331364  61.9084311
  46.6370991  23.6893497  62.1813744  45.5568767  23.7526282  61.3392102
  46.0366548  24.0820846  61.8645905  59.5853336  32.4160651  56.9996959
  60.1771176  33.0557902  57.0315157  60.0212331  31.7183688  57.2889026
  59.7371767  32.4079002  57.0477792  51.4146726  36.8378024  57.6254853
  50.9071817  37.3913871  58.0695484  51.1173372  36.8986314  56.8073628
  51.2951611  36.9284335  57.5703310  53.5808908  25.2031343  56.4679516
  54.0063980  24.7503870  55.8563043  52.9665901  24.6491414  56.7444304
  53.5537554  25.0545320  56.4184542  52.0203131  21.6746443  49.8770093
  51.3771449  21.5244089  50.4455232  51.6802538  21.4288788  49.1119198
  51.8748208  21.6158566  49.8473108  56.6102477  29.6305870  49.3000102
  55.9393667  30.1735572  49.1713167  57.3042228  30.1000725  49.0581797
  56.6131345  29.7804141  49.2455630  56.7730605  26.0861754  52.2090475
  57.1258215  25.6591476  52.8836274  55.9145406  26.0012597  52.3391552
  56.6980050  26.0106494  52.3285486  54.7713871  29.3497122  56.1575317
  54.7511798  29.1680417  57.0110096  54.8193071  30.2209141  56.1334901
  54.7748512  29.4513660  56.2798612  52.7160201  35.9384314  62.0823794
  52.6756055  35.2933991  61.4968950  53.5283519  35.8820932  62.3949206
  52.8303354  35.8343281  62.0420743  51.2460864  27.7567273  45.6046701
  50.6525704  28.0784270  45.0531268  51.2836142  26.9108369  45.3967807
  51.1635253  27.6791601  45.4929472  58.2054665  21.2080165  53.1374788
  57.6985530  20.5009305  53.0695965  59.0022099  20.8773354  53.2675864
  58.2481904  21.0553317  53.1473783  54.1218681  27.7146778  49.0348451
  53.8932374  27.7379479  48.1926810  54.3816757  26.8904245  49.1543462
  54.1264869  27.5962858  48.9273649  48.4037909  29.5681251  58.6373552
  47.8916812  28.9602434  58.9958583  48.2317405  30.2837843  59.1047527
  48.3027546  29.5844550  58.7589775  43.2503624  28.0118826  61.2875913
  43.0806214  28.6720201  60.7424120  42.8069574  28.2225387  62.0088402
  43.1602958  28.1404808  61.3137543  47.1763443  26.2523324  50.3302647
  47.6520810  26.6140404  49.6952828  46.6752043  26.9079792  50.6102790
  47.1728802  26.4017513  50.2779388  60.4074805  35.7245092  46.1215652
  60.7908411  36.4736448  46.3513749  59.6118918  35.9710912  45.8627641
  60.3468587  35.8714786  46.1173226  52.2806980  27.4905495  61.0775807
  52.8378410  27.2619305  60.4454273  51.9568045  28.2511161  60.8011020
  52.3153390  27.5689332  60.9432304  40.1505689  30.9165692  56.5464403
  39.6032408  30.2466337  56.6645272  40.9398067  30.5495539  56.6107870
  40.1857872  30.7630678  56.5733104  49.9990097  30.5773149  62.0427814
  50.7501424  30.8924825  62.3567368  50.1912673  30.3752320  61.2161736
  50.1381511  30.5940530  61.9671210  56.8475387  26.7046715  49.2851610
  56.8469613  26.5495372  50.1435886  56.6431567  27.5509702  49.2292995
  56.8175165  26.8067336  49.4039549  38.9092658  30.1286499  53.7010426
  38.7314419  29.6763108  54.4265342  38.6211680  30.9312661  53.8848904
  38.8405611  30.1809057  53.8353929  54.5716239  31.3844217  52.9387817
  55.0669904  30.6667212  52.8991837  53.7616015  31.0815014  52.8242304
  54.5260132  31.2341863  52.9161542  56.6368058  34.1347904  55.6264945
  57.0623129  33.6122326  55.0735370  56.2724978  34.7328742  55.1053568
  56.6454661  34.1458131  55.4673955  55.3123642  39.4583482  64.1358175
  55.4220607  38.6692042  64.4914922  55.6414539  39.3689418  63.3332513
  55.3776048  39.3289335  64.0700566  50.1416152  22.6209639  58.9124198
  50.2744058  21.8240632  59.2405173  50.5261305  23.1476042  59.4922473
  50.2172481  22.5809556  59.0467701  53.8620604  37.6400103  58.7193795
  53.3141550  37.0157986  58.4513861  54.3233632  37.8294375  58.0037875
  53.8487813  37.5759153  58.5744227  53.2148508  19.5439965  55.5105291
  52.4094471  19.4337695  55.8273129  53.0855243  19.6452421  54.6535157
  53.0768640  19.5423635  55.4313331  56.6714468  25.7085457  56.1044988
  56.0877457  26.2094664  55.6922555  56.9918762  25.2015013  55.4709311
  56.6327643  25.7077292  55.9503495  47.8004599  22.6168814  57.1602091
  48.3449012  22.2759941  57.7506433  47.8541535  23.4754276  57.3023376
  47.8893719  22.6924073  57.2683965  53.4278930  38.6451175  55.2503137
  54.2477304  38.5014141  55.5119432  53.1473008  39.2697374  55.7919575
  53.5075673  38.7161527  55.3691076  69.8992580  46.3016027  48.2146013
  69.8686585  47.1560664  48.3864282  70.4973929  46.0011320  48.7732157
  69.9829738  46.3832524  48.3220815  63.0992265  45.3891678  52.9698943
  62.2430161  45.5500176  53.0208060  63.1459919  44.5183742  52.9904004
  62.9791377  45.2842480  52.9805009  57.4833405  54.9254396  48.7336175
  56.7316304  54.5469934  48.5052220  57.9319417  54.9572830  47.9854985
  57.4383072  54.8740003  48.5893677  66.4085982  51.6578204  62.5759400
  67.1152749  51.1630234  62.7046334  66.5973917  52.0987285  61.8462058
  66.5413887  51.6496554  62.4868445  62.9358365  55.3479765  44.1621722
  62.6009733  56.0256687  43.7265944  63.4485235  54.9585077  43.5738594
  62.9623946  55.3904344  44.0108514  62.4762656  57.2994034  50.1032834
  62.8602035  57.8680933  49.5637609  62.4121797  56.5743544  49.6238650
  62.5236083  57.2769498  49.9526696  65.9444086  47.4483722  55.6130595
  66.4900046  48.1268809  55.6724565  65.8860963  47.3071183  54.7532177
  66.0160001  47.5275724  55.4942656  59.0618161  54.9372788  50.9998947
  59.1628524  54.1273142  51.3096075  58.4659906  54.8429735  50.3698626
  58.9890700  54.8037816  50.9525186  67.7209155  48.8768329  46.4864323
  67.6048681  49.6276015  46.9156461  68.5165042  48.6192282  46.7360410
  67.8213744  48.9503176  46.5868414  58.9018901  59.8550377  52.4013804
  59.5456356  60.2963541  52.7909962  59.2275156  59.0503803  52.3144062
  59.0450729  59.8015572  52.4459281  59.6039480  52.8662352  47.7733665
  59.9255322  53.4067559  47.1694973  60.2511577  52.2959123  47.9055955
  59.7465536  52.8621527  47.7040701  61.8429124  51.2548792  47.8447843
  62.2822759  50.6465893  48.2902616  61.6933787  50.8756165  47.0733308
  61.8850590  51.1087263  47.7967011  59.3100767  49.8492804  55.0466669
  59.9549769  49.3565247  54.7277617  59.5502544  49.9917591  55.8732747
  59.4411352  49.7970246  55.1216202  61.8486858  52.6947710  54.6973561
  62.1310101  51.8999116  54.4760317  62.5773019  53.1728297  54.7178622
  61.9976422  52.6482307  54.6676577  59.8268052  40.2370744  51.9389327
  59.4971382  40.6881887  51.2693025  59.1513054  40.1586907  52.4862333
  59.6778488  40.2921879  51.9212550  65.4438460  49.6075973  44.7978613
  65.3589756  50.4636940  44.9428181  65.9322844  49.3320297  45.4660772
  65.5027358  49.6933295  44.9180694  67.0344460  36.2256267  50.1838937
  66.7197901  36.9159745  50.6159360  66.5171402  36.1701049  49.4824438
  66.9108930  36.3191155  50.1435886  66.3756894  46.2260768  46.2976348
  65.8468365  46.4420401  46.9573654  66.8981914  46.9196906  46.2177317
  66.3745347  46.3603904  46.3831947  71.8304947  51.8007072  51.6709392
  71.0002650  52.0117716  51.8342809  71.7814199  50.9744127  51.3951676
  71.7011682  51.7096678  51.6546758  53.8200530  55.8378745  51.9007487
  53.3368108  56.5629235  51.8767071  54.6323848  56.1354875  52.0117645
  53.8691278  55.9881099  51.9134767  59.8914684  54.6310926  54.5057302
  59.3741626  54.2718341  53.9018610  60.5889075  54.1073101  54.5163368
  59.9180265  54.5008614  54.4187560  63.5478276  55.0805740  60.4673475
  63.6361622  54.8931881  61.3151685  63.9767989  54.4343170  60.0678322
  63.6240378  54.9568748  60.5345226  61.1148736  54.3636900  59.4491137
  60.5519571  53.9509510  59.9730798  61.8769759  54.2889806  59.8684280
  61.1443185  54.2914301  59.5884137  56.6744727  56.3534921  52.0527767
  57.3765307  55.8386910  52.1100524  56.5942210  56.6809073  52.8574642
  56.7668488  56.3249148  52.1800559  71.3258905  44.4477473  55.4659814
  70.4887326  44.5179660  55.7007408  71.2947136  44.4501967  54.5934116
  71.1977187  44.4587700  55.3719362  57.7223634  46.5910508  61.1808182
  57.8944138  46.4816403  62.0293464  58.2592991  47.2364914  60.9439375
  57.8268638  46.6702510  61.2713279  56.6248206  52.9642149  55.8626681
  57.1646431  52.8213280  56.5330053  55.9418152  53.3638899  56.2310707
  56.6040360  53.0021819  56.0161102  62.0680790  37.7079762  47.1539411
  62.7966950  37.5295717  46.7077567  62.1575683  38.5497842  47.3646589
  62.1887452  37.8063640  47.1192929  66.0489091  48.6433149  51.0571705
  66.8046606  49.0764664  51.0960614  66.1551415  47.9937919  51.6306341
  66.1759261  48.6110633  51.1469731  69.0869262  52.4706426  51.8074108
  68.6504494  52.4743169  52.5633079  68.7532177  53.1511925  51.3753686
  68.9731882  52.5718882  51.8554941  63.6598335  54.5114759  63.1317258
  64.4438752  54.6245607  63.4973001  63.4594930  53.6855896  63.3275944
  63.7464361  54.4061479  63.2151644  69.0066745  39.5120254  54.0503536
  69.6492653  39.5818359  54.6365451  69.2589765  38.8449477  53.5483078
  69.1388877  39.4246603  54.0630815  63.8168729  56.4224861  56.7783714
  63.0183974  56.1824361  57.0357583  64.2654740  56.4739254  57.5250762
  63.7643340  56.3947252  56.9268638  72.2213608  49.1887346  50.6993745
  72.8830042  48.6278015  50.5989654  71.5805020  48.6939377  51.0246436
  72.2242476  49.0323755  50.7326085  63.1090416  52.4857478  43.0074669
  63.5241564  52.1542502  42.3159164  62.2782345  52.2526380  42.8794805
  63.0478424  52.4028734  42.8865516  68.5078439  50.2052729  50.4405734
  68.7434028  50.3497928  49.6132585  68.6568002  50.9695137  50.8337248
  68.5644242  50.3391783  50.3769338  70.3368895  49.0454395  48.2775338
  70.6677113  49.5782035  47.6715433  70.9101984  49.0993282  48.9337289
  70.4702575  49.1323963  48.2853120  62.8769466  50.1685306  64.6703902
  62.0842446  50.4828818  64.8556522  62.9918393  50.3836775  63.8324687
  62.7764876  50.2469143  64.5742237  65.5500785  46.8919297  48.9598918
  65.6447639  47.6308591  49.4138543  64.9259628  46.4636773  49.3933483
  65.4709815  46.9380618  49.0907066  63.8053258  50.0705510  59.6089199
  64.3792120  49.4332754  59.7637763  63.7268062  50.0709592  58.7398857
  63.8786493  49.9770621  59.5035610  65.8023806  48.7368037  42.1935870
  65.7203968  48.8070224  43.0590857  66.4403526  49.2997781  42.0019611
  65.8843643  48.8307008  42.2925819  59.1616977  48.5028775  51.6610396
  58.9036221  47.6700510  51.6341696  59.2165460  48.7286388  50.8202897
  59.1316755  48.4126546  51.5330533  64.2418027  40.6057226  51.7614489
  63.5374354  40.1166411  51.9198408  64.2903002  40.6179700  50.8902933
  64.1448079  40.5346874  51.6553829  61.8024978  44.5289887  57.0067669
  61.4139411  44.1044105  56.3519861  61.1379676  44.7772036  57.5144696
  61.6471906  44.5028608  56.9855537  71.4448247  44.2864892  49.7815500
  71.1884812  43.4744833  49.5913382  72.2877561  44.2942459  49.5545687
  71.5314272  44.1676889  49.7200317  65.6251339  38.2264516  54.5191654
  66.0061851  37.5442687  54.9059528  64.8214624  37.9374118  54.3367318
  65.5627801  38.0831564  54.5495710  69.1273406  51.4414488  59.6174052
  68.8912044  50.6102552  59.4986113  69.7716635  51.3900095  60.2028896
  69.1868077  51.3112176  59.6859946  58.7771824  52.2310009  50.3316789
  59.4145771  51.9921756  50.8768582  59.2026896  52.4347168  49.5969949
  58.9347991  52.2261019  50.3033946  53.4684467  54.4698345  54.2151092
  53.5088612  54.7413196  53.3870872  54.0278991  54.9940253  54.6308880
  53.5567813  54.5874100  54.1542980  59.5843180  40.7318714  64.3854262
  59.2696621  41.5018277  64.1223825  59.2633112  40.1688970  63.8006489
  59.4902099  40.7628983  64.2595612  70.1509827  51.2258936  55.6802347
  69.8455644  51.9586993  56.0415662  69.4316043  50.8196866  55.3995133
  69.9997169  51.2740669  55.6915484  61.1593296  52.7082432  52.0110575
  61.2332305  52.5457603  52.8652425  61.9762803  52.8972621  51.7671056
  61.2909655  52.7119174  52.1008600  75.8511619  47.8651937  55.0070691
  75.7836119  47.8847896  54.1373277  75.8367281  48.7082264  55.2326361
  75.8390375  47.9925672  54.9123168  66.2607965  39.2687095  58.3311780
  67.0061558  39.0796905  57.9175206  65.8445270  39.7945333  57.7725637
  66.3092940  39.3189240  58.1876354  59.6997882  55.6717175  46.7424048
  59.9896180  55.2806156  46.0183275  60.4301363  55.8533879  47.1829323
  59.8504766  55.6410988  46.7006855  73.6370236  46.6396323  53.2817285
  74.1878158  46.0064392  53.5214377  73.6214352  47.1711716  53.9732790
  73.7155433  46.6245271  53.4196143  60.2892627  50.4734920  57.8277179
  59.7904321  51.1850688  57.9062067  61.0992851  50.7935587  57.7895341
  60.3348734  50.6261769  57.8333747  57.6403798  57.6484557  49.8084198
  57.4204093  57.3581912  50.6010865  57.4198320  56.9899512  49.2802110
  57.5751392  57.5084265  49.8473107  67.3398643  44.8792657  52.3921881
  66.9963408  44.1582992  52.7429131  67.4391685  44.6706508  51.5500240
  67.3040685  44.7416860  52.3193561  59.8071753  59.0213947  48.5914890
  60.4595811  58.4890389  48.8205916  59.1097362  58.6682599  48.9782764
  59.8002471  58.8903470  48.6827058  67.8011672  51.3418361  47.9345870
  68.3669704  52.0011571  47.8504413  67.1539575  51.6868059  48.4062272
  67.7890428  51.4900302  47.9918626  59.2159685  43.3315965  63.1239477
  58.4059461  43.6373745  63.0129319  59.6934372  44.0521547  63.2392061
  59.1663164  43.4830566  63.1246548  58.0751245  52.5461686  53.3722380
  57.5531998  52.6861978  54.0574245  58.4625265  51.7872350  53.5624497
  58.0554946  52.4547210  53.5023457  64.2718250  54.2857145  47.3582949
  64.0304926  53.5525006  46.9510014  64.4519583  54.8344002  46.7049282
  64.2625874  54.2579536  47.2013172  65.8589608  42.7984242  54.2681424
  65.0200709  42.8245521  54.0319688  65.9293975  43.4454977  54.8486771
  65.7458001  42.8980367  54.3190541  64.3058886  39.6969619  49.0009040
  65.0085239  39.4977367  48.5228999  64.0403075  38.9245561  49.3077884
  64.3705519  39.5532585  48.9754482  69.7347132  48.0052228  51.5542666
  69.6481106  48.1607654  52.4077445  69.2797612  48.6490304  51.1802071
  69.6550388  48.1227983  51.6249773  59.0687442  40.9604904  58.0539921
  58.8770640  40.9760038  58.9039344  59.9186038  41.1568578  58.0306576
  59.1663164  40.9919255  58.1763216  63.6072948  45.3262975  50.1768226
  63.3607662  45.2458726  51.0105015  63.9358071  44.5416443  49.9830753
  63.6194191  45.1989241  50.2715749  67.5020997  52.0346335  53.9655007
  67.3635356  52.7327381  54.4703749  66.7220995  51.8794991  53.6091189
  67.3664224  52.1146501  53.9881281  65.8399082  48.3342710  60.2177389
  65.8347120  47.4622527  60.2219815  66.5460076  48.5330879  59.7446844
  65.9444086  48.2346584  60.1484424  59.5669975  48.0619694  59.5891209
  59.7113351  48.6420902  58.9534319  59.9145624  48.4395991  60.2941063
  59.6397436  48.2040398  59.5990204  58.6397730  56.2522466  56.4552236
  58.7887294  55.6925382  55.8025640  59.4197732  56.3314468  56.8384754
  58.7771824  56.1808031  56.4149185  68.9974370  51.3924589  44.7271506
  68.6181178  50.6061727  44.7200795  68.3340615  51.9411446  44.5843150
  68.8432844  51.3569413  44.7052303  61.1651031  56.4237109  57.7336726
  61.0894702  55.7545919  58.2887515  61.0940890  57.1254897  58.2477393
  61.1431638  56.4282016  57.8913574  61.9791670  41.1560413  58.2611744
  62.4364284  41.8884388  58.3884536  62.0547998  40.7326878  59.0199000
  62.0582639  41.2017651  58.3912821  66.4518995  34.3350288  52.1305587
  66.5702564  34.7926752  51.3972890  66.2781171  33.5295550  51.8441805
  66.4438166  34.2844060  51.9806521  61.8221278  54.9438108  48.5660332
  62.5871169  54.6747751  48.2442997  61.7199368  54.4588118  49.2830395
  61.9202773  54.8327672  48.6240160  59.8574047  43.1462517  55.1053568
  59.0670122  42.9653977  55.4270904  60.2534670  42.3689470  55.0883863
  59.7990924  43.0049978  55.1506116  64.3439938  51.9750291  40.5460282
  65.1112923  52.0350416  40.1366133  63.8971247  51.4030733  40.0616600
  64.3913365  51.8986867  40.4137992  65.2417734  50.7804947  52.8313014
  64.5662736  50.5490180  53.3326401  65.2510110  50.1726130  52.2055119
  65.1436238  50.6563872  52.8129166  62.3711878  45.6222776  59.5877067
  62.3071019  46.4832733  59.4597204  62.5109065  45.3054769  58.7872618
  62.3827348  45.7022943  59.4505280  67.2434468  53.6370080  45.0623192
  67.3254306  54.4437066  44.7384643  67.7284211  53.6566039  45.7863965
  67.3271626  53.7590742  45.1210091  61.0530972  48.3154916  53.7293270
  60.6293221  48.5159415  52.9932288  60.8775827  47.4683764  53.8417570
  60.9641852  48.2203697  53.6366960  60.5542665  59.8305429  56.1914727
  61.0438595  59.1316218  56.0090392  59.9826897  59.5329299  56.7790784
  60.5427195  59.6831652  56.2515768  66.7509669  52.3967498  65.1441518
  67.5644534  52.1252647  65.3046650  66.5904635  52.0975038  64.3401714
  66.8479617  52.3122424  65.0486924  61.0479011  53.5782202  45.3154634
  61.1171831  52.7196741  45.4547634  61.8267466  53.7954083  44.9873658
  61.1731861  53.4835066  45.2871791  64.0281831  43.0801155  58.0836906
  64.2423800  42.4412069  57.5300260  63.4115730  43.5246979  57.6544768
  63.9687160  43.0511299  57.9387337  65.4386498  56.0019903  49.5291127
  65.0466290  55.6986619  48.8113993  65.5939571  56.8388993  49.3396081
  65.4040088  56.0803740  49.3947624  66.1920919  44.6890220  59.0220213
  65.3797600  44.3816111  59.1033386  66.6510853  44.2089220  59.5862925
  66.1401303  44.5726713  59.1174807  65.6026173  52.5669892  49.4697158
  65.2440828  52.7384535  50.2461190  65.1164884  53.0283098  48.9125156
  65.4784870  52.6608863  49.5022427  63.4196559  36.1901091  53.0724249
  62.5490117  36.1639812  53.0257558  63.6736901  36.0178283  52.2550095
  63.3290119  36.1611234  52.9444386  63.2874426  46.0950292  63.8048915
  63.7574057  46.7192408  64.1916790  63.3336306  45.4267267  64.3642130
  63.3642302  46.0884972  63.9448987  60.4445700  38.2007319  54.5297719
  59.9284188  37.5087511  54.6549298  59.8839629  38.8678096  54.4760318
  60.2852213  38.1970577  54.5403785  62.5137933  38.7400279  56.3590572
  62.1269686  38.7649311  57.1404102  62.0270870  38.1741958  55.9065088
  62.3850442  38.6596030  56.4078476  66.7630913  53.4573788  60.4164358
  67.4010633  52.9633984  60.0826814  66.1205004  53.3851189  59.8316585
  66.7625139  53.3732797  60.2806713  68.4887913  45.3062934  54.9830274
  68.0615521  45.2189283  54.2278374  67.8513966  45.4140710  55.5685118
  68.3317520  45.3095594  54.9575716  62.1795075  35.6267265  58.6500832
  62.8088193  36.1627565  58.3721902  62.3480938  35.5344624  59.5014397
  62.2972869  35.6928627  58.7349360  61.9808990  40.4138459  60.9227243
  62.8082419  40.1423608  60.9785858  62.0016836  41.2099301  61.2791061
  62.1061840  40.4918214  60.9842426  66.8185169  54.1493596  57.0569715
  67.6077547  53.7982661  57.1771797  66.9928767  54.9629985  56.7946349
  66.9605451  54.2179454  57.0357583  65.6718993  38.1603153  51.6186134
  65.8768587  38.0925461  52.4643131  65.3445417  38.9661974  51.5507311
  65.6534241  38.2689094  51.7345789  60.3695144  45.4883721  53.3595102
  60.0658282  44.9339710  53.9605509  59.6674565  45.6675931  52.8723136
  60.2211354  45.4328504  53.3764807  58.4313496  52.7033442  58.0667199
  58.3233850  52.7135504  58.9329257  58.6409277  53.5288223  57.8772153
  58.4463607  52.8274517  58.1671291  68.9252681  38.7134917  51.0988899
  68.3126995  39.2005320  51.4842631  69.0216856  38.0378408  51.6426550
  68.8490579  38.6853226  51.2367757  56.4487288  49.9546085  55.5289137
  55.8575221  50.5955583  55.4992152  57.2108311  50.3783702  55.5020436
  56.4735548  50.1121923  55.5204284  56.8447910  41.1148082  56.1957154
  57.3049392  41.1887012  56.9332278  56.8904017  41.9129336  55.8456976
  56.9198466  41.2442229  56.2529911  58.4931260  41.7814777  60.7629182
  58.1016825  41.1348124  61.1984959  58.6617123  42.3726212  61.3823437
  58.4602170  41.7729045  60.9191888  72.5677709  49.7851854  56.5266415
  72.6260833  50.2338503  57.2726392  71.9344177  50.1950667  56.0896495
  72.4829004  49.9125589  56.5718963  66.2076804  55.4055396  52.9621161
  66.0096492  55.8946211  52.2677373  65.5864515  55.6096638  53.5405295
  66.0864368  55.5071934  52.9444385  62.1864358  38.9690552  52.3363267
  61.3400403  39.1413360  52.2104617  62.1835490  38.1639896  52.6729095
  62.0611507  38.8751581  52.3674394  63.2562658  42.7465766  53.2025325
  62.7822612  42.2207528  53.7130636  63.6280794  42.1995239  52.6340186
  63.2412547  42.5881763  53.1940472  69.5199389  47.8068142  54.6132105
  69.2797611  46.9674557  54.6174532  69.9991396  47.8868309  55.3372879
  69.5551572  47.6949542  54.7206908  65.1846158  43.6402321  46.2651079
  64.6569176  43.7231065  45.5756788  65.6441866  44.3820192  46.2615723
  65.1748008  43.7622983  46.1625774  71.5204576  44.5869599  52.5661365
  71.2814346  44.5465433  51.7282149  71.6838477  45.4340751  52.6927086
  71.5094879  44.7061684  52.4614847  68.1250606  48.9719548  58.4966410
  68.8484805  48.5192075  58.3177430  67.8600568  49.2524214  57.7138738
  68.1931879  48.9470517  58.3545125  64.7383240  52.2105884  45.3960736
  65.4617439  52.6763997  45.2525309  64.2983831  52.2779494  44.6458333
  64.7798932  52.2889721  45.2645517  63.9069395  49.0703427  56.6461425
  63.2926388  48.5261477  56.9410060  64.4236680  48.5567663  56.1667241
  63.8925058  48.9139836  56.6185653  63.1465692  50.1407697  54.3805723
  62.7193300  49.5157415  53.9471159  63.1390637  49.8582619  55.2064731
  63.0824834  50.0060477  54.4385551  61.4751402  41.0176451  54.5948257
  61.4993889  40.4836564  53.9061037  61.7262876  40.5093760  55.2573848
  61.5161321  40.8637355  54.5912902  57.7552724  39.7447269  53.9754002
  57.7951096  40.2456476  54.6888709  56.9302389  39.8357663  53.7059925
  57.6392250  39.8329086  54.0404540  59.9382337  49.3108009  62.0774296
  59.0877968  49.4479724  62.2131941  60.1010465  48.5771788  62.5221998
  59.8366201  49.2222111  62.1629895  59.1767088  46.2607779  56.2727901
  58.3459017  46.4281597  56.0663149  59.1218605  45.8843730  57.0576786
  59.0456503  46.2297511  56.3576429  56.9850871  39.7516672  61.9084311
  57.6103574  39.2078805  62.1813744  56.5301351  39.2711590  61.3392102
  57.0099132  39.6006154  61.8645905  70.5585920  47.9345959  56.9996959
  71.1503760  48.5743210  57.0315157  70.9944914  47.2368996  57.2889026
  70.7104351  47.9264310  57.0477792  62.3879309  52.3563332  57.6254853
  61.8804401  52.9099178  58.0695484  62.0905956  52.4171622  56.8073628
  62.2684194  52.4469643  57.5703310  64.5541492  40.7216651  56.4679516
  64.9796563  40.2689178  55.8563043  63.9398485  40.1676722  56.7444304
  64.5270137  40.5730627  56.4184542  64.9987090  56.2726589  45.5558797
  64.2816400  56.0987452  45.0906034  65.6493827  56.0379162  45.0234283
  64.9888940  56.2122382  45.4088015  62.9935715  37.1931751  49.8770093
  62.3504033  37.0429397  50.4455232  62.6535122  36.9474096  49.1119198
  62.8480792  37.1343874  49.8473108  67.5835061  45.1491178  49.3000102
  66.9126251  45.6920880  49.1713167  68.2774811  45.6186033  49.0581797
  67.5863929  45.2989449  49.2455630  61.6321795  57.2887890  54.5311860
  61.4087449  56.5306719  54.8995887  61.1431638  57.3185911  53.8092300
  61.5265244  57.1810114  54.4788601  67.7463188  41.6047061  52.2090475
  68.0990799  41.1776784  52.8836274  66.8877990  41.5197905  52.3391552
  67.6712633  41.5291802  52.3285486  65.7446454  44.8682430  56.1575317
  65.7244382  44.6865725  57.0110096  65.7925655  45.7394449  56.1334901
  65.7481095  44.9698968  56.2798612  63.6892784  51.4569622  62.0823794
  63.6488639  50.8119299  61.4968950  64.5016102  51.4006239  62.3949206
  63.8035938  51.3528589  62.0420743  60.2800252  57.5088348  51.9848945
  59.8660650  56.8462478  51.5952787  60.9647626  57.6566207  51.4644639
  60.3198623  57.4329006  51.8505442  63.6465546  56.6678433  52.7372561
  63.2481829  56.7780704  51.9693382  63.0316765  56.8760500  53.3199121
  63.4964435  56.7152001  52.7103861  69.1787249  36.7265473  53.1374788
  68.6718113  36.0194613  53.0695965  69.9754682  36.3958662  53.2675864
  69.2214488  36.5738625  53.1473783  65.0951264  43.2332086  49.0348451
  64.8664957  43.2564787  48.1926810  65.3549341  42.4089553  49.1543462
  65.0997452  43.1148166  48.9273649  59.3770493  45.0866559  58.6373552
  58.8649396  44.4787742  58.9958583  59.2049989  45.8023151  59.1047527
  59.2760130  45.1029858  58.7589775  54.2236208  43.5304134  61.2875913
  54.0538798  44.1905509  60.7424120  53.7802157  43.7410695  62.0088402
  54.1335541  43.6590116  61.3137543  71.3807389  51.2430400  46.1215652
  71.7640994  51.9921756  46.3513749  70.5851502  51.4896220  45.8627641
  71.3201171  51.3900094  46.1173226  63.2539563  43.0090803  61.0775807
  63.8110993  42.7804613  60.4454273  62.9300628  43.7696469  60.8011020
  63.2885973  43.0874640  60.9432304  60.9722680  46.0958457  62.0427814
  61.7234007  46.4110133  62.3567368  61.1645257  45.8937627  61.2161736
  61.1114095  46.1125838  61.9671210  67.8207971  42.2232023  49.2851610
  67.8202197  42.0680679  50.1435886  67.6164151  43.0695010  49.2292995
  67.7907748  42.3252644  49.4039549  65.5448823  46.9029525  52.9387817
  66.0402488  46.1852520  52.8991837  64.7348598  46.6000322  52.8242304
  65.4992716  46.7527171  52.9161542  67.6100642  49.6533212  55.6264945
  68.0355713  49.1307634  55.0735370  67.2457561  50.2514050  55.1053568
  67.6187244  49.6643439  55.4673955  57.2454721  57.9497430  54.3862291
  57.5601280  58.7633818  54.3940073  57.6548135  57.5647648  55.0544450
  57.3522819  58.0126132  54.4866382  64.1979241  53.3667476  51.9566103
  64.6690419  54.0807739  52.1256088  64.5339419  52.7666227  52.4925972
  64.3174356  53.3838941  52.0598479  66.2856226  54.9768790  64.1358175
  66.3953191  54.1877350  64.4914922  66.6147122  54.8874726  63.3332513
  66.3508631  54.8474643  64.0700566  61.1148736  38.1394947  58.9124198
  61.2476642  37.3425940  59.2405173  61.4993889  38.6661350  59.4922473
  61.1905065  38.0994864  59.0467701  64.8353187  53.1585411  58.7193795
  64.2874133  52.5343294  58.4513861  65.2966216  53.3479683  58.0037875
  64.8220397  53.0944461  58.5744227  64.1881091  35.0625273  55.5105291
  63.3827055  34.9523003  55.8273129  64.0587827  35.1637729  54.6535157
  64.0501224  35.0608943  55.4313331  67.6447052  41.2270765  56.1044988
  67.0610040  41.7279972  55.6922555  67.9651346  40.7200321  55.4709311
  67.6060227  41.2262600  55.9503495  58.7737183  38.1354122  57.1602091
  59.3181596  37.7945249  57.7506433  58.8274118  38.9939584  57.3023376
  58.8626302  38.2109381  57.2683965  54.5867741  51.8970538  54.0340899
  55.1912599  51.8566372  53.4054720  54.3795054  52.7441690  54.0644955
  54.6456639  52.0158541  53.9457016  64.4011514  54.1636483  55.2503137
  65.2209887  54.0199449  55.5119432  64.1205591  54.7882682  55.7919575
  64.4808257  54.2346835  55.3691076  74.0724849  60.9076986  52.9698943
  73.2162744  61.0685484  53.0208060  74.1192503  60.0369050  52.9904004
  73.9523960  60.8027788  52.9805009  68.4565989  70.4439704  48.7336175
  67.7048888  70.0655242  48.5052220  68.9052000  70.4758137  47.9854985
  68.4115655  70.3925311  48.5893677  76.9176670  62.9669030  55.6130595
  77.4632630  63.6454117  55.6724565  76.8593546  62.8256491  54.7532177
  76.9892584  63.0461032  55.4942656  70.0350745  70.4558096  50.9998947
  70.1361108  69.6458450  51.3096075  69.4392490  70.3615042  50.3698626
  69.9623283  70.3223124  50.9525186  63.2315789  66.4778383  50.6251281
  62.9965973  65.6446035  50.5183550  63.3701430  66.7583048  49.8112482
  63.2171451  66.3961886  50.4893636  65.5305876  58.6464113  53.5235589
  64.9110908  58.0556760  53.3545604  65.4289740  59.2375548  52.8899912
  65.4243552  58.6468196  53.4040578  70.5772064  68.3847660  47.7733665
  70.8987905  68.9252867  47.1694973  71.2244161  67.8144431  47.9055955
  70.7198119  68.3806835  47.7040701  72.6273772  60.3863655  47.8568052
  73.3253937  60.5651783  48.3489515  72.9426105  59.8633994  47.2338441
  72.7769109  60.3357427  47.8370062  65.2575009  62.1916395  55.7679158
  65.1333706  62.7778840  56.4028977  65.9093294  61.6976591  56.0691433
  65.3348659  62.2055199  55.9065087  72.8161707  66.7734100  47.8447843
  73.2555343  66.1651201  48.2902616  72.6666370  66.3941473  47.0733308
  72.8583173  66.6272571  47.7967011  70.2833350  65.3678112  55.0466669
  70.9282353  64.8750555  54.7277617  70.5235128  65.5102898  55.8732747
  70.4143936  65.3155554  55.1216202  72.8219442  68.2133018  54.6973561
  73.1042685  67.4184423  54.4760317  73.5505602  68.6913605  54.7178622
  72.9709006  68.1667615  54.6676577  70.8000636  55.7556052  51.9389327
  70.4703966  56.2067195  51.2693025  70.1245637  55.6772215  52.4862333
  70.6511072  55.8107187  51.9212550  76.4171044  65.1261281  44.7978613
  76.3322339  65.9822248  44.9428181  76.9055427  64.8505605  45.4660772
  76.4759941  65.2118603  44.9180694  78.0077043  51.7441575  50.1838937
  77.6930484  52.4345053  50.6159360  77.4903985  51.6886357  49.4824438
  77.8841514  51.8376463  50.1435886  77.3489477  61.7446075  46.2976348
  76.8200949  61.9605709  46.9573654  77.8714497  62.4382214  46.2177317
  77.3477930  61.8789212  46.3831947  69.2389085  65.6409292  45.0983816
  68.6546300  66.1459324  45.5049680  68.8359180  65.4151679  44.3580408
  69.0928389  65.6817541  45.0488841  64.7933114  71.3564053  51.9007487
  64.3100692  72.0814543  51.8767071  65.6056432  71.6540183  52.0117645
  64.8423861  71.5066407  51.9134767  70.8647268  70.1496234  54.5057302
  70.3474209  69.7903649  53.9018610  71.5621659  69.6258409  54.5163368
  70.8912849  70.0193922  54.4187560  73.6966299  61.8874944  43.5752736
  73.9362303  62.0952928  42.7628079  74.0182140  61.0832453  43.6841681
  73.7803457  61.7989046  43.4713289  69.0056590  53.8168340  47.4212274
  69.7602558  54.1846657  47.1829324  68.8284124  54.1907894  48.1891454
  69.0911068  53.9266528  47.4997163  67.6477311  71.8720229  52.0527767
  68.3497890  71.3572218  52.1100524  67.5674794  72.1994381  52.8574642
  67.7401071  71.8434455  52.1800559  68.6956217  62.1095816  61.1808182
  68.8676721  62.0001711  62.0293464  69.2325575  62.7550222  60.9439375
  68.8001221  62.1887818  61.2713279  67.3613654  56.2238659  44.1190387
  67.1789228  56.4410540  43.2931380  68.2239267  56.3377672  44.1749002
  67.4618244  56.2728557  44.0044874  66.9728086  68.0626581  51.5613375
  67.8116986  68.2949514  51.6087137  67.0039856  67.1930893  51.4920411
  67.1009804  67.9683528  51.5578020  67.5980789  68.4827456  55.8626681
  68.1379014  68.3398587  56.5330053  66.9150736  68.8824207  56.2310707
  67.5772943  68.5207127  56.0161102  73.0413374  53.2265070  47.1539411
  73.7699534  53.0481025  46.7077567  73.1308266  54.0683150  47.3646589
  73.1620036  53.3248948  47.1192929  77.0221674  64.1618457  51.0571705
  77.7779189  64.5949971  51.0960614  77.1283999  63.5123227  51.6306341
  77.1491845  64.1295941  51.1469731  63.0017934  64.7027747  56.0161102
  62.7356350  63.8866864  56.1752093  63.0156499  64.7480903  55.1456618
  62.9642657  64.5884652  55.9114584  66.9075681  59.5012832  42.6312860
  66.1933859  59.2151011  43.0435293  67.3919650  59.8409458  43.2719248
  66.8735045  59.5094481  42.7868495  67.7516541  58.2406126  58.6628110
  67.0588338  57.7703105  58.9088842  68.3676868  58.0144430  59.2369817
  67.7401071  58.1373257  58.7837263  74.0822999  68.0042786  43.0074669
  74.4974148  67.6727809  42.3159164  73.2514929  67.7711688  42.8794805
  74.0211008  67.9214042  42.8865516  63.4111348  65.4886527  53.2972846
  63.2286921  65.4633413  52.4445139  64.1461017  65.9585465  53.3361755
  63.4925412  65.5547889  53.1770765  66.4757100  62.2071530  59.8054955
  67.1997072  62.1924560  60.2919850  66.5773236  62.9166885  59.3076923
  66.5975309  62.3096233  59.8033742  76.5233368  62.4104605  48.9598918
  76.6180223  63.1493899  49.4138543  75.8992212  61.9822081  49.3933483
  76.4442398  62.4565926  49.0907066  63.3782258  62.3680027  53.4471913
  63.9555761  62.2316478  54.0864158  62.6796320  61.9115811  53.7017497
  63.3603280  62.2802294  53.5794203  76.7756389  64.2553345  42.1935870
  76.6936552  64.3255532  43.0590857  77.4136110  64.8183089  42.0019611
  76.8576227  64.3492316  42.2925819  70.1349561  64.0214083  51.6610396
  69.8768805  63.1885818  51.6341696  70.1898043  64.2471696  50.8202897
  70.1049338  63.9311854  51.5330533  75.2150611  56.1242534  51.7614489
  74.5106937  55.6351719  51.9198408  75.2635585  56.1365008  50.8902933
  75.1180662  56.0532182  51.6553829  69.1084273  61.5751845  52.1475291
  68.5333864  61.7344014  52.7839252  68.7319949  60.9387255  51.6843742
  68.9687085  61.5049658  52.1729849  72.7757561  60.0475195  57.0067669
  72.3871994  59.6229413  56.3519861  72.1112260  60.2957344  57.5144696
  72.6204489  60.0213916  56.9855537  58.8541092  61.2191920  50.1619732
  58.9401343  60.8423789  50.9433262  59.4816889  60.8452366  49.6839690
  58.9597643  61.1077402  50.2065209  76.5983923  53.7449824  54.5191654
  76.9794435  53.0627995  54.9059528  75.7947207  53.4559426  54.3367318
  76.5360385  53.6016872  54.5495710  73.8796500  64.2773799  45.2044476
  74.6937138  64.5688692  45.0927248  73.8155641  63.6233662  44.6302769
  73.9899239  64.2238994  45.1033314  69.7504408  67.7495317  50.3316789
  70.3878355  67.5107064  50.8768582  70.1759479  67.9532476  49.5969949
  69.9080574  67.7446327  50.3033946  64.4417050  69.9883653  54.2151092
  64.4821196  70.2598504  53.3870872  65.0011574  70.5125561  54.6308880
  64.5300396  70.1059408  54.1542980  70.3907223  62.9697607  44.6691678
  70.7752376  62.7505313  45.4208223  70.1418843  63.7960552  44.7992754
  70.4109296  63.0595753  44.7992754  70.5575763  56.2504022  64.3854262
  70.2429204  57.0203585  64.1223825  70.2365696  55.6874278  63.8006489
  70.4634682  56.2814290  64.2595612  72.1325880  68.2267739  52.0110575
  72.2064888  68.0642911  52.8652425  72.9495386  68.4157929  51.7671056
  72.2642238  68.2304482  52.1008600  65.8931637  68.5725602  49.0405018
  65.0669754  68.8187339  48.9139297  65.9543628  68.4937683  49.9067076
  65.7805804  68.5970551  49.1493963  68.1107660  54.6394543  50.0000458
  67.2430086  54.7117143  50.0658068  68.3982865  55.4416622  50.1888434
  68.0247408  54.7688690  50.0375225  77.2340549  54.7872403  58.3311780
  77.9794141  54.5982213  57.9175206  76.8177854  55.3130641  57.7725637
  77.2825523  54.8374548  58.1876354  70.6730466  71.1902482  46.7424048
  70.9628764  70.7991464  46.0183275  71.4033946  71.3719187  47.1829323
  70.8237350  71.1596296  46.7006855  71.2625211  65.9920228  57.8277179
  70.7636904  66.7035996  57.9062067  72.0725435  66.3120895  57.7895341
  71.3081317  66.1447077  57.8333747  68.6136381  73.1669865  49.8084198
  68.3936677  72.8767220  50.6010865  68.3930903  72.5084820  49.2802110
  68.5483975  73.0269573  49.8473107  67.5253328  65.2543181  52.0739900
  67.2366577  64.6280653  52.6085627  68.3936676  65.1963469  52.1404580
  67.6113580  65.1530726  52.1630854  78.3131226  60.3977965  52.3921881
  77.9695992  59.6768300  52.7429131  78.4124269  60.1891816  51.5500240
  78.2773269  60.2602168  52.3193561  67.7285602  66.8938432  47.9982265
  68.4831570  67.2751472  48.2117727  67.1356214  67.3449576  48.4528961
  67.7522315  67.0167260  48.0965143  70.1892269  58.8501273  63.1239477
  69.3792044  59.1559053  63.0129319  70.6666955  59.5706855  63.2392061
  70.1395748  59.0015874  63.1246548  69.0483828  68.0646994  53.3722380
  68.5264582  68.2047285  54.0574245  69.4357849  67.3057658  53.5624497
  69.0287529  67.9732518  53.5023457  66.0375012  58.1152803  47.4417335
  65.7499808  57.7454073  46.7049282  66.7245481  58.5847658  47.1801040
  66.0963910  58.1299772  47.2932410  70.4750154  65.0951013  48.7703871
  70.2792937  65.7025747  48.1764174  70.6984500  64.4018957  48.2895545
  70.4784795  65.0828538  48.6119952  68.8728684  61.9805751  48.8884739
  69.5951336  62.1446909  48.4288545  68.3936677  62.7015416  48.7824079
  68.9092415  62.1103980  48.8050353  76.8322192  58.3169550  54.2681424
  75.9933292  58.3430828  54.0319688  76.9026559  58.9640285  54.8486771
  76.7190585  58.4165675  54.3190541  66.5236301  64.3863823  57.9938879
  67.0357398  64.6648076  57.3447639  66.2372643  65.1253117  58.3601692
  66.5571164  64.5366177  57.9528757  75.2791470  55.2154927  49.0009040
  75.9817823  55.0162675  48.5228999  75.0135659  54.4430869  49.3077884
  75.3438102  55.0717893  48.9754482  63.6103207  58.8934015  48.2902616
  63.7119343  59.6960176  48.6183591  64.4059094  58.6921351  47.9925696
  63.7431113  58.9819914  48.2937971  70.0420026  56.4790212  58.0539921
  69.8503223  56.4945346  58.9039344  70.8918622  56.6753886  58.0306576
  70.1395748  56.5104563  58.1763216  64.4266939  59.0081193  56.0323737
  64.2852431  58.1565134  56.1568245  64.7107502  59.0509854  55.2085943
  64.4474785  58.8880943  55.9291361  74.5805531  60.8448283  50.1768226
  74.3340246  60.7644034  51.0105015  74.9090655  60.0601751  49.9830753
  74.5926775  60.7174549  50.2715749  70.5402559  63.5805002  59.5891209
  70.6845934  64.1606210  58.9534319  70.8878207  63.9581299  60.2941063
  70.6130020  63.7225706  59.5990204  72.7122476  62.7795170  57.3716340
  71.9645790  62.9726185  56.9664618  72.8664001  61.9540390  57.1340462
  72.6244904  62.6860282  57.2761746  72.9524253  56.6745721  58.2611744
  73.4096867  57.4069695  58.3884536  73.0280582  56.2512186  59.0199000
  73.0315223  56.7202959  58.3912821  65.1957244  56.9211541  59.3501188
  64.6599434  56.3091899  59.6661955  65.2575009  57.4959677  60.0034854
  65.1252877  56.9158469  59.4936614  77.4251579  49.8535596  52.1305587
  77.5435147  50.3112060  51.3972890  77.2513755  49.0480858  51.8441805
  77.4170750  49.8029368  51.9806521  72.7953861  70.4623416  48.5660332
  73.5603752  70.1933059  48.2442997  72.6931951  69.9773426  49.2830395
  72.8935357  70.3512980  48.6240160  70.8306631  58.6647825  55.1053568
  70.0402706  58.4839285  55.4270904  71.2267254  57.8874778  55.0883863
  70.7723507  58.5235286  55.1506116  75.3172522  67.4935599  40.5460282
  76.0845507  67.5535724  40.1366133  74.8703831  66.9216041  40.0616600
  75.3645949  67.4172175  40.4137992  76.2150317  66.2990255  52.8313014
  75.5395319  66.0675487  53.3326401  76.2242693  65.6911438  52.2055119
  76.1168822  66.1749180  52.8129166  73.3444461  61.1408084  59.5877067
  73.2803603  62.0018041  59.4597204  73.4841649  60.8240077  58.7872618
  73.3559931  61.2208251  59.4505280  72.0263555  63.8340223  53.7293270
  71.6025804  64.0344723  52.9932288  71.8508410  62.9869071  53.8417570
  71.9374436  63.7389005  53.6366960  67.3146000  64.3292275  49.1621242
  67.4710619  64.2639078  50.0177234  67.6546593  65.1040827  48.9499922
  67.3879235  64.4341473  49.2575837  73.8525145  63.7050159  48.0314606
  74.3940690  63.2020540  48.4953226  74.1671704  63.6515353  47.2204091
  73.9789542  63.6229579  47.9798418  72.0211594  69.0967510  45.3154634
  72.0904415  68.2382049  45.4547634  72.8000050  69.3139391  44.9873658
  72.1464445  69.0020374  45.2871791  75.0014414  58.5986463  58.0836906
  75.2156384  57.9597377  57.5300260  74.3848313  59.0432287  57.6544768
  74.9419743  58.5696607  57.9387337  63.8880262  61.5127225  49.4782010
  64.2679227  61.9311770  48.8142277  63.3135626  62.0940681  49.7850853
  63.8591587  61.6605084  49.4258751  77.1653502  60.2075528  59.0220213
  76.3530184  59.9001419  59.1033386  77.6243437  59.7274528  59.5862925
  77.1133887  60.0912021  59.1174807  76.5758757  68.0855200  49.4697158
  76.2173412  68.2569843  50.2461190  76.0897468  68.5468406  48.9125156
  76.4517454  68.1794171  49.5022427  74.3929143  51.7086399  53.0724249
  73.5222701  51.6825120  53.0257558  74.6469484  51.5363591  52.2550095
  74.3022703  51.6796542  52.9444386  71.3647122  63.7654366  42.0097392
  71.6539647  64.5419248  42.2840966  71.4518921  63.2543097  42.7111891
  71.4201378  63.8046284  42.1539890  71.4178283  53.7192627  54.5297719
  70.9016772  53.0272819  54.6549298  70.8572212  54.3863404  54.4760318
  71.2584797  53.7155885  54.5403785  73.4870517  54.2585587  56.3590572
  73.1002270  54.2834619  57.1404102  73.0003454  53.6927266  55.9065088
  73.3583026  54.1781338  56.4078476  73.1527659  51.1452573  58.6500832
  73.7820776  51.6812873  58.3721902  73.3213521  51.0529932  59.5014397
  73.2705453  51.2113935  58.7349360  72.9541573  55.9323767  60.9227243
  73.7815003  55.6608916  60.9785858  72.9749419  56.7284609  61.2791061
  73.0794423  56.0103522  60.9842426  67.5311063  63.0787630  54.1097504
  66.6899070  62.9791504  54.3176398  67.7401071  63.8483110  54.4611825
  67.4375756  63.1779673  54.1924819  65.0086630  60.7007167  51.9382255
  64.6143328  60.7750179  51.1632364  64.4526747  61.0865113  52.4890616
  64.8689443  60.7688942  51.9049914  76.6451577  53.6788461  51.6186134
  76.8501170  53.6110769  52.4643131  76.3178001  54.4847282  51.5507311
  76.6266825  53.7874402  51.7345789  71.3427728  61.0069029  53.3595102
  71.0390866  60.4525018  53.9605509  70.6407149  61.1861239  52.8723136
  71.1943938  60.9513812  53.3764807  70.3993825  58.3169549  47.9239803
  70.6753560  57.5988462  47.5117371  70.9992495  58.9154469  47.7160909
  70.5287090  58.2989920  47.8320565  69.4046079  68.2218750  58.0667199
  69.2966434  68.2320812  58.9329257  69.6141861  69.0473530  57.8772153
  69.4196190  68.3459825  58.1671291  73.9004346  55.9883067  46.1986398
  74.3548092  56.1593627  46.9234243  74.3744391  55.3751177  45.7984174
  74.0372666  55.9233952  46.2460160  67.4219871  65.4731392  55.5289137
  66.8307804  66.1140891  55.4992152  68.1840895  65.8969010  55.5020436
  67.4468132  65.6307231  55.5204284  67.8180494  56.6333390  56.1957154
  68.2781975  56.7072320  56.9332278  67.8636601  57.4314644  55.8456976
  67.8931049  56.7627537  56.2529911  69.4663844  57.3000085  60.7629182
  69.0749409  56.6533432  61.1984959  69.6349706  57.8911520  61.3823437
  69.4334754  57.2914353  60.9191888  71.2417366  62.6925601  47.3031406
  71.9859411  63.0799877  47.5414355  71.3878062  61.8483026  47.4671893
  71.3727951  62.6256074  47.3625375  73.1596941  54.4875860  52.3363267
  72.3132986  54.6598668  52.2104617  73.1568074  53.6825204  52.6729095
  73.0344091  54.3936889  52.3674394  74.2295242  58.2651074  53.2025325
  73.7555196  57.7392836  53.7130636  74.6013377  57.7180547  52.6340186
  74.2145130  58.1067071  53.1940472  64.6068272  60.2622581  58.5708871
  65.4693885  60.1618290  58.4846201  64.2760055  59.6817290  58.0094443
  64.6853468  60.1614208  58.4754277  76.1578741  59.1587629  46.2651079
  75.6301760  59.2416373  45.5756788  76.6174449  59.9005500  46.2615723
  76.1480592  59.2808291  46.1625774  67.9670058  59.0865030  55.2319289
  67.3423128  59.0983422  54.6245242  67.6315653  59.5625205  55.8810529
  67.8255549  59.1583547  55.2375857  68.1511806  57.4290148  41.2891974
  67.8024611  58.0809874  41.7523523  67.6708252  57.4147261  40.5615845
  68.0282050  57.5233202  41.2503065  64.6795733  67.1465490  56.6723053
  64.1495658  66.4557929  56.7218028  64.9520827  67.1375675  55.8435762
  64.6420456  67.0432622  56.5570469  75.7115824  67.7291192  45.3960736
  76.4350023  68.1949305  45.2525309  75.2716415  67.7964802  44.6458333
  75.7531516  67.8075029  45.2645517  74.8801979  64.5888735  56.6461425
  74.2658972  64.0446785  56.9410060  75.3969264  64.0752971  56.1667241
  74.8657641  64.4325144  56.6185653  74.1198276  65.6593005  54.3805723
  73.6925884  65.0342723  53.9471159  74.1123220  65.3767926  55.2064731
  74.0557417  65.5245785  54.4385551  67.2360803  60.6958178  57.4494157
  67.3954290  59.9401502  57.8545879  67.0553697  61.2449117  58.1034895
  67.2326162  60.6651991  57.6056863  75.1781106  52.8619413  58.0044947
  74.6821667  53.0583087  57.3136514  75.9350168  53.2612082  57.8333749
  75.2167931  52.9497147  57.8765084  72.4483986  56.5361759  54.5948257
  72.4726473  56.0021871  53.9061037  72.6995459  56.0279068  55.2573848
  72.4893904  56.3822663  54.5912902  59.9591575  63.8193254  54.0291401
  59.8535025  63.7740098  53.1643486  59.2091795  64.1647035  54.3105686
  59.8327178  63.8634162  53.9428731  68.7285308  55.2632577  53.9754002
  68.7683679  55.7641784  54.6888709  67.9034973  55.3542971  53.7059925
  68.6124834  55.3514394  54.0404540  70.1499671  61.7793087  56.2727901
  69.3191601  61.9466905  56.0663149  70.0951188  61.4029038  57.0576786
  70.0189086  61.7482819  56.3576429  67.9583454  55.2701980  61.9084311
  68.5836158  54.7264113  62.1813744  67.5033934  54.7896898  61.3392102
  67.9831715  55.1191461  61.8645905  68.5235715  60.0548679  46.8018018
  68.6638676  60.5521143  47.5046660  69.0218248  59.3534973  46.9432232
  68.6176796  60.0250658  46.9269597  68.5535937  60.9215790  44.1310595
  69.1881017  61.5176215  44.0660057  68.6361548  60.6219247  44.9456465
  68.6592488  60.9656698  44.2413682  70.1314920  56.8529765  44.1056037
  70.4530761  56.3732848  43.4515300  70.3941864  57.6629411  43.9146849
  70.2180946  56.9019663  43.9811529  75.5274075  56.2401959  56.4679516
  75.9529147  55.7874486  55.8563043  74.9131068  55.6862030  56.7444304
  75.5002721  56.0915935  56.4184542  65.0588925  63.1183631  47.4000141
  65.5681155  63.7148138  47.7811447  65.5323198  62.8509604  46.7176561
  65.2032301  63.1669446  47.3554664  73.9668298  52.7117059  49.8770093
  73.3236616  52.5614705  50.4455232  73.6267705  52.4659404  49.1119198
  73.8213375  52.6529181  49.8473108  67.4179457  59.7539889  50.2673322
  66.6991446  60.1704022  50.5346185  67.7891819  60.3194128  49.7164960
  67.3671389  59.8989171  50.2256129  76.7179038  60.3867738  56.1575317
  76.6976965  60.2051033  57.0110096  76.7658239  61.2579757  56.1334901
  76.7213679  60.4884276  56.2798612  73.1926031  58.7937889  45.6046701
  72.5990871  59.1154885  45.0531268  73.2301309  57.9478984  45.3967807
  73.1100421  58.7162217  45.4929472  76.0683848  58.7517393  49.0348451
  75.8397541  58.7750095  48.1926810  76.3281924  57.9274861  49.1543462
  76.0730036  58.6333473  48.9273649  70.3503076  60.6051867  58.6373552
  69.8381980  59.9973050  58.9958583  70.1782573  61.3208459  59.1047527
  70.2492713  60.6215166  58.7589775  65.1968791  59.0489442  61.2875913
  65.0271381  59.7090817  60.7424120  64.7534741  59.2596003  62.0088402
  65.1068125  59.1775424  61.3137543  69.1228611  57.2893940  50.3302647
  69.5985977  57.6511020  49.6952828  68.6217210  57.9450407  50.6102790
  69.1193969  57.4388129  50.2779388  74.2272147  58.5276111  61.0775807
  74.7843577  58.2989921  60.4454273  73.9033212  59.2881777  60.8011020
  74.2618557  58.6059948  60.9432304  62.0970856  61.9536307  56.5464403
  61.5497575  61.2836953  56.6645272  62.8863234  61.5866155  56.6107870
  62.1323039  61.8001294  56.5733104  71.1655264  59.4335140  43.6976031
  71.5454229  59.4514769  42.9127146  70.4247860  59.8789128  43.5766878
  71.1124101  59.5016914  43.5639599  78.7940554  57.7417331  49.2851610
  78.7934781  57.5865987  50.1435886  78.5896734  58.5880318  49.2292995
  78.7640332  57.8437952  49.4039549  60.8557825  61.1657115  53.7010426
  60.6779586  60.7133724  54.4265342  60.5676847  61.9683277  53.8848904
  60.7870778  61.2179673  53.8353929  76.5181406  62.4214833  52.9387817
  77.0135072  61.7037828  52.8991837  75.7081182  62.1185630  52.8242304
  76.4725300  62.2712479  52.9161542  71.9640018  66.2712646  45.0884821
  71.1551340  65.9479319  45.0418130  72.4714927  65.5645868  45.0213070
  71.9189685  66.1193962  45.0715115  62.5930295  63.6984839  50.8132185
  61.7275814  63.6870529  50.7014957  62.6929111  63.5115062  51.6603325
  62.4804462  63.6690900  50.9221130  68.2187305  73.4682738  54.3862291
  68.5333864  74.2819126  54.3940073  68.6280718  73.0832956  55.0544450
  68.3255403  73.5311440  54.4866382  75.1711825  68.8852784  51.9566103
  75.6423003  69.5993047  52.1256088  75.5072003  68.2851535  52.4925972
  75.2906940  68.9024249  52.0598479  72.0881320  53.6580255  58.9124198
  72.2209225  52.8611248  59.2405173  72.4726472  54.1846658  59.4922473
  72.1637648  53.6180172  59.0467701  75.1613675  50.5810581  55.5105291
  74.3559638  50.4708311  55.8273129  75.0320410  50.6823037  54.6535157
  75.0233808  50.5794251  55.4313331  78.6179635  56.7456073  56.1044988
  78.0342624  57.2465279  55.6922555  78.9383929  56.2385629  55.4709311
  78.5792811  56.7447908  55.9503495  71.1574434  55.6596668  46.3803663
  71.9790129  55.8294981  46.1385357  70.6944085  55.8143929  45.6569960
  71.2105597  55.7078401  46.2375307  69.7469766  53.6539430  57.1602091
  70.2914179  53.3130557  57.7506433  69.8006702  54.5124892  57.3023376
  69.8358886  53.7294689  57.2683965  65.5600325  67.4155846  54.0340899
  66.1645182  67.3751680  53.4054720  65.3527638  68.2626998  54.0644955
  65.6189222  67.5343849  53.9457016  60.7951607  66.3990464  53.9039822
  60.6975885  65.5886735  54.2129879  61.5780477  66.3782257  53.5186090
  60.8967744  66.2757554  53.8926685  35.2319062   0.8261911  35.6676222
  34.4801961   0.4477450  35.4392267  35.6805073   0.8580345  34.9195032
  35.1868729   0.7747518  35.5233724  40.6844022   1.2487281  31.0961769
  40.3495390   1.9264202  30.6605991  41.1970892   0.8592592  30.5078641
  40.7109603   1.2911859  30.9448560  40.2248313   3.2001549  37.0372880
  40.6087692   3.7688448  36.4977656  40.1607454   2.4751060  36.5578697
  40.2721740   3.1777013  36.8866743  36.8103818   0.8380303  37.9338994
  36.9114181   0.0280657  38.2436122  36.2145563   0.7437250  37.3038673
  36.7376357   0.7045332  37.8865233  36.6504558   5.7557893  39.3353850
  37.2942013   6.1971057  39.7250009  36.9760813   4.9511319  39.2484109
  36.7936386   5.7023087  39.3799328  30.0068862  -3.1399410  37.5591328
  29.7719047  -3.9731758  37.4523597  30.1454503  -2.8594744  36.7452529
  29.9924525  -3.2215907  37.4233683  37.3525137  -1.2330133  34.7073712
  37.6740978  -0.6924925  34.1035020  37.9997234  -1.8033361  34.8396002
  37.4951192  -1.2370957  34.6380747  31.5686187   1.7386261  38.8347534
  31.0853765   2.4636750  38.8107118  32.3809505   2.0362391  38.9457692
  31.6176935   1.8888614  38.8474813  37.6400341   0.5318441  41.4397349
  37.1227283   0.1725856  40.8358657  38.3374732   0.0080616  41.4503415
  37.6665922   0.4016129  41.3527607  41.2963933   0.9813256  47.4013522
  41.3847279   0.7939396  48.2491732  41.7253645   0.3350685  47.0018368
  41.3726035   0.8576263  47.4685273  38.8634393   0.2644415  46.3831184
  38.3005228  -0.1482975  46.9070845  39.6255416   0.1897321  46.8024327
  38.8928841   0.1921816  46.5224184  34.4230384   2.2542437  38.9867814
  35.1250963   1.7394426  39.0440571  34.3427867   2.5816588  39.7914689
  34.5154145   2.2256663  39.1140606  33.7481160  -1.5551211  38.4953422
  34.5870059  -1.3228279  38.5427184  33.7792929  -2.4246900  38.4260457
  33.8762877  -1.6494265  38.4918067  34.3733863  -1.1350336  42.7966728
  34.9132088  -1.2779205  43.4670100  33.6903809  -0.7353585  43.1650754
  34.3526016  -1.0970665  42.9501149  41.4083992   0.4122275  50.0657305
  42.1924409   0.5253122  50.4313047  41.2080587  -0.4136588  50.2615991
  41.4950018   0.3068994  50.1491691  41.5654386   2.3232377  43.7123761
  40.7669631   2.0831877  43.9697629  42.0140397   2.3746770  44.4590808
  41.5128997   2.2954768  43.8608685  30.1864421  -4.1291266  40.2312893
  30.0039995  -4.1544380  39.3785186  30.9214090  -3.6592328  40.2701802
  30.2678485  -4.0629904  40.1110812  36.5257481  -1.8682476  37.2656835
  37.1631428  -2.1070728  37.8108629  36.9512553  -1.6645317  36.5309996
  36.6833647  -1.8731466  37.2373993  31.2170124   0.3705861  41.1491139
  31.2574269   0.6420712  40.3210919  31.7764648   0.8947769  41.5648927
  31.3053469   0.4881616  41.0883027  38.9078953  -1.3910053  38.9450622
  38.9817961  -1.5534881  39.7992472  39.7248459  -1.2019864  38.7011103
  39.0395312  -1.3873311  39.0348647  32.6684710  -1.0452190  35.9745065
  31.8422827  -0.7990453  35.8479344  32.7296701  -1.1240109  36.8407123
  32.5558877  -1.0207241  36.0834010  37.4483539   1.5724690  33.6764095
  37.7381837   1.1813671  32.9523322  38.1787020   1.7541395  34.1169370
  37.5990423   1.5418504  33.6346902  35.3889454   3.5492072  36.7424245
  35.1689750   3.2589427  37.5350912  35.1683976   2.8907027  36.2142157
  35.3237049   3.4091781  36.7813153  37.5557410   4.9221462  35.5254937
  38.2081468   4.3897905  35.7545963  36.8583019   4.5690115  35.9122811
  37.5488128   4.7910985  35.6167105  34.5038675  -2.7239360  34.9322311
  35.2584643  -2.3426321  35.1457774  33.9109288  -2.2728216  35.3869008
  34.5275389  -2.6010533  35.0305190  35.8236902  -1.5530799  40.3062427
  35.3017655  -1.4130507  40.9914292  36.2110922  -2.3120135  40.4964544
  35.8040602  -1.6445275  40.4363503  42.0203907   0.1864660  34.2922996
  41.7790582  -0.5467479  33.8850061  42.2005239   0.7351517  33.6389329
  42.0111531   0.1587052  34.1353219  36.3883387   2.1529981  43.3892282
  36.5372951   1.5932897  42.7365687  37.1683389   2.2321983  43.7724801
  36.5257481   2.0815547  43.3489231  38.9136688   2.3244624  44.6676773
  38.8380359   1.6553435  45.2227561  38.8426547   3.0262412  45.1817439
  38.8917294   2.3289531  44.8253621  39.5706935   0.8445623  35.5000379
  40.3356826   0.5755267  35.1783043  39.4685024   0.3595633  36.2170442
  39.6688430   0.7335188  35.5580207  38.3028322   5.7312944  43.1254774
  38.7924252   5.0323733  42.9430439  37.7312554   5.4336814  43.7130831
  38.2912852   5.5839168  43.1855815  38.7964668  -0.5210283  32.2494680
  38.8657488  -1.3795744  32.3887681  39.5753123  -0.3038402  31.9213705
  38.9217518  -0.6157419  32.2211838  43.1872155   1.9027419  36.4631174
  42.7951947   1.5994134  35.7454040  43.3425228   2.7396509  36.2736128
  43.1525745   1.9811255  36.3287671  36.1799152  -1.3959043  45.0007246
  36.0719507  -1.3856980  45.8669304  36.3894934  -0.5704262  44.8112200
  36.1949263  -1.2717968  45.1011338  43.9562461   1.3062911  39.8961208
  43.7582149   1.7953726  39.2017419  43.3350172   1.5104153  40.4745342
  43.8350025   1.4079450  39.8784431  31.4548806  -2.4712303  43.6063100
  30.9248731  -3.1619864  43.6558075  31.7273900  -2.4802117  42.7775809
  31.4173529  -2.5745171  43.4910516  26.7344649  -5.7984538  40.9631448
  26.6288098  -5.8437694  40.0983532  25.9844869  -5.4530758  41.2445733
  26.6080252  -5.7543630  40.8768778  40.1364966  -1.7429153  44.5594900
  39.6290057  -1.1893306  45.0035531  39.8391612  -1.6820863  43.7413675
  40.0169851  -1.6522842  44.5043357  42.7472747   2.1734105  32.4898844
  42.0302056   1.9994967  32.0246081  43.3979484   1.9386677  31.9574330
  42.7374597   2.1129897  32.3428062  39.3807452   3.1895405  41.4651907
  39.1573106   2.4314234  41.8335933  38.8917295   3.2193426  40.7432347
  39.2750901   3.0817630  41.4128648  38.0285908   3.4095863  38.9188992
  37.6146307   2.7469994  38.5292833  38.7133283   3.5573722  38.3984686
  38.0684280   3.3336521  38.7845489  41.3951203   2.5685949  39.6712608
  40.9967486   2.6788219  38.9033429  40.7802422   2.7768015  40.2539168
  41.2450092   2.6159517  39.6443908  34.9940378   3.8504945  41.3202338
  35.3086937   4.6641333  41.3280119  35.4033791   3.4655164  41.9884497
  35.1008476   3.9133647  41.4206429  44.0341882   0.8776305  51.0698222
  44.1438848   0.0884866  51.4254969  44.3632779   0.7882241  50.2672560
  44.0994288   0.7482158  51.0040612  32.3353398  -2.2021947  40.9680946
  32.9398256  -2.2426112  40.3394767  32.1280711  -1.3550795  40.9985002
  32.3942296  -2.0833944  40.8797063  42.1497170   0.0643999  42.1843183
  42.9695544  -0.0793035  42.4459479  41.8691248   0.6890197  42.7259621
  42.2293914   0.1354351  42.3031123  27.5704681  -3.2187329  40.8379869
  27.4728959  -4.0291058  41.1469926  28.3533550  -3.2395536  40.4526137
  27.6720817  -3.3420239  40.8266732  58.6210821   7.7208850  35.1486060
  58.5904825   8.5753487  35.3204329  59.2192170   7.4204143  35.7072203
  58.7047979   7.8025347  35.2560862  51.8210506   6.8084501  39.9038990
  50.9648401   6.9693000  39.9548107  51.8678159   5.9376565  39.9244051
  51.7009617   6.7035303  39.9145056  55.1304222  13.0771027  49.5099446
  55.8370989  12.5823058  49.6386381  55.3192158  13.5180108  48.7802104
  55.2632128  13.0689377  49.4208492  51.6576605  16.7672589  31.0961769
  51.3227974  17.4449510  30.6605991  52.1703476  16.3777900  30.5078641
  51.6842186  16.8097167  30.9448560  51.1980896  18.7186857  37.0372880
  51.5820276  19.2873756  36.4977656  51.1340038  17.9936368  36.5578697
  51.2454324  18.6962321  36.8866743  54.6662327   8.8676545  42.5470642
  55.2118287   9.5461632  42.6064612  54.6079203   8.7264006  41.6872223
  54.7378241   8.9468547  42.4282702  56.4427395  10.2961152  33.4204370
  56.3266921  11.0468838  33.8496508  57.2383282  10.0385106  33.6700457
  56.5431985  10.3695999  33.5208461  40.9801446  12.3785898  37.5591328
  40.7451630  11.5453550  37.4523597  41.1187087  12.6590564  36.7452529
  40.9657108  12.2969401  37.4233683  43.2791533   4.5471629  40.4575636
  42.6596565   3.9564276  40.2885650  43.1775397   5.1383064  39.8239959
  43.1729209   4.5475711  40.3380625  50.3759429   6.2871170  34.7908099
  51.0739594   6.4659298  35.2829562  50.6911761   5.7641510  34.1678488
  50.5254766   6.2364942  34.7710109  43.0060666   8.0923910  42.7019205
  42.8819363   8.6786356  43.3369023  43.6578951   7.5984106  43.0031480
  43.0834316   8.1062715  42.8405134  48.0319007  11.2685627  41.9806716
  48.6768010  10.7758070  41.6617664  48.2720784  11.4110414  42.8072794
  48.1629592  11.2163069  42.0556249  50.5705099  14.1140533  41.6313608
  50.8528341  13.3191939  41.4100364  51.2991259  14.5921120  41.6518669
  50.7194662  14.0675130  41.6016623  48.5486292   1.6563567  38.8729373
  48.2189622   2.1074711  38.2033072  47.8731294   1.5779730  39.4202380
  48.3996729   1.7114702  38.8552597  54.1656701  11.0268797  31.7318659
  54.0807996  11.8829763  31.8768228  54.6541084  10.7513121  32.4000819
  54.2245598  11.1126118  31.8520741  55.0975134   7.6453591  33.2316395
  54.5686606   7.8613224  33.8913701  55.6200154   8.3389729  33.1517364
  55.0963587   7.7796728  33.3171994  60.5523187  13.2199895  38.6049439
  59.7220890  13.4310539  38.7682856  60.5032439  12.3936950  38.3291723
  60.4229922  13.1289502  38.5886804  46.9874742  11.5416808  32.0323863
  46.4031957  12.0466839  32.4389726  46.5844837  11.3159194  31.2920455
  46.8414046  11.5825056  31.9828888  52.2696517  16.4998563  47.4013522
  52.3579862  16.3124704  48.2491732  52.6986229  15.8535993  47.0018368
  52.3458619  16.3761571  47.4685273  51.4451956   7.7882460  30.5092783
  51.6847960   7.9960443  29.6968126  51.7667797   6.9839968  30.6181728
  51.5289114   7.6996561  30.4053336  60.0477145   5.8670296  42.3999860
  59.2105566   5.9372483  42.6347455  60.0165376   5.8694791  41.5274163
  59.9195428   5.8780523  42.3059408  46.4441874   8.0103332  48.1148229
  46.6162378   7.9009226  48.9633510  46.9811232   8.6557737  47.8779421
  46.5486878   8.0895333  48.2053326  45.1099311   2.1246174  31.0530434
  44.9274884   2.3418055  30.2271427  45.9724924   2.2385187  31.1089049
  45.2103901   2.1736072  30.9384921  54.7707331  10.0625972  37.9911752
  55.5264846  10.4957487  38.0300661  54.8769655   9.4130742  38.5646388
  54.8977502  10.0303456  38.0809777  57.8087502  13.8899250  38.7414155
  57.3722734  13.8935992  39.4973126  57.4750418  14.5704749  38.3093732
  57.6950122  13.9911705  38.7894987  52.3816576  15.9307582  50.0657305
  53.1656992  16.0438430  50.4313047  52.1813170  15.1048720  50.2615991
  52.4682601  15.8254302  50.1491691  40.7503591  10.6035263  42.9501149
  40.4842006   9.7874379  43.1092139  40.7642155  10.6488418  42.0796665
  40.7128314  10.4892167  42.8454631  44.6561338   5.4020347  29.5652907
  43.9419515   5.1158527  29.9775340  45.1405307   5.7416973  30.2059295
  44.6220702   5.4101997  29.7208542  45.5002198   4.1413641  45.5968157
  44.8073994   3.6710621  45.8428888  46.1162525   3.9151945  46.1709864
  45.4886728   4.0380773  45.7177309  60.9431848  10.6080170  37.6333792
  61.6048282  10.0470838  37.5329701  60.3023260  10.1132200  37.9586483
  60.9460716  10.4516579  37.6666132  51.8308656  13.9050301  29.9414715
  52.2459805  13.5735325  29.2499211  51.0000586  13.6719203  29.8134852
  51.7696665  13.8221557  29.8205563  41.1597005  11.3894042  40.2312893
  40.9772578  11.3640928  39.3785186  41.8946674  11.8592980  40.2701802
  41.2411069  11.4555404  40.1110812  57.2296679  11.6245552  37.3745781
  57.4652268  11.7690751  36.5472632  57.3786243  12.3887960  37.7677295
  57.2862482  11.7584606  37.3109385  44.2242757   8.1079045  46.7395002
  44.9482729   8.0932075  47.2259897  44.3258893   8.8174400  46.2416970
  44.3460966   8.2103748  46.7373789  59.0587136  10.4647218  35.2115385
  59.3895353  10.9974858  34.6055480  59.6320224  10.5186106  35.8677336
  59.1920815  10.5516787  35.2193166  51.5987706  11.5878129  51.6043949
  50.8060687  11.9021641  51.7896569  51.7136633  11.8029598  50.7664734
  51.4983117  11.6661966  51.5082284  54.2719025   8.3112121  35.8938965
  54.3665879   9.0501415  36.3478590  53.6477868   7.8829596  36.3273529
  54.1928055   8.3573441  36.0247112  52.5271499  11.4898333  46.5429246
  53.1010360  10.8525577  46.6977810  52.4486303  11.4902416  45.6738903
  52.6004734  11.3963445  46.4375657  41.1267915   8.2687543  40.3811960
  41.7041418   8.1323993  41.0204205  40.4281977   7.8123327  40.6357544
  41.1088937   8.1809809  40.5134250  54.5242046  10.1560860  29.1275917
  54.4422209  10.2263048  29.9930904  55.1621767  10.7190604  28.9359657
  54.6061884  10.2499831  29.2265866  47.8835217   9.9221598  38.5950443
  47.6254462   9.0893333  38.5681743  47.9383700  10.1479211  37.7542943
  47.8534995   9.8319370  38.4670580  46.8569930   7.4759361  39.0815338
  46.2819521   7.6351529  39.7179299  46.4805606   6.8394770  38.6183788
  46.7172742   7.4057174  39.1069896  50.5243218   5.9482710  43.9407716
  50.1357651   5.5236928  43.2859908  49.8597917   6.1964860  44.4484743
  50.3690146   5.9221431  43.9195584  36.6026748   7.1199436  37.0959778
  36.6887000   6.7431304  37.8773308  37.2302546   6.7459881  36.6179737
  36.7083299   7.0084918  37.1405256  51.6282156  10.1781315  32.1384523
  52.4422795  10.4696207  32.0267295  51.5641298   9.5241177  31.5642816
  51.7384895  10.1246509  32.0373361  57.8491647  12.8607311  46.5514099
  57.6130284  12.0295376  46.4326160  58.4934876  12.8092918  47.1368943
  57.9086317  12.7304999  46.6199992  48.1392880   8.8705122  31.6031725
  48.5238032   8.6512829  32.3548270  47.8904500   9.6968067  31.7332801
  48.1594952   8.9603268  31.7332801  48.3061420   2.1511537  51.3194309
  47.9914861   2.9211100  51.0563872  47.9851353   1.5881793  50.7346536
  48.2120339   2.1821806  51.1935659  58.8728067  12.6451760  42.6142393
  58.5673884  13.3779816  42.9755709  58.1534283  12.2389689  42.3335179
  58.7215410  12.6933493  42.6255530  64.5729859   9.2844760  41.9410738
  64.5054360   9.3040719  41.0713324  64.5585522  10.1275087  42.1666408
  64.5608616   9.4118495  41.8463215  43.6417293  14.4733118  35.9745065
  42.8155411  14.7194855  35.8479344  43.7029285  14.3945198  36.8407123
  43.5291460  14.4978067  36.0834010  45.8593317   0.5402059  36.9340505
  44.9915743   0.6124658  36.9998114  46.1468521   1.3424138  37.1228480
  45.7733065   0.6696206  36.9715272  62.3588477   8.0589146  40.2157332
  62.9096398   7.4257215  40.4554424  62.3432592   8.5904539  40.9072836
  62.4373673   8.0438095  40.3536190  49.0110868  11.8927744  44.7617225
  48.5122561  12.6043511  44.8402114  49.8211092  12.2128410  44.7235388
  49.0566974  12.0454592  44.7673794  45.2738985  11.1550697  39.0079946
  44.9852234  10.5288168  39.5425674  46.1422333  11.0970984  39.0744627
  45.3599237  11.0538241  39.0970901  56.0616883   6.2985480  39.3261928
  55.7181649   5.5775815  39.6769178  56.1609925   6.0899331  38.4840287
  56.0258926   6.1609683  39.2533608  45.4771259  12.7945948  34.9322311
  46.2317227  13.1758987  35.1457774  44.8841871  13.2457091  35.3869008
  45.5007972  12.9174775  35.0305190  56.5229912  12.7611184  34.8685916
  57.0887945  13.4204394  34.7844459  55.8757815  13.1060882  35.3402319
  56.5108668  12.9093125  34.9258673  47.9377926   4.7508788  50.0579524
  47.1277701   5.0566568  49.9469366  48.4152612   5.4714370  50.1732108
  47.8881404   4.9023389  50.0586595  43.7860669   4.0160318  34.3757382
  43.4985465   3.6461588  33.6389329  44.4731137   4.4855173  34.1141086
  43.8449566   4.0307287  34.2272457  52.9936490  15.7049968  34.2922996
  52.7523166  14.9717829  33.8850061  53.1737823  16.2536825  33.6389329
  52.9844114  15.6772360  34.1353219  46.6214341   7.8813266  35.8224786
  47.3436993   8.0454424  35.3628592  46.1422334   8.6022931  35.7164126
  46.6578071   8.0111496  35.7390400  54.5807848   4.2177065  41.2021471
  53.7418949   4.2438344  40.9659734  54.6512216   4.8647800  41.7826818
  54.4676242   4.3173191  41.2530588  44.2721957  10.2871338  44.9278926
  44.7843054  10.5655592  44.2787686  43.9858300  11.0260633  45.2941739
  44.3056821  10.4373692  44.8868804  58.4565372   9.4245052  38.4882713
  58.3699347   9.5800478  39.3417492  58.0015852  10.0683127  38.1142118
  58.3768629   9.5420807  38.5589820  41.3588864   4.7941530  35.2242663
  41.4605000   5.5967692  35.5523638  42.1544751   4.5928866  34.9265743
  41.4916769   4.8827429  35.2278018  47.7905683   2.3797727  44.9879968
  47.5988880   2.3952861  45.8379391  48.6404279   2.5761401  44.9646623
  47.8881405   2.4112078  45.1103262  42.1752596   4.9088709  42.9663784
  42.0338088   4.0572649  43.0908292  42.4593159   4.9517369  42.1425990
  42.1960442   4.7888459  42.8631408  52.3291188   6.7455799  37.1108272
  52.0825903   6.6651550  37.9445061  52.6576311   5.9609267  36.9170800
  52.3412432   6.6182064  37.2055796  56.2239237  13.4539158  40.8995054
  56.0853596  14.1520204  41.4043796  55.4439235  13.2987815  40.5431235
  56.0882464  13.5339325  40.9221328  54.5617322   9.7535533  47.1517435
  54.5565361   8.8815350  47.1559862  55.2678316   9.9523703  46.6786891
  54.6662326   9.6539408  47.0824471  48.2888216   9.4812517  46.5231256
  48.4331591  10.0613725  45.8874366  48.6363864   9.8588814  47.2281110
  48.3615677   9.6233221  46.5330250  50.4608133   8.6802686  44.3056387
  49.7131447   8.8733700  43.9004665  50.6149658   7.8547905  44.0680508
  50.3730560   8.5867797  44.2101793  57.7192610  12.8117412  31.6611553
  57.3399419  12.0254550  31.6540842  57.0558855  13.3604269  31.5183197
  57.5651085  12.7762236  31.6392350  50.7009910   2.5753236  45.1951791
  51.1582524   3.3077211  45.3224583  50.7766239   2.1519702  45.9539047
  50.7800880   2.6210475  45.3252867  42.9442901   2.8219056  46.2841235
  42.4085091   2.2099414  46.6002002  43.0060666   3.3967192  46.9374901
  42.8738534   2.8165984  46.4276661  48.5792288   4.5655340  42.0393615
  47.7888363   4.3846800  42.3610951  48.9752911   3.7882293  42.0223909
  48.5209164   4.4242801  42.0846163  53.0658179  13.3943115  27.4800328
  53.8331164  13.4543240  27.0706180  52.6189488  12.8223556  26.9956647
  53.1131606  13.3179690  27.3478039  53.9635974  12.1997771  39.7653061
  53.2880976  11.9683003  40.2666448  53.9728350  11.5918953  39.1395166
  53.8654479  12.0756696  39.7469213  51.0930118   7.0415599  46.5217114
  51.0289259   7.9025556  46.3937250  51.2327306   6.7247593  45.7212665
  51.1045588   7.1215766  46.3845327  55.9652709  15.0562903  31.9963239
  56.0472546  15.8629889  31.6724690  56.4502451  15.0758862  32.7204012
  56.0489867  15.1783565  32.0550137  49.7749212   9.7347739  40.6633317
  49.3511461   9.9352238  39.9272335  49.5994067   8.8876587  40.7757616
  49.6860093   9.6396520  40.5707007  45.0631657  10.2299790  36.0961289
  45.2196276  10.1646593  36.9517281  45.4032250  11.0048343  35.8839969
  45.1364892  10.3348988  36.1915883  51.6010802   9.6057674  34.9654652
  52.1426347   9.1028055  35.4293273  51.9157361   9.5522869  34.1544138
  51.7275199   9.5237095  34.9138464  55.4727909  13.8160321  52.0781565
  56.2862774  13.5445470  52.2386697  55.3122875  13.5167861  51.2741761
  55.5697857  13.7315247  51.9826970  52.7500071   4.4993978  45.0176953
  52.9642041   3.8604893  44.4640307  52.1333970   4.9439802  44.5884815
  52.6905400   4.4704122  44.8727384  54.1604739  17.4212727  36.4631174
  53.7684531  17.1179442  35.7454040  54.3157811  18.2581817  36.2736128
  54.1258329  17.4996563  36.3287671  41.6365918   7.4134741  36.4122056
  42.0164883   7.8319286  35.7482324  41.0621283   7.9948196  36.7190900
  41.6077243   7.5612600  36.3598797  54.9139159   6.1083044  45.9560260
  54.1015841   5.8008934  46.0373433  55.3729094   5.6282044  46.5202972
  54.8619544   5.9919536  46.0514854  54.3244414  13.9862715  36.4037204
  53.9659068  14.1577358  37.1801237  53.8383124  14.4475921  35.8465203
  54.2003111  14.0801687  36.4362473  49.1132779   9.6661881  28.9437439
  49.4025304  10.4426763  29.2181013  49.2004578   9.1550612  29.6451938
  49.1687035   9.7053799  29.0879937  52.0092666   7.5143115  50.7388962
  52.4792298   8.1385231  51.1256836  52.0554547   6.8460090  51.2982177
  52.0860542   7.5077795  50.8789034  55.4849153  14.8766611  47.3504405
  56.1228874  14.3826807  47.0166861  54.8423245  14.8044012  46.7656632
  55.4843380  14.7925620  47.2146760  57.2106153   6.7255757  41.9170321
  56.7833761   6.6382106  41.1618420  56.5732206   6.8333533  42.5025165
  57.0535760   6.7288417  41.8915762  55.5403410  15.5686420  43.9909762
  56.3295788  15.2175484  44.1111844  55.7147007  16.3822808  43.7286396
  55.6823691  15.6372277  43.9697630  45.2796720   8.9795145  41.0437551
  44.4384727   8.8799020  41.2516445  45.4886728   9.7490626  41.3951871
  45.1861413   9.0787189  41.1264866  42.7572287   6.6014682  38.8722301
  42.3628985   6.6757694  38.0972411  42.2012404   6.9872629  39.4230663
  42.6175099   6.6696457  38.8389961  48.1479482   4.2177064  34.8579850
  48.4239216   3.4995977  34.4457418  48.7478151   4.8161984  34.6500956
  48.2772747   4.1997435  34.7660611  45.1705528  11.3738908  42.4629184
  44.5793461  12.0148406  42.4332199  45.9326551  11.7976525  42.4360483
  45.1953788  11.5314746  42.4544331  45.5666151   2.5340906  43.1297201
  46.0267632   2.6079835  43.8672325  45.6122257   3.3322160  42.7797023
  45.6416706   2.6635053  43.1869958  47.2149500   3.2007600  47.6969228
  46.8235066   2.5540948  48.1325006  47.3835363   3.7919036  48.3163484
  47.1820411   3.1921868  47.8531934  61.2895949  11.2044677  43.4606462
  61.3479073  11.6531326  44.2066438  60.6562417  11.6143490  43.0236542
  61.2047245  11.3318412  43.5059010  54.9295044  16.8248219  39.8961208
  54.7314733  17.3139034  39.2017419  54.3082755  17.0289461  40.4745342
  54.8082609  16.9264758  39.8784431  48.9903022   8.5933116  34.2371452
  49.7345067   8.9807392  34.4754402  49.1363719   7.7490542  34.4011940
  49.1213608   8.5263589  34.2965422  51.9780898   4.1658589  40.1365372
  51.5040853   3.6400352  40.6470683  52.3499034   3.6188062  39.5680233
  51.9630787   4.0074586  40.1280519  42.3553928   6.1630096  45.5048918
  43.2179541   6.0625805  45.4186247  42.0245711   5.5824805  44.9434490
  42.4339125   6.0621723  45.4094323  58.2417629   9.2260965  41.5472152
  58.0015852   8.3867380  41.5514579  58.7209636   9.3061132  42.2712926
  58.2769813   9.1142365  41.6546955  53.9064398   5.0595144  33.1991126
  53.3787417   5.1423888  32.5096834  54.3660106   5.8013016  33.1955770
  53.8966248   5.1815806  33.0965821  60.2422816   6.0062422  39.5001411
  60.0032586   5.9658257  38.6622196  60.4056717   6.8533574  39.6267132
  60.2313119   6.1254507  39.3954893  56.8468846  10.3912372  45.4306456
  57.5703045   9.9384898  45.2517476  56.5818808  10.6717037  44.6478784
  56.9150119  10.3663340  45.2885172  45.7155714   4.9872545  42.1659336
  45.0908785   4.9990937  41.5585288  45.3801309   5.4632720  42.8150576
  45.5741206   5.0591062  42.1715904  45.8997463   3.3297664  28.2232021
  45.5510267   3.9817389  28.6863570  45.4193909   3.3154777  27.4955892
  45.7767707   3.4240717  28.1843112  42.4281390  13.0473005  43.6063100
  41.8981315  12.3565444  43.6558075  42.7006483  13.0383191  42.7775809
  42.3906112  12.9440137  43.4910516  53.4601480  13.6298708  32.3300783
  54.1835679  14.0956821  32.1865356  53.0202072  13.6972317  31.5798380
  53.5017173  13.7082544  32.1985564  52.6287636  10.4896250  43.5801472
  52.0144629   9.9454300  43.8750107  53.1454920   9.9760486  43.1007288
  52.6143298  10.3332659  43.5525700  51.8683933  11.5600520  41.3145770
  51.4411541  10.9350239  40.8811206  51.8608877  11.2775442  42.1404777
  51.8043074  11.4253301  41.3725598  44.9846460   6.5965693  44.3834204
  45.1439947   5.8409017  44.7885926  44.8039353   7.1456633  45.0374942
  44.9811819   6.5659507  44.5396910  50.1969642   2.4369274  41.5288304
  50.2212130   1.9029387  40.8401084  50.4481116   1.9286583  42.1913895
  50.2379561   2.2830178  41.5252949  37.7077232   9.7200769  40.9631448
  37.6020681   9.6747614  40.0983532  36.9577452  10.0654550  41.2445733
  37.5812835   9.7641678  40.8768778  46.4770965   1.1640093  40.9094049
  46.5169336   1.6649299  41.6228756  45.6520629   1.2550486  40.6399972
  46.3610491   1.2521909  40.9744587  48.6600578  10.7300833  49.0114343
  47.8096208  10.8672547  49.1471988  48.8228705   9.9964611  49.4562045
  48.5584441  10.6414934  49.0969942  47.8985328   7.6800603  43.2067948
  47.0677258   7.8474421  43.0003196  47.8436845   7.3036553  43.9916833
  47.7674743   7.6490334  43.2916476  45.7069111   1.1709495  48.8424358
  46.3321815   0.6271628  49.1153791  45.2519591   0.6904413  48.2732149
  45.7317372   1.0198977  48.7985952  46.2721372   5.9556194  33.7358065
  46.4124333   6.4528658  34.4386707  46.7703905   5.2542488  33.8772279
  46.3662453   5.9258173  33.8609644  46.3021594   6.8223305  31.0650642
  46.9366674   7.4183730  31.0000104  46.3847205   6.5226763  31.8796512
  46.4078145   6.8664213  31.1753729  59.2804160   9.3538782  43.9337006
  59.8722000   9.9936033  43.9655204  59.7163155   8.6561819  44.2229073
  59.4322591   9.3457133  43.9817839  47.8800577   2.7537280  31.0396084
  48.2016418   2.2740363  30.3855346  48.1427521   3.5636927  30.8486896
  47.9666603   2.8027178  30.9151576  51.1097550  13.7756155  44.5594900
  50.6022641  14.3292002  45.0035531  50.8124196  13.8364445  43.7413675
  50.9902435  13.8662466  44.5043357  42.8074582   9.0191146  34.3340188
  43.3166811   9.6155653  34.7151494  43.2808854   8.7517120  33.6516608
  42.9517958   9.0676961  34.2894711  53.7205330  17.6919413  32.4898844
  53.0034640  17.5180275  32.0246081  54.3712068  17.4571985  31.9574330
  53.7107181  17.6315205  32.3428062  56.3053301   6.5684001  36.2340149
  55.6344491   7.1113703  36.1053214  56.9993052   7.0378856  35.9921844
  56.3082169   6.7182272  36.1795676  45.1665114   5.6547404  37.2013369
  44.4477103   6.0711537  37.4686232  45.5377476   6.2201643  36.6505007
  45.1157046   5.7996686  37.1596175  54.4664695   6.2875253  43.0915364
  54.4462622   6.1058548  43.9450143  54.5143895   7.1587272  43.0674948
  54.4699336   6.3891792  43.2138659  52.4111025  12.8762445  49.0163841
  52.3706879  12.2312122  48.4308997  53.2234343  12.8199063  49.3289253
  52.5254178  12.7721412  48.9760790  52.3683786  18.0871256  39.6712608
  51.9700069  18.1973527  38.9033429  51.7535006  18.2953323  40.2539168
  52.2182675  18.1344825  39.6443908  50.9411688   4.6945404  32.5386748
  50.3476528   5.0162401  31.9871315  50.9786966   3.8486500  32.3307854
  50.8586077   4.6169733  32.4269519  53.8169505   4.6524909  35.9688498
  53.5883198   4.6757610  35.1266856  54.0767581   3.8282376  36.0883509
  53.8215693   4.5340989  35.8613696  48.0988733   6.5059382  45.5713598
  47.5867636   5.8980565  45.9298630  47.9268229   7.2215974  46.0387574
  47.9978370   6.5222681  45.6929822  42.9454448   4.9496957  48.2215960
  42.7757038   5.6098332  47.6764167  42.5020398   5.1603518  48.9428449
  42.8553782   5.0782939  48.2477590  46.8714267   3.1901455  37.2642694
  47.3471634   3.5518535  36.6292875  46.3702867   3.8457923  37.5442837
  46.8679626   3.3395644  37.2119435  60.1025629  12.6623223  33.0555699
  60.4859235  13.4114579  33.2853796  59.3069742  12.9089043  32.7967688
  60.0419411  12.8092917  33.0513272  51.9757804   4.4283627  48.0115854
  52.5329234   4.1997436  47.3794319  51.6518869   5.1889292  47.7351066
  52.0104214   4.5067463  47.8772351  39.8456512   7.8543823  43.4804450
  39.2983232   7.1844468  43.5985318  40.6348891   7.4873671  43.5447917
  39.8808696   7.7008809  43.5073151  49.6940921   7.5151280  48.9767861
  50.4452248   7.8302957  49.2907415  49.8863497   7.3130451  48.1501783
  49.8332335   7.5318662  48.9011257  48.9140920   5.3342655  30.6316078
  49.2939885   5.3522284  29.8467193  48.1733517   5.7796644  30.5106925
  48.8609758   5.4024430  30.4979646  38.6043482   7.0664631  40.6350473
  38.4265243   6.6141240  41.3605389  38.3162504   7.8690792  40.8188951
  38.5356435   7.1187188  40.7693976  54.2667063   8.3222348  39.8727863
  54.7620728   7.6045343  39.8331884  53.4566839   8.0193146  39.7582350
  54.2210956   8.1719994  39.8501589  49.7125675  12.1720161  32.0224868
  48.9036997  11.8486835  31.9758177  50.2200583  11.4653383  31.9553116
  49.6675341  12.0201478  32.0055162  40.3415952   9.5992354  37.7472232
  39.4761471   9.5878045  37.6355003  40.4414768   9.4122577  38.5943371
  40.2290119   9.5698416  37.8561177  56.3318882  11.0726035  42.5604992
  56.7573953  10.5500457  42.0075417  55.9675802  11.6706873  42.0393615
  56.3405484  11.0836262  42.4014002  52.9197481  14.7860300  38.8906150
  53.3908660  15.5000562  39.0596135  53.2557660  14.1859050  39.4266019
  53.0392596  14.8031764  38.9938526  55.0074466  16.3961613  51.0698222
  55.1171431  15.6070174  51.4254969  55.3365363  16.3067549  50.2672560
  55.0726872  16.2667466  51.0040612  53.5571428  14.5778234  45.6533842
  53.0092374  13.9536117  45.3853908  54.0184456  14.7672506  44.9377922
  53.5438637  14.5137284  45.5084273  48.9060091   1.5604183  33.3143709
  49.7275786   1.7302496  33.0725404  48.4429742   1.7151444  32.5910007
  48.9591253   1.6085916  33.1715354  43.3085982  13.3163361  40.9680946
  43.9130839  13.2759196  40.3394767  43.1013294  14.1634513  40.9985002
  43.3674879  13.4351364  40.8797063  53.1229754  15.5829307  42.1843183
  53.9428128  15.4392273  42.4459479  52.8423832  16.2075505  42.7259621
  53.2026497  15.6539659  42.3031123  38.5437264  12.2997979  40.8379869
  38.4461542  11.4894250  41.1469926  39.3266134  12.2789772  40.4526137
  38.6453401  12.1765069  40.8266732  69.5943404  23.2394158  35.1486060
  69.5637409  24.0938795  35.3204329  70.1924753  22.9389451  35.7072203
  69.6780562  23.3210655  35.2560862  62.7943089  22.3269809  39.9038990
  61.9380985  22.4878307  39.9548107  62.8410743  21.4561873  39.9244051
  62.6742201  22.2220611  39.9145056  66.1036806  28.5956335  49.5099446
  66.8103573  28.1008366  49.6386381  66.2924741  29.0365416  48.7802104
  66.2364711  28.5874685  49.4208492  62.6309189  32.2857897  31.0961769
  62.2960557  32.9634818  30.6605991  63.1436059  31.8963208  30.5078641
  62.6574770  32.3282475  30.9448560  62.1713480  34.2372165  37.0372880
  62.5552859  34.8059064  36.4977656  62.1072621  33.5121676  36.5578697
  62.2186907  34.2147629  36.8866743  65.6394910  24.3861853  42.5470642
  66.1850870  25.0646940  42.6064612  65.5811787  24.2449314  41.6872223
  65.7110825  24.4653855  42.4282702  58.7568985  31.8750919  37.9338994
  58.8579348  31.0651273  38.2436122  58.1610730  31.7807866  37.3038673
  58.6841524  31.7415947  37.8865233  67.4159979  25.8146460  33.4204370
  67.2999505  26.5654146  33.8496508  68.2115866  25.5570414  33.6700457
  67.5164568  25.8881307  33.5208461  54.2524117  20.0656936  40.4575636
  53.6329148  19.4749584  40.2885650  54.1507980  20.6568372  39.8239959
  54.1461792  20.0661019  40.3380625  59.2990304  29.8040483  34.7073712
  59.6206145  30.3445691  34.1035020  59.9462401  29.2337255  34.8396002
  59.4416360  29.7999658  34.6380747  61.3492012  21.8056478  34.7908099
  62.0472177  21.9844606  35.2829562  61.6644345  21.2826818  34.1678488
  61.4987350  21.7550250  34.7710109  53.9793250  23.6109218  42.7019205
  53.8551947  24.1971664  43.3369023  54.6311534  23.1169414  43.0031480
  54.0566899  23.6248023  42.8405134  59.0051591  26.7870935  41.9806716
  59.6500593  26.2943378  41.6617664  59.2453368  26.9295722  42.8072794
  59.1362176  26.7348377  42.0556249  61.5437682  29.6325841  41.6313608
  61.8260925  28.8377247  41.4100364  62.2723843  30.1106428  41.6518669
  61.6927246  29.5860438  41.6016623  59.5218876  17.1748875  38.8729373
  59.1922206  17.6260018  38.2033072  58.8463878  17.0965038  39.4202380
  59.3729312  17.2300010  38.8552597  65.1389284  26.5454105  31.7318659
  65.0540579  27.4015071  31.8768228  65.6273668  26.2698429  32.4000819
  65.1978182  26.6311426  31.8520741  66.7295284  13.1634398  37.1178984
  66.4148725  13.8537876  37.5499406  66.2122225  13.1079180  36.4164485
  66.6059754  13.2569286  37.0775933  66.0707718  23.1638899  33.2316395
  65.5419189  23.3798532  33.8913701  66.5932738  23.8575037  33.1517364
  66.0696171  23.2982036  33.3171994  71.5255771  28.7385203  38.6049439
  70.6953474  28.9495847  38.7682856  71.4765023  27.9122258  38.3291723
  71.3962506  28.6474809  38.5886804  57.9607325  27.0602115  32.0323863
  57.3764541  27.5652147  32.4389726  57.5577421  26.8344502  31.2920455
  57.8146629  27.1010364  31.9828888  59.5865508  31.5689057  41.4397349
  59.0692450  31.2096472  40.8358657  60.2839899  31.0451232  41.4503415
  59.6131089  31.4386745  41.3527607  63.2429100  32.0183871  47.4013522
  63.3312446  31.8310012  48.2491732  63.6718813  31.3721301  47.0018368
  63.3191202  31.8946879  47.4685273  60.8099560  31.3015031  46.3831184
  60.2470395  30.8887641  46.9070845  61.5720583  31.2267937  46.8024327
  60.8394008  31.2292432  46.5224184  62.4184540  23.3067768  30.5092783
  62.6580544  23.5145751  29.6968126  62.7400381  22.5025276  30.6181728
  62.5021698  23.2181869  30.4053336  57.7274830  15.2361163  34.3552321
  58.4820798  15.6039480  34.1169371  57.5502365  15.6100718  35.1231501
  57.8129308  15.3459351  34.4337210  71.0209729  21.3855604  42.3999860
  70.1838150  21.4557791  42.6347455  70.9897960  21.3880099  41.5274163
  70.8928011  21.3965831  42.3059408  57.4174458  23.5288639  48.1148229
  57.5894962  23.4194534  48.9633510  57.9543815  24.1743045  47.8779421
  57.5219462  23.6080641  48.2053326  56.0831895  17.6431482  31.0530434
  55.9007468  17.8603363  30.2271427  56.9457508  17.7570495  31.1089049
  56.1836484  17.6921380  30.9384921  55.6946327  29.4819405  38.4953422
  56.5335226  29.7142337  38.5427184  55.7258096  28.6123716  38.4260457
  55.8228044  29.3876351  38.4918067  56.3199030  29.9020280  42.7966728
  56.8597255  29.7591411  43.4670100  55.6368976  30.3017031  43.1650754
  56.2991184  29.9399951  42.9501149  61.7631614  14.6457893  34.0879458
  62.4917774  14.4673848  33.6417614  61.8526507  15.4875973  34.2986636
  61.8838276  14.7441771  34.0532976  65.7439915  25.5811280  37.9911752
  66.4997430  26.0142795  38.0300661  65.8502239  24.9316050  38.5646388
  65.8710085  25.5488764  38.0809777  68.7820086  29.4084558  38.7414155
  68.3455318  29.4121300  39.4973126  68.4483001  30.0890057  38.3093732
  68.6682706  29.5097013  38.7894987  63.3549159  31.4492890  50.0657305
  64.1389576  31.5623738  50.4313047  63.1545754  30.6234028  50.2615991
  63.4415185  31.3439610  50.1491691  51.7236175  26.1220571  42.9501149
  51.4574590  25.3059687  43.1092139  51.7374739  26.1673726  42.0796665
  51.6860897  26.0077475  42.8454631  68.7017569  16.4498385  40.9843583
  69.3443477  16.5196490  41.5705498  68.9540589  15.7827608  40.4823125
  68.8339701  16.3624734  40.9970862  55.6293922  20.9205655  29.5652907
  54.9152099  20.6343834  29.9775340  56.1137890  21.2602281  30.2059295
  55.5953285  20.9287305  29.7208542  56.4734781  19.6598949  45.5968157
  55.7806578  19.1895929  45.8428888  57.0895109  19.4337253  46.1709864
  56.4619311  19.5566081  45.7177309  63.5119553  33.3602992  43.7123761
  62.7134798  33.1202493  43.9697629  63.9605564  33.4117385  44.4590808
  63.4594164  33.3325384  43.8608685  71.9164432  26.1265477  37.6333792
  72.5780866  25.5656146  37.5329701  71.2755844  25.6317508  37.9586483
  71.9193299  25.9701887  37.6666132  62.8041240  29.4235609  29.9414715
  63.2192388  29.0920633  29.2499211  61.9733169  29.1904511  29.8134852
  62.7429248  29.3406865  29.8205563  68.2029263  27.1430860  37.3745781
  68.4384852  27.2876059  36.5472632  68.3518826  27.9073268  37.7677295
  68.2595066  27.2769914  37.3109385  55.1975340  23.6264353  46.7395002
  55.9215312  23.6117383  47.2259897  55.2991477  24.3359708  46.2416970
  55.3193549  23.7289056  46.7373789  70.0319719  25.9832526  35.2115385
  70.3627936  26.5160166  34.6055480  70.6052807  26.0371414  35.8677336
  70.1653399  26.0702095  35.2193166  62.5720290  27.1063437  51.6043949
  61.7793270  27.4206949  51.7896569  62.6869217  27.3214906  50.7664734
  62.4715700  27.1847274  51.5082284  65.2451609  23.8297429  35.8938965
  65.3398463  24.5686723  36.3478590  64.6210452  23.4014904  36.3273529
  65.1660639  23.8758749  36.0247112  63.5004082  27.0083641  46.5429246
  64.0742944  26.3710885  46.6977810  63.4218886  27.0087724  45.6738903
  63.5737317  26.9148753  46.4375657  65.4974630  25.6746168  29.1275917
  65.4154792  25.7448355  29.9930904  66.1354350  26.2375912  28.9359657
  65.5794467  25.7685139  29.2265866  58.8567801  25.4406906  38.5950443
  58.5987045  24.6078641  38.5681743  58.9116284  25.6664519  37.7542943
  58.8267579  25.3504678  38.4670580  63.9368851  17.5435357  38.6954536
  63.2325178  17.0544542  38.8538455  63.9853825  17.5557831  37.8242980
  63.8398903  17.4725005  38.5893876  57.8302513  22.9944669  39.0815338
  57.2552104  23.1536837  39.7179299  57.4538189  22.3580078  38.6183788
  57.6905325  22.9242482  39.1069896  61.4975802  21.4668018  43.9407716
  61.1090235  21.0422236  43.2859908  60.8330500  21.7150168  44.4484743
  61.3422730  21.4406739  43.9195584  71.1399071  21.2243023  36.7155546
  70.8835636  20.4122964  36.5253429  71.9828385  21.2320590  36.4885734
  71.2265096  21.1055020  36.6540363  65.3202163  15.1642647  41.4531701
  65.7012675  14.4820818  41.8399575  64.5165448  14.8752249  41.2707365
  65.2578625  15.0209695  41.4835756  62.6014740  25.6966623  32.1384523
  63.4155379  25.9881515  32.0267295  62.5373881  25.0426485  31.5642816
  62.7117479  25.6431817  32.0373361  68.8224230  28.3792619  46.5514099
  68.5862868  27.5480684  46.4326160  69.4667459  28.3278226  47.1368943
  68.8818901  28.2490307  46.6199992  58.4722648  29.1688140  37.2656835
  59.1096595  28.9299888  37.8108629  58.8977720  29.3725299  36.5309996
  58.6298815  29.1639150  37.2373993  59.1125463  24.3890430  31.6031725
  59.4970616  24.1698137  32.3548270  58.8637084  25.2153375  31.7332801
  59.1327536  24.4788576  31.7332801  59.2794004  17.6696845  51.3194309
  58.9647445  18.4396408  51.0563872  58.9583936  17.1067101  50.7346536
  59.1852923  17.7007114  51.1935659  69.8460651  28.1637067  42.6142393
  69.5406468  28.8965124  42.9755709  69.1266866  27.7574997  42.3335179
  69.6947993  28.2118800  42.6255530  60.8544120  29.6460563  38.9450622
  60.9283129  29.4835735  39.7992472  61.6713627  29.8350752  38.7011103
  60.9860479  29.6497305  39.0348647  75.5462443  24.8030068  41.9410738
  75.4786943  24.8226027  41.0713324  75.5318105  25.6460395  42.1666408
  75.5341199  24.9303803  41.8463215  56.8325901  16.0587367  36.9340505
  55.9648326  16.1309966  36.9998114  57.1201105  16.8609445  37.1228480
  56.7465649  16.1881514  36.9715272  65.9558789  16.2065226  45.2651827
  66.7012381  16.0175036  44.8515253  65.5396094  16.7323464  44.7065683
  66.0043764  16.2567371  45.1216400  59.3948706  32.6095306  33.6764095
  59.6847004  32.2184287  32.9523322  60.1252187  32.7912011  34.1169370
  59.5455590  32.5789120  33.6346902  73.3321060  23.5774454  40.2157332
  73.8828982  22.9442523  40.4554424  73.3165176  24.1089847  40.9072836
  73.4106257  23.5623403  40.3536190  59.9843451  27.4113052  44.7617225
  59.4855145  28.1228819  44.8402114  60.7943675  27.7313718  44.7235388
  60.0299558  27.5639900  44.7673794  56.2471569  26.6736005  39.0079946
  55.9584817  26.0473476  39.5425674  57.1154917  26.6156292  39.0744627
  56.3331821  26.5723549  39.0970901  67.0349467  21.8170788  39.3261928
  66.6914232  21.0961123  39.6769178  67.1342509  21.6084639  38.4840287
  66.9991509  21.6794991  39.2533608  59.5022577  35.9592078  35.5254937
  60.1546635  35.4268520  35.7545963  58.8048186  35.6060730  35.9122811
  59.4953295  35.8281601  35.6167105  56.4503842  28.3131256  34.9322311
  57.2049810  28.6944295  35.1457774  55.8574455  28.7642399  35.3869008
  56.4740556  28.4360083  35.0305190  67.4962496  28.2796492  34.8685916
  68.0620528  28.9389702  34.7844459  66.8490399  28.6246190  35.3402319
  67.4841252  28.4278433  34.9258673  58.9110509  20.2694096  50.0579524
  58.1010285  20.5751876  49.9469366  59.3885196  20.9899678  50.1732108
  58.8613988  20.4208697  50.0586595  57.7702069  29.4839817  40.3062427
  57.2482822  29.6240109  40.9914292  58.1576089  28.7250481  40.4964544
  57.7505770  29.3925341  40.4363503  54.7593253  19.5345626  34.3757382
  54.4718048  19.1646896  33.6389329  55.4463721  20.0040481  34.1141086
  54.8182150  19.5492595  34.2272457  63.9669074  31.2235276  34.2922996
  63.7255750  30.4903137  33.8850061  64.1470407  31.7722133  33.6389329
  63.9576698  31.1957667  34.1353219  59.1968394  26.5143836  35.7043918
  59.0011177  27.1218571  35.1104221  59.4202740  25.8211780  35.2235592
  59.2003035  26.5021362  35.5459999  57.5946924  23.3998574  35.8224786
  58.3169576  23.5639732  35.3628592  57.1154917  24.1208239  35.7164126
  57.6310655  23.5296804  35.7390400  65.5540432  19.7362373  41.2021471
  64.7151533  19.7623652  40.9659734  65.6244799  20.3833108  41.7826818
  65.4408825  19.8358499  41.2530588  55.2454541  25.8056646  44.9278926
  55.7575638  26.0840900  44.2787686  54.9590884  26.5445940  45.2941739
  55.2789404  25.9559000  44.8868804  64.0009710  16.6347750  35.9349087
  64.7036063  16.4355498  35.4569045  63.7353899  15.8623692  36.2417931
  64.0656343  16.4910716  35.9094529  69.4297956  24.9430360  38.4882713
  69.3431930  25.0985786  39.3417492  68.9748436  25.5868435  38.1142118
  69.3501212  25.0606115  38.5589820  52.3321447  20.3126838  35.2242663
  52.4337584  21.1153000  35.5523638  53.1277334  20.1114174  34.9265743
  52.4649353  20.4012737  35.2278018  58.7638266  17.8983035  44.9879968
  58.5721463  17.9138169  45.8379391  59.6136862  18.0946709  44.9646623
  58.8613988  17.9297386  45.1103262  53.1485179  20.4274016  42.9663784
  53.0070671  19.5757957  43.0908292  53.4325743  20.4702677  42.1425990
  53.1693026  20.3073766  42.8631408  63.3023772  22.2641107  37.1108272
  63.0558486  22.1836858  37.9445061  63.6308895  21.4794575  36.9170800
  63.3145015  22.1367372  37.2055796  67.1971821  28.9724466  40.8995054
  67.0586180  29.6705512  41.4043796  66.4171819  28.8173122  40.5431235
  67.0615047  29.0524633  40.9221328  65.5349906  25.2720841  47.1517435
  65.5297944  24.4000658  47.1559862  66.2410900  25.4709011  46.6786891
  65.6394910  25.1724716  47.0824471  59.2620799  24.9997825  46.5231256
  59.4064175  25.5799033  45.8874366  59.6096448  25.3774122  47.2281110
  59.3348260  25.1418529  46.5330250  61.4340716  24.1987994  44.3056387
  60.6864030  24.3919008  43.9004665  61.5882242  23.3733213  44.0680508
  61.3463144  24.1053105  44.2101793  58.3348554  33.1900597  43.3892282
  58.4838118  32.6303513  42.7365687  59.1148556  33.2692599  43.7724801
  58.4722648  33.1186163  43.3489231  68.6925193  28.3302720  31.6611553
  68.3132002  27.5439858  31.6540842  68.0291439  28.8789577  31.5183197
  68.5383668  28.2947544  31.6392350  60.8601855  33.3615240  44.6676773
  60.7845526  32.6924051  45.2227561  60.7891714  34.0633028  45.1817439
  60.8382462  33.3660147  44.8253621  61.6742493  18.0938544  45.1951791
  62.1315108  18.8262519  45.3224583  61.7498822  17.6705010  45.9539047
  61.7533463  18.1395782  45.3252867  53.9175485  18.3404364  46.2841235
  53.3817674  17.7284722  46.6002002  53.9793249  18.9152500  46.9374901
  53.8471117  18.3351292  46.4276661  66.1469819  11.2728420  39.0645634
  66.2653388  11.7304883  38.3312936  65.9731995  10.4673681  38.7781851
  66.1388990  11.2222192  38.9146567  61.5172102  31.8816239  35.5000379
  62.2821993  31.6125883  35.1783043  61.4150192  31.3966249  36.2170442
  61.6153597  31.7705803  35.5580207  59.5524871  20.0840648  42.0393615
  58.7620946  19.9032108  42.3610951  59.9485494  19.3067601  42.0223909
  59.4941748  19.9428109  42.0846163  64.0390762  28.9128423  27.4800328
  64.8063747  28.9728548  27.0706180  63.5922071  28.3408864  26.9956647
  64.0864189  28.8364998  27.3478039  64.9368558  27.7183078  39.7653061
  64.2613560  27.4868311  40.2666448  64.9460934  27.1104261  39.1395166
  64.8387062  27.5942004  39.7469213  62.0662702  22.5600907  46.5217114
  62.0021843  23.4210864  46.3937250  62.2059889  22.2432901  45.7212665
  62.0778172  22.6401074  46.3845327  66.9385292  30.5748211  31.9963239
  67.0205130  31.3815197  31.6724690  67.4235034  30.5944170  32.7204012
  67.0222450  30.6968873  32.0550137  60.7481796  25.2533047  40.6633317
  60.3244045  25.4537546  39.9272335  60.5726651  24.4061895  40.7757616
  60.6592676  25.1581828  40.5707007  56.0364241  25.7485098  36.0961289
  56.1928860  25.6831901  36.9517281  56.3764834  26.5233651  35.8839969
  56.1097475  25.8534296  36.1915883  62.5743385  25.1242982  34.9654652
  63.1158931  24.6213363  35.4293273  62.8889944  25.0708176  34.1544138
  62.7007782  25.0422403  34.9138464  66.4460493  29.3345629  52.0781565
  67.2595358  29.0630778  52.2386697  66.2855459  29.0353169  51.2741761
  66.5430441  29.2500555  51.9826970  60.7429835  30.5160333  32.2494680
  60.8122655  29.6574872  32.3887681  61.5218290  30.7332214  31.9213705
  60.8682685  30.4213197  32.2211838  63.7232655  20.0179286  45.0176953
  63.9374624  19.3790200  44.4640307  63.1066554  20.4625110  44.5884815
  63.6637984  19.9889430  44.8727384  65.1337322  32.9398035  36.4631174
  64.7417114  32.6364750  35.7454040  65.2890395  33.7767125  36.2736128
  65.0990912  33.0181871  36.3287671  52.6098502  22.9320049  36.4122056
  52.9897467  23.3504594  35.7482324  52.0353867  23.5133504  36.7190900
  52.5809827  23.0797907  36.3598797  65.8871743  21.6268351  45.9560260
  65.0748424  21.3194242  46.0373433  66.3461677  21.1467352  46.5202972
  65.8352127  21.5104844  46.0514854  65.2976997  29.5048023  36.4037204
  64.9391652  29.6762666  37.1801237  64.8115708  29.9661229  35.8465203
  65.1735694  29.5986994  36.4362473  63.1147383  13.1279222  40.0064296
  62.2440941  13.1017943  39.9597605  63.3687724  12.9556414  39.1890141
  63.0240943  13.0989366  39.8784432  60.0865363  25.1847189  28.9437439
  60.3757887  25.9612071  29.2181013  60.1737161  24.6735920  29.6451938
  60.1419619  25.2239107  29.0879937  62.9825250  23.0328423  50.7388962
  63.4524881  23.6570539  51.1256836  63.0287130  22.3645398  51.2982177
  63.0593126  23.0263103  50.8789034  60.1396524  15.1385450  41.4637766
  59.6235012  14.4465642  41.5889345  59.5790453  15.8056227  41.4100365
  59.9803037  15.1348708  41.4743832  62.2088757  15.6778410  43.2930619
  61.8220510  15.7027442  44.0744149  61.7221694  15.1120089  42.8405135
  62.0801266  15.5974161  43.3418522  66.4581737  30.3951919  47.3504405
  67.0961457  29.9012115  47.0166861  65.8155828  30.3229320  46.7656632
  66.4575963  30.3110928  47.2146760  68.1838737  22.2441065  41.9170321
  67.7566345  22.1567414  41.1618420  67.5464790  22.3518841  42.5025165
  68.0268344  22.2473725  41.8915762  61.8745899  12.5645396  45.5840879
  62.5039017  13.1005696  45.3061949  62.0431762  12.4722755  46.4354444
  61.9923693  12.6306758  45.6689407  61.6759814  17.3516591  47.8567290
  62.5033243  17.0801739  47.9125905  61.6967660  18.1477432  48.2131108
  61.8012664  17.4296345  47.9182473  66.5135993  31.0871728  43.9909762
  67.3028371  30.7360792  44.1111844  66.6879591  31.9008116  43.7286396
  66.6556275  31.1557585  43.9697630  56.2529304  24.4980453  41.0437551
  55.4117310  24.3984328  41.2516445  56.4619312  25.2675934  41.3951871
  56.1593996  24.5972497  41.1264866  53.7304871  22.1199990  38.8722301
  53.3361568  22.1943002  38.0972411  53.1744987  22.5057937  39.4230663
  53.5907683  22.1881765  38.8389961  65.3669817  15.0981284  38.5526180
  65.5719411  15.0303592  39.3983177  65.0396241  15.9040106  38.4847358
  65.3485065  15.2067225  38.6685835  60.0645968  22.4261853  40.2935148
  59.7609106  21.8717841  40.8945556  59.3625389  22.6054063  39.8063183
  59.9162178  22.3706635  40.3104854  59.1212066  19.7362372  34.8579850
  59.3971800  19.0181285  34.4457418  59.7210735  20.3347292  34.6500956
  59.2505330  19.7182743  34.7660611  58.1264319  29.6411573  45.0007246
  58.0184674  29.6513635  45.8669304  58.3360101  30.4666354  44.8112200
  58.1414431  29.7652648  45.1011338  68.6203505  15.6513049  38.0328946
  68.0077819  16.1383451  38.4182678  68.7167680  14.9756539  38.5766597
  68.5441403  15.6231357  38.1707804  62.6222586  17.4075890  33.1326445
  63.0766333  17.5786450  33.8574290  63.0962632  16.7944000  32.7324221
  62.7590906  17.3426775  33.1800207  56.1438111  26.8924216  42.4629184
  55.5526045  27.5333714  42.4332199  56.9059135  27.3161833  42.4360483
  56.1686372  27.0500054  42.4544331  56.5398734  18.0526213  43.1297201
  57.0000216  18.1265143  43.8672325  56.5854841  18.8507467  42.7797023
  56.6149290  18.1820361  43.1869958  58.1882084  18.7192908  47.6969228
  57.7967649  18.0726255  48.1325006  58.3567947  19.3104344  48.3163484
  58.1552994  18.7107176  47.8531934  72.2628533  26.7229985  43.4606462
  72.3211657  27.1716634  44.2066438  71.6295001  27.1328798  43.0236542
  72.1779828  26.8503720  43.5059010  65.9027628  32.3433527  39.8961208
  65.7047316  32.8324342  39.2017419  65.2815339  32.5474769  40.4745342
  65.7815192  32.4450066  39.8784431  59.9635606  24.1118424  34.2371452
  60.7077651  24.4992700  34.4754402  60.1096302  23.2675849  34.4011940
  60.0946191  24.0448897  34.2965422  61.8815182  15.9068683  39.2703314
  61.0351227  16.0791491  39.1444664  61.8786314  15.1018027  39.6069142
  61.7562331  15.8129712  39.3014441  62.9513482  19.6843897  40.1365372
  62.4773436  19.1585659  40.6470683  63.3231618  19.1373370  39.5680233
  62.9363371  19.5259894  40.1280519  53.3286512  21.6815404  45.5048918
  54.1912125  21.5811113  45.4186247  52.9978295  21.1010113  44.9434490
  53.4071708  21.5807031  45.4094323  69.2150212  24.7446273  41.5472152
  68.9748435  23.9052688  41.5514579  69.6942220  24.8246440  42.2712926
  69.2502396  24.6327673  41.6546955  64.8796982  20.5780452  33.1991126
  64.3520000  20.6609196  32.5096834  65.3392690  21.3198323  33.1955770
  64.8698832  20.7001114  33.0965821  71.2155400  21.5247730  39.5001411
  70.9765169  21.4843564  38.6622196  71.3789301  22.3718882  39.6267132
  71.2045703  21.6439815  39.3954893  67.8201430  25.9097680  45.4306456
  68.5435628  25.4570206  45.2517476  67.5551392  26.1902345  44.6478784
  67.8882703  25.8848648  45.2885172  56.6888298  20.5057853  42.1659336
  56.0641368  20.5176245  41.5585288  56.3533893  20.9818028  42.8150576
  56.5473790  20.5776370  42.1715904  56.8730047  18.8482972  28.2232021
  56.5242851  19.5002697  28.6863570  56.3926493  18.8340085  27.4955892
  56.7500291  18.9426025  28.1843112  53.4013974  28.5658313  43.6063100
  52.8713898  27.8750752  43.6558075  53.6739067  28.5568499  42.7775809
  53.3638696  28.4625445  43.4910516  64.4334064  29.1484016  32.3300783
  65.1568263  29.6142129  32.1865356  63.9934655  29.2157625  31.5798380
  64.4749756  29.2267852  32.1985564  63.6020219  26.0081558  43.5801472
  62.9877212  25.4639608  43.8750107  64.1187504  25.4945794  43.1007288
  63.5875882  25.8517967  43.5525700  62.8416516  27.0785828  41.3145770
  62.4144124  26.4535546  40.8811206  62.8341461  26.7960750  42.1404777
  62.7775657  26.9438608  41.3725598  55.9579043  22.1151001  44.3834204
  56.1172530  21.3594325  44.7885926  55.7771937  22.6641940  45.0374942
  55.9544402  22.0844815  44.5396910  63.8999346  14.2812236  44.9384994
  63.4039908  14.4775911  44.2476560  64.6568408  14.6804905  44.7673795
  63.9386171  14.3689970  44.8105130  61.1702226  17.9554582  41.5288304
  61.1944713  17.4214695  40.8401084  61.4213700  17.4471891  42.1913895
  61.2112145  17.8015486  41.5252949  57.4503548  16.6825401  40.9094049
  57.4901920  17.1834607  41.6228756  56.6253213  16.7735794  40.6399972
  57.3343074  16.7707217  40.9744587  59.6333161  26.2486141  49.0114343
  58.7828792  26.3857855  49.1471988  59.7961289  25.5149919  49.4562045
  59.5317025  26.1600242  49.0969942  58.8717912  23.1985910  43.2067948
  58.0409841  23.3659728  43.0003196  58.8169429  22.8221861  43.9916833
  58.7407326  23.1675642  43.2916476  56.6801695  16.6894803  48.8424358
  57.3054398  16.1456936  49.1153791  56.2252175  16.2089721  48.2732149
  56.7049955  16.5384285  48.7985952  57.2453955  21.4741502  33.7358065
  57.3856916  21.9713966  34.4386707  57.7436488  20.7727796  33.8772279
  57.3395036  21.4443481  33.8609644  57.2754178  22.3408613  31.0650642
  57.9099257  22.9369038  31.0000104  57.3579789  22.0412071  31.8796512
  57.3810729  22.3849521  31.1753729  70.2536744  24.8724090  43.9337006
  70.8454584  25.5121341  43.9655204  70.6895738  24.1747127  44.2229073
  70.4055175  24.8642441  43.9817839  58.8533161  18.2722588  31.0396084
  59.1749002  17.7925671  30.3855346  59.1160104  19.0822234  30.8486896
  58.9399186  18.3212486  30.9151576  62.0830133  29.2941463  44.5594900
  61.5755225  29.8477310  45.0035531  61.7856780  29.3549753  43.7413675
  61.9635018  29.3847774  44.5043357  64.2492316  17.6594782  43.4019563
  64.6747387  17.2067309  42.7903090  63.6349309  17.1054853  43.6784351
  64.2220961  17.5108759  43.3524588  53.7807166  24.5376454  34.3340188
  54.2899395  25.1340961  34.7151494  54.2541438  24.2702427  33.6516608
  53.9250541  24.5862269  34.2894711  64.6937914  33.2104720  32.4898844
  63.9767223  33.0365583  32.0246081  65.3444651  32.9757293  31.9574330
  64.6839764  33.1500513  32.3428062  62.6886538  14.1309882  36.8110140
  62.0454856  13.9807529  37.3795279  62.3485945  13.8852227  36.0459245
  62.5431616  14.0722005  36.7813155  67.2785885  22.0869309  36.2340149
  66.6077075  22.6299011  36.1053214  67.9725635  22.5564164  35.9921844
  67.2814752  22.2367580  36.1795676  61.3272619  34.2266021  41.4651907
  61.1038273  33.4684850  41.8335933  60.8382462  34.2564042  40.7432347
  61.2216068  34.1188246  41.4128648  67.4414012  18.5425193  39.1430522
  67.7941623  18.1154916  39.8176321  66.5828814  18.4576036  39.2731598
  67.3663457  18.4669933  39.2625532  56.1397697  21.1732712  37.2013369
  55.4209687  21.5896845  37.4686232  56.5110060  21.7386951  36.6505007
  56.0889629  21.3181994  37.1596175  65.4397278  21.8060561  43.0915364
  65.4195206  21.6243856  43.9450143  65.4876479  22.6772580  43.0674948
  65.4431919  21.9077100  43.2138659  63.3843608  28.3947753  49.0163841
  63.3439463  27.7497430  48.4308997  64.1966926  28.3384371  49.3289253
  63.4986762  28.2906720  48.9760790  59.9751076  34.4466479  38.9188992
  59.5611474  33.7840609  38.5292833  60.6598450  34.5944338  38.3984686
  60.0149447  34.3707137  38.7845489  63.3416370  33.6056564  39.6712608
  62.9432653  33.7158835  38.9033429  62.7267589  33.8138631  40.2539168
  63.1915259  33.6530132  39.6443908  61.9144272  20.2130712  32.5386748
  61.3209111  20.5347709  31.9871315  61.9519549  19.3671808  32.3307854
  61.8318661  20.1355040  32.4269519  68.8738073  13.6643604  40.0714834
  68.3668937  12.9572744  40.0036012  69.6705506  13.3336793  40.2015911
  68.9165312  13.5116756  40.0813829  64.7902088  20.1710217  35.9688498
  64.5615781  20.1942918  35.1266856  65.0500165  19.3467684  36.0883509
  64.7948276  20.0526297  35.8613696  59.0721317  22.0244690  45.5713598
  58.5600220  21.4165873  45.9298630  58.9000813  22.7401282  46.0387574
  58.9710954  22.0407989  45.6929822  53.9187032  20.4682265  48.2215960
  53.7489622  21.1283640  47.6764167  53.4752981  20.6788826  48.9428449
  53.8286365  20.5968247  48.2477590  57.8446851  18.7086763  37.2642694
  58.3204217  19.0703843  36.6292875  57.3435451  19.3643231  37.5442837
  57.8412210  18.8580952  37.2119435  71.0758212  28.1808531  33.0555699
  71.4591818  28.9299887  33.2853796  70.2802326  28.4274351  32.7967688
  71.0151995  28.3278225  33.0513272  62.9490387  19.9468934  48.0115854
  63.5061817  19.7182744  47.3794319  62.6251452  20.7074600  47.7351066
  62.9836797  20.0252771  47.8772351  60.6673504  23.0336588  48.9767861
  61.4184831  23.3488265  49.2907415  60.8596081  22.8315759  48.1501783
  60.8064919  23.0503970  48.9011257  59.8873504  20.8527963  30.6316078
  60.2672469  20.8707592  29.8467193  59.1466100  21.2981952  30.5106925
  59.8342342  20.9209737  30.4979646  67.5158795  19.1610154  36.2191657
  67.5153021  19.0058811  37.0775933  67.3114975  20.0073141  36.1633042
  67.4858572  19.2630775  36.3379596  65.2399647  23.8407656  39.8727863
  65.7353312  23.1230651  39.8331884  64.4299422  23.5378454  39.7582350
  65.1943540  23.6905302  39.8501589  60.6858258  27.6905469  32.0224868
  59.8769581  27.3672143  31.9758177  61.1933167  26.9838691  31.9553116
  60.6407925  27.5386785  32.0055162  67.3051465  26.5911343  42.5604992
  67.7306537  26.0685765  42.0075417  66.9408385  27.1892181  42.0393615
  67.3138068  26.6021570  42.4014002  63.8930065  30.3045608  38.8906150
  64.3641243  31.0185870  39.0596135  64.2290243  29.7044358  39.4266019
  64.0125180  30.3217072  38.9938526  65.9807049  31.9146921  51.0698222
  66.0904015  31.1255482  51.4254969  66.3097946  31.8252857  50.2672560
  66.0459455  31.7852774  51.0040612  60.8099560  15.0773078  45.8464244
  60.9427465  14.2804072  46.1745220  61.1944713  15.6039481  46.4262520
  60.8855889  15.0372995  45.9807747  64.5304011  30.0963542  45.6533842
  63.9824957  29.4721425  45.3853908  64.9917040  30.2857814  44.9377922
  64.5171221  30.0322592  45.5084273  63.8831915  12.0003404  42.4445338
  63.0777879  11.8901134  42.7613176  63.7538651  12.1015860  41.5875203
  63.7452048  11.9987074  42.3653378  67.3397876  18.1648896  43.0385035
  66.7560864  18.6658103  42.6262602  67.6602170  17.6578452  42.4049358
  67.3011051  18.1640731  42.8843542  59.8792675  17.0789491  33.3143709
  60.7008369  17.2487804  33.0725404  59.4162326  17.2336752  32.5910007
  59.9323837  17.1271224  33.1715354  58.4688007  15.0732253  44.0942138
  59.0132420  14.7323380  44.6846480  58.5224942  15.9317715  44.2363423
  58.5577126  15.1487513  44.2024012  54.2818565  28.8348669  40.9680946
  54.8863423  28.7944503  40.3394767  54.0745878  29.6819821  40.9985002
  54.3407463  28.9536672  40.8797063  64.0962338  31.1014614  42.1843183
  64.9160711  30.9577580  42.4459479  63.8156415  31.7260813  42.7259621
  64.1759081  31.1724966  42.3031123  73.7675673  37.8455117  39.9038990
  72.9113568  38.0063615  39.9548107  73.8143326  36.9747181  39.9244051
  73.6474784  37.7405919  39.9145056  68.1516812  47.3817835  35.6676222
  67.3999712  47.0033373  35.4392267  68.6002824  47.4136269  34.9195032
  68.1066479  47.3303442  35.5233724  77.0769389  44.1141643  49.5099446
  77.7836157  43.6193674  49.6386381  77.2657325  44.5550724  48.7802104
  77.2097295  44.1059993  49.4208492  73.6041772  47.8043205  31.0961769
  73.2693141  48.4820126  30.6605991  74.1168643  47.4148516  30.5078641
  73.6307353  47.8467783  30.9448560  73.1446064  49.7557473  37.0372880
  73.5285443  50.3244372  36.4977656  73.0805205  49.0306984  36.5578697
  73.1919491  49.7332937  36.8866743  76.6127494  39.9047161  42.5470642
  77.1583454  40.5832248  42.6064612  76.5544370  39.7634622  41.6872223
  76.6843408  39.9839163  42.4282702  69.7301569  47.3936227  37.9338994
  69.8311932  46.5836581  38.2436122  69.1343314  47.2993174  37.3038673
  69.6574107  47.2601255  37.8865233  69.5702308  52.3113816  39.3353850
  70.2139764  52.7526980  39.7250009  69.8958564  51.5067243  39.2484109
  69.7134137  52.2579011  39.3799328  65.2256700  35.5842244  40.4575636
  64.6061732  34.9934892  40.2885650  65.1240564  36.1753680  39.8239959
  65.1194376  35.5846327  40.3380625  70.2722888  45.3225791  34.7073712
  70.5938729  45.8630999  34.1035020  70.9194984  44.7522563  34.8396002
  70.4148943  45.3184966  34.6380747  72.3224596  37.3241786  34.7908099
  73.0204761  37.5029914  35.2829562  72.6376929  36.8012126  34.1678488
  72.4719933  37.2735558  34.7710109  64.9525833  39.1294526  42.7019205
  64.8284530  39.7156972  43.3369023  65.6044118  38.6354722  43.0031480
  65.0299483  39.1433331  42.8405134  72.5112531  43.7112231  34.7787890
  72.9506167  43.1029332  35.2242663  72.3617194  43.3319605  34.0073355
  72.5533997  43.5650702  34.7307058  69.9784174  42.3056243  41.9806716
  70.6233177  41.8128686  41.6617664  70.2185951  42.4481030  42.8072794
  70.1094760  42.2533685  42.0556249  72.5170266  45.1511149  41.6313608
  72.7993509  44.3562555  41.4100364  73.2456426  45.6291736  41.6518669
  72.6659829  45.1045746  41.6016623  70.4951460  32.6934183  38.8729373
  70.1654790  33.1445326  38.2033072  69.8196461  32.6150346  39.4202380
  70.3461896  32.7485318  38.8552597  76.1121868  42.0639412  31.7318659
  76.0273163  42.9200379  31.8768228  76.6006251  41.7883737  32.4000819
  76.1710765  42.1496734  31.8520741  77.7027867  28.6819706  37.1178984
  77.3881308  29.3723184  37.5499406  77.1854809  28.6264488  36.4164485
  77.5792338  28.7754594  37.0775933  77.0440301  38.6824207  33.2316395
  76.5151773  38.8983840  33.8913701  77.5665321  39.3760345  33.1517364
  77.0428754  38.8167344  33.3171994  68.9339909  42.5787423  32.0323863
  68.3497124  43.0837455  32.4389726  68.5310004  42.3529810  31.2920455
  68.7879213  42.6195672  31.9828888  64.4883938  48.2942185  38.8347534
  64.0051516  49.0192674  38.8107118  65.3007256  48.5918315  38.9457692
  64.5374685  48.4444538  38.8474813  70.5598092  47.0874365  41.4397349
  70.0425033  46.7281780  40.8358657  71.2572483  46.5636540  41.4503415
  70.5863673  46.9572053  41.3527607  74.2161684  47.5369179  47.4013522
  74.3045029  47.3495320  48.2491732  74.6451396  46.8906609  47.0018368
  74.2923786  47.4132187  47.4685273  71.7832143  46.8200339  46.3831184
  71.2202978  46.4072949  46.9070845  72.5453167  46.7453245  46.8024327
  71.8126592  46.7477740  46.5224184  73.3917123  38.8253075  30.5092783
  73.6313127  39.0331059  29.6968126  73.7132964  38.0210584  30.6181728
  73.4754281  38.7367177  30.4053336  68.7007414  30.7546471  34.3552321
  69.4553382  31.1224788  34.1169371  68.5234948  31.1286026  35.1231501
  68.7861892  30.8644659  34.4337210  67.3428135  48.8098360  38.9867814
  68.0448714  48.2950350  39.0440571  67.2625618  49.1372512  39.7914689
  67.4351895  48.7812587  39.1140606  68.3907041  39.0473947  48.1148229
  68.5627545  38.9379842  48.9633510  68.9276399  39.6928353  47.8779421
  68.4952045  39.1265949  48.2053326  67.0564478  33.1616790  31.0530434
  66.8740052  33.3788671  30.2271427  67.9190091  33.2755803  31.1089049
  67.1569068  33.2106688  30.9384921  67.2931613  45.4205588  42.7966728
  67.8329838  45.2776719  43.4670100  66.6101560  45.8202338  43.1650754
  67.2723767  45.4585259  42.9501149  72.7364198  30.1643201  34.0879458
  73.4650358  29.9859156  33.6417614  72.8259090  31.0061281  34.2986636
  72.8570860  30.2627079  34.0532976  76.7172498  41.0996588  37.9911752
  77.4730013  41.5328103  38.0300661  76.8234823  40.4501358  38.5646388
  76.8442669  41.0674072  38.0809777  74.3281743  46.9678198  50.0657305
  75.1122160  47.0809046  50.4313047  74.1278337  46.1419335  50.2615991
  74.4147768  46.8624918  50.1491691  66.6026505  36.4390963  29.5652907
  65.8884682  36.1529142  29.9775340  67.0870474  36.7787589  30.2059295
  66.5685869  36.4472613  29.7208542  67.4467365  35.1784257  45.5968157
  66.7539162  34.7081236  45.8428888  68.0627692  34.9522561  46.1709864
  67.4351895  35.0751389  45.7177309  74.4852136  48.8788300  43.7123761
  73.6867382  48.6387800  43.9697629  74.9338148  48.9302693  44.4590808
  74.4326748  48.8510692  43.8608685  73.7773823  44.9420917  29.9414715
  74.1924972  44.6105941  29.2499211  72.9465753  44.7089819  29.8134852
  73.7161832  44.8592173  29.8205563  66.1707924  39.1449661  46.7395002
  66.8947896  39.1302691  47.2259897  66.2724060  39.8545016  46.2416970
  66.2926133  39.2474364  46.7373789  73.5452873  42.6248745  51.6043949
  72.7525854  42.9392257  51.7896569  73.6601800  42.8400214  50.7664734
  73.4448284  42.7032582  51.5082284  76.2184192  39.3482736  35.8938965
  76.3131046  40.0872031  36.3478590  75.5943036  38.9200212  36.3273529
  76.1393222  39.3944057  36.0247112  74.4736666  42.5268949  46.5429246
  75.0475528  41.8896193  46.6977810  74.3951470  42.5273031  45.6738903
  74.5469901  42.4334060  46.4375657  76.4707213  41.1931476  29.1275917
  76.3887376  41.2633663  29.9930904  77.1086934  41.7561220  28.9359657
  76.5527051  41.2870447  29.2265866  69.8300385  40.9592214  38.5950443
  69.5719629  40.1263949  38.5681743  69.8848867  41.1849827  37.7542943
  69.8000162  40.8689985  38.4670580  74.9101435  33.0620665  38.6954536
  74.2057761  32.5729850  38.8538455  74.9586409  33.0743139  37.8242980
  74.8131486  32.9910313  38.5893876  68.8035097  38.5129977  39.0815338
  68.2284688  38.6722145  39.7179299  68.4270773  37.8765386  38.6183788
  68.6637909  38.4427790  39.1069896  72.4708385  36.9853326  43.9407716
  72.0822818  36.5607544  43.2859908  71.8063084  37.2335476  44.4484743
  72.3155313  36.9592047  43.9195584  76.2934747  30.6827955  41.4531701
  76.6745259  30.0006126  41.8399575  75.4898031  30.3937557  41.2707365
  76.2311209  30.5395003  41.4835756  73.5747324  41.2151931  32.1384523
  74.3887962  41.5066823  32.0267295  73.5106465  40.5611793  31.5642816
  73.6850063  41.1617125  32.0373361  69.4455232  44.6873448  37.2656835
  70.0829179  44.4485196  37.8108629  69.8710303  44.8910607  36.5309996
  69.6031398  44.6824458  37.2373993  70.0858047  39.9075738  31.6031725
  70.4703200  39.6883444  32.3548270  69.8369667  40.7338683  31.7332801
  70.1060119  39.9973884  31.7332801  70.2526587  33.1882153  51.3194309
  69.9380028  33.9581716  51.0563872  69.9316520  32.6252409  50.7346536
  70.1585506  33.2192422  51.1935659  71.8276704  45.1645871  38.9450622
  71.9015712  45.0021042  39.7992472  72.6446210  45.3536060  38.7011103
  71.9593062  45.1682613  39.0348647  67.8058484  31.5772674  36.9340505
  66.9380910  31.6495274  36.9998114  68.0933689  32.3794753  37.1228480
  67.7198232  31.7066822  36.9715272  76.9291373  31.7250534  45.2651827
  77.6744965  31.5360344  44.8515253  76.5128678  32.2508772  44.7065683
  76.9776347  31.7752679  45.1216400  70.3681290  48.1280614  33.6764095
  70.6579588  47.7369595  32.9523322  71.0984770  48.3097319  34.1169370
  70.5188174  48.0974427  33.6346902  70.9576035  42.9298360  44.7617225
  70.4587728  43.6414127  44.8402114  71.7676259  43.2499026  44.7235388
  71.0032141  43.0825208  44.7673794  68.3087205  50.1047996  36.7424245
  68.0887501  49.8145351  37.5350912  68.0881727  49.4462951  36.2142157
  68.2434799  49.9647704  36.7813153  78.0082050  37.3356096  39.3261928
  77.6646816  36.6146431  39.6769178  78.1075093  37.1269947  38.4840287
  77.9724093  37.1980299  39.2533608  70.4755161  51.4777386  35.5254937
  71.1279219  50.9453828  35.7545963  69.7780770  51.1246038  35.9122811
  70.4685879  51.3466909  35.6167105  69.8843093  35.7879404  50.0579524
  69.0742868  36.0937184  49.9469366  70.3617779  36.5084986  50.1732108
  69.8346571  35.9394005  50.0586595  68.7434652  45.0025125  40.3062427
  68.2215406  45.1425417  40.9914292  69.1308673  44.2435789  40.4964544
  68.7238353  44.9110649  40.4363503  65.7325836  35.0530934  34.3757382
  65.4450632  34.6832204  33.6389329  66.4196305  35.5225789  34.1141086
  65.7914734  35.0677903  34.2272457  74.9401657  46.7420584  34.2922996
  74.6988333  46.0088445  33.8850061  75.1202990  47.2907441  33.6389329
  74.9309281  46.7142975  34.1353219  70.1700978  42.0329144  35.7043918
  69.9743761  42.6403879  35.1104221  70.3935323  41.3397088  35.2235592
  70.1735619  42.0206670  35.5459999  68.5679508  38.9183882  35.8224786
  69.2902160  39.0825040  35.3628592  68.0887501  39.6393547  35.7164126
  68.6043239  39.0482112  35.7390400  76.5273016  35.2547681  41.2021471
  75.6884116  35.2808960  40.9659734  76.5977383  35.9018416  41.7826818
  76.4141409  35.3543807  41.2530588  66.2187125  41.3241954  44.9278926
  66.7308222  41.6026208  44.2787686  65.9323467  42.0631248  45.2941739
  66.2521988  41.4744308  44.8868804  74.9742294  32.1533058  35.9349087
  75.6768647  31.9540806  35.4569045  74.7086483  31.3809000  36.2417931
  75.0388926  32.0096024  35.9094529  63.3054031  35.8312146  35.2242663
  63.4070167  36.6338308  35.5523638  64.1009918  35.6299482  34.9265743
  63.4381937  35.9198045  35.2278018  69.7370850  33.4168343  44.9879968
  69.5454047  33.4323477  45.8379391  70.5869446  33.6132017  44.9646623
  69.8346572  33.4482694  45.1103262  64.1217763  35.9459324  42.9663784
  63.9803255  35.0943265  43.0908292  64.4058326  35.9887985  42.1425990
  64.1425609  35.8259074  42.8631408  74.2756355  37.7826415  37.1108272
  74.0291070  37.7022166  37.9445061  74.6041478  36.9979882  36.9170800
  74.2877599  37.6552680  37.2055796  78.1704404  44.4909774  40.8995054
  78.0318764  45.1890820  41.4043796  77.3904402  44.3358430  40.5431235
  78.0347631  44.5709941  40.9221328  76.5082489  40.7906149  47.1517435
  76.5030528  39.9185966  47.1559862  77.2143483  40.9894318  46.6786891
  76.6127493  40.6910023  47.0824471  70.2353383  40.5183133  46.5231256
  70.3796758  41.0984341  45.8874366  70.5829031  40.8959430  47.2281110
  70.3080844  40.6603837  46.5330250  72.4073300  39.7173302  44.3056387
  71.6596614  39.9104316  43.9004665  72.5614825  38.8918521  44.0680508
  72.3195728  39.6238413  44.2101793  69.3081138  48.7085905  43.3892282
  69.4570701  48.1488821  42.7365687  70.0881140  48.7877907  43.7724801
  69.4455231  48.6371470  43.3489231  71.8334438  48.8800548  44.6676773
  71.7578109  48.2109358  45.2227561  71.7624297  49.5818336  45.1817439
  71.8115045  48.8845455  44.8253621  72.6475077  33.6123852  45.1951791
  73.1047691  34.3447827  45.3224583  72.7231406  33.1890318  45.9539047
  72.7266047  33.6581090  45.3252867  64.8908068  33.8589672  46.2841235
  64.3550258  33.2470030  46.6002002  64.9525833  34.4337808  46.9374901
  64.8203701  33.8536600  46.4276661  77.1202403  26.7913727  39.0645634
  77.2385971  27.2490191  38.3312936  76.9464579  25.9858989  38.7781851
  77.1121574  26.7407500  38.9146567  72.4904685  47.4001547  35.5000379
  73.2554576  47.1311191  35.1783043  72.3882775  46.9151557  36.2170442
  72.5886181  47.2891111  35.5580207  70.5257455  35.6025956  42.0393615
  69.7353530  35.4217416  42.3610951  70.9218078  34.8252909  42.0223909
  70.4674331  35.4613417  42.0846163  75.0123346  44.4313731  27.4800328
  75.7796331  44.4913856  27.0706180  74.5654655  43.8594172  26.9956647
  75.0596773  44.3550306  27.3478039  75.9101141  43.2368386  39.7653061
  75.2346143  43.0053619  40.2666448  75.9193517  42.6289569  39.1395166
  75.8119646  43.1127312  39.7469213  73.0395285  38.0786215  46.5217114
  72.9754426  38.9396172  46.3937250  73.1792473  37.7618209  45.7212665
  73.0510755  38.1586382  46.3845327  77.9117876  46.0933519  31.9963239
  77.9937713  46.9000505  31.6724690  78.3967618  46.1129478  32.7204012
  77.9955034  46.2154181  32.0550137  71.7214379  40.7718355  40.6633317
  71.2976628  40.9722854  39.9272335  71.5459234  39.9247203  40.7757616
  71.6325260  40.6767136  40.5707007  71.2226073  52.2868868  43.1254774
  71.7122003  51.5879657  42.9430439  70.6510305  51.9892738  43.7130831
  71.2110603  52.1395091  43.1855815  67.0096824  41.2670406  36.0961289
  67.1661443  41.2017209  36.9517281  67.3497417  42.0418959  35.8839969
  67.0830059  41.3719604  36.1915883  73.5475969  40.6428290  34.9654652
  74.0891514  40.1398671  35.4293273  73.8622528  40.5893484  34.1544138
  73.6740366  40.5607711  34.9138464  77.4193076  44.8530937  52.0781565
  78.2327941  44.5816086  52.2386697  77.2588042  44.5538477  51.2741761
  77.5163025  44.7685863  51.9826970  71.7162418  46.0345641  32.2494680
  71.7855239  45.1760180  32.3887681  72.4950874  46.2517522  31.9213705
  71.8415269  45.9398505  32.2211838  74.6965238  35.5364594  45.0176953
  74.9107208  34.8975508  44.4640307  74.0799137  35.9810418  44.5884815
  74.6370567  35.5074738  44.8727384  76.1069906  48.4583343  36.4631174
  75.7149698  48.1550058  35.7454040  76.2622978  49.2952432  36.2736128
  76.0723496  48.5367179  36.3287671  63.5831086  38.4505357  36.4122056
  63.9630050  38.8689902  35.7482324  63.0086450  39.0318812  36.7190900
  63.5542410  38.5983215  36.3598797  76.8604326  37.1453659  45.9560260
  76.0481008  36.8379550  46.0373433  77.3194261  36.6652660  46.5202972
  76.8084711  37.0290152  46.0514854  76.2709581  45.0233331  36.4037204
  75.9124236  45.1947974  37.1801237  75.7848292  45.4846537  35.8465203
  76.1468278  45.1172302  36.4362473  74.0879967  28.6464530  40.0064296
  73.2173525  28.6203251  39.9597605  74.3420308  28.4741722  39.1890141
  73.9973527  28.6174674  39.8784432  71.0597946  40.7032497  28.9437439
  71.3490471  41.4797379  29.2181013  71.1469745  40.1921228  29.6451938
  71.1152202  40.7424415  29.0879937  73.9557834  38.5513731  50.7388962
  74.4257465  39.1755847  51.1256836  74.0019714  37.8830706  51.2982177
  74.0325709  38.5448411  50.8789034  71.1129107  30.6570758  41.4637766
  70.5967596  29.9650950  41.5889345  70.5523036  31.3241535  41.4100365
  70.9535621  30.6534016  41.4743832  73.1821341  31.1963718  43.2930619
  72.7953094  31.2212750  44.0744149  72.6954278  30.6305397  42.8405135
  73.0533850  31.1159469  43.3418522  77.4314320  45.9137227  47.3504405
  78.0694041  45.4197423  47.0166861  76.7888412  45.8414628  46.7656632
  77.4308547  45.8296236  47.2146760  72.8478482  28.0830704  45.5840879
  73.4771600  28.6191004  45.3061949  73.0164345  27.9908063  46.4354444
  72.9656277  28.1492066  45.6689407  72.6492397  32.8701899  47.8567290
  73.4765827  32.5987047  47.9125905  72.6700243  33.6662740  48.2131108
  72.7745247  32.9481653  47.9182473  77.4868577  46.6057036  43.9909762
  78.2760955  46.2546100  44.1111844  77.6612175  47.4193424  43.7286396
  77.6288858  46.6742893  43.9697630  67.2261887  40.0165761  41.0437551
  66.3849894  39.9169636  41.2516445  67.4351895  40.7861242  41.3951871
  67.1326580  40.1157805  41.1264866  64.7037454  37.6385298  38.8722301
  64.3094152  37.7128310  38.0972411  64.1477571  38.0243245  39.4230663
  64.5640266  37.7067073  38.8389961  76.3402401  30.6166592  38.5526180
  76.5451994  30.5488900  39.3983177  76.0128825  31.4225414  38.4847358
  76.3217649  30.7252533  38.6685835  71.0378552  37.9447161  40.2935148
  70.7341690  37.3903149  40.8945556  70.3357973  38.1239370  39.8063183
  70.8894762  37.8891943  40.3104854  70.0944649  35.2547680  34.8579850
  70.3704383  34.5366593  34.4457418  70.6943318  35.8532600  34.6500956
  70.2237914  35.2368051  34.7660611  69.0996903  45.1596881  45.0007246
  68.9917258  45.1698943  45.8669304  69.3092685  45.9851662  44.8112200
  69.1147014  45.2837956  45.1011338  73.5955170  32.9261198  33.1326445
  74.0498916  33.0971758  33.8574290  74.0695215  32.3129308  32.7324221
  73.7323490  32.8612083  33.1800207  67.1170695  42.4109524  42.4629184
  66.5258628  43.0519022  42.4332199  67.8791719  42.8347141  42.4360483
  67.1418956  42.5685362  42.4544331  67.5131318  33.5711521  43.1297201
  67.9732799  33.6450451  43.8672325  67.5587425  34.3692775  42.7797023
  67.5881873  33.7005668  43.1869958  69.1614668  34.2378216  47.6969228
  68.7700233  33.5911563  48.1325006  69.3300530  34.8289652  48.3163484
  69.1285578  34.2292484  47.8531934  76.8760211  47.8618835  39.8961208
  76.6779900  48.3509650  39.2017419  76.2547922  48.0660077  40.4745342
  76.7547776  47.9635373  39.8784431  70.9368190  39.6303732  34.2371452
  71.6810235  40.0178008  34.4754402  71.0828886  38.7861157  34.4011940
  71.0678775  39.5634205  34.2965422  72.8547765  31.4253991  39.2703314
  72.0083810  31.5976799  39.1444664  72.8518898  30.6203335  39.6069142
  72.7294915  31.3315020  39.3014441  73.9246065  35.2029205  40.1365372
  73.4506020  34.6770967  40.6470683  74.2964201  34.6558678  39.5680233
  73.9095954  35.0445202  40.1280519  64.3019096  37.2000712  45.5048918
  65.1644709  37.0996421  45.4186247  63.9710879  36.6195421  44.9434490
  64.3804292  37.0992339  45.4094323  75.8529565  36.0965760  33.1991126
  75.3252584  36.1794504  32.5096834  76.3125273  36.8383631  33.1955770
  75.8431416  36.2186422  33.0965821  67.8462630  34.3668280  28.2232021
  67.4975435  35.0188005  28.6863570  67.3659076  34.3525393  27.4955892
  67.7232874  34.4611333  28.1843112  75.4066648  44.6669324  32.3300783
  76.1300847  45.1327436  32.1865356  74.9667239  44.7342933  31.5798380
  75.4482340  44.7453160  32.1985564  74.5752803  41.5266866  43.5801472
  73.9609796  40.9824916  43.8750107  75.0920088  41.0131102  43.1007288
  74.5608465  41.3703275  43.5525700  73.8149100  42.5971136  41.3145770
  73.3876708  41.9720854  40.8811206  73.8074044  42.3146058  42.1404777
  73.7508241  42.4623916  41.3725598  66.9311627  37.6336309  44.3834204
  67.0905114  36.8779633  44.7885926  66.7504521  38.1827248  45.0374942
  66.9276986  37.6030123  44.5396910  74.8731930  29.7997544  44.9384994
  74.3772491  29.9961219  44.2476560  75.6300992  30.1990213  44.7673795
  74.9118755  29.8875278  44.8105130  72.1434810  33.4739890  41.5288304
  72.1677297  32.9400003  40.8401084  72.3946283  32.9657199  42.1913895
  72.1844728  33.3200794  41.5252949  68.4236132  32.2010709  40.9094049
  68.4634503  32.7019915  41.6228756  67.5985796  32.2921102  40.6399972
  68.3075658  32.2892525  40.9744587  70.6065745  41.7671449  49.0114343
  69.7561375  41.9043163  49.1471988  70.7693872  41.0335227  49.4562045
  70.5049608  41.6785550  49.0969942  69.8450495  38.7171218  43.2067948
  69.0142425  38.8845036  43.0003196  69.7902012  38.3407169  43.9916833
  69.7139910  38.6860950  43.2916476  67.6534278  32.2080111  48.8424358
  68.2786982  31.6642244  49.1153791  67.1984758  31.7275029  48.2732149
  67.6782539  32.0569593  48.7985952  68.2186539  36.9926810  33.7358065
  68.3589500  37.4899274  34.4386707  68.7169072  36.2913104  33.8772279
  68.3127620  36.9628789  33.8609644  68.2486761  37.8593921  31.0650642
  68.8831841  38.4554346  31.0000104  68.3312372  37.5597379  31.8796512
  68.3543312  37.9034829  31.1753729  69.8265744  33.7907896  31.0396084
  70.1481585  33.3110979  30.3855346  70.0892688  34.6007542  30.8486896
  69.9131770  33.8397794  30.9151576  73.0562717  44.8126771  44.5594900
  72.5487808  45.3662618  45.0035531  72.7589363  44.8735061  43.7413675
  72.9367602  44.9033082  44.5043357  75.2224899  33.1780090  43.4019563
  75.6479971  32.7252617  42.7903090  74.6081892  32.6240161  43.6784351
  75.1953545  33.0294067  43.3524588  75.6670497  48.7290028  32.4898844
  74.9499807  48.5550891  32.0246081  76.3177235  48.4942601  31.9574330
  75.6572348  48.6685821  32.3428062  73.6619122  29.6495190  36.8110140
  73.0187440  29.4992836  37.3795279  73.3218529  29.4037535  36.0459245
  73.5164199  29.5907313  36.7813155  78.2518469  37.6054617  36.2340149
  77.5809658  38.1484319  36.1053214  78.9458219  38.0749472  35.9921844
  78.2547336  37.7552888  36.1795676  72.3005202  49.7451329  41.4651907
  72.0770857  48.9870158  41.8335933  71.8115046  49.7749350  40.7432347
  72.1948651  49.6373553  41.4128648  78.4146596  34.0610501  39.1430522
  78.7674206  33.6340224  39.8176321  77.5561397  33.9761344  39.2731598
  78.3396041  33.9855241  39.2625532  67.1130281  36.6918020  37.2013369
  66.3942270  37.1082153  37.4686232  67.4842643  37.2572259  36.6505007
  67.0622213  36.8367302  37.1596175  76.4129862  37.3245869  43.0915364
  76.3927789  37.1429164  43.9450143  76.4609063  38.1957888  43.0674948
  76.4164503  37.4262407  43.2138659  74.3576192  43.9133061  49.0163841
  74.3172047  43.2682738  48.4308997  75.1699510  43.8569679  49.3289253
  74.4719345  43.8092028  48.9760790  70.9483659  49.9651787  38.9188992
  70.5344058  49.3025917  38.5292833  71.6331033  50.1129646  38.3984686
  70.9882031  49.8892445  38.7845489  74.3148953  49.1241872  39.6712608
  73.9165237  49.2344143  38.9033429  73.7000173  49.3323939  40.2539168
  74.1647843  49.1715440  39.6443908  72.8876855  35.7316020  32.5386748
  72.2941695  36.0533017  31.9871315  72.9252133  34.8857116  32.3307854
  72.8051244  35.6540348  32.4269519  75.7634672  35.6895525  35.9688498
  75.5348365  35.7128226  35.1266856  76.0232748  34.8652992  36.0883509
  75.7680860  35.5711605  35.8613696  70.0453900  37.5429998  45.5713598
  69.5332803  36.9351181  45.9298630  69.8733397  38.2586590  46.0387574
  69.9443537  37.5593297  45.6929822  64.8919615  35.9867573  48.2215960
  64.7222205  36.6468948  47.6764167  64.4485565  36.1974134  48.9428449
  64.8018949  36.1153555  48.2477590  68.8179434  34.2272071  37.2642694
  69.2936801  34.5889151  36.6292875  68.3168034  34.8828539  37.5442837
  68.8144793  34.3766260  37.2119435  73.9222971  35.4654242  48.0115854
  74.4794401  35.2368052  47.3794319  73.5984036  36.2259908  47.7351066
  73.9569381  35.5438079  47.8772351  71.6406088  38.5521896  48.9767861
  72.3917415  38.8673572  49.2907415  71.8328664  38.3501067  48.1501783
  71.7797502  38.5689277  48.9011257  70.8606088  36.3713271  30.6316078
  71.2405052  36.3892900  29.8467193  70.1198684  36.8167260  30.5106925
  70.8074925  36.4395045  30.4979646  78.4891378  34.6795462  36.2191657
  78.4885605  34.5244119  37.0775933  78.2847558  35.5258449  36.1633042
  78.4591156  34.7816083  36.3379596  76.2132230  39.3592964  39.8727863
  76.7085895  38.6415959  39.8331884  75.4032006  39.0563761  39.7582350
  76.1676123  39.2090610  39.8501589  71.6590842  43.2090777  32.0224868
  70.8502164  42.8857451  31.9758177  72.1665751  42.5023999  31.9553116
  71.6140508  43.0572093  32.0055162  78.2784049  42.1096651  42.5604992
  78.7039121  41.5871073  42.0075417  77.9140969  42.7077489  42.0393615
  78.2870652  42.1206878  42.4014002  67.9138129  50.4060869  41.3202338
  68.2284688  51.2197257  41.3280119  68.3231542  50.0211087  41.9884497
  68.0206227  50.4689571  41.4206429  74.8662648  45.8230916  38.8906150
  75.3373827  46.5371178  39.0596135  75.2022827  45.2229666  39.4266019
  74.9857764  45.8402380  38.9938526  76.9539633  47.4332229  51.0698222
  77.0636599  46.6440789  51.4254969  77.2830530  47.3438165  50.2672560
  77.0192039  47.3038082  51.0040612  71.7832143  30.5958386  45.8464244
  71.9160049  29.7989380  46.1745220  72.1677296  31.1224789  46.4262520
  71.8588472  30.5558303  45.9807747  75.5036595  45.6148850  45.6533842
  74.9557541  44.9906733  45.3853908  75.9649624  45.8043122  44.9377922
  75.4903804  45.5507900  45.5084273  74.8564499  27.5188712  42.4445338
  74.0510462  27.4086442  42.7613176  74.7271234  27.6201168  41.5875203
  74.7184631  27.5172382  42.3653378  78.3130459  33.6834204  43.0385035
  77.7293448  34.1843411  42.6262602  78.6334753  33.1763760  42.4049358
  78.2743635  33.6826039  42.8843542  70.8525258  32.5974799  33.3143709
  71.6740953  32.7673112  33.0725404  70.3894909  32.7522060  32.5910007
  70.9056421  32.6456532  33.1715354  69.4420590  30.5917561  44.0942138
  69.9865003  30.2508688  44.6846480  69.4957526  31.4503023  44.2363423
  69.5309710  30.6672821  44.2024012  75.0694921  46.6199922  42.1843183
  75.8893295  46.4762888  42.4459479  74.7888999  47.2446121  42.7259621
  75.1491664  46.6910274  42.3031123  73.8999197  58.9341822  37.5591328
  73.6649381  58.1009474  37.4523597  74.0384837  59.2146487  36.7452529
  73.8854859  58.8525325  37.4233683  76.1989284  51.1027552  40.4575636
  75.5794316  50.5120200  40.2885650  76.0973148  51.6938988  39.8239959
  76.0926959  51.1031635  40.3380625  75.9258417  54.6479834  42.7019205
  75.8017114  55.2342280  43.3369023  76.5776701  54.1540030  43.0031480
  76.0032066  54.6618638  42.8405134  75.4616521  63.8127492  38.8347534
  74.9784099  64.5377982  38.8107118  76.2739839  64.1103623  38.9457692
  75.5107269  63.9629846  38.8474813  78.0297062  48.6802098  31.0530434
  77.8472635  48.8973979  30.2271427  78.8922675  48.7941111  31.1089049
  78.1301651  48.7291996  30.9384921  77.6411494  60.5190020  38.4953422
  78.4800393  60.7512953  38.5427184  77.6723263  59.6494332  38.4260457
  77.7693211  60.4246967  38.4918067  78.2664197  60.9390896  42.7966728
  78.8062422  60.7962027  43.4670100  77.5834143  61.3387646  43.1650754
  78.2456351  60.9770566  42.9501149  73.6701342  57.1591186  42.9501149
  73.4039757  56.3430303  43.1092139  73.6839906  57.2044342  42.0796665
  73.6326064  57.0448091  42.8454631  77.5759089  51.9576271  29.5652907
  76.8617266  51.6714450  29.9775340  78.0603058  52.2972897  30.2059295
  77.5418452  51.9657920  29.7208542  74.0794756  57.9449966  40.2312893
  73.8970329  57.9196852  39.3785186  74.8144425  58.4148904  40.2701802
  74.1608820  58.0111328  40.1110812  77.1440507  54.6634969  46.7395002
  77.8680480  54.6487999  47.2259897  77.2456644  55.3730324  46.2416970
  77.2658716  54.7659672  46.7373789  74.0465666  54.8243466  40.3811960
  74.6239169  54.6879917  41.0204205  73.3479728  54.3679251  40.6357544
  74.0286687  54.7365733  40.5134250  69.5224499  53.6755359  37.0959778
  69.6084751  53.2987228  37.8773308  70.1500297  53.3015805  36.6179737
  69.6281050  53.5640842  37.1405256  75.1100458  62.4447092  41.1491139
  75.1504603  62.7161943  40.3210919  75.6694982  62.9689000  41.5648927
  75.1983804  62.5622847  41.0883027  76.5615044  61.0289041  35.9745065
  75.7353162  61.2750779  35.8479344  76.6227035  60.9501122  36.8407123
  76.4489211  61.0533990  36.0834010  76.7058420  50.5716242  34.3757382
  76.4183216  50.2017512  33.6389329  77.3928888  51.0411097  34.1141086
  76.7647317  50.5863211  34.2272457  77.1919708  56.8427262  44.9278926
  77.7040805  57.1211516  44.2787686  76.9056051  57.5816556  45.2941739
  77.2254571  56.9929616  44.8868804  74.2786615  51.3497454  35.2242663
  74.3802751  52.1523616  35.5523638  75.0742501  51.1484790  34.9265743
  74.4114520  51.4383353  35.2278018  75.0950347  51.4644632  42.9663784
  74.9535838  50.6128573  43.0908292  75.3790910  51.5073293  42.1425990
  75.1158193  51.3444382  42.8631408  75.8640652  49.3774980  46.2841235
  75.3282841  48.7655338  46.6002002  75.9258417  49.9523116  46.9374901
  75.7936285  49.3721908  46.4276661  77.9829408  56.7855714  36.0961289
  78.1394027  56.7202517  36.9517281  78.3230001  57.5604267  35.8839969
  78.0562643  56.8904912  36.1915883  74.5563669  53.9690665  36.4122056
  74.9362634  54.3875209  35.7482324  73.9819034  54.5504120  36.7190900
  74.5274994  54.1168523  36.3598797  78.1994471  55.5351069  41.0437551
  77.3582477  55.4354943  41.2516445  78.4084479  56.3046550  41.3951871
  78.1059163  55.6343113  41.1264866  75.6770038  53.1570606  38.8722301
  75.2826735  53.2313618  38.0972411  75.1210155  53.5428553  39.4230663
  75.5372850  53.2252381  38.8389961  78.0903279  57.9294832  42.4629184
  77.4991212  58.5704330  42.4332199  78.8524302  58.3532449  42.4360483
  78.1151539  58.0870670  42.4544331  78.4863901  49.0896829  43.1297201
  78.9465383  49.1635759  43.8672325  78.5320008  49.8878083  42.7797023
  78.5614457  49.2190976  43.1869958  75.2751679  52.7186020  45.5048918
  76.1377292  52.6181729  45.4186247  74.9443462  52.1380729  44.9434490
  75.3536876  52.6177647  45.4094323  78.6353465  51.5428469  42.1659336
  78.0106535  51.5546861  41.5585288  78.2999060  52.0188644  42.8150576
  78.4938957  51.6146986  42.1715904  78.8195214  49.8853587  28.2232021
  78.4708018  50.5373313  28.6863570  78.3391660  49.8710701  27.4955892
  78.6965458  49.9796641  28.1843112  75.3479141  59.6028929  43.6063100
  74.8179065  58.9121368  43.6558075  75.6204234  59.5939114  42.7775809
  75.3103863  59.4996061  43.4910516  77.9044211  53.1521617  44.3834204
  78.0637697  52.3964941  44.7885926  77.7237104  53.7012556  45.0374942
  77.9009570  53.1215431  44.5396910  70.6274983  56.2756693  40.9631448
  70.5218432  56.2303538  40.0983532  69.8775203  56.6210474  41.2445733
  70.5010586  56.3197601  40.8768778  75.7272333  55.5747070  34.3340188
  76.2364562  56.1711577  34.7151494  76.2006605  55.3073043  33.6516608
  75.8715709  55.6232885  34.2894711  78.0862865  52.2103328  37.2013369
  77.3674854  52.6267461  37.4686232  78.4575227  52.7757567  36.6505007
  78.0354796  52.3552610  37.1596175  75.8652199  51.5052881  48.2215960
  75.6954789  52.1654256  47.6764167  75.4218149  51.7159442  48.9428449
  75.7751532  51.6338863  48.2477590  72.7654263  54.4099747  43.4804450
  72.2180983  53.7400392  43.5985318  73.5546641  54.0429594  43.5447917
  72.8006447  54.2564733  43.5073151  71.5241233  53.6220554  40.6350473
  71.3462994  53.1697163  41.3605389  71.2360255  54.4246716  40.8188951
  71.4554186  53.6743112  40.7693976  73.2613703  56.1548278  37.7472232
  72.3959222  56.1433969  37.6355003  73.3612518  55.9678501  38.5943371
  73.1487869  56.1254339  37.8561177  76.2283733  59.8719285  40.9680946
  76.8328590  59.8315119  40.3394767  76.0211045  60.7190437  40.9985002
  76.2872630  59.9907288  40.8797063  71.4635015  58.8553903  40.8379869
  71.3659293  58.0450174  41.1469926  72.2463885  58.8345696  40.4526137
  71.5651151  58.7320993  40.8266732  56.8735053   8.8010658  22.6016269
  56.1217952   8.4226197  22.3732314  57.3221065   8.8329092  21.8535079
  56.8284720   8.7496265  22.4573771  62.3260013   9.2236028  18.0301816
  61.9911381   9.9012949  17.5946038  62.8386883   8.8341339  17.4418687
  62.3525594   9.2660606  17.8788607  61.8664304  11.1750296  23.9712927
  62.2503683  11.7437195  23.4317703  61.8023445  10.4499807  23.4918743
  61.9137731  11.1525760  23.8206790  58.4519809   8.8129050  24.8679041
  58.5530172   8.0029404  25.1776169  57.8561554   8.7185997  24.2378720
  58.3792348   8.6794079  24.8205280  58.2920549  13.7306640  26.2693897
  58.9358004  14.1719804  26.6590056  58.6176804  12.9260066  26.1824156
  58.4352377  13.6771834  26.3139374  51.6484853   4.8349337  24.4931375
  51.4135038   4.0016989  24.3863644  51.7870494   5.1154003  23.6792576
  51.6340516   4.7532840  24.3573730  58.9941128   6.7418614  21.6413759
  59.3156969   7.2823822  21.0375067  59.6413225   6.1715386  21.7736049
  59.1367184   6.7377790  21.5720794  61.2388506   6.5703972  28.5653655
  61.5211749   5.7755378  28.3440411  61.9674667   7.0484560  28.5858716
  61.3878070   6.5238569  28.5356670  53.2102178   9.7135008  25.7687581
  52.7269756  10.4385497  25.7447165  54.0225496  10.0111138  25.8797739
  53.2592926   9.8637362  25.7814860  59.2816332   8.5067189  28.3737395
  58.7643274   8.1474604  27.7698703  59.9790723   7.9829363  28.3843462
  59.3081913   8.3764876  28.2867654  62.9379924   8.9562003  34.3353568
  63.0263270   8.7688143  35.1831779  63.3669637   8.3099432  33.9358415
  63.0142026   8.8325010  34.4025320  60.5050384   8.2393163  33.3171231
  59.9421219   7.8265772  33.8410892  61.2671407   8.1646068  33.7364374
  60.5344832   8.1670563  33.4564231  56.0646375  10.2291184  25.9207861
  56.7666955   9.7143173  25.9780617  55.9843858  10.5565335  26.7254736
  56.1570136  10.2005410  26.0480653  55.3897151   6.4197536  25.4293469
  56.2286050   6.6520468  25.4767230  55.4208920   5.5501847  25.3600504
  55.5178868   6.3254482  25.4258113  56.0149854   6.8398411  29.7306774
  56.5548079   6.6969542  30.4010147  55.3319800   7.2395162  30.0990801
  55.9942008   6.8778082  29.8841196  63.0499983   8.3871022  36.9997352
  63.8340400   8.5001869  37.3653094  62.8496578   7.5612159  37.1956038
  63.1366009   8.2817741  37.0831738  51.4186999   3.0598702  29.8841196
  51.1525414   2.2437818  30.0432186  51.4325563   3.1051857  29.0136711
  51.3811721   2.9455606  29.7794678  63.2070377  10.2981124  30.6463808
  62.4085622  10.0580624  30.9037676  63.6556388  10.3495517  31.3930855
  63.1544988  10.2703515  30.7948732  51.8280412   3.8457481  27.1652940
  51.6455986   3.8204367  26.3125232  52.5630081   4.3156419  27.2041849
  51.9094476   3.9118843  27.0450859  58.1673472   6.1066271  24.1996882
  58.8047419   5.8678019  24.7448676  58.5928544   6.3103430  23.4650043
  58.3249638   6.1017281  24.1714039  52.8586115   8.3454608  28.0831186
  52.8990260   8.6169459  27.2550966  53.4180639   8.8696516  28.4988974
  52.9469461   8.4630363  28.0223074  60.5494944   6.5838694  25.8790668
  60.6233952   6.4213866  26.7332518  61.3664451   6.7728883  25.6351150
  60.6811303   6.5875436  25.9688694  54.3100701   6.9296557  22.9085112
  53.4838819   7.1758294  22.7819391  54.3712692   6.8508638  23.7747170
  54.1974868   6.9541506  23.0174056  59.0899530   9.5473437  20.6104142
  59.3797828   9.1562418  19.8863368  59.8203011   9.7290142  21.0509417
  59.2406414   9.5167251  20.5686949  57.0305445  11.5240819  23.6764292
  56.8105741  11.2338174  24.4690959  56.8099968  10.8655774  23.1482204
  56.9653040  11.3840528  23.7153200  59.1973401  12.8970209  22.4594984
  59.8497459  12.3646652  22.6886010  58.4999010  12.5438862  22.8462858
  59.1904119  12.7659732  22.5507152  56.1454666   5.2509387  21.8662358
  56.9000634   5.6322426  22.0797821  55.5525279   5.7020531  22.3209055
  56.1691380   5.3738214  21.9645237  57.4652893   6.4217948  27.2402474
  56.9433646   6.5618240  27.9254338  57.8526913   5.6628613  27.4304591
  57.4456594   6.3303472  27.3703550  63.6619898   8.1613407  21.2263042
  63.4206574   7.4281268  20.8190107  63.8421231   8.7100264  20.5729376
  63.6527522   8.1335799  21.0693265  58.0299378  10.1278728  30.3232329
  58.1788942   9.5681644  29.6705734  58.8099380  10.2070730  30.7064848
  58.1673472  10.0564294  30.2829278  60.5552679  10.2993371  31.6016820
  60.4796350   9.6302182  32.1567608  60.4842538  11.0011159  32.1157486
  60.5333286  10.3038278  31.7593668  61.2122926   8.8194370  22.4340426
  61.9772817   8.5504014  22.1123090  61.1101016   8.3344380  23.1510489
  61.3104421   8.7083935  22.4920254  59.9444313  13.7061691  30.0594821
  60.4340243  13.0072480  29.8770485  59.3728545  13.4085561  30.6470878
  59.9328843  13.5587915  30.1195862  60.4380659   7.4538464  19.1834727
  60.5073479   6.5953003  19.3227728  61.2169114   7.6710345  18.8553752
  60.5633509   7.3591328  19.1551885  64.8288146   9.8776166  23.3971221
  64.4367938   9.5742881  22.6794087  64.9841219  10.7145256  23.2076174
  64.7941736   9.9560002  23.2627718  57.8215143   6.5789704  31.9347293
  57.7135498   6.5891767  32.8009351  58.0310925   7.4044485  31.7452247
  57.8365254   6.7030779  32.0351385  55.8388935   3.8302347  29.3969231
  55.2476869   4.4711845  29.3672246  56.6009959   4.2539964  29.3700530
  55.8637196   3.9878185  29.3884378  65.5978452   9.2811658  26.8301255
  65.3998140   9.7702473  26.1357466  64.9766163   9.4852900  27.4085388
  65.4766016   9.3828197  26.8124478  53.0964797   5.5036444  30.5403147
  52.5664722   4.8128883  30.5898122  53.3689891   5.4946630  29.7115855
  53.0589520   5.4003576  30.4250563  48.3760640   2.1764209  27.8971495
  48.2704089   2.1311053  27.0323579  47.6260860   2.5217989  28.1785780
  48.2496243   2.2205117  27.8108825  61.7780957   6.2319594  31.4934947
  61.2706048   6.7855441  31.9375577  61.4807604   6.2927884  30.6753721
  61.6585842   6.3225905  31.4383404  64.3888738  10.1482852  19.4238890
  63.6718047   9.9743714  18.9586128  65.0395475   9.9135424  18.8914377
  64.3790588  10.0878644  19.2768108  61.0223443  11.1644152  28.3991954
  60.7989097  10.4062981  28.7675980  60.5333286  11.1942173  27.6772394
  60.9166892  11.0566377  28.3468695  59.6701900  11.3844610  25.8529039
  59.2562298  10.7218741  25.4632880  60.3549274  11.5322469  25.3324733
  59.7100271  11.3085269  25.7185536  63.0367194  10.5434696  26.6052655
  62.6383477  10.6536966  25.8373475  62.4218413  10.7516762  27.1879215
  62.8866083  10.5908264  26.5783954  56.6356369  11.8253692  28.2542384
  56.9502928  12.6390080  28.2620166  57.0449783  11.4403911  28.9224544
  56.7424467  11.8882394  28.3546476  63.5880889   7.2423739  25.8246196
  64.0592067   7.9564001  25.9936182  63.9241067   6.6422489  26.3606066
  63.7076004   7.2595203  25.9278572  65.6757873   8.8525052  38.0038269
  65.7854839   8.0633613  38.3595016  66.0048770   8.7630988  37.2012607
  65.7410279   8.7230905  37.9380659  53.9769389   5.7726800  27.9020993
  54.5814247   5.7322635  27.2734814  53.7696702   6.6197952  27.9325049
  54.0358287   5.8914803  27.8137109  63.7913161   8.0392746  29.1183230
  64.6111535   7.8955712  29.3799525  63.5107239   8.6638945  29.6599668
  63.8709905   8.1103098  29.2371170  49.2120672   4.7561418  27.7719916
  49.1144950   3.9457689  28.0809973  49.9949541   4.7353211  27.3866184
  49.3136808   4.6328508  27.7606779  73.4626497  14.7833248  26.8379037
  72.6064392  14.9441747  26.8888154  73.5094150  13.9125312  26.8584098
  73.3425608  14.6784050  26.8485103  67.8467636  24.3195966  22.6016269
  67.0950536  23.9411505  22.3732314  68.2953648  24.3514400  21.8535079
  67.8017303  24.2681573  22.4573771  76.7720213  21.0519774  36.4439493
  77.4786981  20.5571805  36.5726428  76.9608149  21.4928855  35.7142151
  76.9048119  21.0438124  36.3548539  73.2992596  24.7421336  18.0301816
  72.9643965  25.4198257  17.5946038  73.8119467  24.3526647  17.4418687
  73.3258177  24.7845914  17.8788607  72.8396888  26.6935604  23.9712927
  73.2236267  27.2622503  23.4317703  72.7756029  25.9685115  23.4918743
  72.8870315  26.6711068  23.8206790  76.3078318  16.8425292  29.4810689
  76.8534278  17.5210379  29.5404658  76.2495194  16.7012753  28.6212270
  76.3794232  16.9217294  29.3622749  69.4252393  24.3314358  24.8679041
  69.5262756  23.5214712  25.1776169  68.8294138  24.2371305  24.2378720
  69.3524931  24.1979386  24.8205280  78.0843386  18.2709899  20.3544416
  77.9682912  19.0217585  20.7836555  78.8799273  18.0133853  20.6040504
  78.1847976  18.3444746  20.4548508  69.2653132  29.2491948  26.2693897
  69.9090588  29.6905112  26.6590056  69.5909388  28.4445374  26.1824156
  69.4084961  29.1957142  26.3139374  62.6217437  20.3534645  24.4931375
  62.3867621  19.5202297  24.3863644  62.7603078  20.6339311  23.6792576
  62.6073099  20.2718148  24.3573730  64.9207524  12.5220376  27.3915682
  64.3012556  11.9313023  27.2225697  64.8191388  13.1131811  26.7580006
  64.8145200  12.5224458  27.2720672  69.9673712  22.2603922  21.6413759
  70.2889553  22.8009130  21.0375067  70.6145808  21.6900694  21.7736049
  70.1099767  22.2563098  21.5720794  72.0175420  14.2619917  21.7248146
  72.7155585  14.4408045  22.2169609  72.3327752  13.7390257  21.1018535
  72.1670757  14.2113689  21.7050156  64.6476657  16.0672657  29.6359251
  64.5235354  16.6535103  30.2709070  65.2994942  15.5732853  29.9371526
  64.7250307  16.0811462  29.7745181  72.2063355  20.6490362  21.7127937
  72.6456991  20.0407463  22.1582710  72.0568018  20.2697736  20.9413402
  72.2484821  20.5028833  21.6647104  69.6734998  19.2434374  28.9146763
  70.3184001  18.7506817  28.5957711  69.9136775  19.3859161  29.7412841
  69.8045583  19.1911816  28.9896296  72.2121090  22.0889280  28.5653655
  72.4944333  21.2940686  28.3440411  72.9407250  22.5669868  28.5858716
  72.3610653  22.0423877  28.5356670  70.1902284   9.6312314  25.8069420
  69.8605614  10.0823458  25.1373119  69.5147285   9.5528477  26.3542427
  70.0412720   9.6863449  25.7892643  75.8072692  19.0017544  18.6658706
  75.7223987  19.8578510  18.8108275  76.2957075  18.7261868  19.3340865
  75.8661589  19.0874865  18.7860788  76.7391125  15.6202338  20.1656441
  76.2102597  15.8361971  20.8253748  77.2616145  16.3138476  20.0857411
  76.7379578  15.7545475  20.2512041  68.6290733  19.5165555  18.9663909
  68.0447948  20.0215586  19.3729773  68.2260828  19.2907942  18.2260501
  68.4830037  19.5573803  18.9168935  64.1834762  25.2320316  25.7687581
  63.7002340  25.9570805  25.7447165  64.9958080  25.5296446  25.8797739
  64.2325509  25.3822669  25.7814860  70.2548916  24.0252496  28.3737395
  69.7375857  23.6659911  27.7698703  70.9523307  23.5014671  28.3843462
  70.2814497  23.8950184  28.2867654  73.9112508  24.4747311  34.3353568
  73.9995853  24.2873451  35.1831779  74.3402220  23.8284740  33.9358415
  73.9874610  24.3510318  34.4025320  71.4782967  23.7578470  33.3171231
  70.9153802  23.3451080  33.8410892  72.2403991  23.6831376  33.7364374
  71.5077416  23.6855871  33.4564231  67.0378959  25.7476492  25.9207861
  67.7399538  25.2328481  25.9780617  66.9576442  26.0750643  26.7254736
  67.1302719  25.7190718  26.0480653  68.0857865  15.9852079  35.0488276
  68.2578369  15.8757973  35.8973557  68.6227223  16.6306484  34.8119468
  68.1902869  16.0644080  35.1393373  66.7515302  10.0994921  17.9870481
  66.5690875  10.3166802  17.1611474  67.6140915  10.2133934  18.0429095
  66.8519892  10.1484819  17.8724968  66.3629734  21.9382844  25.4293469
  67.2018634  22.1705776  25.4767230  66.3941503  21.0687155  25.3600504
  66.4911452  21.8439790  25.4258113  66.9882437  22.3583719  29.7306774
  67.5280662  22.2154850  30.4010147  66.3052384  22.7580470  30.0990801
  66.9674591  22.3963390  29.8841196  76.4123322  18.0374719  24.9251799
  77.1680837  18.4706234  24.9640707  76.5185647  17.3879489  25.4986435
  76.5393493  18.0052203  25.0149824  74.0232567  23.9056330  36.9997352
  74.8072983  24.0187177  37.3653094  73.8229161  23.0797467  37.1956038
  74.1098592  23.8003049  37.0831738  62.3919582  18.5784010  29.8841196
  62.1257998  17.7623126  30.0432186  62.4058146  18.6237165  29.0136711
  62.3544305  18.4640914  29.7794678  66.2977329  13.3769094  16.4992954
  65.5835506  13.0907274  16.9115386  66.7821298  13.7165720  17.1399341
  66.2636693  13.3850744  16.6548589  67.1418189  12.1162388  32.5308204
  66.4489985  11.6459368  32.7768935  67.7578516  11.8900692  33.1049911
  67.1302719  12.0129520  32.6517356  74.1802960  25.8166432  30.6463808
  73.3818206  25.5765932  30.9037676  74.6288972  25.8680824  31.3930855
  74.1277571  25.7888823  30.7948732  73.4724647  21.8799048  16.8754762
  73.8875796  21.5484072  16.1839258  72.6416577  21.6467950  16.7474899
  73.4112656  21.7970304  16.7545610  62.8012996  19.3642789  27.1652940
  62.6188569  19.3389675  26.3125232  63.5362665  19.8341727  27.2041849
  62.8827060  19.4304151  27.0450859  65.8658748  16.0827792  33.6735049
  66.5898720  16.0680823  34.1599943  65.9674884  16.7923147  33.1757017
  65.9876957  16.1852495  33.6713836  73.2403697  19.5626876  38.5383996
  72.4476678  19.8770388  38.7236615  73.3552624  19.7778345  37.7004780
  73.1399108  19.6410713  38.4422331  75.9135016  16.2860868  22.8279012
  76.0081870  17.0250162  23.2818637  75.2893860  15.8578343  23.2613576
  75.8344046  16.3322188  22.9587159  74.1687490  19.4647080  33.4769292
  74.7426352  18.8274324  33.6317856  74.0902294  19.4651163  32.6078950
  74.2420725  19.3712192  33.3715703  62.7683906  16.2436290  27.3152007
  63.3457409  16.1072740  27.9544252  62.0697968  15.7872074  27.5697591
  62.7504928  16.1558556  27.4474296  69.5251208  17.8970345  25.5290490
  69.2670453  17.0642080  25.5021789  69.5799691  18.1227958  24.6882990
  69.4950986  17.8068117  25.4010627  68.4985921  15.4508108  26.0155385
  67.9235512  15.6100276  26.6519346  68.1221597  14.8143517  25.5523835
  68.3588733  15.3805921  26.0409943  72.1659209  13.9231457  30.8747763
  71.7773642  13.4985675  30.2199954  71.5013908  14.1713607  31.3824790
  72.0106137  13.8970178  30.8535631  58.2442740  15.0948183  24.0299825
  58.3302991  14.7180051  24.8113355  58.8718537  14.7208628  23.5519784
  58.3499291  14.9833665  24.0745303  73.2698148  18.1530062  19.0724570
  74.0838786  18.4444954  18.9607341  73.2057289  17.4989924  18.4982863
  73.3800887  18.0995256  18.9713407  69.1406056  21.6251579  24.1996882
  69.7780003  21.3863327  24.7448676  69.5661127  21.8288738  23.4650043
  69.2982222  21.6202589  24.1714039  63.8318698  23.8639916  28.0831186
  63.8722843  24.1354767  27.2550966  64.3913222  24.3881824  28.4988974
  63.9202044  23.9815671  28.0223074  69.7808871  16.8453869  18.5371772
  70.1654024  16.6261576  19.2888317  69.5320491  17.6716814  18.6672848
  69.8010943  16.9352015  18.6672848  69.9477411  10.1260284  38.2534356
  69.6330852  10.8959847  37.9903918  69.6267344   9.5630540  37.6686583
  69.8536330  10.1570553  38.1275706  71.5227528  22.1024002  25.8790668
  71.5966536  21.9399174  26.7332518  72.3397034  22.2914191  25.6351150
  71.6543886  22.1060744  25.9688694  65.2833284  22.4481865  22.9085112
  64.4571402  22.6943602  22.7819391  65.3445276  22.3693945  23.7747170
  65.1707451  22.4726814  23.0174056  67.5009308   8.5150806  23.8680552
  66.6331734   8.5873405  23.9338161  67.7884513   9.3172885  24.0568527
  67.4149056   8.6444953  23.9055319  70.0632113  25.0658745  20.6104142
  70.3530412  24.6747726  19.8863368  70.7935594  25.2475450  21.0509417
  70.2138998  25.0352559  20.5686949  70.6526859  19.8676491  31.6957272
  70.1538552  20.5792258  31.7742161  71.4627083  20.1877157  31.6575435
  70.6982965  20.0203339  31.7013841  68.0038029  27.0426127  23.6764292
  67.7838324  26.7523482  24.4690959  67.7832551  26.3841082  23.1482204
  67.9385623  26.9025836  23.7153200  66.9154976  19.1299444  25.9419993
  66.6268225  18.5036915  26.4765720  67.7838324  19.0719731  26.0084674
  67.0015228  19.0286988  26.0310948  77.7032874  14.2734227  26.2601975
  77.3597640  13.5524562  26.6109225  77.8025917  14.0648078  25.4180333
  77.6674917  14.1358430  26.1873655  70.1705985  28.4155517  22.4594984
  70.8230043  27.8831959  22.6886010  69.4731593  28.0624170  22.8462858
  70.1636703  28.2845040  22.5507152  67.1187250  20.7694695  21.8662358
  67.8733218  21.1507734  22.0797821  66.5257862  21.2205838  22.3209055
  67.1423963  20.8923522  21.9645237  78.1645903  20.7359931  21.8025963
  78.7303936  21.3953141  21.7184506  77.5173807  21.0809629  22.2742365
  78.1524660  20.8841873  21.8598720  69.5793917  12.7257535  36.9919571
  68.7693692  13.0315315  36.8809413  70.0568603  13.4463118  37.1072155
  69.5297395  12.8772136  36.9926642  68.4385476  21.9403256  27.2402474
  67.9166230  22.0803548  27.9254338  68.8259497  21.1813920  27.4304591
  68.4189177  21.8488780  27.3703550  65.4276660  11.9909065  21.3097428
  65.1401456  11.6210335  20.5729376  66.1147129  12.4603920  21.0481133
  65.4865558  12.0056034  21.1612504  74.6352481  23.6798715  21.2263042
  74.3939157  22.9466576  20.8190107  74.8153814  24.2285572  20.5729376
  74.6260105  23.6521107  21.0693265  69.8651802  18.9707275  22.6383965
  69.6694584  19.5782010  22.0444268  70.0886147  18.2775219  22.1575639
  69.8686443  18.9584801  22.4800045  68.2630332  15.8562013  22.7564833
  68.9852984  16.0203171  22.2968639  67.7838325  16.5771678  22.6504173
  68.2994063  15.9860243  22.6730447  76.2223839  12.1925812  28.1361518
  75.3834940  12.2187091  27.8999781  76.2928207  12.8396547  28.7166865
  76.1092233  12.2921938  28.1870635  65.9137949  18.2620086  31.8618973
  66.4259045  18.5404339  31.2127733  65.6274291  19.0009380  32.2281786
  65.9472812  18.4122439  31.8208851  63.0004855  12.7690277  22.1582709
  63.1020991  13.5716439  22.4863685  63.7960742  12.5677613  21.8605790
  63.1332760  12.8576176  22.1618065  69.4321674  10.3546474  31.9220015
  69.2404871  10.3701609  32.7719438  70.2820270  10.5510148  31.8986669
  69.5297396  10.3860825  32.0443309  63.8168587  12.8837456  29.9003831
  63.6754079  12.0321396  30.0248339  64.1009150  12.9266116  29.0766037
  63.8376433  12.7637206  29.7971455  73.9707179  14.7204546  24.0448319
  73.7241894  14.6400297  24.8785108  74.2992302  13.9358014  23.8510847
  73.9828423  14.5930811  24.1395842  77.8655228  21.4287905  27.8335100
  77.7269587  22.1268951  28.3383843  77.0855226  21.2736562  27.4771282
  77.7298455  21.5088072  27.8561375  76.2033313  17.7284280  34.0857482
  76.1981352  16.8564097  34.0899909  76.9094307  17.9272450  33.6126938
  76.3078317  17.6288155  34.0164518  69.9304207  17.4561264  33.4571302
  70.0747582  18.0362473  32.8214412  70.2779855  17.8337561  34.1621157
  70.0031668  17.5981968  33.4670297  72.1024124  16.6551433  31.2396434
  71.3547438  16.8482447  30.8344712  72.2565649  15.8296652  31.0020555
  72.0146552  16.5616544  31.1441840  69.0031962  25.6464036  30.3232329
  69.1521525  25.0866952  29.6705734  69.7831964  25.7256038  30.7064848
  69.1406055  25.5749602  30.2829278  71.5285262  25.8178679  31.6016820
  71.4528933  25.1487490  32.1567608  71.4575121  26.5196467  32.1157486
  71.5065869  25.8223586  31.7593668  72.3425901  10.5501983  32.1291838
  72.7998515  11.2825958  32.2564630  72.4182230  10.1268449  32.8879093
  72.4216871  10.5959222  32.2592914  64.5858892  10.7967803  33.2181281
  64.0501082  10.1848161  33.5342049  64.6476657  11.3715939  33.8714948
  64.5154525  10.7914731  33.3616708  72.1855509  24.3379678  22.4340426
  72.9505400  24.0689322  22.1123090  72.0833599  23.8529688  23.1510489
  72.2837005  24.2269243  22.4920254  70.2208279  12.5404087  28.9733662
  69.4304354  12.3595547  29.2950997  70.6168902  11.7631040  28.9563956
  70.1625155  12.3991548  29.0186210  75.6051965  20.1746518  26.6993108
  74.9296967  19.9431750  27.2006495  75.6144341  19.5667700  26.0735213
  75.5070470  20.0505443  26.6809260  72.7346109  15.0164347  33.4557161
  72.6705250  15.8774303  33.3277297  72.8743297  14.6996340  32.6552712
  72.7461579  15.0964513  33.3185373  77.6068700  23.0311650  18.9303286
  77.6888537  23.8378636  18.6064736  78.0918442  23.0507609  19.6544059
  77.6905858  23.1532312  18.9890184  71.4165203  17.7096486  27.5973363
  70.9927452  17.9100985  26.8612382  71.2410058  16.8625334  27.7097663
  71.3276084  17.6145267  27.5047054  70.9176897  29.2246999  30.0594821
  71.4072827  28.5257788  29.8770485  70.3461129  28.9270869  30.6470878
  70.9061426  29.0773222  30.1195862  66.7047648  18.2048537  23.0301336
  66.8612267  18.1395340  23.8857328  67.0448241  18.9797090  22.8180016
  66.7780883  18.3097735  23.1255930  73.2426793  17.5806421  21.8994699
  73.7842338  17.0776802  22.3633320  73.5573352  17.5271616  21.0884184
  73.3691190  17.4985842  21.8478511  77.1143900  21.7909068  39.0121611
  77.9278765  21.5194217  39.1726744  76.9538866  21.4916608  38.2081807
  77.2113849  21.7063994  38.9167017  71.4113242  22.9723772  19.1834727
  71.4806063  22.1138311  19.3227728  72.1901698  23.1895653  18.8553752
  71.5366092  22.8776636  19.1551885  74.3916062  12.4742725  31.9517000
  74.6058032  11.8353640  31.3980354  73.7749961  12.9188549  31.5224861
  74.3321391  12.4452869  31.8067431  75.8020730  25.3961474  23.3971221
  75.4100522  25.0928189  22.6794087  75.9573802  26.2330564  23.2076174
  75.7674320  25.4745310  23.2627718  63.2781910  15.3883488  23.3462103
  63.6580874  15.8068033  22.6822371  62.7037274  15.9696943  23.6530947
  63.2493234  15.5361347  23.2938844  76.5555150  14.0831791  32.8900307
  75.7431832  13.7757681  32.9713480  77.0145085  13.6030791  33.4543019
  76.5035535  13.9668283  32.9854901  75.9660405  21.9611463  23.3377251
  75.6075059  22.1326105  24.1141284  75.4799116  22.4224668  22.7805250
  75.8419102  22.0550434  23.3702520  70.7548770  17.6410628  15.8777486
  71.0441295  18.4175510  16.1521060  70.8420569  17.1299359  16.5791985
  70.8103026  17.6802546  16.0219983  73.6508658  15.4891862  37.6729009
  74.1208289  16.1133978  38.0596883  73.6970538  14.8208838  38.2322224
  73.7276533  15.4826542  37.8129081  77.1265144  22.8515358  34.2844452
  77.7644865  22.3575554  33.9506908  76.4839236  22.7792759  33.6996679
  77.1259371  22.7674367  34.1486807  78.8522144  14.7004504  28.8510368
  78.4249752  14.6130853  28.0958467  78.2148197  14.8082280  29.4365212
  78.6951751  14.7037164  28.8255809  77.1819401  23.5435167  30.9249809
  77.9711779  23.1924231  31.0451890  77.3562999  24.3571555  30.6626443
  77.3239682  23.6121024  30.9037677  66.9212711  16.9543892  27.9777598
  66.0800718  16.8547767  28.1856491  67.1302719  17.7239373  28.3291918
  66.8277404  17.0535936  28.0604913  64.3988278  14.5763429  25.8062348
  64.0044976  14.6506441  25.0312458  63.8428395  14.9621376  26.3570710
  64.2591090  14.6445204  25.7730008  70.7329376  14.8825292  27.2275195
  70.4292513  14.3281280  27.8285603  70.0308797  15.0617502  26.7403229
  70.5845586  14.8270074  27.2444901  69.7895473  12.1925811  21.7919897
  70.0655207  11.4744724  21.3797465  70.3894142  12.7910731  21.5841003
  69.9188738  12.1746182  21.7000658  68.7947727  22.0975012  31.9347293
  68.6868082  22.1077075  32.8009351  69.0043508  22.9229793  31.7452247
  68.8097838  22.2216087  32.0351385  66.8121519  19.3487655  29.3969231
  66.2209452  19.9897153  29.3672246  67.5742543  19.7725272  29.3700530
  66.8369780  19.5063493  29.3884378  67.2082142  10.5089653  30.0637248
  67.6683623  10.5828582  30.8012372  67.2538248  11.3070907  29.7137069
  67.2832697  10.6383800  30.1210005  68.8565492  11.1756347  34.6309275
  68.4651057  10.5289695  35.0665053  69.0251354  11.7667783  35.2503531
  68.8236402  11.1670615  34.7871981  76.5711035  24.7996966  26.8301255
  76.3730724  25.2887781  26.1357466  75.9498746  25.0038208  27.4085388
  76.4498600  24.9013505  26.8124478  70.6319014  16.5681863  21.1711499
  71.3761059  16.9556140  21.4094449  70.7779710  15.7239289  21.3351987
  70.7629599  16.5012336  21.2305469  73.6196889  12.1407337  27.0705419
  73.1456844  11.6149099  27.5810729  73.9915025  11.5936809  26.5020280
  73.6046778  11.9823333  27.0620566  63.9969920  14.1378843  32.4388964
  64.8595533  14.0374552  32.3526294  63.6661703  13.5573553  31.8774536
  64.0755116  14.0370470  32.3434370  67.3571706  12.9621292  29.0999383
  66.7324776  12.9739684  28.4925335  67.0217300  13.4381467  29.7490623
  67.2157197  13.0339809  29.1055951  67.5413454  11.3046411  15.1572068
  67.1926259  11.9566136  15.6203617  67.0609900  11.2903524  14.4295939
  67.4183698  11.3989464  15.1183159  64.0697381  21.0221752  30.5403147
  63.5397306  20.3314191  30.5898122  64.3422474  21.0131938  29.7115855
  64.0322103  20.9188884  30.4250563  75.1017472  21.6047455  19.2640829
  75.8251670  22.0705568  19.1205403  74.6618063  21.6721064  18.5138426
  75.1433164  21.6831291  19.1325611  74.2703627  18.4644997  30.5141518
  73.6560620  17.9203047  30.8090154  74.7870912  17.9509233  30.0347335
  74.2559289  18.3081406  30.4865747  73.5099924  19.5349267  28.2485817
  73.0827532  18.9098986  27.8151252  73.5024868  19.2524189  29.0744824
  73.4459065  19.4002048  28.3065645  66.6262451  14.5714440  31.3174251
  66.7855938  13.8157764  31.7225973  66.4455345  15.1205380  31.9714989
  66.6227810  14.5408254  31.4736957  71.8385633  10.4118021  28.4628351
  71.8628121   9.8778134  27.7741131  72.0897107   9.9035330  29.1253942
  71.8795552  10.2578925  28.4592996  59.3493223  17.6949516  27.8971495
  59.2436672  17.6496361  27.0323579  58.5993443  18.0403297  28.1785780
  59.2228826  17.7390425  27.8108825  68.1186956   9.1388840  27.8434095
  68.1585327   9.6398046  28.5568803  67.2936620   9.2299233  27.5740018
  68.0026482   9.2270656  27.9084634  70.3016569  18.7049580  35.9454390
  69.4512199  18.8421294  36.0812035  70.4644696  17.9713358  36.3902092
  70.2000432  18.6163681  36.0309989  69.5401319  15.6549350  30.1407994
  68.7093249  15.8223168  29.9343242  69.4852836  15.2785300  30.9256880
  69.4090734  15.6239081  30.2256522  67.3485102   9.1458243  35.7764405
  67.9737806   8.6020375  36.0493837  66.8935582   8.6653160  35.2072195
  67.3733363   8.9947724  35.7325999  67.9137363  13.9304941  20.6698112
  68.0540324  14.4277405  21.3726753  68.4119896  13.2291236  20.8112326
  68.0078444  13.9006920  20.7949691  67.9437585  14.7972052  17.9990689
  68.5782665  15.3932477  17.9340151  68.0263196  14.4975510  18.8136559
  68.0494136  14.8412960  18.1093775  69.5216568  10.7286028  17.9736131
  69.8432409  10.2489110  17.3195393  69.7843512  11.5385674  17.7826943
  69.6082594  10.7775925  17.8491623  72.7513541  21.7504902  31.4934947
  72.2438632  22.3040749  31.9375577  72.4540187  21.8113192  30.6753721
  72.6318426  21.8411213  31.4383404  64.4490573  16.9939893  21.2680235
  64.9582803  17.5904400  21.6491540  64.9224845  16.7265867  20.5856655
  64.5933949  17.0425708  21.2234758  75.3621321  25.6668160  19.4238890
  74.6450631  25.4929022  18.9586128  76.0128059  25.4320732  18.8914377
  75.3523172  25.6063952  19.2768108  77.9469292  14.5432748  23.1680196
  77.2760482  15.0862450  23.0393261  78.6409043  15.0127603  22.9261890
  77.9498160  14.6931019  23.1135723  71.9956026  26.6829460  28.3991954
  71.7721681  25.9248289  28.7675980  71.5065870  26.7127481  27.6772394
  71.8899475  26.5751685  28.3468695  66.8081105  13.6296151  24.1353415
  66.0893094  14.0460284  24.4026279  67.1793467  14.1950390  23.5845053
  66.7573037  13.7745433  24.0936222  76.1080686  14.2624000  30.0255411
  76.0878613  14.0807296  30.8790190  76.1559886  15.1336019  30.0014995
  76.1115327  14.3640539  30.1478706  74.0527016  20.8511192  35.9503888
  74.0122870  20.2060869  35.3649043  74.8650334  20.7947810  36.2629300
  74.1670169  20.7470159  35.9100837  70.6434483  26.9029918  25.8529039
  70.2294882  26.2404048  25.4632880  71.3281857  27.0507777  25.3324733
  70.6832855  26.8270576  25.7185536  74.0099777  26.0620004  26.6052655
  73.6116061  26.1722274  25.8373475  73.3950997  26.2702070  27.1879215
  73.8598667  26.1093572  26.5783954  72.5827679  12.6694151  19.4726795
  71.9892519  12.9911148  18.9211362  72.6202957  11.8235247  19.2647901
  72.5002068  12.5918480  19.3609566  75.4585496  12.6273656  22.9028545
  75.2299189  12.6506357  22.0606903  75.7183572  11.8031123  23.0223556
  75.4631684  12.5089736  22.7953743  69.7404724  14.4808129  32.5053645
  69.2283627  13.8729312  32.8638677  69.5684220  15.1964721  32.9727621
  69.6394361  14.4971428  32.6269869  64.5870439  12.9245704  35.1556007
  64.4173029  13.5847079  34.6104214  64.1436389  13.1352265  35.8768496
  64.4969773  13.0531686  35.1817636  68.5130258  11.1650202  24.1982741
  68.9887625  11.5267282  23.5632922  68.0118858  11.8206670  24.4782883
  68.5095617  11.3144391  24.1459482  73.6173795  12.4032374  34.9455901
  74.1745225  12.1746183  34.3134366  73.2934860  13.1638039  34.6691113
  73.6520205  12.4816210  34.8112398  61.4872504  15.8292570  30.4144497
  60.9399223  15.1593215  30.5325365  62.2764882  15.4622418  30.4787964
  61.5224687  15.6757556  30.4413197  71.3356912  15.4900027  35.9107908
  72.0868239  15.8051704  36.2247462  71.5279488  15.2879198  35.0841830
  71.4748326  15.5067409  35.8351304  70.5556912  13.3091402  17.5656125
  70.9355876  13.3271031  16.7807239  69.8149508  13.7545391  17.4446972
  70.5025749  13.3773177  17.4319693  60.2459473  15.0413378  27.5690520
  60.0681234  14.5889987  28.2945435  59.9578495  15.8439539  27.7528997
  60.1772426  15.0935935  27.7034023  75.9083054  16.2971095  26.8067910
  76.4036719  15.5794090  26.7671930  75.0982830  15.9941893  26.6922397
  75.8626947  16.1468741  26.7841636  71.3541666  20.1468908  18.9564915
  70.5452988  19.8235582  18.9098224  71.8616575  19.4402130  18.8893163
  71.3091332  19.9950225  18.9395209  61.9831943  17.5741101  24.6812279
  61.1177462  17.5626792  24.5695050  62.0830759  17.3871324  25.5283418
  61.8706110  17.5447163  24.7901223  77.9734873  19.0474782  29.4945039
  78.3989945  18.5249204  28.9415464  77.6091793  19.6455620  28.9733662
  77.9821476  19.0585009  29.3354049  67.6088953  27.3439000  28.2542384
  67.9235512  28.1575388  28.2620166  68.0182366  26.9589219  28.9224544
  67.7157051  27.4067702  28.3546476  74.5613472  22.7609047  25.8246196
  75.0324651  23.4749309  25.9936182  74.8973651  22.1607797  26.3606066
  74.6808587  22.7780511  25.9278572  76.6490457  24.3710360  38.0038269
  76.7587422  23.5818921  38.3595016  76.9781354  24.2816296  37.2012607
  76.7142863  24.2416213  37.9380659  75.1987419  22.5526981  32.5873889
  74.6508365  21.9284864  32.3193954  75.6600447  22.7421253  31.8717968
  75.1854628  22.4886031  32.4424320  70.5476082   9.5352930  20.2483756
  71.3691777   9.7051243  20.0065451  70.0845733   9.6900191  19.5250054
  70.6007245   9.5834663  20.1055400  64.9501973  21.2912108  27.9020993
  65.5546830  21.2507943  27.2734814  64.7429285  22.1383260  27.9325049
  65.0090870  21.4100111  27.8137109  74.7645745  23.5578054  29.1183230
  75.5844119  23.4141020  29.3799525  74.4839823  24.1824252  29.6599668
  74.8442488  23.6288406  29.2371170  60.1853255  20.2746726  27.7719916
  60.0877533  19.4642997  28.0809973  60.9682125  20.2538519  27.3866184
  60.2869392  20.1513816  27.7606779  73.5950020  35.8719953  24.4931375
  73.3600205  35.0387605  24.3863644  73.7335661  36.1524619  23.6792576
  73.5805683  35.7903456  24.3573730  75.8940108  28.0405683  27.3915682
  75.2745140  27.4498331  27.2225697  75.7923971  28.6317119  26.7580006
  75.7877783  28.0409766  27.2720672  75.6209241  31.5857965  29.6359251
  75.4967938  32.1720411  30.2709070  76.2727525  31.0918161  29.9371526
  75.6982890  31.5996770  29.7745181  75.1567345  40.7505624  25.7687581
  74.6734923  41.4756113  25.7447165  75.9690663  41.0481754  25.8797739
  75.2058093  40.9007977  25.7814860  78.0111542  41.2661800  25.9207861
  78.7132122  40.7513789  25.9780617  77.9309025  41.5935951  26.7254736
  78.1035303  41.2376026  26.0480653  77.7247886  25.6180229  17.9870481
  77.5423459  25.8352110  17.1611474  78.5873499  25.7319242  18.0429095
  77.8252475  25.6670127  17.8724968  77.3362318  37.4568152  25.4293469
  78.1751217  37.6891084  25.4767230  77.3674087  36.5872463  25.3600504
  77.4644035  37.3625098  25.4258113  77.9615021  37.8769027  29.7306774
  78.5013246  37.7340158  30.4010147  77.2784967  38.2765778  30.0990801
  77.9407175  37.9148698  29.8841196  73.3652166  34.0969318  29.8841196
  73.0990581  33.2808434  30.0432186  73.3790730  34.1422473  29.0136711
  73.3276888  33.9826222  29.7794678  78.1150772  27.6347696  32.5308204
  77.4222569  27.1644676  32.7768935  78.7311100  27.4086000  33.1049911
  78.1035302  27.5314828  32.6517356  73.7745580  34.8828097  27.1652940
  73.5921153  34.8574983  26.3125232  74.5095248  35.3527035  27.2041849
  73.8559643  34.9489459  27.0450859  76.8391331  31.6013100  33.6735049
  77.5631304  31.5866130  34.1599943  76.9407468  32.3108455  33.1757017
  76.9609540  31.7037803  33.6713836  73.7416490  31.7621598  27.3152007
  74.3189993  31.6258048  27.9544252  73.0430552  31.3057382  27.5697591
  73.7237511  31.6743864  27.4474296  69.2175323  30.6133491  24.0299825
  69.3035575  30.2365359  24.8113355  69.8451121  30.2393936  23.5519784
  69.3231874  30.5018973  24.0745303  74.8051282  39.3825224  28.0831186
  74.8455427  39.6540075  27.2550966  75.3645806  39.9067132  28.4988974
  74.8934628  39.5000979  28.0223074  76.2565868  37.9667173  22.9085112
  75.4303986  38.2128910  22.7819391  76.3177859  37.8879253  23.7747170
  76.1440035  37.9912122  23.0174056  78.4741892  24.0336114  23.8680552
  77.6064317  24.1058713  23.9338161  78.7617096  24.8358192  24.0568527
  78.3881640  24.1630261  23.9055319  77.8887560  34.6484752  25.9419993
  77.6000808  34.0222223  26.4765720  78.7570908  34.5905039  26.0084674
  77.9747812  34.5472296  26.0310948  78.0919833  36.2880003  21.8662358
  78.8465801  36.6693042  22.0797821  77.4990446  36.7391146  22.3209055
  78.1156547  36.4108830  21.9645237  76.4009244  27.5094373  21.3097428
  76.1134040  27.1395643  20.5729376  77.0879712  27.9789228  21.0481133
  76.4598141  27.5241342  21.1612504  76.8870532  33.7805393  31.8618973
  77.3991629  34.0589647  31.2127733  76.6006875  34.5194688  32.2281786
  76.9205395  33.9307747  31.8208851  73.9737438  28.2875585  22.1582709
  74.0753575  29.0901747  22.4863685  74.7693325  28.0862921  21.8605790
  74.1065344  28.3761484  22.1618065  74.7901171  28.4022764  29.9003831
  74.6486662  27.5506704  30.0248339  75.0741734  28.4451424  29.0766037
  74.8109017  28.2822514  29.7971455  75.5591476  26.3153111  33.2181281
  75.0233665  25.7033469  33.5342049  75.6209241  26.8901247  33.8714948
  75.4887108  26.3100039  33.3616708  77.6780232  33.7233845  23.0301336
  77.8344851  33.6580648  23.8857328  78.0180825  34.4982398  22.8180016
  77.7513466  33.8283043  23.1255930  74.2514493  30.9068796  23.3462103
  74.6313458  31.3253341  22.6822371  73.6769858  31.4882251  23.6530947
  74.2225818  31.0546654  23.2938844  77.8945295  32.4729200  27.9777598
  77.0533301  32.3733075  28.1856491  78.1035303  33.2424681  28.3291918
  77.8009987  32.5721244  28.0604913  75.3720862  30.0948737  25.8062348
  74.9777559  30.1691749  25.0312458  74.8160978  30.4806684  26.3570710
  75.2323674  30.1630512  25.7730008  77.7854103  34.8672963  29.3969231
  77.1942036  35.5082461  29.3672246  78.5475126  35.2910580  29.3700530
  77.8102363  35.0248801  29.3884378  78.1814725  26.0274960  30.0637248
  78.6416207  26.1013890  30.8012372  78.2270832  26.8256215  29.7137069
  78.2565281  26.1569108  30.1210005  74.9702503  29.6564151  32.4388964
  75.8328116  29.5559860  32.3526294  74.6394286  29.0758860  31.8774536
  75.0487700  29.5555778  32.3434370  78.3304289  28.4806600  29.0999383
  77.7057359  28.4924992  28.4925335  77.9949884  28.9566775  29.7490623
  78.1889781  28.5525117  29.1055951  78.5146038  26.8231719  15.1572068
  78.1658842  27.4751444  15.6203617  78.0342484  26.8088832  14.4295939
  78.3916282  26.9174772  15.1183159  75.0429965  36.5407060  30.5403147
  74.5129889  35.8499499  30.5898122  75.3155058  36.5317246  29.7115855
  75.0054687  36.4374192  30.4250563  77.5995034  30.0899748  31.3174251
  77.7588521  29.3343072  31.7225973  77.4187928  30.6390687  31.9714989
  77.5960393  30.0593562  31.4736957  70.3225807  33.2134824  27.8971495
  70.2169256  33.1681669  27.0323579  69.5726027  33.5588605  28.1785780
  70.1961410  33.2575733  27.8108825  78.3217686  24.6643550  35.7764405
  78.9470389  24.1205683  36.0493837  77.8668166  24.1838468  35.2072195
  78.3465947  24.5133032  35.7325999  75.4223157  32.5125201  21.2680235
  75.9315386  33.1089708  21.6491540  75.8957429  32.2451174  20.5856655
  75.5666532  32.5611016  21.2234758  77.7813689  29.1481459  24.1353415
  77.0625678  29.5645592  24.4026279  78.1526051  29.7135698  23.5845053
  77.7305620  29.2930741  24.0936222  75.5603023  28.4431012  35.1556007
  75.3905613  29.1032387  34.6104214  75.1168972  28.6537573  35.8768496
  75.4702356  28.5716994  35.1817636  72.4605087  31.3477878  30.4144497
  71.9131807  30.6778523  30.5325365  73.2497465  30.9807726  30.4787964
  72.4957271  31.1942864  30.4413197  72.9564526  33.0926409  24.6812279
  72.0910046  33.0812100  24.5695050  73.0563342  32.9056632  25.5283418
  72.8438693  33.0632470  24.7901223  75.9234557  36.8097416  27.9020993
  76.5279414  36.7693250  27.2734814  75.7161869  37.6568568  27.9325049
  75.9823454  36.9285419  27.8137109  71.1585839  35.7932034  27.7719916
  71.0610117  34.9828305  28.0809973  71.9414708  35.7723827  27.3866184
  71.2601975  35.6699124  27.7606779   4.7511788  22.5348627  61.0071327
   4.7205793  23.3893264  61.1789596   5.3493137  22.2343920  61.5657470
   4.8348946  22.6165124  61.1146129   2.5728363  25.1100929  59.2789636
   2.4567889  25.8608615  59.7081775   3.3684249  24.8524883  59.5285724
   2.6732952  25.1835776  59.3793728   1.2276102  22.4593368  59.0901661
   0.6987573  22.6753001  59.7498968   1.7501121  23.1529506  59.0102631
   1.2264555  22.5936505  59.1757261   6.6824154  28.0339672  64.4634706
   5.8521858  28.2450316  64.6268122   6.6333407  27.2076727  64.1876989
   6.5530890  27.9429279  64.4472071   3.9388470  28.7039027  64.5999422
   3.5023702  28.7075769  65.3558393   3.6051385  29.3844526  64.1678999
   3.8251090  28.8051482  64.6480254   7.0732816  25.4219947  63.4919059
   7.7349250  24.8610615  63.3914967   6.4324228  24.9271977  63.8171750
   7.0761683  25.2656356  63.5251399   3.3597647  26.4385329  63.2331048
   3.5953236  26.5830528  62.4057898   3.5087210  27.2027737  63.6262561
   3.4163450  26.5724383  63.1694652   5.1888103  25.2786995  61.0700652
   5.5196320  25.8114635  60.4640746   5.7621191  25.3325883  61.7262602
   5.3221782  25.3656564  61.0778433   2.6530880  27.5750961  60.7271183
   3.2188912  28.2344171  60.6429726   2.0058783  27.9200659  61.1987585
   2.6409636  27.7232902  60.7843940   3.8493577  27.6257189  57.5196820
   3.4700386  26.8394327  57.5126109   3.1859823  28.1744046  57.3768464
   3.6952052  27.5902013  57.4977617   2.0953676  29.8702680  57.8548506
   2.1773514  30.6769666  57.5309956   2.5803418  29.8898639  58.5789279
   2.1790834  29.9923342  57.9135404   6.2326596  27.4763000  58.9140966
   6.6160202  28.2254356  59.1439063   5.4370710  27.7228820  58.6552955
   6.1720379  27.6232694  58.9098539  15.7244372  38.0533935  61.0071327
  15.6938376  38.9078572  61.1789596  16.3225721  37.7529228  61.5657470
  15.8081530  38.1350432  61.1146129   8.9244057  37.1409586  65.7624257
   8.0681952  37.3018084  65.8133374   8.9711710  36.2701650  65.7829318
   8.8043168  37.0360388  65.7730323   3.3085196  46.6772304  61.5261489
   2.5568096  46.2987842  61.2977534   3.7571208  46.7090738  60.7780299
   3.2634863  46.6257911  61.3818991  12.2337773  43.4096112  75.3684713
  12.9404541  42.9148143  75.4971648  12.4225709  43.8505193  74.6387371
  12.3665679  43.4014462  75.2793759   8.7610156  47.0997674  56.9547036
   8.4261525  47.7774595  56.5191258   9.2737027  46.7102985  56.3663907
   8.7875737  47.1422252  56.8033827   8.3014448  49.0511942  62.8958147
   8.6853827  49.6198841  62.3562923   8.2373589  48.3261453  62.4163963
   8.3487875  49.0287406  62.7452010  11.7695878  39.2001630  68.4055909
  12.3151838  39.8786717  68.4649878  11.7112754  39.0589091  67.5457490
  11.8411792  39.2793632  68.2867969   4.8869953  46.6890696  63.7924261
   4.9880316  45.8791050  64.1021389   4.2911698  46.5947643  63.1623940
   4.8142491  46.5555724  63.7450500  13.5460946  40.6286237  59.2789636
  13.4300472  41.3793923  59.7081775  14.3416833  40.3710191  59.5285724
  13.6465536  40.7021084  59.3793728   4.7270692  51.6068285  65.1939117
   5.3708148  52.0481449  65.5835276   5.0526948  50.8021712  65.1069376
   4.8702521  51.5533480  65.2384594   5.4291272  44.6180260  60.5658979
   5.7507113  45.1585468  59.9620287   6.0763368  44.0477032  60.6981269
   5.5717327  44.6139435  60.4966014   7.4792980  36.6196255  60.6493366
   8.1773145  36.7984383  61.1414829   7.7945312  36.0966595  60.0263755
   7.6288317  36.5690027  60.6295376   7.6680915  43.0066700  60.6373157
   8.1074551  42.3983801  61.0827930   7.5185578  42.6274074  59.8658622
   7.7102381  42.8605171  60.5892324   5.1352558  41.6010712  67.8391983
   5.7801561  41.1083155  67.5202931   5.3754335  41.7435499  68.6658061
   5.2663143  41.5488154  67.9141516   7.6738650  44.4465618  67.4898875
   7.9561893  43.6517024  67.2685631   8.4024810  44.9246205  67.5103936
   7.8228213  44.4000215  67.4601890   5.6519844  31.9888652  64.7314640
   5.3223174  32.4399795  64.0618339   4.9764845  31.9104815  65.2787647
   5.5030280  32.0439787  64.7137864  11.2690252  41.3593882  57.5903926
  11.1841547  42.2154848  57.7353495  11.7574635  41.0838206  58.2586085
  11.3279149  41.4451203  57.7106008  12.8596251  27.9774175  62.9764251
  12.5449692  28.6677653  63.4084673  12.3423193  27.9218957  62.2749752
  12.7360722  28.0709063  62.9361200  12.2008685  37.9778676  59.0901661
  11.6720157  38.1938309  59.7498968  12.7233705  38.6714814  59.0102631
  12.1997138  38.1121813  59.1757261  17.6556738  43.5524980  64.4634706
  16.8254441  43.7635624  64.6268122  17.6065990  42.7262035  64.1876989
  17.5263473  43.4614586  64.4472071   4.0908293  41.8741892  57.8909129
   3.5065508  42.3791924  58.2974993   3.6878388  41.6484279  57.1505721
   3.9447597  41.9150141  57.8414155   5.7166476  46.3828834  67.2982615
   5.1993417  46.0236249  66.6943923   6.4140867  45.8591009  67.3088682
   5.7432057  46.2526522  67.2112874   9.3730068  46.8323648  73.2598788
   9.4613413  46.6449789  74.1076999   9.8019780  46.1861078  72.8603635
   9.4492170  46.7086656  73.3270540   8.5485507  38.1207545  56.3678050
   8.7881511  38.3285528  55.5553393   8.8701348  37.3165053  56.4766995
   8.6322665  38.0321646  56.2638603   3.8575798  30.0500940  60.2137588
   4.6121766  30.4179257  59.9754638   3.6803332  30.4240495  60.9816768
   3.9430276  30.1599128  60.2922476   2.4996519  48.1052830  64.8453081
   3.2017098  47.5904819  64.9025837   2.4194002  48.4326981  65.6499956
   2.5920279  48.0767056  64.9725873  17.1510696  36.1995381  68.2585127
  16.3139117  36.2697568  68.4932722  17.1198927  36.2019876  67.3859430
  17.0228979  36.2105608  68.1644675   2.2132862  32.4571259  56.9115701
   2.0308435  32.6743140  56.0856694   3.0758475  32.5710272  56.9674315
   2.3137452  32.5061157  56.7970188   1.8247294  44.2959182  64.3538689
   2.6636194  44.5282114  64.4012450   1.8559063  43.4263493  64.2845724
   1.9529012  44.2016128  64.3503334   2.4499997  44.7160057  68.6551994
   2.9898222  44.5731188  69.3255367   1.7669944  45.1156807  69.0236021
   2.4292151  44.7539728  68.8086416   7.8932581  29.4597670  59.9464725
   8.6218742  29.2813625  59.5002881   7.9827474  30.3015750  60.1571903
   8.0139244  29.5581548  59.9118242  11.8740882  40.3951057  63.8497019
  12.6298397  40.8282572  63.8885927  11.9803207  39.7455827  64.4231655
  12.0011053  40.3628541  63.9395044  14.9121053  44.2224335  64.5999422
  14.4756285  44.2261077  65.3558393  14.5783969  44.9029834  64.1678999
  14.7983673  44.3236790  64.6480254   1.7594889  35.7345432  55.4238174
   1.0453066  35.4483611  55.8360606   2.2438858  36.0742058  56.0644561
   1.7254253  35.7427082  55.5793809   9.6420520  48.1742769  69.5709028
   8.8435766  47.9342270  69.8282896  10.0906532  48.2257162  70.3176075
   9.5895131  48.1465161  69.7193952  18.0465399  40.9405254  63.4919059
  18.7081834  40.3795923  63.3914967  17.4056811  40.4457285  63.8171750
  18.0494267  40.7841664  63.5251399   8.9342207  44.2375386  55.7999982
   9.3493356  43.9060410  55.1084478   8.1034137  44.0044288  55.6720119
   8.8730216  44.1546642  55.6790830  14.3330230  41.9570637  63.2331048
  14.5685819  42.1015836  62.4057898  14.4819794  42.7213045  63.6262561
  14.3896033  42.0909691  63.1694652  16.1620687  40.7972303  61.0700652
  16.4928904  41.3299943  60.4640746  16.7353775  40.8511191  61.7262602
  16.2954366  40.8841872  61.0778433  11.3752576  38.6437206  61.7524232
  11.4699430  39.3826500  62.2063857  10.7511420  38.2154681  62.1858796
  11.2961606  38.6898526  61.8832379   9.6305050  41.8223418  72.4014512
  10.2043912  41.1850662  72.5563076   9.5519854  41.8227501  71.5324170
   9.7038285  41.7288530  72.2960923  11.6275597  40.4885945  54.9861184
  11.5455760  40.5588132  55.8516171  12.2655318  41.0515689  54.7944924
  11.7095435  40.5824916  55.0851133   4.9868768  40.2546683  64.4535710
   4.7288013  39.4218418  64.4267009   5.0417251  40.4804296  63.6128210
   4.9568546  40.1644455  64.3255847  10.0669819  32.3575134  64.5539803
   9.3626145  31.8684319  64.7123722  10.1154793  32.3697608  63.6828247
   9.9699870  32.2864782  64.4479142   3.9603481  37.8084446  64.9400605
   3.3853072  37.9676614  65.5764566   3.5839157  37.1719855  64.4769055
   3.8206293  37.7382259  64.9655163   7.6276769  36.2807795  69.7992983
   7.2391202  35.8562013  69.1445174   6.9631468  36.5289945  70.3070010
   7.4723697  36.2546516  69.7780851  17.2700038  36.0382800  62.5740813
  17.0136603  35.2262741  62.3838696  18.1129352  36.0460367  62.3471000
  17.3566064  35.9194797  62.5125630  11.4503131  29.9782424  67.3116967
  11.8313643  29.2960595  67.6984842  10.6466415  29.6892026  67.1292632
  11.3879593  29.8349472  67.3421023   8.7315708  40.5106400  57.9969790
   9.5456346  40.8021292  57.8852561   8.6674849  39.8566262  57.4228083
   8.8418447  40.4571594  57.8958627  14.9525198  43.1932396  72.4099366
  14.7163835  42.3620461  72.2911426  15.5968427  43.1418003  72.9954210
  15.0119868  43.0630084  72.4785259   4.6023616  43.9827917  63.1242102
   5.2397563  43.7439665  63.6693896   5.0278687  44.1865076  62.3895263
   4.7599782  43.9778927  63.0959259   5.2426431  39.2030207  57.4616992
   5.6271584  38.9837914  58.2133537   4.9938051  40.0293152  57.5918068
   5.2628503  39.2928353  57.5918068  15.9761618  42.9776844  68.4727660
  15.6707435  43.7104901  68.8340976  15.2567834  42.5714774  68.1920446
  15.8248961  43.0258577  68.4840797   6.9845088  44.4600340  64.8035888
   7.0584096  44.2975512  65.6577738   7.8014594  44.6490529  64.5596370
   7.1161446  44.4637082  64.8933914  21.6763410  39.6169845  67.7996004
  21.6087911  39.6365804  66.9298591  21.6619073  40.4600172  68.0251675
  21.6642167  39.7443580  67.7048481   2.9626868  30.8727144  62.7925772
   2.0949294  30.9449743  62.8583381   3.2502073  31.6749222  62.9813747
   2.8766616  31.0021291  62.8300539  12.0859757  31.0205003  71.1237094
  12.8313349  30.8314813  70.7100519  11.6697062  31.5463241  70.5650950
  12.1344731  31.0707148  70.9801667   5.5249673  47.4235083  59.5349362
   5.8147972  47.0324064  58.8108588   6.2553154  47.6051788  59.9754637
   5.6756558  47.3928897  59.4932169  19.4622028  38.3914231  66.0742599
  20.0129949  37.7582300  66.3139691  19.4466143  38.9229624  66.7658103
  19.5407224  38.3763180  66.2121457   6.1144419  42.2252829  70.6202492
   5.6156112  42.9368596  70.6987381   6.9244643  42.5453495  70.5820655
   6.1600525  42.3779677  70.6259061   3.4655589  49.4002465  62.6009512
   3.2455884  49.1099820  63.3936179   3.2450111  48.7417420  62.0727424
   3.4003183  49.2602174  62.6398420   2.3772536  41.4875782  64.8665213
   2.0885785  40.8613253  65.4010941   3.2455884  41.4296069  64.9329894
   2.4632788  41.3863326  64.9556168  13.1650434  36.6310565  65.1847195
  12.8215200  35.9100900  65.5354445  13.2643477  36.4224416  64.3425553
  13.1292477  36.4934768  65.1118875   5.6323545  50.7731855  61.3840204
   6.2847603  50.2408297  61.6131230   4.9349153  50.4200507  61.7708078
   5.6254263  50.6421378  61.4752372  13.6263463  43.0936269  60.7271183
  14.1921496  43.7529479  60.6429726  12.9791367  43.4385967  61.1987585
  13.6142220  43.2418210  60.7843940   3.9003036  44.2979594  66.1647694
   3.3783790  44.4379886  66.8499558   4.2877057  43.5390258  66.3549811
   3.8806737  44.2065118  66.2948770  10.0970041  46.0375053  60.1508262
   9.8556717  45.3042914  59.7435327  10.2771374  46.5861910  59.4974596
  10.0877665  46.0097444  59.9938485   5.3269362  41.3283613  61.5629185
   5.1312144  41.9358348  60.9689488   5.5503707  40.6351557  61.0820859
   5.3304003  41.3161139  61.4045266   3.7247892  38.2138351  61.6810053
   4.4470544  38.3779509  61.2213859   3.2455885  38.9348016  61.5749393
   3.7611623  38.3436581  61.5975667  11.6841399  34.5502150  67.0606738
  10.8452500  34.5763429  66.8245001  11.7545767  35.1972885  67.6412085
  11.5709793  34.6498276  67.1115855  10.1310678  31.4487527  61.7934354
  10.8337031  31.2495275  61.3154312   9.8654866  30.6763469  62.1003197
  10.1957310  31.3050493  61.7679796  15.5598923  39.7570137  64.3467980
  15.4732898  39.9125563  65.2002759  15.1049403  40.4008212  63.9727385
  15.4802180  39.8745892  64.4175087   9.4324739  37.0780884  62.9693539
   9.1859454  36.9976635  63.8030328   9.7609862  36.2934352  62.7756067
   9.4445983  36.9507149  63.0641062  13.3272788  43.7864243  66.7580321
  13.1887147  44.4845289  67.2629063  12.5472786  43.6312899  66.4016502
  13.1916015  43.8664410  66.7806595  11.6650873  40.0860618  73.0102702
  11.6598912  39.2140435  73.0145129  12.3711867  40.2848788  72.5372158
  11.7695877  39.9864493  72.9409738   5.3921767  39.8137602  72.3816522
   5.5365142  40.3938810  71.7459632   5.7397415  40.1913899  73.0866377
   5.4649228  39.9558306  72.3915517   7.5641684  39.0127771  70.1641654
   6.8164998  39.2058785  69.7589932   7.7183209  38.1872990  69.9265775
   7.4764112  38.9192882  70.0687060   4.4649522  48.0040374  69.2477549
   4.6139085  47.4443290  68.5950954   5.2449524  48.0832376  69.6310068
   4.6023615  47.9325940  69.2074498  14.8226161  43.1442497  57.5196820
  14.4432970  42.3579635  57.5126109  14.1592406  43.6929354  57.3768464
  14.6684636  43.1087321  57.4977617   6.9902822  48.1755017  70.5262040
   6.9146493  47.5063828  71.0812828   6.9192681  48.8772805  71.0402706
   6.9683429  48.1799924  70.6838888  12.2770787  26.0868197  64.9230901
  12.3954355  26.5444660  64.1898203  12.1032963  25.2813458  64.6367118
  12.2689958  26.0361969  64.7731834   7.6473069  46.6956016  61.3585646
   8.4122960  46.4265660  61.0368310   7.5451159  46.2106026  62.0755709
   7.7454565  46.5845580  61.4165474   5.6825839  34.8980425  67.8978882
   4.8921914  34.7171885  68.2196217   6.0786462  34.1207378  67.8809176
   5.6242715  34.7567886  67.9431430  10.1691730  43.7268200  53.3385595
  10.9364715  43.7868325  52.9291447   9.7223039  43.1548641  52.8541914
  10.2165157  43.6504775  53.2063306  11.0669525  42.5322855  65.6238328
  10.3914527  42.3008088  66.1251715  11.0761901  41.9244038  64.9980433
  10.9688030  42.4081781  65.6054480   8.1963669  37.3740684  72.3802381
   8.1322810  38.2350641  72.2522517   8.3360857  37.0572678  71.5797932
   8.2079139  37.4540851  72.2430593  13.0686260  45.3887988  57.8548506
  13.1506097  46.1954974  57.5309956  13.5536002  45.4083947  58.5789279
  13.1523418  45.5108650  57.9135404   6.8782763  40.0672824  66.5218584
   6.4545012  40.2677323  65.7857602   6.7027618  39.2201672  66.6342883
   6.7893644  39.9721605  66.4292274   2.1665208  40.5624875  61.9546556
   2.3229827  40.4971678  62.8102548   2.5065801  41.3373428  61.7425236
   2.2398443  40.6674073  62.0501150   8.7044353  39.9382759  60.8239919
   9.2459898  39.4353140  61.2878540   9.0190912  39.8847953  60.0129405
   8.8308750  39.8562180  60.7723731  12.5761460  44.1485406  77.9366831
  13.3896325  43.8770555  78.0971964  12.4156426  43.8492946  77.1327027
  12.6731409  44.0640332  77.8412237   6.8730802  45.3300110  58.1079947
   6.9423623  44.4714649  58.2472948   7.6519258  45.5471991  57.7798972
   6.9983652  45.2352974  58.0797105   9.8533622  34.8319063  70.8762220
  10.0675592  34.1929977  70.3225574   9.2367521  35.2764887  70.4470081
   9.7938951  34.8029207  70.7312651  11.2638290  47.7537812  62.3216441
  10.8718082  47.4504527  61.6039307  11.4191362  48.5906902  62.1321394
  11.2291880  47.8321648  62.1872938  12.0172710  36.4408128  71.8145527
  11.2049392  36.1334019  71.8958700  12.4762645  35.9607129  72.3788239
  11.9653095  36.3244621  71.9100121  11.4277965  44.3187800  62.2622471
  11.0692619  44.4902443  63.0386504  10.9416676  44.7801006  61.7050470
  11.3036662  44.4126771  62.2947740   9.2448351  27.9418999  65.8649563
   8.3741909  27.9157720  65.8182872   9.4988692  27.7696191  65.0475408
   9.1541911  27.9129143  65.7369699   6.2166330  39.9986966  54.8022706
   6.5058855  40.7751848  55.0766280   6.3038129  39.4875697  55.5037205
   6.2720586  40.0378884  54.9465203   6.2697491  29.9525227  67.3223033
   5.7535980  29.2605419  67.4474612   5.7091420  30.6196004  67.2685632
   6.1104004  29.9488485  67.3329099  12.5882704  45.2091696  73.2089672
  13.2262425  44.7151892  72.8752128  11.9456796  45.1369097  72.6241899
  12.5876931  45.1250705  73.0732027  14.3139704  37.0580842  67.7755588
  13.8867312  36.9707191  67.0203687  13.6765757  37.1658618  68.3610432
  14.1569311  37.0613502  67.7501029  12.6436961  45.9011505  69.8495029
  13.4329339  45.5500569  69.9697110  12.8180559  46.7147893  69.5871663
  12.7857242  45.9697362  69.8282897   2.3830271  39.3120230  66.9022818
   1.5418278  39.2124105  67.1101711   2.5920279  40.0815711  67.2537138
   2.2894964  39.4112274  66.9850133  11.4970785  29.9121061  64.4111447
  11.7020378  29.8443369  65.2568444  11.1697209  30.7179883  64.3432625
  11.4786033  30.0207002  64.5271102   6.1946936  37.2401630  66.1520415
   5.8910073  36.6857618  66.7530823   5.4926357  37.4193840  65.6648449
   6.0463146  37.1846412  66.1690121   5.2513033  34.5502149  60.7165117
   5.5272767  33.8321062  60.3042685   5.8511702  35.1487069  60.5086223
   5.3806298  34.5322520  60.6245878  14.7504473  30.4652826  63.8914213
  14.1378786  30.9523228  64.2767944  14.8468647  29.7896316  64.4351864
  14.6742370  30.4371134  64.0293071   8.7523554  32.2215667  58.9911712
   9.2067300  32.3926227  59.7159557   9.2263599  31.6083777  58.5909488
   8.8891874  32.1566552  59.0385474   2.2739079  41.7063993  68.3214451
   1.6827012  42.3473491  68.2917466   3.0360103  42.1301610  68.2945750
   2.2987340  41.8639831  68.3129598  18.3929501  41.5369762  69.3191729
  18.4512624  41.9856411  70.0651705  17.7595968  41.9468575  68.8821809
  18.3080796  41.6643497  69.3644277  12.0328595  47.1573304  65.7546475
  11.8348284  47.6464119  65.0602686  11.4116306  47.3614546  66.3330608
  11.9116160  47.2589843  65.7369698   6.0936574  38.9258201  60.0956719
   6.8378619  39.3132477  60.3339669   6.2397270  38.0815626  60.2597207
   6.2247159  38.8588674  60.1550689   8.0116149  30.7208460  65.1288581
   7.1652194  30.8931268  65.0029930   8.0087281  29.9157804  65.4654409
   7.8863299  30.6269489  65.1599708   9.0814449  34.4983674  65.9950639
   8.6074404  33.9725436  66.5055950   9.4532585  33.9513147  65.4265500
   9.0664338  34.3399671  65.9865786  15.3451180  39.5586050  67.4057419
  15.1049403  38.7192465  67.4099846  15.8243187  39.6386217  68.1298193
  15.3803364  39.4467450  67.5132221  11.0097949  35.3920229  59.0576392
  10.4820968  35.4748973  58.3682101  11.4693657  36.1338100  59.0541037
  10.9999800  35.5140891  58.9551088  17.3456367  36.3387507  65.3586678
  17.1066137  36.2983341  64.5207463  17.5090268  37.1858659  65.4852399
  17.3346670  36.4579592  65.2540160  13.9502397  40.7237457  71.2891723
  14.6736596  40.2709983  71.1102743  13.6852359  41.0042122  70.5064051
  14.0183670  40.6988425  71.1470439   2.8189266  35.3197630  68.0244603
   2.1942336  35.3316022  67.4170555   2.4834860  35.7957805  68.6735843
   2.6774757  35.3916147  68.0301171   3.0031014  33.6622749  54.0817288
   2.6543819  34.3142474  54.5448837   2.5227460  33.6479862  53.3541159
   2.8801258  33.7565802  54.0428379  10.5635032  43.9623793  58.1886049
  11.2869230  44.4281906  58.0450623  10.1235623  44.0297402  57.4383646
  10.6050724  44.0407629  58.0570831   9.7321187  40.8221335  69.4386738
   9.1178180  40.2779385  69.7335374  10.2488472  40.3085571  68.9592555
   9.7176849  40.6657744  69.4110967   8.9717484  41.8925605  67.1731037
   8.5445092  41.2675323  66.7396472   8.9642428  41.6100527  67.9990044
   8.9076625  41.7578385  67.2310865   7.3003193  32.7694359  67.3873571
   7.3245681  32.2354472  66.6986351   7.5514667  32.2611668  68.0499162
   7.3413112  32.6155263  67.3838216   3.5804516  31.4965178  66.7679315
   3.6202887  31.9974384  67.4814023   2.7554180  31.5875571  66.4985238
   3.4644042  31.5846994  66.8329854   5.0018879  38.0125687  69.0653214
   4.1710809  38.1799505  68.8588462   4.9470396  37.6361638  69.8502100
   4.8708294  37.9815419  69.1501743   3.3754923  36.2881279  59.5943332
   3.5157884  36.7853743  60.2971973   3.8737456  35.5867573  59.7357546
   3.4696004  36.2583258  59.7194911   3.4055145  37.1548390  56.9235909
   4.0400225  37.7508815  56.8585371   3.4880756  36.8551848  57.7381779
   3.5111696  37.1989298  57.0338995  16.3837711  39.6863867  69.7922273
  16.9755551  40.3261118  69.8240471  16.8196706  38.9886904  70.0814340
  16.5356142  39.6782218  69.8403106   4.9834128  33.0862365  56.8981351
   5.3049969  32.6065448  56.2440613   5.2461072  33.8962011  56.7072163
   5.0700154  33.1352263  56.7736843   8.2131101  44.1081240  70.4180167
   7.7056192  44.6617087  70.8620797   7.9157747  44.1689530  69.5998942
   8.0935986  44.1987551  70.3628624  10.3793283  32.4734559  69.2604830
  10.8048355  32.0207086  68.6488356   9.7650276  31.9194630  69.5369617
  10.3521929  32.3248536  69.2109855  10.8238881  48.0244497  58.3484111
  10.1068191  47.8505360  57.8831348  11.4745619  47.7897070  57.8159597
  10.8140732  47.9640290  58.2013328   8.8187506  28.9449659  62.6695407
   8.1755824  28.7947306  63.2380545   8.4786913  28.6992004  61.9044512
   8.6732583  28.8861782  62.6398422  13.4086852  36.9009086  62.0925416
  12.7378042  37.4438788  61.9638481  14.1026603  37.3703941  61.8507110
  13.4115720  37.0507357  62.0380943   7.4573586  49.0405798  67.3237174
   7.2339241  48.2824627  67.6921200   6.9683430  49.0703819  66.6017614
   7.3517035  48.9328023  67.2713915  13.5714980  33.3564970  65.0015789
  13.9242590  32.9294693  65.6761588  12.7129781  33.2715813  65.1316865
  13.4964425  33.2809710  65.1210799   2.2698665  35.9872489  63.0598635
   1.5510654  36.4036622  63.3271499   2.6411027  36.5526728  62.5090274
   2.2190597  36.1321771  63.0181442  11.5698246  36.6200338  68.9500631
  11.5496173  36.4383633  69.8035410  11.6177446  37.4912357  68.9260215
  11.5732887  36.7216877  69.0723926   9.5144576  43.2087530  74.8749108
   9.4740430  42.5637207  74.2894263  10.3267894  43.1524148  75.1874520
   9.6287729  43.1046497  74.8346057   6.1052043  49.2606256  64.7774259
   5.6912442  48.5980386  64.3878100   6.7899417  49.4084115  64.2569953
   6.1450415  49.1846914  64.6430756   9.4717337  48.4196341  65.5297875
   9.0733621  48.5298612  64.7618695   8.8568557  48.6278408  66.1124435
   9.3216227  48.4669909  65.5029174   8.0445239  35.0270489  58.3972015
   7.4510079  35.3487486  57.8456582   8.0820517  34.1811585  58.1893121
   7.9619628  34.9494817  58.2854786  15.0039040  28.4783381  65.9300101
  14.4969905  27.7712521  65.8621279  15.8006474  28.1476570  66.0601178
  15.0466279  28.3256533  65.9399096  10.9203056  34.9849994  61.8273765
  10.6916749  35.0082695  60.9852123  11.1801132  34.1607461  61.9468776
  10.9249244  34.8666074  61.7198963   3.9747818  33.5226540  63.1227961
   4.4505185  33.8843620  62.4878142   3.4736418  34.1783008  63.4028103
   3.9713177  33.6720729  63.0704702  17.2059180  42.9948308  58.9140966
  17.5892786  43.7439664  59.1439063  16.4103293  43.2414128  58.6552955
  17.1452962  43.1418002  58.9098539   6.0174472  35.6667740  56.4901345
   6.3973436  35.6847369  55.7052459   5.2767068  36.1121729  56.3692192
   5.9643309  35.7349514  56.3564913  13.6459762  33.9749931  62.0776923
  13.6453988  33.8198588  62.9361200  13.4415942  34.8212918  62.0218309
  13.6159540  34.0770552  62.1964863  11.3700614  38.6547433  65.7313130
  11.8654279  37.9370428  65.6917151  10.5600390  38.3518231  65.6167617
  11.3244507  38.5045079  65.7086856   6.8159226  42.5045246  57.8810135
   6.0070548  42.1811920  57.8343444   7.3234135  41.7978468  57.8138383
   6.7708892  42.3526562  57.8640429  13.4352433  41.4051120  68.4190259
  13.8607505  40.8825542  67.8660684  13.0709353  42.0031958  67.8978882
  13.4439036  41.4161347  68.2599269   3.0706513  49.7015338  67.1787604
   3.3853072  50.5151726  67.1865386   3.4799926  49.3165557  67.8469764
   3.1774611  49.7644040  67.2791696  10.0231032  45.1185385  64.7491416
  10.4942211  45.8325647  64.9181402  10.3591211  44.5184135  65.2851286
  10.1426147  45.1356849  64.8523792  10.6604979  44.9103319  71.5119109
  10.1125925  44.2861202  71.2439174  11.1218007  45.0997591  70.7963188
  10.6472188  44.8462369  71.3669540  13.4698843  32.9788673  68.8970301
  12.8861832  33.4797880  68.4847869  13.7903137  32.4718229  68.2634625
  13.4312018  32.9780508  68.7428809   6.0093642  31.8929268  59.1728976
   6.8309337  32.0627581  58.9310671   5.5463293  32.0476529  58.4495274
   6.0624805  31.9411001  59.0300621  10.2263305  45.9154391  68.0428450
  11.0461679  45.7717357  68.3044745   9.9457383  46.5400590  68.5844888
  10.3060048  45.9864743  68.1616390  26.6976955  53.5719243  61.0071327
  26.6670960  54.4263880  61.1789596  27.2958304  53.2714536  61.5657470
  26.7814113  53.6535740  61.1146129  19.8976640  52.6594894  65.7624257
  19.0414536  52.8203392  65.8133374  19.9444294  51.7886958  65.7829318
  19.7775752  52.5545696  65.7730323  14.2817780  62.1957612  61.5261489
  13.5300680  61.8173150  61.2977534  14.7303792  62.2276046  60.7780299
  14.2367447  62.1443219  61.3818991  23.2070357  58.9281420  75.3684713
  23.9137124  58.4333451  75.4971648  23.3958292  59.3690501  74.6387371
  23.3398262  58.9199770  75.2793759  19.7342740  62.6182982  56.9547036
  19.3994108  63.2959903  56.5191258  20.2469610  62.2288293  56.3663907
  19.7608321  62.6607560  56.8033827  19.2747031  64.5697250  62.8958147
  19.6586411  65.1384149  62.3562923  19.2106172  63.8446761  62.4163963
  19.3220458  64.5472714  62.7452010  22.7428461  54.7186938  68.4055909
  23.2884421  55.3972025  68.4649878  22.6845338  54.5774399  67.5457490
  22.8144376  54.7978940  68.2867969  15.8602536  62.2076004  63.7924261
  15.9612899  61.3976358  64.1021389  15.2644281  62.1132951  63.1623940
  15.7875075  62.0741032  63.7450500  24.5193530  56.1471545  59.2789636
  24.4033056  56.8979231  59.7081775  25.3149417  55.8895498  59.5285724
  24.6198119  56.2206392  59.3793728  15.7003276  67.1253593  65.1939117
  16.3440731  67.5666757  65.5835276  16.0259531  66.3207020  65.1069376
  15.8435104  67.0718788  65.2384594   9.0567580  58.2296291  63.4176595
   8.8217765  57.3963943  63.3108864   9.1953221  58.5100956  62.6037796
   9.0423243  58.1479794  63.2818950  11.3557668  50.3982021  66.3160902
  10.7362700  49.8074669  66.1470917  11.2541532  50.9893457  65.6825226
  11.2495343  50.3986104  66.1965892  16.4023855  60.1365568  60.5658979
  16.7239697  60.6770776  59.9620287  17.0495952  59.5662340  60.6981269
  16.5449911  60.1324743  60.4966014  18.4525564  52.1381563  60.6493366
  19.1505728  52.3169691  61.1414829  18.7677896  51.6151902  60.0263755
  18.6020901  52.0875335  60.6295376  11.0826801  53.9434303  68.5604471
  10.9585498  54.5296749  69.1954290  11.7345085  53.4494499  68.8616746
  11.1600450  53.9573108  68.6990401  18.6413499  58.5252008  60.6373157
  19.0807134  57.9169109  61.0827930  18.4918162  58.1459382  59.8658622
  18.6834965  58.3790479  60.5892324  16.1085142  57.1196020  67.8391983
  16.7534144  56.6268463  67.5202931  16.3486919  57.2620807  68.6658061
  16.2395727  57.0673462  67.9141516  18.6471233  59.9650926  67.4898875
  18.9294476  59.1702332  67.2685631  19.3757394  60.4431513  67.5103936
  18.7960797  59.9185523  67.4601890  16.6252427  47.5073960  64.7314640
  16.2955757  47.9585103  64.0618339  15.9497429  47.4290123  65.2787647
  16.4762863  47.5625095  64.7137864  22.2422836  56.8779189  57.5903926
  22.1574131  57.7340156  57.7353495  22.7307219  56.6023514  58.2586085
  22.3011733  56.9636511  57.7106008  23.8328835  43.4959483  62.9764251
  23.5182276  44.1862961  63.4084673  23.3155777  43.4404265  62.2749752
  23.7093305  43.5894371  62.9361200  23.1741269  53.4963984  59.0901661
  22.6452740  53.7123617  59.7498968  23.6966289  54.1900122  59.0102631
  23.1729722  53.6307121  59.1757261  28.6289322  59.0710288  64.4634706
  27.7987025  59.2820932  64.6268122  28.5798574  58.2447343  64.1876989
  28.4996057  58.9799894  64.4472071  15.0640877  57.3927200  57.8909129
  14.4798092  57.8977232  58.2974993  14.6610972  57.1669587  57.1505721
  14.9180180  57.4335449  57.8414155  10.6184905  63.1081962  64.6932801
  10.1352483  63.8332451  64.6692385  11.4308223  63.4058092  64.8042959
  10.6675653  63.2584315  64.7060080  16.6899059  61.9014142  67.2982615
  16.1726001  61.5421557  66.6943923  17.3873450  61.3776317  67.3088682
  16.7164640  61.7711830  67.2112874  20.3462651  62.3508956  73.2598788
  20.4345997  62.1635097  74.1076999  20.7752364  61.7046386  72.8603635
  20.4224754  62.2271964  73.3270540  19.5218091  53.6392852  56.3678050
  19.7614095  53.8470836  55.5553393  19.8433932  52.8350361  56.4766995
  19.6055249  53.5506954  56.2638603  14.8308381  45.5686248  60.2137588
  15.5854349  45.9364565  59.9754638  14.6535916  45.9425803  60.9816768
  14.9162860  45.6784436  60.2922476  13.4729102  63.6238137  64.8453081
  14.1749682  63.1090127  64.9025837  13.3926585  63.9512289  65.6499956
  13.5652863  63.5952364  64.9725873  28.1243280  51.7180689  68.2585127
  27.2871701  51.7882876  68.4932722  28.0931511  51.7205184  67.3859430
  27.9961562  51.7290916  68.1644675  14.5208009  53.8613724  73.9733496
  14.6928513  53.7519619  74.8218777  15.0577366  54.5068130  73.7364688
  14.6253013  53.9405726  74.0638593  13.1865446  47.9756567  56.9115701
  13.0041019  48.1928448  56.0856694  14.0491059  48.0895580  56.9674315
  13.2870035  48.0246465  56.7970188  12.7979878  59.8144489  64.3538689
  13.6368777  60.0467422  64.4012450  12.8291647  58.9448801  64.2845724
  12.9261595  59.7201436  64.3503334  13.4232581  60.2345365  68.6551994
  13.9630806  60.0916496  69.3255367  12.7402527  60.6342115  69.0236021
  13.4024735  60.2725036  68.8086416  18.8665165  44.9782978  59.9464725
  19.5951325  44.7998933  59.5002881  18.9560058  45.8201058  60.1571903
  18.9871827  45.0766856  59.9118242  22.8473466  55.9136365  63.8497019
  23.6030981  56.3467880  63.8885927  22.9535790  55.2641135  64.4231655
  22.9743636  55.8813849  63.9395044  25.8853637  59.7409643  64.5999422
  25.4488869  59.7446385  65.3558393  25.5516552  60.4215142  64.1678999
  25.7716257  59.8422098  64.6480254  25.8051120  46.7823470  66.8428850
  26.4477028  46.8521575  67.4290765  26.0574140  46.1152693  66.3408392
  25.9373252  46.6949819  66.8556129  12.7327473  51.2530740  55.4238174
  12.0185650  50.9668919  55.8360606  13.2171442  51.5927366  56.0644561
  12.6986836  51.2612390  55.5793809  13.5768332  49.9924034  71.4553424
  12.8840129  49.5221013  71.7014155  14.1928660  49.7662338  72.0295131
  13.5652862  49.8891166  71.5762576  20.6153104  63.6928077  69.5709028
  19.8168350  63.4527577  69.8282896  21.0639115  63.7442470  70.3176075
  20.5627715  63.6650469  69.7193952  29.0197983  56.4590562  63.4919059
  29.6814417  55.8981231  63.3914967  28.3789395  55.9642593  63.8171750
  29.0226851  56.3026971  63.5251399  19.9074791  59.7560694  55.7999982
  20.3225939  59.4245718  55.1084478  19.0766720  59.5229596  55.6720119
  19.8462800  59.6731950  55.6790830   9.2363140  57.2404435  66.0898160
   9.0538713  57.2151321  65.2370452   9.9712808  57.7103373  66.1287069
   9.3177203  57.3065797  65.9696079  25.3062814  57.4755945  63.2331048
  25.5418403  57.6201144  62.4057898  25.4552377  58.2398353  63.6262561
  25.3628617  57.6094999  63.1694652  12.3008891  53.9589438  72.5980269
  13.0248864  53.9442468  73.0845164  12.4025028  54.6684793  72.1002237
  12.4227100  54.0614141  72.5959056  27.1353270  56.3157611  61.0700652
  27.4661488  56.8485251  60.4640746  27.7086359  56.3696499  61.7262602
  27.2686950  56.4027180  61.0778433  22.3485160  54.1622513  61.7524232
  22.4432014  54.9011808  62.2063857  21.7244003  53.7339989  62.1858796
  22.2694190  54.2083834  61.8832379  20.6037633  57.3408726  72.4014512
  21.1776495  56.7035970  72.5563076  20.5252437  57.3412808  71.5324170
  20.6770868  57.2473837  72.2960923   9.2034050  54.1197936  66.2397227
   9.7807553  53.9834386  66.8789472   8.5048112  53.6633720  66.4942811
   9.1855071  54.0320202  66.3719516  22.6008181  56.0071253  54.9861184
  22.5188343  56.0773440  55.8516171  23.2387901  56.5700997  54.7944924
  22.6828018  56.1010224  55.0851133  15.9601352  55.7731991  64.4535710
  15.7020596  54.9403726  64.4267009  16.0149835  55.9989604  63.6128210
  15.9301130  55.6829762  64.3255847  21.0402402  47.8760442  64.5539803
  20.3358729  47.3869627  64.7123722  21.0887377  47.8882916  63.6828247
  20.9432454  47.8050090  64.4479142  14.9336064  53.3269754  64.9400605
  14.3585655  53.4861922  65.5764566  14.5571741  52.6905163  64.4769055
  14.7938877  53.2567567  64.9655163  18.6009353  51.7993103  69.7992983
  18.2123786  51.3747321  69.1445174  17.9364051  52.0475253  70.3070010
  18.4456281  51.7731824  69.7780851  28.2432622  51.5568108  62.5740813
  27.9869187  50.7448049  62.3838696  29.0861936  51.5645675  62.3471000
  28.3298647  51.4380105  62.5125630   4.6792883  52.9709828  62.9545045
   4.7653135  52.5941697  63.7358575   5.3068681  52.5970274  62.4765004
   4.7849434  52.8595311  62.9990523  22.4235714  45.4967732  67.3116967
  22.8046226  44.8145903  67.6984842  21.6198999  45.2077334  67.1292632
  22.3612176  45.3534780  67.3421023  19.7048291  56.0291708  57.9969790
  20.5188930  56.3206600  57.8852561  19.6407432  55.3751570  57.4228083
  19.8151030  55.9756902  57.8958627  25.9257781  58.7117704  72.4099366
  25.6896419  57.8805768  72.2911426  26.5701010  58.6603311  72.9954210
  25.9852452  58.5815392  72.4785259  15.5756199  59.5013225  63.1242102
  16.2130146  59.2624973  63.6693896  16.0011271  59.7050384  62.3895263
  15.7332366  59.4964235  63.0959259  16.2159014  54.7215515  57.4616992
  16.6004167  54.5023221  58.2133537  15.9670635  55.5478460  57.5918068
  16.2361087  54.8113661  57.5918068  16.3827555  48.0021930  77.1779576
  16.0680996  48.7721493  76.9149138  16.0617487  47.4392186  76.5931803
  16.2886474  48.0332199  77.0520926  26.9494202  58.4962152  68.4727660
  26.6440019  59.2290209  68.8340976  26.2300418  58.0900082  68.1920446
  26.7981544  58.5443885  68.4840797  17.9577671  59.9785648  64.8035888
  18.0316680  59.8160819  65.6577738  18.7747178  60.1675837  64.5596370
  18.0894030  59.9822390  64.8933914  32.6495994  55.1355153  67.7996004
  32.5820494  55.1551112  66.9298591  32.6351656  55.9785480  68.0251675
  32.6374751  55.2628888  67.7048481  11.7183428  60.3243510  61.8330332
  10.8921546  60.5705248  61.7064611  11.7795419  60.2455591  62.6992390
  11.6057595  60.3488459  61.9419276  13.9359452  46.3912451  62.7925772
  13.0681877  46.4635051  62.8583381  14.2234656  47.1934530  62.9813747
  13.8499200  46.5206599  62.8300539  23.0592341  46.5390311  71.1237094
  23.8045933  46.3500121  70.7100519  22.6429645  47.0648549  70.5650950
  23.1077315  46.5892456  70.9801667  16.4982257  62.9420391  59.5349362
  16.7880555  62.5509372  58.8108588  17.2285738  63.1237096  59.9754637
  16.6489141  62.9114204  59.4932169  30.4354611  53.9099539  66.0742599
  30.9862533  53.2767608  66.3139691  30.4198727  54.4414932  66.7658103
  30.5139808  53.8948487  66.2121457  17.0877002  57.7438137  70.6202492
  16.5888696  58.4553904  70.6987381  17.8977227  58.0638803  70.5820655
  17.1333109  57.8964985  70.6259061  14.4388173  64.9187773  62.6009512
  14.2188468  64.6285128  63.3936179  14.2182695  64.2602728  62.0727424
  14.3735767  64.7787481  62.6398420  13.3505120  57.0061090  64.8665213
  13.0618368  56.3798561  65.4010941  14.2188468  56.9481377  64.9329894
  13.4365372  56.9048634  64.9556168  24.1383018  52.1495873  65.1847195
  23.7947783  51.4286208  65.5354445  24.2376060  51.9409724  64.3425553
  24.1025060  52.0120076  65.1118875  16.6056128  66.2917163  61.3840204
  17.2580186  65.7593605  61.6131230  15.9081737  65.9385815  61.7708078
  16.5986846  66.1606686  61.4752372  13.5537393  58.6456341  60.7907578
  14.3083361  59.0269380  61.0043041  12.9608006  59.0967484  61.2454275
  13.5774107  58.7685168  60.8890457  16.0144060  50.6019181  75.9164791
  15.2043836  50.9076961  75.8054633  16.4918747  51.3224763  76.0317375
  15.9647539  50.7533782  75.9171862  14.8735620  59.8164902  66.1647694
  14.3516373  59.9565194  66.8499558  15.2609640  59.0575566  66.3549811
  14.8539321  59.7250426  66.2948770  11.8626804  49.8670711  60.2342648
  11.5751600  49.4971981  59.4974596  12.5497272  50.3365566  59.9726353
  11.9215701  49.8817680  60.0857724  21.0702625  61.5560361  60.1508262
  20.8289301  60.8228222  59.7435327  21.2503958  62.1047218  59.4974596
  21.0610249  61.5282752  59.9938485  16.3001945  56.8468921  61.5629185
  16.1044728  57.4543656  60.9689488  16.5236291  56.1536865  61.0820859
  16.3036586  56.8346447  61.4045266  14.6980475  53.7323659  61.6810053
  15.4203127  53.8964817  61.2213859  14.2188468  54.4533324  61.5749393
  14.7344206  53.8621889  61.5975667  22.6573983  50.0687458  67.0606738
  21.8185084  50.0948737  66.8245001  22.7278350  50.7158193  67.6412085
  22.5442377  50.1683584  67.1115855  21.1043261  46.9672835  61.7934354
  21.8069614  46.7680583  61.3154312  20.8387450  46.1948777  62.1003197
  21.1689894  46.8235801  61.7679796  26.5331507  55.2755445  64.3467980
  26.4465481  55.4310871  65.2002759  26.0781987  55.9193520  63.9727385
  26.4534763  55.3931200  64.4175087   9.4354998  50.6451923  61.0827929
   9.5371135  51.4478085  61.4108905  10.2310885  50.4439259  60.7851010
   9.5682904  50.7337822  61.0863285  15.8671818  48.2308120  70.8465235
  15.6755015  48.2463254  71.6964658  16.7170413  48.4271794  70.8231889
  15.9647539  48.2622471  70.9688529  10.2518731  50.7599101  68.8249051
  10.1104222  49.9083042  68.9493559  10.5359294  50.8027762  68.0011257
  10.2726577  50.6398851  68.7216675  20.4057323  52.5966192  62.9693539
  20.1592037  52.5161943  63.8030328  20.7342446  51.8119659  62.7756067
  20.4178566  52.4692457  63.0641062  24.3005372  59.3049551  66.7580321
  24.1619731  60.0030597  67.2629063  23.5205370  59.1498207  66.4016502
  24.1648599  59.3849718  66.7806595  22.6383457  55.6045926  73.0102702
  22.6331495  54.7325743  73.0145129  23.3444451  55.8034095  72.5372158
  22.7428461  55.5049800  72.9409738  16.3654350  55.3322910  72.3816522
  16.5097726  55.9124118  71.7459632  16.7129999  55.7099207  73.0866377
  16.4381812  55.4743614  72.3915517  18.5374268  54.5313079  70.1641654
  17.7897582  54.7244093  69.7589932  18.6915793  53.7058298  69.9265775
  18.4496695  54.4378190  70.0687060  15.4382105  63.5225682  69.2477549
  15.5871669  62.9628598  68.5950954  16.2182107  63.6017684  69.6310068
  15.5756199  63.4511247  69.2074498  25.7958745  58.6627805  57.5196820
  25.4165553  57.8764943  57.5126109  25.1324990  59.2114662  57.3768464
  25.6417219  58.6272629  57.4977617  17.9635406  63.6940325  70.5262040
  17.8879077  63.0249135  71.0812828  17.8925265  64.3958113  71.0402706
  17.9416013  63.6985232  70.6838888  18.7776045  48.4263629  71.0537058
  19.2348659  49.1587604  71.1809850  18.8532373  48.0030095  71.8124313
  18.8567014  48.4720867  71.1838134  11.0209036  48.6729449  72.1426501
  10.4851225  48.0609807  72.4587269  11.0826801  49.2477585  72.7960168
  10.9504668  48.6676377  72.2861928  23.2503371  41.6053504  64.9230901
  23.3686939  42.0629968  64.1898203  23.0765546  40.7998766  64.6367118
  23.2422541  41.5547277  64.7731834  18.6205653  62.2141324  61.3585646
  19.3855544  61.9450967  61.0368310  18.5183743  61.7291334  62.0755709
  18.7187148  62.1030888  61.4165474  16.6558422  50.4165733  67.8978882
  15.8654497  50.2357193  68.2196217  17.0519045  49.6392686  67.8809176
  16.5975299  50.2753194  67.9431430  21.1424313  59.2453508  53.3385595
  21.9097298  59.3053632  52.9291447  20.6955622  58.6733949  52.8541914
  21.1897741  59.1690083  53.2063306  22.0402109  58.0508163  65.6238328
  21.3647111  57.8193396  66.1251715  22.0494485  57.4429346  64.9980433
  21.9420613  57.9267089  65.6054480  19.1696253  52.8925992  72.3802381
  19.1055394  53.7535949  72.2522517  19.3093441  52.5757986  71.5797932
  19.1811723  52.9726159  72.2430593  24.0418843  60.9073296  57.8548506
  24.1238681  61.7140282  57.5309956  24.5268586  60.9269255  58.5789279
  24.1256001  61.0293958  57.9135404  17.8515347  55.5858132  66.5218584
  17.4277596  55.7862631  65.7857602  17.6760202  54.7386980  66.6342883
  17.7626227  55.4906913  66.4292274  13.1397792  56.0810183  61.9546556
  13.2962411  56.0156986  62.8102548  13.4798385  56.8558736  61.7425236
  13.2131026  56.1859381  62.0501150  19.6776936  55.4568067  60.8239919
  20.2192482  54.9538448  61.2878540  19.9923495  55.4033261  60.0129405
  19.8041333  55.3747488  60.7723731  23.5494044  59.6670714  77.9366831
  24.3628909  59.3955863  78.0971964  23.3889010  59.3678254  77.1327027
  23.6463992  59.5825640  77.8412237  17.8463386  60.8485418  58.1079947
  17.9156206  59.9899957  58.2472948  18.6251841  61.0657299  57.7798972
  17.9716236  60.7538282  58.0797105  20.8266206  50.3504371  70.8762220
  21.0408175  49.7115285  70.3225574  20.2100105  50.7950195  70.4470081
  20.7671535  50.3214515  70.7312651  22.2370874  63.2723120  62.3216441
  21.8450665  62.9689835  61.6039307  22.3923946  64.1092209  62.1321394
  22.2024463  63.3506956  62.1872938   9.7132053  53.2645134  62.2707323
  10.0931018  53.6829679  61.6067591   9.1387418  53.8458589  62.5776167
   9.6843378  53.4122992  62.2184064  22.9905294  51.9593436  71.8145527
  22.1781975  51.6519327  71.8958700  23.4495228  51.4792437  72.3788239
  22.9385678  51.8429929  71.9100121  22.4010548  59.8373108  62.2622471
  22.0425203  60.0087751  63.0386504  21.9149259  60.2986314  61.7050470
  22.2769245  59.9312079  62.2947740  20.2180934  43.4604307  65.8649563
  19.3474492  43.4343028  65.8182872  20.4721276  43.2881499  65.0475408
  20.1274494  43.4314451  65.7369699  17.1898914  55.5172274  54.8022706
  17.4791439  56.2937156  55.0766280  17.2770713  55.0061005  55.5037205
  17.2453170  55.5564192  54.9465203  20.0858801  53.3653508  76.5974229
  20.5558432  53.9895624  76.9842103  20.1320681  52.6970483  77.1567444
  20.1626677  53.3588188  76.7374301  17.2430075  45.4710535  67.3223033
  16.7268563  44.7790727  67.4474612  16.6824004  46.1381312  67.2685632
  17.0836588  45.4673793  67.3329099  19.3122308  46.0103495  69.1515885
  18.9254061  46.0352527  69.9329415  18.8255246  45.4445174  68.6990402
  19.1834817  45.9299246  69.2003789  23.5615288  60.7277004  73.2089672
  24.1995008  60.2337200  72.8752128  22.9189379  60.6554405  72.6241899
  23.5609514  60.6436013  73.0732027  25.2872288  52.5766150  67.7755588
  24.8599896  52.4892499  67.0203687  24.6498341  52.6843926  68.3610432
  25.1301895  52.5798810  67.7501029  18.9779450  42.8970481  71.4426145
  19.6072568  43.4330781  71.1647216  19.1465313  42.8047840  72.2939711
  19.0957245  42.9631843  71.5274674  18.7793365  47.6841676  73.7152557
  19.6066794  47.4126824  73.7711171  18.8001211  48.4802517  74.0716375
  18.9046215  47.7621430  73.7767740  23.6169544  61.4196813  69.8495029
  24.4061922  61.0685877  69.9697110  23.7913142  62.2333201  69.5871663
  23.7589826  61.4882670  69.8282897  13.3562855  54.8305538  66.9022818
  12.5150861  54.7309412  67.1101711  13.5652863  55.6001019  67.2537138
  13.2627547  54.9297582  66.9850133  10.8338422  52.4525075  64.7307568
  10.4395119  52.5268087  63.9557678  10.2778538  52.8383022  65.2815930
  10.6941234  52.5206850  64.6975228  22.4703368  45.4306369  64.4111447
  22.6752962  45.3628677  65.2568444  22.1429792  46.2365191  64.3432625
  22.4518616  45.5392310  64.5271102  17.1679520  52.7586938  66.1520415
  16.8642657  52.2042926  66.7530823  16.4658940  52.9379147  65.6648449
  17.0195729  52.7031720  66.1690121  16.2245617  50.0687457  60.7165117
  16.5005351  49.3506370  60.3042685  16.8244286  50.6672377  60.5086223
  16.3538881  50.0507828  60.6245878  25.7237056  45.9838134  63.8914213
  25.1111370  46.4708536  64.2767944  25.8201231  45.3081624  64.4351864
  25.6474954  45.9556442  64.0293071  19.7256137  47.7400975  58.9911712
  20.1799884  47.9111535  59.7159557  20.1996183  47.1269085  58.5909488
  19.8624457  47.6751860  59.0385474  13.2471663  57.2249301  68.3214451
  12.6559596  57.8658799  68.2917466  14.0092686  57.6486918  68.2945750
  13.2719923  57.3825139  68.3129598  13.6432285  48.3851298  68.9882468
  14.1033767  48.4590228  69.7257592  13.6888392  49.1832552  68.6382289
  13.7182841  48.5145445  69.0455225  15.2915635  49.0517993  73.5554495
  14.9001200  48.4051340  73.9910273  15.4601498  49.6429429  74.1748751
  15.2586545  49.0432261  73.7117201  29.3662084  57.0555070  69.3191729
  29.4245208  57.5041719  70.0651705  28.7328552  57.4653883  68.8821809
  29.2813379  57.1828805  69.3644277  23.0061179  62.6758612  65.7546475
  22.8080867  63.1649427  65.0602686  22.3848890  62.8799854  66.3330608
  22.8848743  62.7775150  65.7369698  17.0669157  54.4443509  60.0956719
  17.8111202  54.8317785  60.3339669  17.2129853  53.6000934  60.2597207
  17.1979742  54.3773982  60.1550689  18.9848733  46.2393768  65.1288581
  18.1384778  46.4116576  65.0029930  18.9819865  45.4343112  65.4654409
  18.8595883  46.1454797  65.1599708  20.0547033  50.0168982  65.9950639
  19.5806987  49.4910744  66.5055950  20.4265169  49.4698455  65.4265500
  20.0396922  49.8584979  65.9865786  10.4320063  52.0140489  71.3634184
  11.2945676  51.9136198  71.2771514  10.1011846  51.4335198  70.8019757
  10.5105260  51.9132116  71.2679590  26.3183764  55.0771358  67.4057419
  26.0781986  54.2377773  67.4099846  26.7975771  55.1571525  68.1298193
  26.3535947  54.9652758  67.5132221  21.9830533  50.9105537  59.0576392
  21.4553551  50.9934281  58.3682101  22.4426241  51.6523408  59.0541037
  21.9732383  51.0326199  58.9551088  28.3188951  51.8572815  65.3586678
  28.0798721  51.8168649  64.5207463  28.4822852  52.7043967  65.4852399
  28.3079254  51.9764900  65.2540160  24.9234981  56.2422764  71.2891723
  25.6469180  55.7895291  71.1102743  24.6584943  56.5227430  70.5064051
  24.9916254  56.2173733  71.1470439  13.7921849  50.8382938  68.0244603
  13.1674919  50.8501330  67.4170555  13.4567444  51.3143113  68.6735843
  13.6507341  50.9101455  68.0301171  13.9763598  49.1808057  54.0817288
  13.6276402  49.8327782  54.5448837  13.4960044  49.1665170  53.3541159
  13.8533842  49.2751110  54.0428379  21.5367615  59.4809100  58.1886049
  22.2601814  59.9467213  58.0450623  21.0968206  59.5482710  57.4383646
  21.5783307  59.5592937  58.0570831  20.7053770  56.3406643  69.4386738
  20.0910763  55.7964693  69.7335374  21.2221055  55.8270879  68.9592555
  20.6909433  56.1843052  69.4110967  19.9450067  57.4110913  67.1731037
  19.5177675  56.7860631  66.7396472  19.9375012  57.1285835  67.9990044
  19.8809209  57.2763693  67.2310865  13.0612594  52.4476086  70.2419471
  13.2206081  51.6919410  70.6471193  12.8805488  52.9967025  70.8960209
  13.0577953  52.4169900  70.3982177  21.0032897  44.6137321  70.7970261
  20.5073459  44.8100996  70.1061827  21.7601960  45.0129990  70.6259062
  21.0419722  44.7015055  70.6690397  18.2735777  48.2879667  67.3873571
  18.2978264  47.7539780  66.6986351  18.5247251  47.7796976  68.0499162
  18.3145696  48.1340571  67.3838216  14.5537099  47.0150486  66.7679315
  14.5935471  47.5159692  67.4814023  13.7286764  47.1060879  66.4985238
  14.4376625  47.1032302  66.8329854  15.9751463  53.5310995  69.0653214
  15.1443392  53.6984813  68.8588462  15.9202980  53.1546946  69.8502100
  15.8440878  53.5000727  69.1501743  13.7835246  47.0219888  74.7009625
  14.4087949  46.4782021  74.9739057  13.3285726  46.5414806  74.1317415
  13.8083507  46.8709370  74.6571219  14.3487507  51.8066587  59.5943332
  14.4890468  52.3039051  60.2971973  14.8470039  51.1052881  59.7357546
  14.4428587  51.7768566  59.7194911  14.3787729  52.6733698  56.9235909
  15.0132808  53.2694123  56.8585371  14.4613340  52.3737156  57.7381779
  14.4844280  52.7174606  57.0338995  27.3570295  55.2049175  69.7922273
  27.9488135  55.8446426  69.8240471  27.7929289  54.5072212  70.0814340
  27.5088726  55.1967526  69.8403106  15.9566712  48.6047673  56.8981351
  16.2782553  48.1250756  56.2440613  16.2193656  49.4147319  56.7072163
  16.0432737  48.6537571  56.7736843  19.1863685  59.6266548  70.4180167
  18.6788776  60.1802395  70.8620797  18.8890331  59.6874838  69.5998942
  19.0668569  59.7172859  70.3628624  21.3525867  47.9919867  69.2604830
  21.7780938  47.5392394  68.6488356  20.7382860  47.4379938  69.5369617
  21.3254512  47.8433844  69.2109855  10.8840717  54.8701539  60.1925455
  11.3932946  55.4666046  60.5736760  11.3574989  54.6027512  59.5101875
  11.0284092  54.9187354  60.1479978  21.7971465  63.5429805  58.3484111
  21.0800775  63.3690668  57.8831348  22.4478202  63.3082378  57.8159597
  21.7873315  63.4825598  58.2013328  19.7920090  44.4634967  62.6695407
  19.1488408  44.3132613  63.2380545  19.4519497  44.2177312  61.9044512
  19.6465167  44.4047090  62.6398422  24.3819436  52.4194394  62.0925416
  23.7110626  52.9624096  61.9638481  25.0759186  52.8889249  61.8507110
  24.3848304  52.5692665  62.0380943  18.4306170  64.5591106  67.3237174
  18.2071824  63.8009935  67.6921200  17.9416013  64.5889127  66.6017614
  18.3249619  64.4513330  67.2713915  24.5447564  48.8750278  65.0015789
  24.8975174  48.4480000  65.6761588  23.6862365  48.7901121  65.1316865
  24.4697008  48.7995018  65.1210799  13.2431249  51.5057797  63.0598635
  12.5243238  51.9221930  63.3271499  13.6143611  52.0712036  62.5090274
  13.1923180  51.6507079  63.0181442  22.5430829  52.1385646  68.9500631
  22.5228757  51.9568941  69.8035410  22.5910030  53.0097665  68.9260215
  22.5465470  52.2402184  69.0723926  20.4877159  58.7272838  74.8749108
  20.4473014  58.0822515  74.2894263  21.3000477  58.6709456  75.1874520
  20.6020313  58.6231805  74.8346057  17.0784627  64.7791564  64.7774259
  16.6645025  64.1165694  64.3878100  17.7632001  64.9269423  64.2569953
  17.1182998  64.7032222  64.6430756  20.4449921  63.9381649  65.5297875
  20.0466204  64.0483920  64.7618695  19.8301140  64.1463716  66.1124435
  20.2948810  63.9855217  65.5029174  19.0177823  50.5455797  58.3972015
  18.4242662  50.8672794  57.8456582  19.0553101  49.6996893  58.1893121
  18.9352212  50.4680125  58.2854786  25.9771624  43.9968689  65.9300101
  25.4702488  43.2897829  65.8621279  26.7739057  43.6661878  66.0601178
  26.0198863  43.8441841  65.9399096  21.8935639  50.5035302  61.8273765
  21.6649332  50.5268003  60.9852123  22.1533716  49.6792769  61.9468776
  21.8981828  50.3851382  61.7198963  16.1754868  52.3569775  71.4298865
  15.6633771  51.7490958  71.7883897  16.0034364  53.0726367  71.8972841
  16.0744505  52.3733074  71.5515089  14.9480402  49.0411848  63.1227961
  15.4237768  49.4028928  62.4878142  14.4469002  49.6968316  63.4028103
  14.9445761  49.1906037  63.0704702  28.1791764  58.5133616  58.9140966
  28.5625369  59.2624972  59.1439063  27.3835877  58.7599436  58.6552955
  28.1185546  58.6603310  58.9098539  20.0523938  50.2794019  73.8701121
  20.6095368  50.0507829  73.2379586  19.7285003  51.0399685  73.5936333
  20.0870348  50.3577856  73.7357618  17.7707056  53.3661673  74.8353128
  18.5218382  53.6813349  75.1492682  17.9629632  53.1640844  74.0087050
  17.9098470  53.3829054  74.7596524  16.9907055  51.1853048  56.4901345
  17.3706020  51.2032677  55.7052459  16.2499651  51.6307037  56.3692192
  16.9375893  51.2534822  56.3564913  24.6192346  49.4935239  62.0776923
  24.6186572  49.3383896  62.9361200  24.4148526  50.3398226  62.0218309
  24.5892124  49.5955860  62.1964863   6.6809617  52.9175023  66.4935740
   6.5031378  52.4651632  67.2190655   6.3928639  53.7201185  66.6774217
   6.6122570  52.9697581  66.6279243  22.3433198  54.1732741  65.7313130
  22.8386863  53.4555736  65.6917151  21.5332973  53.8703538  65.6167617
  22.2977091  54.0230387  65.7086856  17.7891809  58.0230554  57.8810135
  16.9803132  57.6997228  57.8343444  18.2966718  57.3163776  57.8138383
  17.7441476  57.8711870  57.8640429   8.4182086  55.4502747  63.6057499
   7.5527606  55.4388438  63.4940270   8.5180902  55.2632970  64.4528638
   8.3056253  55.4208808  63.7146443  24.4085017  56.9236428  68.4190259
  24.8340088  56.4010850  67.8660684  24.0441936  57.5217266  67.8978882
  24.4171619  56.9346655  68.2599269  14.0439096  65.2200646  67.1787604
  14.3585655  66.0337034  67.1865386  14.4532510  64.8350864  67.8469764
  14.1507194  65.2829348  67.2791696  20.9963616  60.6370693  64.7491416
  21.4674794  61.3510955  64.9181402  21.3323795  60.0369443  65.2851286
  21.1158731  60.6542157  64.8523792  17.9133111  45.4098163  71.7049511
  18.0461017  44.6129157  72.0330487  18.2978264  45.9364566  72.2847787
  17.9889440  45.3698080  71.8393014  21.6337562  60.4288627  71.5119109
  21.0858508  59.8046510  71.2439174  22.0950591  60.6182899  70.7963188
  21.6204772  60.3647677  71.3669540  20.9865466  42.3328489  68.3030605
  20.1811430  42.2226219  68.6198443  20.8572202  42.4340945  67.4460470
  20.8485599  42.3312159  68.2238645  24.4431427  48.4973981  68.8970301
  23.8594416  48.9983188  68.4847869  24.7635721  47.9903537  68.2634625
  24.4044602  48.4965816  68.7428809  16.9826226  47.4114576  59.1728976
  17.8041920  47.5812889  58.9310671  16.5195877  47.5661837  58.4495274
  17.0357388  47.4596309  59.0300621  15.5721558  45.4057338  69.9527405
  16.1165971  45.0648465  70.5431747  15.6258493  46.2642800  70.0948690
  15.6610677  45.4812598  70.0609278  11.3852117  59.1673754  66.8266213
  11.9896974  59.1269588  66.1980034  11.1779429  60.0144906  66.8570269
  11.4441014  59.2861757  66.7382329  21.1995889  61.4339699  68.0428450
  22.0194262  61.2902665  68.3044745  20.9189966  62.0585898  68.5844888
  21.2792632  61.5050051  68.1616390  37.6709539  69.0904551  61.0071327
  37.6403543  69.9449188  61.1789596  38.2690888  68.7899844  61.5657470
  37.7546697  69.1721048  61.1146129  30.8709224  68.1780202  65.7624257
  30.0147119  68.3388700  65.8133374  30.9176878  67.3072266  65.7829318
  30.7508335  68.0731004  65.7730323  33.7161045  70.2372246  68.4055909
  34.2617005  70.9157333  68.4649878  33.6577921  70.0959707  67.5457490
  33.7876959  70.3164248  68.2867969  35.4926114  71.6656853  59.2789636
  35.3765639  72.4164539  59.7081775  36.2882000  71.4080806  59.5285724
  35.5930703  71.7391700  59.3793728  20.0300164  73.7481599  63.4176595
  19.7950348  72.9149251  63.3108864  20.1685805  74.0286264  62.6037796
  20.0155826  73.6665102  63.2818950  22.3290251  65.9167329  66.3160902
  21.7095283  65.3259977  66.1470917  22.2274115  66.5078765  65.6825226
  22.2227927  65.9171412  66.1965892  27.3756439  75.6550876  60.5658979
  27.6972280  76.1956083  59.9620287  28.0228536  75.0847648  60.6981269
  27.5182494  75.6510051  60.4966014  29.4258147  67.6566871  60.6493366
  30.1238312  67.8354999  61.1414829  29.7410480  67.1337210  60.0263755
  29.5753484  67.6060643  60.6295376  22.0559385  69.4619611  68.5604471
  21.9318081  70.0482056  69.1954290  22.7077669  68.9679807  68.8616746
  22.1333034  69.4758415  68.6990401  29.6146082  74.0437316  60.6373157
  30.0539718  73.4354417  61.0827930  29.4650745  73.6644689  59.8658622
  29.6567548  73.8975787  60.5892324  27.0817726  72.6381328  67.8391983
  27.7266728  72.1453771  67.5202931  27.3219503  72.7806115  68.6658061
  27.2128311  72.5858770  67.9141516  29.6203817  75.4836234  67.4898875
  29.9027060  74.6887640  67.2685631  30.3489977  75.9616821  67.5103936
  29.7693381  75.4370831  67.4601890  27.5985011  63.0259268  64.7314640
  27.2688341  63.4770411  64.0618339  26.9230013  62.9475431  65.2787647
  27.4495447  63.0810403  64.7137864  33.2155419  72.3964497  57.5903926
  33.1306714  73.2525464  57.7353495  33.7039802  72.1208821  58.2586085
  33.2744316  72.4821819  57.7106008  34.8061418  59.0144791  62.9764251
  34.4914859  59.7048269  63.4084673  34.2888360  58.9589573  62.2749752
  34.6825889  59.1079679  62.9361200  34.1473852  69.0149292  59.0901661
  33.6185324  69.2308925  59.7498968  34.6698872  69.7085430  59.0102631
  34.1462305  69.1492428  59.1757261  39.6021905  74.5895596  64.4634706
  38.7719608  74.8006240  64.6268122  39.5531158  73.7632651  64.1876989
  39.4728641  74.4985202  64.4472071  26.0373460  72.9112508  57.8909129
  25.4530675  73.4162540  58.2974993  25.6343555  72.6854895  57.1505721
  25.8912764  72.9520757  57.8414155  30.4950675  69.1578160  56.3678050
  30.7346678  69.3656144  55.5553393  30.8166515  68.3535669  56.4766995
  30.5787832  69.0692262  56.2638603  25.8040965  61.0871556  60.2137588
  26.5586933  61.4549873  59.9754638  25.6268499  61.4611111  60.9816768
  25.8895443  61.1969744  60.2922476  39.0975863  67.2365997  68.2585127
  38.2604285  67.3068184  68.4932722  39.0664094  67.2390492  67.3859430
  38.9694146  67.2476224  68.1644675  25.4940593  69.3799032  73.9733496
  25.6661096  69.2704927  74.8218777  26.0309950  70.0253438  73.7364688
  25.5985597  69.4591034  74.0638593  24.1598029  63.4941875  56.9115701
  23.9773603  63.7113756  56.0856694  25.0223642  63.6080888  56.9674315
  24.2602619  63.5431773  56.7970188  23.7712461  75.3329797  64.3538689
  24.6101361  75.5652730  64.4012450  23.8024231  74.4634109  64.2845724
  23.8994179  75.2386744  64.3503334  29.8397749  60.4968286  59.9464725
  30.5683909  60.3184241  59.5002881  29.9292642  61.3386366  60.1571903
  29.9604411  60.5952164  59.9118242  33.8206049  71.4321673  63.8497019
  34.5763564  71.8653188  63.8885927  33.9268374  70.7826443  64.4231655
  33.9476220  71.3999157  63.9395044  36.8586220  75.2594950  64.5999422
  36.4221452  75.2631693  65.3558393  36.5249136  75.9400449  64.1678999
  36.7448840  75.3607406  64.6480254  36.7783703  62.3008778  66.8428850
  37.4209612  62.3706883  67.4290765  37.0306724  61.6338001  66.3408392
  36.9105835  62.2135127  66.8556129  23.7060056  66.7716048  55.4238174
  22.9918234  66.4854227  55.8360606  24.1904025  67.1112674  56.0644561
  23.6719420  66.7797697  55.5793809  24.5500916  65.5109342  71.4553424
  23.8572713  65.0406321  71.7014155  25.1661243  65.2847646  72.0295131
  24.5385446  65.4076473  71.5762576  39.9930567  71.9775870  63.4919059
  40.6547001  71.4166539  63.3914967  39.3521979  71.4827901  63.8171750
  39.9959434  71.8212279  63.5251399  30.8807374  75.2746002  55.7999982
  31.2958523  74.9431026  55.1084478  30.0499304  75.0414904  55.6720119
  30.8195383  75.1917258  55.6790830  20.2095723  72.7589743  66.0898160
  20.0271296  72.7336629  65.2370452  20.9445392  73.2288681  66.1287069
  20.2909787  72.8251105  65.9696079  36.2795397  72.9941253  63.2331048
  36.5150987  73.1386452  62.4057898  36.4284961  73.7583661  63.6262561
  36.3361201  73.1280307  63.1694652  23.2741475  69.4774746  72.5980269
  23.9981447  69.4627776  73.0845164  23.3757611  70.1870101  72.1002237
  23.3959684  69.5799449  72.5959056  38.1085854  71.8342919  61.0700652
  38.4394071  72.3670559  60.4640746  38.6818942  71.8881806  61.7262602
  38.2419533  71.9212488  61.0778433  33.3217743  69.6807821  61.7524232
  33.4164598  70.4197115  62.2063857  32.6976587  69.2525297  62.1858796
  33.2426773  69.7269142  61.8832379  20.1766633  69.6383243  66.2397227
  20.7540136  69.5019694  66.8789472  19.4780695  69.1819028  66.4942811
  20.1587655  69.5505510  66.3719516  33.5740764  71.5256561  54.9861184
  33.4920927  71.5958748  55.8516171  34.2120485  72.0886305  54.7944924
  33.6560602  71.6195532  55.0851133  26.9333936  71.2917299  64.4535710
  26.6753180  70.4589034  64.4267009  26.9882418  71.5174912  63.6128210
  26.9033714  71.2015070  64.3255847  32.0134986  63.3945750  64.5539803
  31.3091313  62.9054935  64.7123722  32.0619960  63.4068224  63.6828247
  31.9165037  63.3235398  64.4479142  25.9068648  68.8455062  64.9400605
  25.3318239  69.0047230  65.5764566  25.5304324  68.2090471  64.4769055
  25.7671460  68.7752875  64.9655163  29.5741936  67.3178411  69.7992983
  29.1856369  66.8932629  69.1445174  28.9096635  67.5660561  70.3070010
  29.4188864  67.2917132  69.7780851  39.2165206  67.0753416  62.5740813
  38.9601770  66.2633357  62.3838696  40.0594520  67.0830983  62.3471000
  39.3031231  66.9565413  62.5125630  15.6525467  68.4895136  62.9545045
  15.7385719  68.1127005  63.7358575  16.2801264  68.1155582  62.4765004
  15.7582018  68.3780619  62.9990523  33.3968298  61.0153040  67.3116967
  33.7778810  60.3331211  67.6984842  32.5931582  60.7262642  67.1292632
  33.3344760  60.8720088  67.3421023  30.6780875  71.5477015  57.9969790
  31.4921514  71.8391908  57.8852561  30.6140016  70.8936878  57.4228083
  30.7883614  71.4942210  57.8958627  26.5488783  75.0198533  63.1242102
  27.1862730  74.7810280  63.6693896  26.9743855  75.2235692  62.3895263
  26.7064949  75.0149543  63.0959259  27.1891598  70.2400823  57.4616992
  27.5736751  70.0208529  58.2133537  26.9403218  71.0663768  57.5918068
  27.2093671  70.3298969  57.5918068  27.3560138  63.5207238  77.1779576
  27.0413579  64.2906801  76.9149138  27.0350071  62.9577494  76.5931803
  27.2619057  63.5517507  77.0520926  28.9310255  75.4970956  64.8035888
  29.0049263  75.3346127  65.6577738  29.7479761  75.6861145  64.5596370
  29.0626614  75.5007698  64.8933914  24.9092035  61.9097759  62.7925772
  24.0414461  61.9820359  62.8583381  25.1967240  62.7119838  62.9813747
  24.8231783  62.0391906  62.8300539  34.0324924  62.0575619  71.1237094
  34.7778516  61.8685429  70.7100519  33.6162229  62.5833857  70.5650950
  34.0809898  62.1077764  70.9801667  41.4087195  69.4284847  66.0742599
  41.9595117  68.7952916  66.3139691  41.3931310  69.9600240  66.7658103
  41.4872391  69.4133795  66.2121457  28.0609586  73.2623444  70.6202492
  27.5621279  73.9739212  70.6987381  28.8709810  73.5824111  70.5820655
  28.1065693  73.4150293  70.6259061  24.3237703  72.5246398  64.8665213
  24.0350952  71.8983869  65.4010941  25.1921051  72.4666685  64.9329894
  24.4097955  72.4233942  64.9556168  35.1115601  67.6681181  65.1847195
  34.7680367  66.9471516  65.5354445  35.2108644  67.4595032  64.3425553
  35.0757644  67.5305384  65.1118875  24.5269977  74.1641649  60.7907578
  25.2815945  74.5454688  61.0043041  23.9340589  74.6152792  61.2454275
  24.5506690  74.2870476  60.8890457  35.5728630  74.1306885  60.7271183
  36.1386663  74.7900095  60.6429726  34.9256534  74.4756583  61.1987585
  35.5607387  74.2788826  60.7843940  26.9876644  66.1204489  75.9164791
  26.1776420  66.4262269  75.8054633  27.4651331  66.8410071  76.0317375
  26.9380123  66.2719090  75.9171862  25.8468203  75.3350210  66.1647694
  25.3248957  75.4750502  66.8499558  26.2342224  74.5760874  66.3549811
  25.8271904  75.2435734  66.2948770  22.8359387  65.3856019  60.2342648
  22.5484183  65.0157289  59.4974596  23.5229856  65.8550874  59.9726353
  22.8948285  65.4002988  60.0857724  32.0435208  77.0745669  60.1508262
  31.8021884  76.3413530  59.7435327  32.2236541  77.6232526  59.4974596
  32.0342832  77.0468060  59.9938485  27.2734529  72.3654229  61.5629185
  27.0777312  72.9728963  60.9689488  27.4968875  71.6722173  61.0820859
  27.2769170  72.3531754  61.4045266  25.6713059  69.2508967  61.6810053
  26.3935711  69.4150125  61.2213859  25.1921052  69.9718632  61.5749393
  25.7076790  69.3807196  61.5975667  33.6306567  65.5872766  67.0606738
  32.7917667  65.6134045  66.8245001  33.7010934  66.2343501  67.6412085
  33.5174960  65.6868891  67.1115855  32.0775845  62.4858143  61.7934354
  32.7802198  62.2865891  61.3154312  31.8120034  61.7134085  62.1003197
  32.1422477  62.3421109  61.7679796  37.5064090  70.7940752  64.3467980
  37.4198065  70.9496178  65.2002759  37.0514570  71.4378828  63.9727385
  37.4267347  70.9116508  64.4175087  20.4087582  66.1637231  61.0827929
  20.5103718  66.9663393  61.4108905  21.2043469  65.9624567  60.7851010
  20.5415488  66.2523130  61.0863285  26.8404401  63.7493428  70.8465235
  26.6487598  63.7648562  71.6964658  27.6902997  63.9457102  70.8231889
  26.9380123  63.7807779  70.9688529  21.2251314  66.2784409  68.8249051
  21.0836806  65.4268350  68.9493559  21.5091878  66.3213070  68.0011257
  21.2459160  66.1584159  68.7216675  31.3789907  68.1151500  62.9693539
  31.1324621  68.0347250  63.8030328  31.7075030  67.3304967  62.7756067
  31.3911150  67.9877765  63.0641062  35.2737955  74.8234859  66.7580321
  35.1352315  75.5215905  67.2629063  34.4937953  74.6683515  66.4016502
  35.1381182  74.9035026  66.7806595  27.3386934  70.8508218  72.3816522
  27.4830310  71.4309426  71.7459632  27.6862582  71.2284515  73.0866377
  27.4114395  70.9928922  72.3915517  29.5106851  70.0498386  70.1641654
  28.7630165  70.2429401  69.7589932  29.6648376  69.2243606  69.9265775
  29.4229279  69.9563498  70.0687060  36.7691328  74.1813113  57.5196820
  36.3898137  73.3950251  57.5126109  36.1057574  74.7299970  57.3768464
  36.6149803  74.1457937  57.4977617  29.7508628  63.9448937  71.0537058
  30.2081242  64.6772912  71.1809850  29.8264957  63.5215402  71.8124313
  29.8299598  63.9906175  71.1838134  21.9941619  64.1914757  72.1426501
  21.4583809  63.5795115  72.4587269  22.0559384  64.7662893  72.7960168
  21.9237252  64.1861685  72.2861928  34.2235954  57.1238812  64.9230901
  34.3419522  57.5815276  64.1898203  34.0498130  56.3184074  64.6367118
  34.2155125  57.0732585  64.7731834  27.6291006  65.9351041  67.8978882
  26.8387081  65.7542501  68.2196217  28.0251629  65.1577994  67.8809176
  27.5707882  65.7938502  67.9431430  32.1156897  74.7638815  53.3385595
  32.8829882  74.8238940  52.9291447  31.6688206  74.1919257  52.8541914
  32.1630324  74.6875391  53.2063306  33.0134692  73.5693471  65.6238328
  32.3379694  73.3378704  66.1251715  33.0227068  72.9614654  64.9980433
  32.9153197  73.4452397  65.6054480  30.1428836  68.4111300  72.3802381
  30.0787978  69.2721257  72.2522517  30.2826024  68.0943293  71.5797932
  30.1544306  68.4911467  72.2430593  35.0151427  76.4258604  57.8548506
  35.0971264  77.2325590  57.5309956  35.5001169  76.4454563  58.5789279
  35.0988585  76.5479266  57.9135404  28.8247930  71.1043440  66.5218584
  28.4010179  71.3047939  65.7857602  28.6492785  70.2572288  66.6342883
  28.7358811  71.0092221  66.4292274  24.1130375  71.5995491  61.9546556
  24.2694994  71.5342294  62.8102548  24.4530968  72.3744044  61.7425236
  24.1863610  71.7044689  62.0501150  30.6509520  70.9753375  60.8239919
  31.1925065  70.4723756  61.2878540  30.9656079  70.9218569  60.0129405
  30.7773917  70.8932796  60.7723731  28.8195970  76.3670726  58.1079947
  28.8888790  75.5085265  58.2472948  29.5984425  76.5842607  57.7798972
  28.9448820  76.2723590  58.0797105  31.7998789  65.8689679  70.8762220
  32.0140759  65.2300593  70.3225574  31.1832688  66.3135503  70.4470081
  31.7404118  65.8399823  70.7312651  20.6864637  68.7830442  62.2707323
  21.0663602  69.2014986  61.6067591  20.1120002  69.3643897  62.5776167
  20.6575962  68.9308300  62.2184064  33.9637877  67.4778744  71.8145527
  33.1514559  67.1704635  71.8958700  34.4227812  66.9977744  72.3788239
  33.9118262  67.3615237  71.9100121  33.3743132  75.3558416  62.2622471
  33.0157787  75.5273059  63.0386504  32.8881843  75.8171622  61.7050470
  33.2501829  75.4497387  62.2947740  31.1913518  58.9789615  65.8649563
  30.3207076  58.9528336  65.8182872  31.4453859  58.8066807  65.0475408
  31.1007078  58.9499758  65.7369699  28.1631497  71.0357582  54.8022706
  28.4524022  71.8122464  55.0766280  28.2503296  70.5246313  55.5037205
  28.2185754  71.0749500  54.9465203  28.2162658  60.9895843  67.3223033
  27.7001147  60.2976035  67.4474612  27.6556587  61.6566620  67.2685632
  28.0569172  60.9859101  67.3329099  30.2854892  61.5288803  69.1515885
  29.8986645  61.5537835  69.9329415  29.7987829  60.9630482  68.6990402
  30.1567401  61.4484554  69.2003789  36.2604871  68.0951458  67.7755588
  35.8332479  68.0077807  67.0203687  35.6230924  68.2029234  68.3610432
  36.1034479  68.0984118  67.7501029  29.9512034  58.4155789  71.4426145
  30.5805152  58.9516089  71.1647216  30.1197896  58.3233148  72.2939711
  30.0689828  58.4817151  71.5274674  29.7525948  63.2026983  73.7152557
  30.5799378  62.9312132  73.7711171  29.7733794  63.9987825  74.0716375
  29.8778798  63.2806738  73.7767740  24.3295438  70.3490846  66.9022818
  23.4883445  70.2494720  67.1101711  24.5385446  71.1186327  67.2537138
  24.2360131  70.4482890  66.9850133  21.8071005  67.9710383  64.7307568
  21.4127703  68.0453395  63.9557678  21.2511122  68.3568330  65.2815930
  21.6673818  68.0392158  64.6975228  33.4435952  60.9491677  64.4111447
  33.6485545  60.8813985  65.2568444  33.1162376  61.7550498  64.3432625
  33.4251200  61.0577618  64.5271102  28.1412103  68.2772245  66.1520415
  27.8375241  67.7228234  66.7530823  27.4391524  68.4564455  65.6648449
  27.9928313  68.2217028  66.1690121  36.6969640  61.5023441  63.8914213
  36.0843953  61.9893844  64.2767944  36.7933815  60.8266932  64.4351864
  36.6207537  61.4741750  64.0293071  30.6988721  63.2586283  58.9911712
  31.1532467  63.4296843  59.7159557  31.1728766  62.6454393  58.5909488
  30.8357041  63.1937168  59.0385474  24.2204246  72.7434609  68.3214451
  23.6292179  73.3844107  68.2917466  24.9825270  73.1672226  68.2945750
  24.2452507  72.9010447  68.3129598  24.6164869  63.9036606  68.9882468
  25.0766350  63.9775536  69.7257592  24.6620976  64.7017860  68.6382289
  24.6915424  64.0330753  69.0455225  26.2648219  64.5703301  73.5554495
  25.8733784  63.9236648  73.9910273  26.4334081  65.1614736  74.1748751
  26.2319129  64.5617569  73.7117201  33.9793762  78.1943920  65.7546475
  33.7813451  78.6834735  65.0602686  33.3581473  78.3985162  66.3330608
  33.8581327  78.2960458  65.7369698  28.0401741  69.9628817  60.0956719
  28.7843786  70.3503093  60.3339669  28.1862437  69.1186242  60.2597207
  28.1712326  69.8959290  60.1550689  29.9581316  61.7579076  65.1288581
  29.1117361  61.9301884  65.0029930  29.9552449  60.9528420  65.4654409
  29.8328466  61.6640105  65.1599708  31.0279617  65.5354290  65.9950639
  30.5539571  65.0096052  66.5055950  31.3997752  64.9883763  65.4265500
  31.0129506  65.3770287  65.9865786  21.4052647  67.5325797  71.3634184
  22.2678260  67.4321506  71.2771514  21.0744430  66.9520506  70.8019757
  21.4837843  67.4317424  71.2679590  37.2916347  70.5956666  67.4057419
  37.0514570  69.7563081  67.4099846  37.7708354  70.6756833  68.1298193
  37.3268531  70.4838066  67.5132221  32.9563116  66.4290845  59.0576392
  32.4286135  66.5119589  58.3682101  33.4158824  67.1708716  59.0541037
  32.9464967  66.5511507  58.9551088  39.2921534  67.3758123  65.3586678
  39.0531304  67.3353957  64.5207463  39.4555435  68.2229275  65.4852399
  39.2811838  67.4950208  65.2540160  24.7654433  66.3568246  68.0244603
  24.1407503  66.3686638  67.4170555  24.4300028  66.8328421  68.6735843
  24.6239925  66.4286763  68.0301171  24.9496181  64.6993364  54.0817288
  24.6008986  65.3513090  54.5448837  24.4692627  64.6850478  53.3541159
  24.8266425  64.7936418  54.0428379  32.5100199  74.9994408  58.1886049
  33.2334398  75.4652521  58.0450623  32.0700790  75.0668018  57.4383646
  32.5515891  75.0778245  58.0570831  31.6786354  71.8591951  69.4386738
  31.0643347  71.3150001  69.7335374  32.1953639  71.3456187  68.9592555
  31.6642016  71.7028360  69.4110967  30.9182651  72.9296221  67.1731037
  30.4910259  72.3045939  66.7396472  30.9107595  72.6471143  67.9990044
  30.8541792  72.7949001  67.2310865  24.0345178  67.9661394  70.2419471
  24.1938665  67.2104718  70.6471193  23.8538072  68.5152333  70.8960209
  24.0310537  67.9355208  70.3982177  31.9765481  60.1322629  70.7970261
  31.4806042  60.3286304  70.1061827  32.7334543  60.5315298  70.6259062
  32.0152306  60.2200363  70.6690397  29.2468361  63.8064975  67.3873571
  29.2710848  63.2725088  66.6986351  29.4979834  63.2982284  68.0499162
  29.2878279  63.6525879  67.3838216  25.5269683  62.5335794  66.7679315
  25.5668054  63.0345000  67.4814023  24.7019348  62.6246187  66.4985238
  25.4109209  62.6217610  66.8329854  26.9484046  69.0496303  69.0653214
  26.1175976  69.2170121  68.8588462  26.8935563  68.6732254  69.8502100
  26.8173461  69.0186035  69.1501743  24.7567830  62.5405196  74.7009625
  25.3820533  61.9967329  74.9739057  24.3018309  62.0600114  74.1317415
  24.7816090  62.3894678  74.6571219  25.3220090  67.3251895  59.5943332
  25.4623051  67.8224359  60.2971973  25.8202623  66.6238189  59.7357546
  25.4161171  67.2953874  59.7194911  25.3520312  68.1919006  56.9235909
  25.9865392  68.7879431  56.8585371  25.4345923  67.8922464  57.7381779
  25.4576863  68.2359914  57.0338995  26.9299295  64.1232981  56.8981351
  27.2515136  63.6436064  56.2440613  27.1926239  64.9332627  56.7072163
  27.0165321  64.1722879  56.7736843  30.1596268  75.1451856  70.4180167
  29.6521359  75.6987702  70.8620797  29.8622914  75.2060146  69.5998942
  30.0401153  75.2358167  70.3628624  32.3258450  63.5105175  69.2604830
  32.7513522  63.0577702  68.6488356  31.7115443  62.9565246  69.5369617
  32.2987096  63.3619151  69.2109855  21.8573300  70.3886847  60.1925455
  22.3665530  70.9851354  60.5736760  22.3307573  70.1212820  59.5101875
  22.0016676  70.4372662  60.1479978  30.7652673  59.9820275  62.6695407
  30.1220991  59.8317921  63.2380545  30.4252080  59.7362620  61.9044512
  30.6197750  59.9232398  62.6398422  35.3552020  67.9379702  62.0925416
  34.6843210  68.4809404  61.9638481  36.0491770  68.4074557  61.8507110
  35.3580887  68.0877973  62.0380943  35.5180147  64.3935586  65.0015789
  35.8707757  63.9665308  65.6761588  34.6594949  64.3086429  65.1316865
  35.4429592  64.3180326  65.1210799  24.2163832  67.0243105  63.0598635
  23.4975821  67.4407238  63.3271499  24.5876194  67.5897344  62.5090274
  24.1655764  67.1692387  63.0181442  33.5163413  67.6570954  68.9500631
  33.4961340  67.4754249  69.8035410  33.5642614  68.5282973  68.9260215
  33.5198054  67.7587492  69.0723926  29.9910406  66.0641105  58.3972015
  29.3975246  66.3858102  57.8456582  30.0285684  65.2182201  58.1893121
  29.9084796  65.9865433  58.2854786  36.9504207  59.5153997  65.9300101
  36.4435072  58.8083137  65.8621279  37.7471641  59.1847186  66.0601178
  36.9931446  59.3627149  65.9399096  32.8668223  66.0220610  61.8273765
  32.6381916  66.0453311  60.9852123  33.1266299  65.1978077  61.9468776
  32.8714411  65.9036690  61.7198963  27.1487451  67.8755083  71.4298865
  26.6366355  67.2676266  71.7883897  26.9766948  68.5911675  71.8972841
  27.0477088  67.8918382  71.5515089  25.9212986  64.5597156  63.1227961
  26.3970352  64.9214236  62.4878142  25.4201585  65.2153623  63.4028103
  25.9178345  64.7091345  63.0704702  39.1524347  74.0318924  58.9140966
  39.5357953  74.7810280  59.1439063  38.3568460  74.2784744  58.6552955
  39.0918129  74.1788618  58.9098539  31.0256522  65.7979327  73.8701121
  31.5827952  65.5693137  73.2379586  30.7017587  66.5584993  73.5936333
  31.0602932  65.8763164  73.7357618  27.9639639  66.7038356  56.4901345
  28.3438604  66.7217985  55.7052459  27.2232235  67.1492345  56.3692192
  27.9108476  66.7720130  56.3564913  35.5924929  65.0120547  62.0776923
  35.5919156  64.8569203  62.9361200  35.3881109  65.8583534  62.0218309
  35.5624707  65.1141168  62.1964863  17.6542200  68.4360331  66.4935740
  17.4763961  67.9836940  67.2190655  17.3661222  69.2386493  66.6774217
  17.5855153  68.4882889  66.6279243  33.3165781  69.6918049  65.7313130
  33.8119447  68.9741044  65.6917151  32.5065557  69.3888846  65.6167617
  33.2709675  69.5415695  65.7086856  28.7624393  73.5415862  57.8810135
  27.9535716  73.2182535  57.8343444  29.2699302  72.8349084  57.8138383
  28.7174060  73.3897178  57.8640429  19.3914670  70.9688055  63.6057499
  18.5260190  70.9573746  63.4940270  19.4913486  70.7818278  64.4528638
  19.2788837  70.9394116  63.7146443  35.3817600  72.4421736  68.4190259
  35.8072672  71.9196158  67.8660684  35.0174520  73.0402574  67.8978882
  35.3904203  72.4531963  68.2599269  31.9696200  76.1556000  64.7491416
  32.4407378  76.8696263  64.9181402  32.3056378  75.5554751  65.2851286
  32.0891315  76.1727465  64.8523792  28.8865695  60.9283471  71.7049511
  29.0193600  60.1314464  72.0330487  29.2710847  61.4549874  72.2847787
  28.9622023  60.8883388  71.8393014  31.9598050  57.8513797  68.3030605
  31.1544013  57.7411527  68.6198443  31.8304785  57.9526253  67.4460470
  31.8218183  57.8497467  68.2238645  35.4164010  64.0159289  68.8970301
  34.8326999  64.5168496  68.4847869  35.7368304  63.5088845  68.2634625
  35.3777186  64.0151124  68.7428809  27.9558809  62.9299884  59.1728976
  28.7774504  63.0998197  58.9310671  27.4928460  63.0847145  58.4495274
  28.0089972  62.9781617  59.0300621  26.5454141  60.9242646  69.9527405
  27.0898554  60.5833773  70.5431747  26.5991077  61.7828108  70.0948690
  26.6343261  60.9997905  70.0609278  32.1728472  76.9525007  68.0428450
  32.9926846  76.8087973  68.3044745  31.8922550  77.5771206  68.5844888
  32.2525216  77.0235359  68.1616390  38.5717594  78.5444576  64.7314640
  38.2420924  78.9955719  64.0618339  37.8962596  78.4660739  65.2787647
  38.4228031  78.5995711  64.7137864  45.7794002  74.5330099  62.9764251
  45.4647443  75.2233577  63.4084673  45.2620944  74.4774881  62.2749752
  45.6558472  74.6264987  62.9361200  36.7773548  76.6056864  60.2137588
  37.5319516  76.9735181  59.9754638  36.6001083  76.9796418  60.9816768
  36.8628027  76.7155052  60.2922476  35.1330613  79.0127183  56.9115701
  34.9506186  79.2299064  56.0856694  35.9956226  79.1266196  56.9674315
  35.2335202  79.0617081  56.7970188  40.8130332  76.0153594  59.9464725
  41.5416493  75.8369549  59.5002881  40.9025225  76.8571674  60.1571903
  40.9336994  76.1137472  59.9118242  35.8824619  77.4283067  62.7925772
  35.0147044  77.5005667  62.8583381  36.1699823  78.2305146  62.9813747
  35.7964367  77.5577214  62.8300539  43.0508428  78.0043451  61.7934354
  43.7534781  77.8051199  61.3154312  42.7852617  77.2319393  62.1003197
  43.1155061  77.8606417  61.7679796  45.1968538  72.6424120  64.9230901
  45.3152106  73.1000584  64.1898203  45.0230713  71.8369382  64.6367118
  45.1887709  72.5917892  64.7731834  42.1646101  74.4974923  65.8649563
  41.2939659  74.4713644  65.8182872  42.4186443  74.3252115  65.0475408
  42.0739662  74.4685066  65.7369699  41.6721304  78.7771591  58.9911712
  42.1265051  78.9482151  59.7159557  42.1461350  78.1639701  58.5909488
  41.8089624  78.7122476  59.0385474  40.9313900  77.2764384  65.1288581
  40.0849945  77.4487192  65.0029930  40.9285032  76.4713728  65.4654409
  40.8061050  77.1825413  65.1599708  43.9295700  81.9476153  59.0576392
  43.4018718  82.0304897  58.3682101  44.3891408  82.6894024  59.0541037
  43.9197550  82.0696815  58.9551088  37.9031879  79.6418289  56.8981351
  38.2247720  79.1621372  56.2440613  38.1658823  80.4517935  56.7072163
  37.9897904  79.6908187  56.7736843  41.7385257  75.5005583  62.6695407
  41.0953575  75.3503229  63.2380545  41.3984664  75.2547928  61.9044512
  41.5930334  75.4417705  62.6398422  38.9291393  78.4485192  59.1728976
  39.7507087  78.6183505  58.9310671  38.4661044  78.6032453  58.4495274
  38.9822555  78.4966925  59.0300621  15.4195196  14.9912066  47.9411373
  15.3889200  15.8456703  48.1129643  16.0176545  14.6907359  48.4997517
  15.5032354  15.0728563  48.0486176   8.6194881  14.0787717  52.6964304
   7.7632776  14.2396216  52.7473421   8.6662534  13.2079781  52.7169365
   8.4993992  13.9738519  52.7070370   3.0036020  23.6150435  48.4601535
   2.2518920  23.2365974  48.2317580   3.4522032  23.6468869  47.7120346
   2.9585687  23.5636042  48.3159038  11.9288597  20.3474243  62.3024760
  12.6355364  19.8526274  62.4311694  12.1176533  20.7883325  61.5727418
  12.0616503  20.3392593  62.2133805   8.4560980  24.0375805  43.8887083
   8.1212349  24.7152726  43.4531305   8.9687851  23.6481116  43.3003954
   8.4826561  24.0800383  43.7373874   7.9965272  25.9890073  49.8298194
   8.3804651  26.5576972  49.2902969   7.9324413  25.2639584  49.3504010
   8.0438699  25.9665537  49.6792057  11.4646702  16.1379761  55.3395955
  12.0102662  16.8164848  55.3989925  11.4063578  15.9967222  54.4797537
  11.5362616  16.2171763  55.2208016   4.5820777  23.6268827  50.7264308
   4.6831139  22.8169181  51.0361436   3.9862522  23.5325774  50.0963986
   4.5093315  23.4933856  50.6790546  13.2411770  17.5664368  46.2129683
  13.1251296  18.3172055  46.6421821  14.0367657  17.3088322  46.4625770
  13.3416360  17.6399215  46.3133775   4.4221516  28.5446417  52.1279164
   5.0658972  28.9859581  52.5175322   4.7477772  27.7399843  52.0409423
   4.5653345  28.4911611  52.1724641   5.1242096  21.5558391  47.4999026
   5.4457937  22.0963599  46.8960334   5.7714192  20.9855163  47.6321315
   5.2668151  21.5517567  47.4306061   7.1743804  13.5574386  47.5833412
   7.8723969  13.7362514  48.0754876   7.4896136  13.0344726  46.9603802
   7.3239141  13.5068159  47.5635423   7.3631739  19.9444831  47.5713204
   7.8025375  19.3361932  48.0167977   7.2136402  19.5652205  46.7998669
   7.4053205  19.7983303  47.5232371   4.8303382  18.5388843  54.7732029
   5.4752385  18.0461286  54.4542978   5.0705159  18.6813630  55.5998108
   4.9613967  18.4866285  54.8481563   7.3689474  21.3843749  54.4238922
   7.6512717  20.5895155  54.2025678   8.0975634  21.8624337  54.4443983
   7.5179037  21.3378346  54.3941937  10.9641076  18.2972013  44.5243973
  10.8792371  19.1532979  44.6693542  11.4525459  18.0216337  45.1926132
  11.0229973  18.3829334  44.6446055  12.5547075   4.9152306  49.9104298
  12.2400516   5.6055785  50.3424720  12.0374017   4.8597088  49.2089798
  12.4311546   5.0087195  49.8701247  11.8959509  14.9156807  46.0241708
  11.3670981  15.1316440  46.6839014  12.4184529  15.6092945  45.9442678
  11.8947962  15.0499944  46.1097307  17.3507562  20.4903111  51.3974753
  16.5205265  20.7013755  51.5608169  17.3016814  19.6640166  51.1217036
  17.2214297  20.3992718  51.3812118   3.7859117  18.8120024  44.8249176
   3.2016332  19.3170055  45.2315040   3.3829212  18.5862411  44.0845768
   3.6398421  18.8528272  44.7754201   5.4117300  23.3206965  54.2322662
   4.8944241  22.9614380  53.6283970   6.1091691  22.7969140  54.2428728
   5.4382881  23.1904653  54.1452921   9.0680892  23.7701780  60.1938835
   9.1564237  23.5827920  61.0417046   9.4970604  23.1239209  59.7943682
   9.1442994  23.6464787  60.2610587   6.6351351  23.0532940  59.1756497
   6.0722186  22.6405549  59.6996159   7.3972375  22.9785845  59.5949641
   6.6645800  22.9810340  59.3149498   8.2436331  15.0585676  43.3018097
   8.4832335  15.2663659  42.4893440   8.5652172  14.2543184  43.4107041
   8.3273489  14.9699777  43.1978650   2.1947343  25.0430961  51.7793128
   2.8967922  24.5282950  51.8365884   2.1144826  25.3705112  52.5840003
   2.2871103  25.0145187  51.9065920  16.8461520  13.1373512  55.1925174
  16.0089941  13.2075699  55.4272769  16.8149751  13.1398007  54.3199476
  16.7179803  13.1483739  55.0984722   1.5198118  21.2337313  51.2878736
   2.3587018  21.4660245  51.3352497   1.5509887  20.3641624  51.2185771
   1.6479836  21.1394259  51.2843380   2.1450821  21.6538188  55.5892041
   2.6849046  21.5109319  56.2595414   1.4620767  22.0534939  55.9576067
   2.1242975  21.6917859  55.7426463  11.5691706  17.3329189  50.7837066
  12.3249221  17.7660703  50.8225974  11.6754031  16.6833958  51.3571702
  11.6961877  17.3006672  50.8735091  14.6071877  21.1602466  51.5339468
  14.1707109  21.1639208  52.2898440  14.2734793  21.8407965  51.1019046
  14.4934497  21.2614922  51.5820301   9.1800951  23.2010799  62.8582619
   9.9641367  23.3141646  63.2238361   8.9797545  22.3751936  63.0541305
   9.2666976  23.0957518  62.9417005  14.5269360   8.2016294  53.7768896
  15.1695269   8.2714398  54.3630812  14.7792381   7.5345516  53.2748438
  14.6591492   8.1142642  53.7896176   1.4545713  12.6723563  42.3578221
   0.7403890  12.3861743  42.7700653   1.9389682  13.0120189  42.9984608
   1.4205077  12.6805213  42.5133856   9.3371344  25.1120901  56.5049074
   8.5386590  24.8720401  56.7622943   9.7857356  25.1635294  57.2516122
   9.2845955  25.0843292  56.6533999  17.7416223  17.8783386  50.4259106
  18.4032658  17.3174054  50.3255014  17.1007635  17.3835416  50.7511797
  17.7445091  17.7219795  50.4591446   8.6293031  21.1753517  42.7340029
   9.0444180  20.8438541  42.0424525   7.7984961  20.9422419  42.6060166
   8.5681040  21.0924773  42.6130876  14.0281054  18.8948768  50.1671094
  14.2636643  19.0393967  49.3397945  14.1770618  19.6591176  50.5602608
  14.0846857  19.0287822  50.1034698  15.8571511  17.7350434  48.0040698
  16.1879728  18.2678074  47.3980793  16.4304599  17.7889322  48.6602649
  15.9905190  17.8220003  48.0118480  11.0703400  15.5815337  48.6864278
  11.1650254  16.3204631  49.1403904  10.4462244  15.1532812  49.1198843
  10.9912430  15.6276657  48.8172426   9.3255874  18.7601549  59.3354559
   9.8994735  18.1228794  59.4903123   9.2470678  18.7605632  58.4664217
   9.3989109  18.6666661  59.2300970  11.3226421  17.4264076  41.9201230
  11.2406584  17.4966264  42.7856217  11.9606142  17.9893820  41.7284971
  11.4046259  17.5203048  42.0191180   4.6819592  17.1924814  51.3875757
   4.4238837  16.3596549  51.3607056   4.7368075  17.4182427  50.5468257
   4.6519370  17.1022586  51.2595894   9.7620643   9.2953265  51.4879849
   9.0576969   8.8062451  51.6463769   9.8105617   9.3075740  50.6168294
   9.6650694   9.2242913  51.3819189   3.6554305  14.7462577  51.8740651
   3.0803896  14.9054745  52.5104612   3.2789981  14.1097986  51.4109102
   3.5157117  14.6760390  51.8995210   7.3227593  13.2185926  56.7333030
   6.9342026  12.7940144  56.0785221   6.6582292  13.4668076  57.2410057
   7.1674521  13.1924647  56.7120898  16.9650862  12.9760931  49.5080860
  16.7087427  12.1640872  49.3178743  17.8080176  12.9838498  49.2811047
  17.0516888  12.8572928  49.4465677  11.1453955   6.9160555  54.2457014
  11.5264467   6.2338726  54.6324888  10.3417239   6.6270157  54.0632679
  11.0830416   6.7727603  54.2761070   8.4266531  17.4484531  44.9309837
   9.2407170  17.7399424  44.8192608   8.3625673  16.7944393  44.3568130
   8.5369271  17.3949726  44.8298674  14.6476022  20.1310527  59.3439413
  14.4114659  19.2998592  59.2251473  15.2919251  20.0796134  59.9294257
  14.7070692  20.0008215  59.4125306   4.2974440  20.9206048  50.0582149
   4.9348387  20.6817796  50.6033942   4.7229511  21.1243207  49.3235310
   4.4550606  20.9157058  50.0299306   4.9377255  16.1408338  44.3957038
   5.3222408  15.9216045  45.1473583   4.6888875  16.9671283  44.5258115
   4.9579327  16.2306484  44.5258115  15.6712442  19.9154976  55.4067707
  15.3658259  20.6483033  55.7681023  14.9518658  19.5092905  55.1260493
  15.5199785  19.9636709  55.4180844   6.6795912  21.3978471  51.7375935
   6.7534920  21.2353643  52.5917785   7.4965418  21.5868660  51.4936417
   6.8112270  21.4015213  51.8273961  21.3714234  16.5547976  54.7336051
  21.3038735  16.5743935  53.8638638  21.3569897  17.3978304  54.9591722
  21.3592991  16.6821711  54.6388528   5.2200497  24.3613214  46.4689409
   5.5098796  23.9702195  45.7448635   5.9503978  24.5429919  46.9094684
   5.3707382  24.3307028  46.4272216  19.1572852  15.3292363  53.0082646
  19.7080773  14.6960432  53.2479738  19.1416967  15.8607755  53.6998150
  19.2358048  15.3141311  53.1461504   5.8095243  19.1630960  57.5542539
   5.3106936  19.8746728  57.6327428   6.6195467  19.4831626  57.5160702
   5.8551349  19.3157808  57.5599108   3.1606413  26.3380596  49.5349558
   2.9406708  26.0477951  50.3276225   2.9400935  25.6795551  49.0067471
   3.0954007  26.1980305  49.5738467   2.0723360  18.4253913  51.8005260
   1.7836609  17.7991384  52.3350987   2.9406708  18.3674200  51.8669941
   2.1583612  18.3241457  51.8896215  12.8601258  13.5688696  52.1187242
  12.5166024  12.8479031  52.4694492  12.9594301  13.3602547  51.2765600
  12.8243301  13.4312899  52.0458922   5.3274369  27.7109986  48.3180251
   5.9798427  27.1786429  48.5471277   4.6299977  27.3578639  48.7048125
   5.3205087  27.5799509  48.4092419   2.2755634  20.0649164  47.7247625
   3.0301602  20.4462203  47.9383088   1.6826246  20.5160308  48.1794322
   2.2992347  20.1877991  47.8230504  13.3214287  20.0314400  47.6611230
  13.8872320  20.6907610  47.5769773  12.6742190  20.3764098  48.1327632
  13.3093043  20.1796342  47.7183987   3.5953860  21.2357725  53.0987741
   3.0734614  21.3758017  53.7839605   3.9827880  20.4768390  53.2889858
   3.5757561  21.1443249  53.2288817   9.7920865  22.9753184  47.0848309
   9.5507541  22.2421045  46.6775374   9.9722198  23.5240041  46.4314643
   9.7828489  22.9475576  46.9278532   5.0220186  18.2661744  48.4969232
   4.8262968  18.8736479  47.9029534   5.2454531  17.5729688  48.0160905
   5.0254827  18.2539270  48.3385312   3.4198716  15.1516482  48.6150100
   4.1421368  15.3157640  48.1553906   2.9406709  15.8726147  48.5089440
   3.4562446  15.2814712  48.5315714  11.3792223  11.4880281  53.9946785
  10.5403324  11.5141560  53.7585048  11.4496591  12.1351016  54.5752131
  11.2660617  11.5876407  54.0455902   1.0706332  17.5574555  57.7204240
   1.5827429  17.8358808  57.0713000   0.7842675  18.2963849  58.0867053
   1.1041196  17.7076908  57.6794118   9.8261502   8.3865658  48.7274401
  10.5287854   8.1873406  48.2494359   9.5605690   7.6141600  49.0343244
   9.8908134   8.2428624  48.7019842  15.2549747  16.6948268  51.2808027
  15.1683722  16.8503694  52.1342805  14.8000227  17.3386343  50.9067432
  15.1753004  16.8124023  51.3515133   9.1275563  14.0159015  49.9033586
   8.8810278  13.9354766  50.7370375   9.4560686  13.2312483  49.7096114
   9.1396807  13.8885280  49.9981109  13.0223612  20.7242374  53.6920367
  12.8837971  21.4223420  54.1969110  12.2423610  20.5691031  53.3356549
  12.8866839  20.8042541  53.7146641  11.3601697  17.0238750  59.9442749
  11.3549736  16.1518566  59.9485175  12.0662691  17.2226919  59.4712205
  11.4646701  16.9242624  59.8749784   5.0872591  16.7515733  59.3156569
   5.2315966  17.3316942  58.6799679   5.4348239  17.1292030  60.0206424
   5.1600052  16.8936437  59.3255564   7.2592508  15.9505902  57.0981701
   6.5115822  16.1436916  56.6929979   7.4134033  15.1251121  56.8605822
   7.1714935  15.8571013  57.0027107   4.1600346  24.9418505  56.1817596
   4.3089909  24.3821421  55.5291000   4.9400348  25.0210507  56.5650115
   4.2974439  24.8704071  56.1414545  14.5176985  20.0820628  44.4536867
  14.1383794  19.2957766  44.4466156  13.8543230  20.6307485  44.3108511
  14.3635460  20.0465452  44.4317663   6.6853646  25.1133148  57.4602087
   6.6097317  24.4441959  58.0152875   6.6143505  25.8150936  57.9742753
   6.6634253  25.1178055  57.6178935   7.3423893  23.6334147  48.2925693
   8.1073784  23.3643791  47.9708357   7.2401983  23.1484157  49.0095756
   7.4405389  23.5223712  48.3505520   5.3776663  11.8358556  54.8318929
   4.5872738  11.6550017  55.1536264   5.7737286  11.0585509  54.8149223
   5.3193539  11.6946017  54.8771477   9.8642554  20.6646331  40.2725642
  10.6315539  20.7246456  39.8631494   9.4173863  20.0926772  39.7881961
   9.9115981  20.5882906  40.1403352  10.7620349  19.4700987  52.5578374
  10.0865351  19.2386219  53.0591761  10.7712725  18.8622170  51.9320479
  10.6638854  19.3459912  52.5394527   7.8914493  14.3118816  59.3142427
   7.8273634  15.1728772  59.1862564   8.0311681  13.9950809  58.5137979
   7.9029963  14.3918982  59.1770640  12.7637084  22.3266119  44.7888552
  12.8456921  23.1333105  44.4650003  13.2486826  22.3462078  45.5129326
  12.8474242  22.4486781  44.8475451   6.5733587  17.0050955  53.4558630
   6.1495836  17.2055454  52.7197649   6.3978442  16.1579803  53.5682930
   6.4844468  16.9099736  53.3632320   6.0745280  28.5201468  55.9180088
   6.5641211  27.8212257  55.7355752   5.5029513  28.2225338  56.5056145
   6.0629810  28.3727692  55.9781128   1.8616032  17.5003006  48.8886603
   2.0180651  17.4349809  49.7442595   2.2016625  18.2751559  48.6765282
   1.9349267  17.6052204  48.9841197   8.3995177  16.8760890  47.7579966
   8.9410722  16.3731271  48.2218587   8.7141736  16.8226085  46.9469451
   8.5259574  16.7940311  47.7063778  12.2712284  21.0863537  64.8706878
  13.0847149  20.8148686  65.0312011  12.1107250  20.7871077  64.0667074
  12.3682232  21.0018463  64.7752284   6.5681626  22.2678241  45.0419994
   6.6374447  21.4092780  45.1812994   7.3470081  22.4850122  44.7139019
   6.6934476  22.1731105  45.0137151   9.5484446  11.7697194  57.8102267
   9.7626416  11.1308109  57.2565620   8.9318345  12.2143018  57.3810128
   9.4889775  11.7407338  57.6652698  10.9589114  24.6915943  49.2556487
  10.5668906  24.3882658  48.5379354  11.1142186  25.5285033  49.0661441
  10.9242704  24.7699779  49.1212985  11.7123534  13.3786260  58.7485574
  10.9000216  13.0712150  58.8298746  12.1713469  12.8985260  59.3128286
  11.6603919  13.2622752  58.8440168  11.1228789  21.2565932  49.1962518
  10.7643443  21.4280574  49.9726550  10.6367499  21.7179137  48.6390516
  10.9987486  21.3504903  49.2287787   5.9117154  16.9365097  41.7362752
   6.2009679  17.7129979  42.0106327   5.9988953  16.4253828  42.4377252
   5.9671410  16.9757015  41.8805250  12.2833528  22.1469828  60.1429719
  12.9213249  21.6530023  59.8092175  11.6407620  22.0747228  59.5581946
  12.2827755  22.0628836  60.0072074  14.0090528  13.9958974  54.7095634
  13.5818136  13.9085322  53.9543734  13.3716581  14.1036749  55.2950479
  13.8520135  13.9991633  54.6841076  12.3387785  22.8389636  56.7835076
  13.1280163  22.4878701  56.9037157  12.5131382  23.6526024  56.5211709
  12.4808066  22.9075493  56.7622944   2.0781095  16.2498362  53.8362864
   1.2369102  16.1502236  54.0441758   2.2871103  17.0193842  54.1877185
   1.9845788  16.3490405  53.9190179  11.1921609   6.8499193  51.3451494
  11.3971202   6.7821500  52.1908491  10.8648033   7.6558014  51.2772671
  11.1736857   6.9585133  51.4611149   5.8897760  14.1779761  53.0860462
   5.5860897  13.6235749  53.6870870   5.1877181  14.3571971  52.5988496
   5.7413970  14.1224543  53.1030168   4.9463857  11.4880281  47.6505164
   5.2223591  10.7699193  47.2382731   5.5462526  12.0865200  47.4426270
   5.0757122  11.4700651  47.5585925   3.9516111  21.3929481  57.7932560
   3.8436466  21.4031544  58.6594618   4.1611892  22.2184262  57.6037514
   3.9666222  21.5170556  57.8936651  14.4455297   7.4030957  50.8254259
  13.8329610   7.8901359  51.2107991  14.5419471   6.7274448  51.3691911
  14.3693194   7.3749266  50.9633118   8.4474377   9.1593798  45.9251759
   8.9018124   9.3304358  46.6499603   8.9214423   8.5461909  45.5249535
   8.5842698   9.0944683  45.9725520   1.9689903  18.6442124  55.2554497
   1.3777836  19.2851622  55.2257512   2.7310926  19.0679741  55.2285797
   1.9938164  18.8017962  55.2469645  18.0880324  18.4747894  56.2531776
  18.1463448  18.9234542  56.9991752  17.4546792  18.8846706  55.8161856
  18.0031620  18.6021628  56.2984324  11.7279419  24.0951435  52.6886522
  11.5299108  24.5842250  51.9942733  11.1067130  24.2992677  53.2670655
  11.6066984  24.1967974  52.6709745   5.7887397  15.8636332  47.0296766
   6.5329442  16.2510609  47.2679716   5.9348094  15.0193758  47.1937254
   5.9197983  15.7966805  47.0890736   8.7765273  11.4361806  52.9290685
   8.3025228  10.9103568  53.4395996   9.1483409  10.8891278  52.3605547
   8.7615162  11.2777802  52.9205833  15.0402004  16.4964181  54.3397466
  14.8000227  15.6570596  54.3439892  15.5194011  16.5764348  55.0638239
  15.0754188  16.3845581  54.4472268  10.7048773  12.3298360  45.9916439
  10.1771792  12.4127104  45.3022148  11.1644481  13.0716232  45.9881084
  10.6950623  12.4519023  45.8891134  17.0407191  13.2765638  52.2926725
  16.8016961  13.2361473  51.4547510  17.2041092  14.1236790  52.4192446
  17.0297494  13.3957723  52.1880207  13.6453221  17.6615588  58.2231770
  14.3687420  17.2088114  58.0442790  13.3803183  17.9420253  57.4404098
  13.7134494  17.6366556  58.0810486   2.5140089  12.2575761  54.9584649
   1.8893160  12.2694153  54.3510602   2.1785684  12.7335936  55.6075890
   2.3725581  12.3294278  54.9641218  10.2585856  20.9001924  45.1226096
  10.9820054  21.3660037  44.9790670   9.8186447  20.9675533  44.3723693
  10.3001548  20.9785760  44.9910878   9.4272011  17.7599466  56.3726785
   8.8129004  17.2157516  56.6675421   9.9439296  17.2463702  55.8932601
   9.4127673  17.6035875  56.3451014   8.6668308  18.8303736  54.1071084
   8.2395916  18.2053455  53.6736519   8.6593252  18.5478658  54.9330091
   8.6027449  18.6956517  54.1650911   6.9954017   9.7072491  54.3213618
   7.0196505   9.1732603  53.6326398   7.2465491   9.1989799  54.9839208
   7.0363936   9.5533395  54.3178263   4.6969703  14.9503819  55.9993261
   3.8661633  15.1177637  55.7928509   4.6421220  14.5739769  56.7842146
   4.5659118  14.9193550  56.0841789   3.0705747  13.2259410  46.5283379
   3.2108708  13.7231874  47.2312020   3.5688280  12.5245705  46.6697593
   3.1646828  13.1961389  46.6534958   3.1005969  14.0926521  43.8575956
   3.7351049  14.6886946  43.7925417   3.1831580  13.7929979  44.6721826
   3.2062520  14.1367429  43.9679042  16.0788535  16.6241999  56.7262320
  16.6706375  17.2639249  56.7580518  16.5147530  15.9265035  57.0154387
  16.2306966  16.6160349  56.7743152   4.6784952  10.0240497  43.8321398
   5.0000793   9.5443579  43.1780660   4.9411896  10.8340143  43.6412209
   4.7650978  10.0730395  43.7076890   7.9081925  21.0459371  57.3520214
   7.4007016  21.5995218  57.7960844   7.6108571  21.1067661  56.5338988
   7.7886810  21.1365682  57.2968671  10.0744107   9.4112691  56.1944877
  10.4999179   8.9585217  55.5828403   9.4601100   8.8572761  56.4709664
  10.0472752   9.2626667  56.1449902  10.5189705  24.9622629  45.2824157
   9.8019015  24.7883491  44.8171395  11.1696443  24.7275201  44.7499643
  10.5091556  24.9018421  45.1353375  13.1037676  13.8387217  49.0265462
  12.4328866  14.3816919  48.8978528  13.7977427  14.3082073  48.7847157
  13.1066544  13.9885488  48.9720990   7.1524410  25.9783929  54.2577221
   6.9290065  25.2202758  54.6261247   6.6634253  26.0081950  53.5357660
   7.0467859  25.8706154  54.2053962  13.2665804  10.2943101  51.9355836
  13.6193414   9.8672824  52.6101634  12.4080605  10.2093944  52.0656912
  13.1915249  10.2187841  52.0550846   1.9649489  12.9250621  49.9938682
   1.2461478  13.3414753  50.2611546   2.3361851  13.4904859  49.4430320
   1.9141421  13.0699902  49.9521489  11.2649070  13.5578469  55.8840678
  11.2446997  13.3761765  56.7375457  11.3128270  14.4290488  55.8600261
  11.2683711  13.6595008  56.0063973   9.2095400  20.1465661  61.8089154
   9.1691254  19.5015338  61.2234310  10.0218718  20.0902279  62.1214566
   9.3238553  20.0424628  61.7686104   5.8002867  26.1984387  51.7114305
   5.3863266  25.5358518  51.3218147   6.4850241  26.3462246  51.1909999
   5.8401239  26.1225045  51.5770802   9.1668161  25.3574473  52.4637922
   8.7684444  25.4676743  51.6958742   8.5519381  25.5656539  53.0464482
   9.0167051  25.4048041  52.4369221   7.7396063  11.9648620  45.3312062
   7.1460903  12.2865617  44.7796629   7.7771341  11.1189716  45.1233168
   7.6570452  11.8872949  45.2194833  14.6989864   5.4161513  52.8640148
  14.1920729   4.7090652  52.7961326  15.4957298   5.0854702  52.9941225
  14.7417103   5.2634664  52.8739143  10.6153880  11.9228125  48.7613812
  10.3867573  11.9460826  47.9192170  10.8751956  11.0985592  48.8808822
  10.6200068  11.8044205  48.6539010   3.6698642  10.4604671  50.0568008
   4.1456009  10.8221751  49.4218189   3.1687242  11.1161139  50.3368150
   3.6664001  10.6098860  50.0044748  16.9010004  19.9326439  45.8481013
  17.2843610  20.6817795  46.0779110  16.1054117  20.1792259  45.5893002
  16.8403786  20.0796133  45.8438586   5.7125295  12.6045871  43.4241391
   6.0924260  12.6225500  42.6392506   4.9717892  13.0499860  43.3032239
   5.6594133  12.6727646  43.2904960  13.3410586  10.9128062  49.0116970
  13.3404812  10.7576719  49.8701246  13.1366766  11.7591049  48.9558356
  13.3110364  11.0148683  49.1304910  11.0651438  15.5925564  52.6653177
  11.5605103  14.8748559  52.6257197  10.2551214  15.2896362  52.5507664
  11.0195331  15.4423210  52.6426903   6.5110050  19.4423377  44.8150181
   5.7021372  19.1190051  44.7683491   7.0184958  18.7356599  44.7478430
   6.4659716  19.2904694  44.7980476  13.1303257  18.3429252  55.3530306
  13.5558328  17.8203673  54.8000731  12.7660177  18.9410089  54.8318929
  13.1389859  18.3539479  55.1939316   2.7657337  26.6393469  54.1127651
   3.0803896  27.4529857  54.1205433   3.1750750  26.2543688  54.7809810
   2.8725435  26.7022171  54.2131743   9.7181856  22.0563516  51.6831463
  10.1893035  22.7703778  51.8521448  10.0542035  21.4562266  52.2191333
   9.8376971  22.0734980  51.7863839  11.8058841  23.6664829  63.8623535
  11.9155806  22.8773390  64.2180283  12.1349738  23.5770765  63.0597873
  11.8711247  23.5370682  63.7965926  10.3555803  21.8481450  58.4459156
   9.8076749  21.2239334  58.1779221  10.8168831  22.0375722  57.7303235
  10.3423012  21.7840500  58.3009587  13.1649667   9.9166804  55.8310348
  12.5812656  10.4176011  55.4187916  13.4853961   9.4096361  55.1974671
  13.1262842   9.9158639  55.6768855   5.7044466   8.8307399  46.1069023
   6.5260161   9.0005712  45.8650718   5.2414117   8.9854660  45.3835321
   5.7575628   8.8789132  45.9640667   9.9214129  22.8532523  54.9768497
  10.7412503  22.7095489  55.2384792   9.6408207  23.4778722  55.5184935
  10.0010872  22.9242875  55.0956436  26.3927779  30.5097374  47.9411373
  26.3621784  31.3642011  48.1129643  26.9909128  30.2092667  48.4997517
  26.4764937  30.5913871  48.0486176  19.5927464  29.5973025  52.6964304
  18.7365360  29.7581524  52.7473421  19.6395118  28.7265089  52.7169365
  19.4726576  29.4923827  52.7070370  13.9768604  39.1335743  48.4601535
  13.2251503  38.7551282  48.2317580  14.4254616  39.1654177  47.7120346
  13.9318271  39.0821350  48.3159038  22.9021181  35.8659551  62.3024760
  23.6087948  35.3711582  62.4311694  23.0909116  36.3068632  61.5727418
  23.0349086  35.8577901  62.2133805  19.4293564  39.5561113  43.8887083
  19.0944932  40.2338034  43.4531305  19.9420434  39.1666424  43.3003954
  19.4559145  39.5985691  43.7373874  18.9697855  41.5075381  49.8298194
  19.3537234  42.0762280  49.2902969  18.9056996  40.7824892  49.3504010
  19.0171282  41.4850845  49.6792057  22.4379285  31.6565069  55.3395955
  22.9835245  32.3350156  55.3989925  22.3796162  31.5152530  54.4797537
  22.5095200  31.7357071  55.2208016  15.5553360  39.1454135  50.7264308
  15.6563723  38.3354489  51.0361436  14.9595105  39.0511082  50.0963986
  15.4825899  39.0119163  50.6790546  24.2144354  33.0849676  46.2129683
  24.0983880  33.8357362  46.6421821  25.0100241  32.8273630  46.4625770
  24.3148943  33.1584523  46.3133775  15.3954100  44.0631725  52.1279164
  16.0391555  44.5044889  52.5175322  15.7210355  43.2585151  52.0409423
  15.5385928  44.0096919  52.1724641   8.7518404  35.1674422  50.3516642
   8.5168589  34.3342074  50.2448910   8.8904045  35.4479088  49.5377843
   8.7374067  35.0857925  50.2158997  11.0508492  27.3360153  53.2500949
  10.4313523  26.7452800  53.0810964  10.9492355  27.9271588  52.6165273
  10.9446167  27.3364235  53.1305939  16.0974679  37.0743699  47.4999026
  16.4190520  37.6148907  46.8960334  16.7446776  36.5040471  47.6321315
  16.2400735  37.0702875  47.4306061  18.1476387  29.0759694  47.5833412
  18.8456552  29.2547822  48.0754876  18.4628720  28.5530034  46.9603802
  18.2971725  29.0253466  47.5635423  10.7777625  30.8812434  55.4944518
  10.6536322  31.4674880  56.1294337  11.4295909  30.3872630  55.7956793
  10.8551274  30.8951239  55.6330448  18.3364323  35.4630139  47.5713204
  18.7757958  34.8547240  48.0167977  18.1868986  35.0837513  46.7998669
  18.3785789  35.3168610  47.5232371  15.8035966  34.0574151  54.7732029
  16.4484968  33.5646594  54.4542978  16.0437743  34.1998938  55.5998108
  15.9346551  34.0051593  54.8481563  18.3422057  36.9029057  54.4238922
  18.6245300  36.1080463  54.2025678  19.0708218  37.3809645  54.4443983
  18.4911621  36.8563654  54.3941937  16.3203251  24.4452091  51.6654687
  15.9906581  24.8963235  50.9958386  15.6448253  24.3668254  52.2127693
  16.1713687  24.5003226  51.6477910  21.9373659  33.8157321  44.5243973
  21.8524955  34.6718287  44.6693542  22.4258043  33.5401645  45.1926132
  21.9962557  33.9014642  44.6446055  23.5279659  20.4337614  49.9104298
  23.2133100  21.1241092  50.3424720  23.0106601  20.3782396  49.2089798
  23.4044129  20.5272502  49.8701247  22.8692093  30.4342115  46.0241708
  22.3403564  30.6501748  46.6839014  23.3917113  31.1278253  45.9442678
  22.8680546  30.5685252  46.1097307  14.7591700  34.3305332  44.8249176
  14.1748916  34.8355363  45.2315040  14.3561796  34.1047718  44.0845768
  14.6131004  34.3713580  44.7754201  10.3135729  40.0460093  51.6272848
   9.8303307  40.7710582  51.6032431  11.1259047  40.3436223  51.7383005
  10.3626477  40.1962446  51.6400127  16.3849883  38.8392273  54.2322662
  15.8676825  38.4799688  53.6283970  17.0824274  38.3154448  54.2428728
  16.4115464  38.7089961  54.1452921  20.0413475  39.2887088  60.1938835
  20.1296821  39.1013228  61.0417046  20.4703188  38.6424517  59.7943682
  20.1175577  39.1650095  60.2610587  17.6083935  38.5718247  59.1756497
  17.0454770  38.1590857  59.6996159  18.3704958  38.4971153  59.5949641
  17.6378383  38.4995648  59.3149498  19.2168915  30.5770984  43.3018097
  19.4564919  30.7848967  42.4893440  19.5384756  29.7728492  43.4107041
  19.3006073  30.4885085  43.1978650  14.5259205  22.5064379  47.1477635
  15.2805173  22.8742696  46.9094685  14.3486740  22.8803934  47.9156814
  14.6113684  22.6162567  47.2262523  13.1679926  40.5616269  51.7793128
  13.8700506  40.0468258  51.8365884  13.0877409  40.8890420  52.5840003
  13.2603687  40.5330495  51.9065920  14.2158833  30.7991856  60.9073543
  14.3879337  30.6897750  61.7558824  14.7528190  31.4446261  60.6704735
  14.3203837  30.8783857  60.9978639  12.8816270  24.9134698  43.8455748
  12.6991843  25.1306579  43.0196741  13.7441883  25.0273711  43.9014362
  12.9820859  24.9624596  43.7310235  12.4930702  36.7522621  51.2878736
  13.3319601  36.9845553  51.3352497  12.5242471  35.8826932  51.2185771
  12.6212419  36.6579567  51.2843380  13.1183405  37.1723496  55.5892041
  13.6581630  37.0294627  56.2595414  12.4353351  37.5720247  55.9576067
  13.0975559  37.2103167  55.7426463  18.5615989  21.9161109  46.8804772
  19.2902149  21.7377064  46.4342928  18.6510882  22.7579189  47.0911950
  18.6822651  22.0144987  46.8458289  22.5424290  32.8514496  50.7837066
  23.2981805  33.2846011  50.8225974  22.6486614  32.2019266  51.3571702
  22.6694460  32.8191980  50.8735091  25.5804461  36.6787774  51.5339468
  25.1439693  36.6824516  52.2898440  25.2467376  37.3593273  51.1019046
  25.4667081  36.7800229  51.5820301  20.1533534  38.7196107  62.8582619
  20.9373951  38.8326954  63.2238361  19.9530129  37.8937244  63.0541305
  20.2399560  38.6142826  62.9417005   8.5220550  33.3923787  55.7426463
   8.2558965  32.5762903  55.9017453   8.5359114  33.4376942  54.8721978
   8.4845272  33.2780691  55.6379945  25.5001944  23.7201602  53.7768896
  26.1427852  23.7899706  54.3630812  25.7524964  23.0530824  53.2748438
  25.6324076  23.6327950  53.7896176  12.4278297  28.1908871  42.3578221
  11.7136474  27.9047051  42.7700653  12.9122266  28.5305497  42.9984608
  12.3937660  28.1990521  42.5133856  13.2719156  26.9302165  58.3893470
  12.5790953  26.4599145  58.6354202  13.8879484  26.7040469  58.9635178
  13.2603686  26.8269297  58.5102623  20.3103928  40.6306209  56.5049074
  19.5119173  40.3905709  56.7622943  20.7589939  40.6820601  57.2516122
  20.2578539  40.6028600  56.6533999  19.6025615  36.6938825  42.7340029
  20.0176763  36.3623849  42.0424525  18.7717544  36.4607727  42.6060166
  19.5413623  36.6110081  42.6130876   8.9313963  34.1782566  53.0238207
   8.7489537  34.1529452  52.1710499   9.6663632  34.6481504  53.0627116
   9.0128027  34.2443928  52.9036125  25.0013638  34.4134076  50.1671094
  25.2369227  34.5579275  49.3397945  25.1503201  35.1776484  50.5602608
  25.0579441  34.5473130  50.1034698  11.9959715  30.8967569  59.5320316
  12.7199687  30.8820600  60.0185210  12.0975852  31.6062924  59.0342284
  12.1177924  30.9992272  59.5299102  26.8304094  33.2535742  48.0040698
  27.1612312  33.7863382  47.3980793  27.4037183  33.3074630  48.6602649
  26.9637774  33.3405311  48.0118480  19.3704665  34.3766653  64.3969263
  18.5777645  34.6910165  64.5821882  19.4853592  34.5918122  63.5590047
  19.2700075  34.4550490  64.3007597  22.0435984  31.1000645  48.6864278
  22.1382838  31.8389939  49.1403904  21.4194827  30.6718120  49.1198843
  21.9645014  31.1461965  48.8172426  20.2988457  34.2786857  59.3354559
  20.8727319  33.6414101  59.4903123  20.2203261  34.2790940  58.4664217
  20.3721692  34.1851969  59.2300970   8.8984874  31.0576067  53.1737274
   9.4758376  30.9212517  53.8129519   8.1998936  30.6011851  53.4282858
   8.8805895  30.9698333  53.3059563  15.6552176  32.7110122  51.3875757
  15.3971420  31.8781857  51.3607056  15.7100659  32.9367735  50.5468257
  15.6251954  32.6207894  51.2595894  20.7353226  24.8138573  51.4879849
  20.0309553  24.3247759  51.6463769  20.7838200  24.8261047  50.6168294
  20.6383278  24.7428221  51.3819189  14.6286888  30.2647885  51.8740651
  14.0536479  30.4240053  52.5104612  14.2522564  29.6283294  51.4109102
  14.4889701  30.1945698  51.8995210  18.2960177  28.7371234  56.7333030
  17.9074610  28.3125452  56.0785221  17.6314875  28.9853384  57.2410057
  18.1407105  28.7109955  56.7120898  27.9383446  28.4946239  49.5080860
  27.6820011  27.6826180  49.3178743  28.7812760  28.5023806  49.2811047
  28.0249471  28.3758236  49.4465677   4.3743707  29.9087960  49.8885092
   4.4603959  29.5319828  50.6698622   5.0019505  29.5348405  49.4105050
   4.4800258  29.7973442  49.9330569  22.1186538  22.4345863  54.2457014
  22.4997050  21.7524034  54.6324888  21.3149823  22.1455465  54.0632679
  22.0563000  22.2912911  54.2761070  19.3999115  32.9669839  44.9309837
  20.2139754  33.2584731  44.8192608  19.3358256  32.3129701  44.3568130
  19.5101854  32.9135033  44.8298674  25.6208605  35.6495835  59.3439413
  25.3847243  34.8183900  59.2251473  26.2651834  35.5981442  59.9294257
  25.6803276  35.5193523  59.4125306  15.2707023  36.4391356  50.0582149
  15.9080970  36.2003104  50.6033942  15.6962095  36.6428515  49.3235310
  15.4283190  36.4342366  50.0299306   9.9619666  38.6779693  53.9416453
  10.0023811  38.9494544  53.1136232  10.5214190  39.2021601  54.3574241
  10.0503012  38.7955448  53.8808341  15.9109838  31.6593646  44.3957038
  16.2954991  31.4401353  45.1473583  15.6621459  32.4856591  44.5258115
  15.9311911  31.7491792  44.5258115  16.0778379  24.9400061  64.1119623
  15.7631820  25.7099624  63.8489185  15.7568311  24.3770317  63.5271850
  15.9837298  24.9710330  63.9860973  17.6528495  36.9163779  51.7375935
  17.7267504  36.7538951  52.5917785  18.4698002  37.1053968  51.4936417
  17.7844854  36.9200521  51.8273961  11.4134252  37.2621642  48.7670379
  10.5872370  37.5083379  48.6404658  11.4746243  37.1833722  49.6332437
  11.3008419  37.2866591  48.8759323  13.6310276  23.3290583  49.7265819
  12.7632701  23.4013182  49.7923428  13.9185480  24.1312662  49.9153794
  13.5450024  23.4584730  49.7640585  22.7543164  23.4768442  58.0577141
  23.4996756  23.2878252  57.6440566  22.3380469  24.0026680  57.4990997
  22.8028139  23.5270587  57.9141714  16.1933081  39.8798522  46.4689409
  16.4831379  39.4887503  45.7448635  16.9236562  40.0615227  46.9094684
  16.3439965  39.8492336  46.4272216  16.7827826  34.6816268  57.5542539
  16.2839520  35.3932035  57.6327428  17.5928050  35.0016934  57.5160702
  16.8283933  34.8343116  57.5599108  14.1338997  41.8565904  49.5349558
  13.9139292  41.5663259  50.3276225  13.9133519  41.1980859  49.0067471
  14.0686591  41.7165613  49.5738467  13.0455944  33.9439221  51.8005260
  12.7569192  33.3176692  52.3350987  13.9139292  33.8859508  51.8669941
  13.1316196  33.8426765  51.8896215  23.8333842  29.0874004  52.1187242
  23.4898607  28.3664339  52.4694492  23.9326884  28.8787855  51.2765600
  23.7975884  28.9498207  52.0458922  16.3006952  43.2295294  48.3180251
  16.9531010  42.6971736  48.5471277  15.6032561  42.8763946  48.7048125
  16.2937670  43.0984817  48.4092419  13.2488217  35.5834472  47.7247625
  14.0034185  35.9647511  47.9383088  12.6558830  36.0345615  48.1794322
  13.2724931  35.7063299  47.8230504  24.2946871  35.5499708  47.6611230
  24.8604903  36.2092918  47.5769773  23.6474774  35.8949406  48.1327632
  24.2825627  35.6981650  47.7183987  15.7094884  27.5397312  62.8504837
  14.8994660  27.8455092  62.7394680  16.1869571  28.2602895  62.9657421
  15.6598363  27.6911913  62.8511908  14.5686444  36.7543033  53.0987741
  14.0467197  36.8943325  53.7839605  14.9560464  35.9953697  53.2889858
  14.5490145  36.6628557  53.2288817  11.5577628  26.8048842  47.1682695
  11.2702424  26.4350112  46.4314642  12.2448096  27.2743697  46.9066400
  11.6166525  26.8195811  47.0197771  20.7653449  38.4938492  47.0848309
  20.5240125  37.7606353  46.6775374  20.9454782  39.0425349  46.4314643
  20.7561073  38.4660884  46.9278532  15.9952769  33.7847052  48.4969232
  15.7995552  34.3921787  47.9029534  16.2187115  33.0914996  48.0160905
  15.9987410  33.7724578  48.3385312  14.3931299  30.6701790  48.6150100
  15.1153951  30.8342948  48.1553906  13.9139292  31.3911455  48.5089440
  14.4295030  30.8000020  48.5315714  22.3524807  27.0065589  53.9946785
  21.5135908  27.0326868  53.7585048  22.4229174  27.6536324  54.5752131
  22.2393200  27.1061715  54.0455902  12.0438916  33.0759862  57.7204240
  12.5560013  33.3544116  57.0713000  11.7575259  33.8149157  58.0867053
  12.0773779  33.2262216  57.6794118  20.7994085  23.9050966  48.7274401
  21.5020438  23.7058714  48.2494359  20.5338274  23.1326908  49.0343244
  20.8640718  23.7613932  48.7019842   9.1305822  27.5830054  48.0167976
   9.2321959  28.3856216  48.3448952   9.9261709  27.3817390  47.7191057
   9.2633728  27.6715953  48.0203332  15.5622641  25.1686251  57.7805281
  15.3705838  25.1841386  58.6304705  16.4121237  25.3649925  57.7571936
  15.6598363  25.2000602  57.9028576   9.9469554  27.6977233  55.7589098
   9.8055046  26.8461173  55.8833606  10.2310118  27.7405893  54.9351304
   9.9677401  27.5776983  55.6556722  20.1008147  29.5344323  49.9033586
  19.8542861  29.4540074  50.7370375  20.4293270  28.7497791  49.7096114
  20.1129390  29.4070588  49.9981109  23.9956196  36.2427682  53.6920367
  23.8570555  36.9408728  54.1969110  23.2156194  36.0876339  53.3356549
  23.8599423  36.3227849  53.7146641  22.3334281  32.5424057  59.9442749
  22.3282319  31.6703874  59.9485175  23.0395275  32.7412227  59.4712205
  22.4379285  32.4427932  59.8749784  16.0605174  32.2701041  59.3156569
  16.2048550  32.8502250  58.6799679  16.4080823  32.6477338  60.0206424
  16.1332635  32.4121745  59.3255564  18.2325091  31.4691210  57.0981701
  17.4848406  31.6622224  56.6929979  18.3866617  30.6436429  56.8605822
  18.1447519  31.3756321  57.0027107  15.1332929  40.4603813  56.1817596
  15.2822493  39.9006729  55.5291000  15.9132931  40.5395815  56.5650115
  15.2707023  40.3889379  56.1414545  25.4909569  35.6005936  44.4536867
  25.1116377  34.8143074  44.4466156  24.8275814  36.1492793  44.3108511
  25.3368043  35.5650760  44.4317663  17.6586230  40.6318456  57.4602087
  17.5829901  39.9627267  58.0152875  17.5876089  41.3336244  57.9742753
  17.6366837  40.6363363  57.6178935  18.4726869  25.3641760  57.9877104
  18.9299483  26.0965735  58.1149897  18.5483197  24.9408226  58.7464360
  18.5517838  25.4098999  58.1178181  10.7159860  25.6107580  59.0766548
  10.1802049  24.9987938  59.3927315  10.7777624  26.1855716  59.7300215
  10.6455492  25.6054508  59.2201975  22.9454194  18.5431636  51.8570947
  23.0637763  19.0008099  51.1238250  22.7716370  17.7376897  51.5707165
  22.9373365  18.4925408  51.7071881  18.3156477  39.1519455  48.2925693
  19.0806368  38.8829099  47.9708357  18.2134567  38.6669465  49.0095756
  18.4137972  39.0409020  48.3505520  16.3509246  27.3543864  54.8318929
  15.5605321  27.1735324  55.1536264  16.7469869  26.5770817  54.8149223
  16.2926123  27.2131325  54.8771477  21.7352933  34.9886295  52.5578374
  21.0597935  34.7571527  53.0591761  21.7445309  34.3807477  51.9320479
  21.6371437  34.8645220  52.5394527  18.8647077  29.8304124  59.3142427
  18.8006218  30.6914080  59.1862564  19.0044264  29.5136117  58.5137979
  18.8762547  29.9104290  59.1770640  23.7369667  37.8451427  44.7888552
  23.8189505  38.6518413  44.4650003  24.2219409  37.8647386  45.5129326
  23.8206825  37.9672089  44.8475451  17.5466171  32.5236263  53.4558630
  17.1228420  32.7240762  52.7197649  17.3711026  31.6765111  53.5682930
  17.4577051  32.4285044  53.3632320  17.0477864  44.0386776  55.9180088
  17.5373794  43.3397565  55.7355752  16.4762096  43.7410646  56.5056145
  17.0362394  43.8912999  55.9781128  12.8348616  33.0188314  48.8886603
  12.9913235  32.9535117  49.7442595  13.1749209  33.7936867  48.6765282
  12.9081850  33.1237512  48.9841197  19.3727760  32.3946198  47.7579966
  19.9143306  31.8916579  48.2218587  19.6874319  32.3411393  46.9469451
  19.4992157  32.3125619  47.7063778  23.2444868  36.6048845  64.8706878
  24.0579733  36.3333994  65.0312011  23.0839834  36.3056385  64.0667074
  23.3414816  36.5203771  64.7752284  17.5414210  37.7863549  45.0419994
  17.6107030  36.9278088  45.1812994  18.3202665  38.0035430  44.7139019
  17.6667060  37.6916413  45.0137151  20.5217030  27.2882502  57.8102267
  20.7358999  26.6493417  57.2565620  19.9050929  27.7328326  57.3810128
  20.4622359  27.2592646  57.6652698  21.9321697  40.2101251  49.2556487
  21.5401489  39.9067966  48.5379354  22.0874770  41.0470341  49.0661441
  21.8975287  40.2885087  49.1212985   9.4082877  30.2023265  49.2047370
   9.7881842  30.6207810  48.5407637   8.8338242  30.7836720  49.5116213
   9.3794202  30.3501124  49.1524111  22.6856118  28.8971568  58.7485574
  21.8732799  28.5897458  58.8298746  23.1446052  28.4170568  59.3128286
  22.6336502  28.7808060  58.8440168  22.0961372  36.7751240  49.1962518
  21.7376027  36.9465882  49.9726550  21.6100083  37.2364445  48.6390516
  21.9720069  36.8690211  49.2287787  19.9131758  20.3982438  52.7989609
  19.0425316  20.3721159  52.7522919  20.1672099  20.2259630  51.9815455
  19.8225318  20.3692582  52.6709746  16.8849738  32.4550405  41.7362752
  17.1742262  33.2315287  42.0106327  16.9721536  31.9439136  42.4377252
  16.9403994  32.4942323  41.8805250  19.7809625  30.3031639  63.5314276
  20.2509256  30.9273755  63.9182150  19.8271505  29.6348615  64.0907491
  19.8577501  30.2966319  63.6714347  16.9380899  22.4088666  54.2563080
  16.4219387  21.7168858  54.3814659  16.3774828  23.0759444  54.2025678
  16.7787412  22.4051924  54.2669146  19.0073132  22.9481626  56.0855932
  18.6204885  22.9730658  56.8669462  18.5206069  22.3823305  55.6330449
  18.8785641  22.8677377  56.1343836  23.2566112  37.6655135  60.1429719
  23.8945832  37.1715331  59.8092175  22.6140203  37.5932536  59.5581946
  23.2560338  37.5814144  60.0072074  24.9823112  29.5144281  54.7095634
  24.5550720  29.4270630  53.9543734  24.3449165  29.6222057  55.2950479
  24.8252719  29.5176941  54.6841076  18.6730274  19.8348612  58.3766192
  19.3023392  20.3708912  58.0987263  18.8416137  19.7425971  59.2279758
  18.7908068  19.9009974  58.4614720  18.4744189  24.6219807  60.6492604
  19.3017618  24.3504956  60.7051218  18.4952035  25.4180648  61.0056422
  18.5997039  24.6999561  60.7107787  23.3120368  38.3574944  56.7835076
  24.1012746  38.0064008  56.9037157  23.4863966  39.1711332  56.5211709
  23.4540650  38.4260801  56.7622944  13.0513679  31.7683669  53.8362864
  12.2101685  31.6687544  54.0441758  13.2603687  32.5379150  54.1877185
  12.9578371  31.8675713  53.9190179  10.5289246  29.3903206  51.6647615
  10.1345943  29.4646218  50.8897725   9.9729362  29.7761153  52.2155977
  10.3892058  29.4584981  51.6315275  22.1654192  22.3684500  51.3451494
  22.3703786  22.3006808  52.1908491  21.8380616  23.1743322  51.2772671
  22.1469440  22.4770441  51.4611149  16.8630343  29.6965069  53.0860462
  16.5593481  29.1421057  53.6870870  16.1609764  29.8757279  52.5988496
  16.7146553  29.6409851  53.1030168  15.9196441  27.0065588  47.6505164
  16.1956175  26.2884501  47.2382731  16.5195110  27.6050508  47.4426270
  16.0489705  26.9885959  47.5585925  14.9248694  36.9114789  57.7932560
  14.8169049  36.9216852  58.6594618  15.1344476  37.7369570  57.6037514
  14.9398806  37.0355864  57.8936651  25.4187880  22.9216265  50.8254259
  24.8062194  23.4086667  51.2107991  25.5152055  22.2459756  51.3691911
  25.3425778  22.8934573  50.9633118  19.4206961  24.6779106  45.9251759
  19.8750708  24.8489666  46.6499603  19.8947007  24.0647217  45.5249535
  19.5575281  24.6129991  45.9725520  12.9422486  34.1627432  55.2554497
  12.3510420  34.8036930  55.2257512  13.7043510  34.5865049  55.2285797
  12.9670747  34.3203270  55.2469645  13.3383109  25.3229430  55.9222515
  13.7984591  25.3968359  56.6597639  13.3839216  26.1210684  55.5722336
  13.4133665  25.4523577  55.9795271  14.9866459  25.9896124  60.4894542
  14.5952024  25.3429472  60.9250320  15.1552322  26.5807560  61.1088797
  14.9537369  25.9810392  60.6457248  22.7012003  39.6136743  52.6886522
  22.5031691  40.1027558  51.9942733  22.0799714  39.8177985  53.2670655
  22.5799567  39.7153282  52.6709745  16.7619981  31.3821640  47.0296766
  17.5062026  31.7695916  47.2679716  16.9080677  30.5379066  47.1937254
  16.8930566  31.3152113  47.0890736  18.6799557  23.1771899  52.0628627
  17.8335602  23.3494707  51.9369977  18.6770689  22.3721243  52.3994456
  18.5546706  23.0832928  52.0939754  19.7497857  26.9547114  52.9290685
  19.2757811  26.4288876  53.4395996  20.1215993  26.4076586  52.3605547
  19.7347746  26.7963110  52.9205833  10.1270887  28.9518620  58.2974231
  10.9896500  28.8514329  58.2111561   9.7962670  28.3713330  57.7359803
  10.2056083  28.8510247  58.2019637  21.6781357  27.8483668  45.9916439
  21.1504375  27.9312412  45.3022148  22.1377065  28.5901540  45.9881084
  21.6683207  27.9704330  45.8891134  28.0139775  28.7950946  52.2926725
  27.7749545  28.7546781  51.4547510  28.1773676  29.6422098  52.4192446
  28.0030078  28.9143031  52.1880207  24.6185805  33.1800896  58.2231770
  25.3420004  32.7273422  58.0442790  24.3535767  33.4605561  57.4404098
  24.6867078  33.1551864  58.0810486  13.4872673  27.7761069  54.9584649
  12.8625743  27.7879461  54.3510602  13.1518268  28.2521244  55.6075890
  13.3458165  27.8479586  54.9641218  13.6714422  26.1186188  41.0157334
  13.3227226  26.7705913  41.4788884  13.1910868  26.1043301  40.2881206
  13.5484666  26.2129241  40.9768426  10.1998349  35.8361529  56.3988414
   9.6698273  35.1453968  56.4483388  10.4723442  35.8271715  55.5701122
  10.1623071  35.7328661  56.2835830  21.2318439  36.4187232  45.1226096
  21.9552638  36.8845345  44.9790670  20.7919030  36.4860841  44.3723693
  21.2734131  36.4971068  44.9910878  20.4004594  33.2784774  56.3726785
  19.7861587  32.7342824  56.6675421  20.9171879  32.7649010  55.8932601
  20.3860257  33.1221183  56.3451014  19.6400891  34.3489044  54.1071084
  19.2128499  33.7238763  53.6736519  19.6325836  34.0663966  54.9330091
  19.5760033  34.2141825  54.1650911  12.7563418  29.3854217  57.1759518
  12.9156905  28.6297541  57.5811240  12.5756312  29.9345157  57.8300255
  12.7528777  29.3548031  57.3322224  20.6983721  21.5515453  57.7310307
  20.2024283  21.7479127  57.0401874  21.4552783  21.9508121  57.5599109
  20.7370546  21.6393186  57.6030444  17.9686601  25.2257798  54.3213618
  17.9929088  24.6917911  53.6326398  18.2198075  24.7175107  54.9839208
  18.0096520  25.0718702  54.3178263   5.4794191  32.5089293  53.7556762
   5.3737640  32.4636138  52.8908846   4.7294411  32.8543074  54.0371047
   5.3529794  32.5530202  53.6694092  14.2487923  23.9528617  53.7019362
  14.2886295  24.4537823  54.4154070  13.4237588  24.0439010  53.4325285
  14.1327449  24.0410433  53.7669900  16.4317536  33.5189357  61.8039657
  15.5813167  33.6561071  61.9397302  16.5945664  32.7853135  62.2487358
  16.3301400  33.4303458  61.8895256  15.6702287  30.4689127  55.9993261
  14.8394216  30.6362945  55.7928509  15.6153804  30.0925077  56.7842146
  15.5391702  30.4378858  56.0841789  13.4786070  23.9598019  61.6349672
  14.1038773  23.4160152  61.9079104  13.0236550  23.4792937  61.0657462
  13.5034331  23.8087501  61.5911266  14.0438330  28.7444718  46.5283379
  14.1841292  29.2417182  47.2312020  14.5420863  28.0431013  46.6697593
  14.1379411  28.7146697  46.6534958  14.0738553  29.6111829  43.8575956
  14.7083632  30.2072254  43.7925417  14.1564164  29.3115287  44.6721826
  14.1795104  29.6552737  43.9679042  27.0521119  32.1427307  56.7262320
  27.6438959  32.7824557  56.7580518  27.4880113  31.4450343  57.0154387
  27.2039550  32.1345657  56.7743152  15.6517536  25.5425805  43.8321398
  15.9733377  25.0628887  43.1780660  15.9144479  26.3525451  43.6412209
  15.7383561  25.5915702  43.7076890  18.8814508  36.5644679  57.3520214
  18.3739600  37.1180526  57.7960844  18.5841155  36.6252969  56.5338988
  18.7619393  36.6550990  57.2968671  21.0476691  24.9297999  56.1944877
  21.4731762  24.4770525  55.5828403  20.4333684  24.3758069  56.4709664
  21.0205336  24.7811975  56.1449902  10.5791541  31.8079670  47.1265502
  11.0883770  32.4044177  47.5076807  11.0525813  31.5405644  46.4441921
  10.7234916  31.8565485  47.0820024  21.4922289  40.4807937  45.2824157
  20.7751598  40.3068799  44.8171395  22.1429026  40.2460509  44.7499643
  21.4824139  40.4203729  45.1353375  19.4870914  21.4013098  49.6035454
  18.8439231  21.2510745  50.1720592  19.1470321  21.1555444  48.8384558
  19.3415991  21.3425221  49.5738469  24.0770260  29.3572525  49.0265462
  23.4061450  29.9002227  48.8978528  24.7710010  29.8267380  48.7847157
  24.0799128  29.5070796  48.9720990  18.1256994  41.4969237  54.2577221
  17.9022648  40.7388066  54.6261247  17.6366837  41.5267258  53.5357660
  18.0200443  41.3891462  54.2053962  24.2398387  25.8128409  51.9355836
  24.5925998  25.3858132  52.6101634  23.3813189  25.7279252  52.0656912
  24.1647832  25.7373149  52.0550846  12.9382072  28.4435928  49.9938682
  12.2194062  28.8600061  50.2611546  13.3094435  29.0090167  49.4430320
  12.8874004  28.5885210  49.9521489  22.2381653  29.0763777  55.8840678
  22.2179581  28.8947073  56.7375457  22.2860854  29.9475796  55.8600261
  22.2416294  29.1780316  56.0063973  20.1827983  35.6650969  61.8089154
  20.1423838  35.0200646  61.2234310  20.9951301  35.6087587  62.1214566
  20.2971137  35.5609936  61.7686104  16.7735451  41.7169695  51.7114305
  16.3595849  41.0543825  51.3218147  17.4582825  41.8647554  51.1909999
  16.8133822  41.6410353  51.5770802  20.1400745  40.8759781  52.4637922
  19.7417028  40.9862051  51.6958742  19.5251964  41.0841847  53.0464482
  19.9899634  40.9233349  52.4369221  18.7128647  27.4833928  45.3312062
  18.1193486  27.8050925  44.7796629  18.7503925  26.6375024  45.1233168
  18.6303036  27.4058257  45.2194833  25.6722448  20.9346821  52.8640148
  25.1653312  20.2275960  52.7961326  26.4689881  20.6040009  52.9941225
  25.7149687  20.7819972  52.8739143  21.5886463  27.4413433  48.7613812
  21.3600156  27.4646134  47.9192170  21.8484540  26.6170900  48.8808822
  21.5932651  27.3229513  48.6539010  15.8705692  29.2947906  58.3638912
  15.3584595  28.6869089  58.7223943  15.6985188  30.0104498  58.8312888
  15.7695329  29.3111205  58.4855136  10.7171407  27.7385481  61.0141274
  10.5473997  28.3986856  60.4689480  10.2737356  27.9492042  61.7353763
  10.6270740  27.8671463  61.0402903  14.6431226  25.9789979  50.0568008
  15.1188592  26.3407059  49.4218189  14.1419826  26.6346447  50.3368150
  14.6396585  26.1284168  50.0044748  27.8742587  35.4511747  45.8481013
  28.2576193  36.2003103  46.0779110  27.0786701  35.6977567  45.5893002
  27.8136370  35.5981441  45.8438586  19.7474762  27.2172151  60.8041168
  20.3046192  26.9885960  60.1719633  19.4235827  27.9777816  60.5276380
  19.7821172  27.2955987  60.6697665   7.6173471  30.6432347  56.2729764
   7.0700190  29.9732992  56.3910632   8.4065849  30.2762195  56.3373231
   7.6525655  30.4897333  56.2998464  17.4657879  30.3039804  61.7693175
  18.2169206  30.6191481  62.0832729  17.6580456  30.1018975  60.9427096
  17.6049294  30.3207186  61.6936570  16.6857879  28.1231179  43.4241391
  17.0656844  28.1410808  42.6392506  15.9450475  28.5685168  43.3032239
  16.6326717  28.1912954  43.2904960  24.3143170  26.4313370  49.0116970
  24.3137396  26.2762027  49.8701246  24.1099350  27.2776357  48.9558356
  24.2842947  26.5333991  49.1304910   6.3760441  29.8553155  53.4275787
   6.1982202  29.4029764  54.1530702   6.0879463  30.6579316  53.6114264
   6.3073394  29.9075712  53.5619290  22.0384022  31.1110872  52.6653177
  22.5337687  30.3933867  52.6257197  21.2283797  30.8081670  52.5507664
  21.9927915  30.9608518  52.6426903  17.4842633  34.9608685  44.8150181
  16.6753956  34.6375359  44.7683491  17.9917542  34.2541907  44.7478430
  17.4392300  34.8090002  44.7980476   8.1132910  32.3880878  50.5397546
   7.2478430  32.3766569  50.4280317   8.2131726  32.2011101  51.3868685
   8.0007077  32.3586940  50.6486490  24.1035841  33.8614559  55.3530306
  24.5290912  33.3388981  54.8000731  23.7392760  34.4595397  54.8318929
  24.1122443  33.8724786  55.1939316  13.7389920  42.1578777  54.1127651
  14.0536479  42.9715165  54.1205433  14.1483334  41.7728996  54.7809810
  13.8458018  42.2207479  54.2131743  20.6914440  37.5748824  51.6831463
  21.1625618  38.2889086  51.8521448  21.0274618  36.9747574  52.2191333
  20.8109555  37.5920288  51.7863839  22.7791425  39.1850137  63.8623535
  22.8888390  38.3958698  64.2180283  23.1082321  39.0956073  63.0597873
  22.8443830  39.0555990  63.7965926  17.6083935  22.3476294  58.6389558
  17.7411841  21.5507288  58.9670534  17.9929088  22.8742697  59.2187834
  17.6840264  22.3076211  58.7733061  21.3288386  37.3666758  58.4459156
  20.7809332  36.7424641  58.1779221  21.7901415  37.5561030  57.7303235
  21.3155596  37.3025808  58.3009587  20.6816290  19.2706620  55.2370651
  19.8762254  19.1604350  55.5538490  20.5523026  19.3719076  54.3800517
  20.5436423  19.2690290  55.1578692  24.1382251  25.4352112  55.8310348
  23.5545239  25.9361319  55.4187916  24.4586545  24.9281669  55.1974671
  24.0995426  25.4343947  55.6768855  16.6777050  24.3492707  46.1069023
  17.4992744  24.5191020  45.8650718  16.2146701  24.5039968  45.3835321
  16.7308212  24.3974440  45.9640667  15.2672382  22.3435469  56.8867452
  15.8116795  22.0026596  57.4771793  15.3209317  23.2020931  57.0288736
  15.3561501  22.4190729  56.9949325  11.0802940  36.1051885  53.7606260
  11.6847798  36.0647720  53.1320080  10.8730253  36.9523037  53.7910316
  11.1391838  36.2239888  53.6722376  20.8946713  38.3717831  54.9768497
  21.7145086  38.2280797  55.2384792  20.6140790  38.9964029  55.5184935
  20.9743456  38.4428183  55.0956436   6.3154223  35.0886503  53.6305183
   6.2178501  34.2782774  53.9395240   7.0983092  35.0678296  53.2451451
   6.4170359  34.9653593  53.6192046  30.5660048  45.1158333  52.6964304
  29.7097943  45.2766832  52.7473421  30.6127702  44.2450397  52.7169365
  30.4459159  45.0109135  52.7070370  24.9501188  54.6521051  48.4601535
  24.1984087  54.2736589  48.2317580  25.3987199  54.6839485  47.7120346
  24.9050854  54.6006658  48.3159038  33.8753764  51.3844859  62.3024760
  34.5820532  50.8896890  62.4311694  34.0641700  51.8253940  61.5727418
  34.0081670  51.3763209  62.2133805  30.4026147  55.0746421  43.8887083
  30.0677516  55.7523342  43.4531305  30.9153018  54.6851732  43.3003954
  30.4291729  55.1170999  43.7373874  29.9430439  57.0260689  49.8298194
  30.3269818  57.5947588  49.2902969  29.8789580  56.3010200  49.3504010
  29.9903866  57.0036153  49.6792057  33.4111869  47.1750377  55.3395955
  33.9567829  47.8535464  55.3989925  33.3528745  47.0337838  54.4797537
  33.4827783  47.2542379  55.2208016  26.5285944  54.6639443  50.7264308
  26.6296307  53.8539797  51.0361436  25.9327689  54.5696390  50.0963986
  26.4558482  54.5304471  50.6790546  26.3686683  59.5817032  52.1279164
  27.0124139  60.0230197  52.5175322  26.6942939  58.7770459  52.0409423
  26.5118512  59.5282227  52.1724641  19.7250988  50.6859730  50.3516642
  19.4901172  49.8527382  50.2448910  19.8636629  50.9664396  49.5377843
  19.7106650  50.6043233  50.2158997  22.0241075  42.8545460  53.2500949
  21.4046107  42.2638108  53.0810964  21.9224939  43.4456896  52.6165273
  21.9178751  42.8549543  53.1305939  27.0707263  52.5929007  47.4999026
  27.3923104  53.1334215  46.8960334  27.7179360  52.0225779  47.6321315
  27.2133318  52.5888182  47.4306061  21.7510208  46.3997742  55.4944518
  21.6268905  46.9860188  56.1294337  22.4028493  45.9057938  55.7956793
  21.8283858  46.4136547  55.6330448  29.3096906  50.9815447  47.5713204
  29.7490542  50.3732548  48.0167977  29.1601569  50.6022821  46.7998669
  29.3518372  50.8353918  47.5232371  26.7768549  49.5759459  54.7732029
  27.4217552  49.0831902  54.4542978  27.0170326  49.7184246  55.5998108
  26.9079135  49.5236901  54.8481563  29.3154641  52.4214365  54.4238922
  29.5977884  51.6265771  54.2025678  30.0440801  52.8994952  54.4443983
  29.4644205  52.3748962  54.3941937  32.9106243  49.3342629  44.5243973
  32.8257538  50.1903595  44.6693542  33.3990626  49.0586953  45.1926132
  32.9695140  49.4199950  44.6446055  25.7324284  49.8490640  44.8249176
  25.1481499  50.3540671  45.2315040  25.3294379  49.6233026  44.0845768
  25.5863588  49.8898888  44.7754201  21.2868313  55.5645401  51.6272848
  20.8035891  56.2895890  51.6032431  22.0991631  55.8621531  51.7383005
  21.3359060  55.7147754  51.6400127  27.3582467  54.3577581  54.2322662
  26.8409408  53.9984996  53.6283970  28.0556858  53.8339756  54.2428728
  27.3848048  54.2275269  54.1452921  31.0146059  54.8072395  60.1938835
  31.1029405  54.6198536  61.0417046  31.4435771  54.1609825  59.7943682
  31.0908161  54.6835403  60.2610587  28.5816518  54.0903555  59.1756497
  28.0187353  53.6776165  59.6996159  29.3437542  54.0156461  59.5949641
  28.6110967  54.0180956  59.3149498  24.1412510  56.0801577  51.7793128
  24.8433089  55.5653566  51.8365884  24.0609993  56.4075728  52.5840003
  24.2336270  56.0515803  51.9065920  25.1891416  46.3177163  60.9073543
  25.3611920  46.2083058  61.7558824  25.7260774  46.9631569  60.6704735
  25.2936420  46.3969165  60.9978639  23.4663285  52.2707929  51.2878736
  24.3052185  52.5030861  51.3352497  23.4975054  51.4012240  51.2185771
  23.5945003  52.1764875  51.2843380  24.0915988  52.6908804  55.5892041
  24.6314213  52.5479935  56.2595414  23.4085935  53.0905555  55.9576067
  24.0708142  52.7288475  55.7426463  33.5156873  48.3699804  50.7837066
  34.2714388  48.8031319  50.8225974  33.6219198  47.7204574  51.3571702
  33.6427044  48.3377288  50.8735091  36.5537044  52.1973082  51.5339468
  36.1172276  52.2009824  52.2898440  36.2199960  52.8778581  51.1019046
  36.4399664  52.2985537  51.5820301  31.1266118  54.2381414  62.8582619
  31.9106535  54.3512262  63.2238361  30.9262713  53.4122552  63.0541305
  31.2132143  54.1328134  62.9417005  19.4953133  48.9109095  55.7426463
  19.2291549  48.0948211  55.9017453  19.5091698  48.9562250  54.8721978
  19.4577856  48.7965999  55.6379945  24.2451740  42.4487473  58.3893470
  23.5523537  41.9784453  58.6354202  24.8612067  42.2225777  58.9635178
  24.2336270  42.3454605  58.5102623  31.2836511  56.1491516  56.5049074
  30.4851757  55.9091017  56.7622943  31.7322523  56.2005909  57.2516122
  31.2311123  56.1213908  56.6533999  30.5758198  52.2124133  42.7340029
  30.9909347  51.8809157  42.0424525  29.7450128  51.9793035  42.6060166
  30.5146207  52.1295389  42.6130876  19.9046547  49.6967874  53.0238207
  19.7222120  49.6714760  52.1710499  20.6396216  50.1666812  53.0627116
  19.9860611  49.7629236  52.9036125  22.9692299  46.4152877  59.5320316
  23.6932271  46.4005907  60.0185210  23.0708435  47.1248232  59.0342284
  23.0910508  46.5177580  59.5299102  30.3437248  49.8951961  64.3969263
  29.5510229  50.2095473  64.5821882  30.4586175  50.1103430  63.5590047
  30.2432659  49.9735798  64.3007597  31.2721041  49.7972165  59.3354559
  31.8459903  49.1599409  59.4903123  31.1935845  49.7976248  58.4664217
  31.3454276  49.7037277  59.2300970  19.8717457  46.5761375  53.1737274
  20.4490960  46.4397825  53.8129519  19.1731519  46.1197159  53.4282858
  19.8538479  46.4883641  53.3059563  26.6284760  48.2295430  51.3875757
  26.3704004  47.3967165  51.3607056  26.6833242  48.4553043  50.5468257
  26.5984537  48.1393202  51.2595894  25.6019472  45.7833193  51.8740651
  25.0269063  45.9425361  52.5104612  25.2255148  45.1468602  51.4109102
  25.4622284  45.7131006  51.8995210  29.2692760  44.2556542  56.7333030
  28.8807193  43.8310760  56.0785221  28.6047459  44.5038692  57.2410057
  29.1139688  44.2295263  56.7120898  15.3476291  45.4273268  49.8885092
  15.4336542  45.0505136  50.6698622  15.9752088  45.0533713  49.4105050
  15.4532842  45.3158750  49.9330569  30.3731699  48.4855147  44.9309837
  31.1872337  48.7770039  44.8192608  30.3090840  47.8315009  44.3568130
  30.4834438  48.4320341  44.8298674  36.5941189  51.1681143  59.3439413
  36.3579826  50.3369208  59.2251473  37.2384418  51.1166750  59.9294257
  36.6535860  51.0378831  59.4125306  26.2439607  51.9576664  50.0582149
  26.8813554  51.7188412  50.6033942  26.6694678  52.1613823  49.3235310
  26.4015773  51.9527674  50.0299306  20.9352249  54.1965001  53.9416453
  20.9756395  54.4679852  53.1136232  21.4946773  54.7206909  54.3574241
  21.0235595  54.3140756  53.8808341  27.0510962  40.4585369  64.1119623
  26.7364403  41.2284932  63.8489185  26.7300895  39.8955625  63.5271850
  26.9569881  40.4895638  63.9860973  37.6177609  50.9525592  55.4067707
  37.3123426  51.6853648  55.7681023  36.8983825  50.5463521  55.1260493
  37.4664952  51.0007325  55.4180844  28.6261079  52.4349087  51.7375935
  28.7000087  52.2724259  52.5917785  29.4430585  52.6239276  51.4936417
  28.7577437  52.4385829  51.8273961  22.3866836  52.7806950  48.7670379
  21.5604953  53.0268687  48.6404658  22.4478827  52.7019030  49.6332437
  22.2741003  52.8051899  48.8759323  24.6042859  38.8475891  49.7265819
  23.7365285  38.9198490  49.7923428  24.8918064  39.6497969  49.9153794
  24.5182607  38.9770038  49.7640585  33.7275748  38.9953750  58.0577141
  34.4729340  38.8063560  57.6440566  33.3113053  39.5211988  57.4990997
  33.7760722  39.0455895  57.9141714  27.1665665  55.3983830  46.4689409
  27.4563963  55.0072811  45.7448635  27.8969145  55.5800535  46.9094684
  27.3172549  55.3677644  46.4272216  27.7560410  50.2001576  57.5542539
  27.2572103  50.9117343  57.6327428  28.5660634  50.5202242  57.5160702
  27.8016516  50.3528424  57.5599108  25.1071580  57.3751212  49.5349558
  24.8871876  57.0848567  50.3276225  24.8866102  56.7166167  49.0067471
  25.0419174  57.2350921  49.5738467  24.0188527  49.4624529  51.8005260
  23.7301776  48.8362000  52.3350987  24.8871875  49.4044816  51.8669941
  24.1048779  49.3612073  51.8896215  27.2739536  58.7480602  48.3180251
  27.9263594  58.2157044  48.5471277  26.5765145  58.3949254  48.7048125
  27.2670254  58.6170125  48.4092419  24.2220801  51.1019780  47.7247625
  24.9766769  51.4832819  47.9383088  23.6291413  51.5530923  48.1794322
  24.2457514  51.2248607  47.8230504  35.2679454  51.0685016  47.6611230
  35.8337487  51.7278226  47.5769773  34.6207358  51.4134714  48.1327632
  35.2558211  51.2166957  47.7183987  26.6827468  43.0582620  62.8504837
  25.8727243  43.3640400  62.7394680  27.1602154  43.7788202  62.9657421
  26.6330947  43.2097221  62.8511908  25.5419027  52.2728341  53.0987741
  25.0199781  52.4128633  53.7839605  25.9293048  51.5139005  53.2889858
  25.5222728  52.1813865  53.2288817  22.5310211  42.3234150  47.1682695
  22.2435007  41.9535420  46.4314642  23.2180680  42.7929005  46.9066400
  22.5899109  42.3381119  47.0197771  31.7386032  54.0123800  47.0848309
  31.4972708  53.2791661  46.6775374  31.9187365  54.5610657  46.4314643
  31.7293656  53.9846191  46.9278532  26.9685353  49.3032360  48.4969232
  26.7728136  49.9107095  47.9029534  27.1919699  48.6100304  48.0160905
  26.9719994  49.2909886  48.3385312  25.3663883  46.1887098  48.6150100
  26.0886535  46.3528256  48.1553906  24.8871876  46.9096763  48.5089440
  25.4027614  46.3185328  48.5315714  33.3257391  42.5250897  53.9946785
  32.4868491  42.5512176  53.7585048  33.3961758  43.1721632  54.5752131
  33.2125784  42.6247023  54.0455902  23.0171500  48.5945170  57.7204240
  23.5292597  48.8729424  57.0713000  22.7307842  49.3334465  58.0867053
  23.0506363  48.7447524  57.6794118  20.1038406  43.1015362  48.0167976
  20.2054542  43.9041524  48.3448952  20.8994293  42.9002698  47.7191057
  20.2366312  43.1901261  48.0203332  26.5355225  40.6871559  57.7805281
  26.3438422  40.7026693  58.6304705  27.3853821  40.8835233  57.7571936
  26.6330947  40.7185910  57.9028576  20.9202138  43.2162541  55.7589098
  20.7787630  42.3646481  55.8833606  21.2042701  43.2591201  54.9351304
  20.9409984  43.0962291  55.6556722  34.9688779  51.7612990  53.6920367
  34.8303139  52.4594036  54.1969110  34.1888777  51.6061647  53.3356549
  34.8332006  51.8413157  53.7146641  33.3066864  48.0609365  59.9442749
  33.3014903  47.1889182  59.9485175  34.0127858  48.2597535  59.4712205
  33.4111868  47.9613240  59.8749784  27.0337758  47.7886349  59.3156569
  27.1781133  48.3687557  58.6799679  27.3813406  48.1662646  60.0206424
  27.1065219  47.9307053  59.3255564  29.2057675  46.9876518  57.0981701
  28.4580989  47.1807532  56.6929979  29.3599200  46.1621737  56.8605822
  29.1180103  46.8941629  57.0027107  26.1065513  55.9789121  56.1817596
  26.2555076  55.4192037  55.5291000  26.8865515  56.0581123  56.5650115
  26.2439606  55.9074687  56.1414545  28.6318813  56.1503764  57.4602087
  28.5562484  55.4812575  58.0152875  28.5608672  56.8521552  57.9742753
  28.6099420  56.1548671  57.6178935  29.4459452  40.8827068  57.9877104
  29.9032066  41.6151043  58.1149897  29.5215781  40.4593534  58.7464360
  29.5250422  40.9284306  58.1178181  21.6892443  41.1292888  59.0766548
  21.1534633  40.5173246  59.3927315  21.7510208  41.7041024  59.7300215
  21.6188076  41.1239816  59.2201975  29.2889060  54.6704763  48.2925693
  30.0538951  54.4014407  47.9708357  29.1867150  54.1854773  49.0095756
  29.3870556  54.5594328  48.3505520  27.3241830  42.8729172  54.8318929
  26.5337905  42.6920632  55.1536264  27.7202453  42.0956125  54.8149223
  27.2658706  42.7316633  54.8771477  32.7085516  50.5071602  52.5578374
  32.0330518  50.2756835  53.0591761  32.7177892  49.8992785  51.9320479
  32.6104021  50.3830528  52.5394527  29.8379660  45.3489431  59.3142427
  29.7738802  46.2099388  59.1862564  29.9776848  45.0321425  58.5137979
  29.8495130  45.4289598  59.1770640  34.7102251  53.3636735  44.7888552
  34.7922088  54.1703721  44.4650003  35.1951993  53.3832694  45.5129326
  34.7939409  53.4857397  44.8475451  28.5198754  48.0421571  53.4558630
  28.0961003  48.2426070  52.7197649  28.3443609  47.1950419  53.5682930
  28.4309635  47.9470352  53.3632320  28.0210448  59.5572084  55.9180088
  28.5106378  58.8582873  55.7355752  27.4494680  59.2595954  56.5056145
  28.0094978  59.4098307  55.9781128  23.8081199  48.5373622  48.8886603
  23.9645818  48.4720425  49.7442595  24.1481792  49.3122175  48.6765282
  23.8814434  48.6422820  48.9841197  30.3460344  47.9131506  47.7579966
  30.8875889  47.4101887  48.2218587  30.6606903  47.8596700  46.9469451
  30.4724741  47.8310927  47.7063778  34.2177451  52.1234153  64.8706878
  35.0312316  51.8519302  65.0312011  34.0572418  51.8241693  64.0667074
  34.3147400  52.0389079  64.7752284  28.5146793  53.3048857  45.0419994
  28.5839614  52.4463396  45.1812994  29.2935249  53.5220738  44.7139019
  28.6399644  53.2101721  45.0137151  31.4949613  42.8067810  57.8102267
  31.7091583  42.1678725  57.2565620  30.8783512  43.2513634  57.3810128
  31.4354942  42.7777954  57.6652698  32.9054281  55.7286559  49.2556487
  32.5134073  55.4253274  48.5379354  33.0607353  56.5655649  49.0661441
  32.8707871  55.8070395  49.1212985  20.3815461  45.7208573  49.2047370
  20.7614425  46.1393118  48.5407637  19.8070825  46.3022028  49.5116213
  20.3526786  45.8686431  49.1524111  33.6588701  44.4156875  58.7485574
  32.8465383  44.1082766  58.8298746  34.1178636  43.9355876  59.3128286
  33.6069086  44.2993368  58.8440168  33.0693956  52.2936547  49.1962518
  32.7108611  52.4651190  49.9726550  32.5832667  52.7549753  48.6390516
  32.9452653  52.3875519  49.2287787  30.7542209  45.8216947  63.5314276
  31.2241840  46.4459063  63.9182150  30.8004089  45.1533922  64.0907491
  30.8310085  45.8151627  63.6714347  29.9805716  38.4666934  56.0855932
  29.5937469  38.4915966  56.8669462  29.4938653  37.9008613  55.6330449
  29.8518225  38.3862685  56.1343836  34.2298695  53.1840443  60.1429719
  34.8678416  52.6900639  59.8092175  33.5872787  53.1117844  59.5581946
  34.2292922  53.0999452  60.0072074  29.6462857  35.3533920  58.3766192
  30.2755975  35.8894220  58.0987263  29.8148720  35.2611279  59.2279758
  29.7640652  35.4195282  58.4614720  29.4476772  40.1405115  60.6492604
  30.2750202  39.8690264  60.7051218  29.4684618  40.9365956  61.0056422
  29.5729622  40.2184869  60.7107787  34.2852952  53.8760252  56.7835076
  35.0745330  53.5249316  56.9037157  34.4596550  54.6896640  56.5211709
  34.4273233  53.9446109  56.7622944  24.0246262  47.2868977  53.8362864
  23.1834269  47.1872852  54.0441758  24.2336270  48.0564458  54.1877185
  23.9310955  47.3861021  53.9190179  21.5021829  44.9088514  51.6647615
  21.1078527  44.9831526  50.8897725  20.9461946  45.2946461  52.2155977
  21.3624642  44.9770289  51.6315275  27.8362927  45.2150377  53.0860462
  27.5326065  44.6606365  53.6870870  27.1342348  45.3942587  52.5988496
  27.6879137  45.1595159  53.1030168  25.8981278  52.4300097  57.7932560
  25.7901633  52.4402159  58.6594618  26.1077060  53.2554878  57.6037514
  25.9131389  52.5541172  57.8936651  23.9155070  49.6812740  55.2554497
  23.3243003  50.3222238  55.2257512  24.6776094  50.1050357  55.2285797
  23.9403331  49.8388578  55.2469645  24.3115693  40.8414737  55.9222515
  24.7717174  40.9153667  56.6597639  24.3571800  41.6395992  55.5722336
  24.3866248  40.9708885  55.9795271  25.9599043  41.5081432  60.4894542
  25.5684608  40.8614779  60.9250320  26.1284905  42.0992868  61.1088797
  25.9269953  41.4995700  60.6457248  33.6744586  55.1322051  52.6886522
  33.4764275  55.6212866  51.9942733  33.0532297  55.3363293  53.2670655
  33.5532151  55.2338590  52.6709745  27.7352565  46.9006948  47.0296766
  28.4794610  47.2881224  47.2679716  27.8813261  46.0564373  47.1937254
  27.8663150  46.8337421  47.0890736  21.1003471  44.4703928  58.2974231
  21.9629084  44.3699637  58.2111561  20.7695254  43.8898637  57.7359803
  21.1788667  44.3695555  58.2019637  35.5918388  48.6986204  58.2231770
  36.3152587  48.2458730  58.0442790  35.3268351  48.9790869  57.4404098
  35.6599662  48.6737172  58.0810486  24.4605257  43.2946377  54.9584649
  23.8358327  43.3064769  54.3510602  24.1250852  43.7706552  55.6075890
  24.3190748  43.3664894  54.9641218  21.1730932  51.3546837  56.3988414
  20.6430857  50.6639276  56.4483388  21.4456026  51.3457023  55.5701122
  21.1355655  51.2513969  56.2835830  32.2051023  51.9372540  45.1226096
  32.9285222  52.4030653  44.9790670  31.7651614  52.0046149  44.3723693
  32.2466715  52.0156376  44.9910878  31.3737178  48.7970082  56.3726785
  30.7594171  48.2528132  56.6675421  31.8904463  48.2834318  55.8932601
  31.3592840  48.6406491  56.3451014  30.6133475  49.8674352  54.1071084
  30.1861083  49.2424071  53.6736519  30.6058419  49.5849274  54.9330091
  30.5492616  49.7327133  54.1650911  23.7296002  44.9039525  57.1759518
  23.8889489  44.1482849  57.5811240  23.5488896  45.4530464  57.8300255
  23.7261361  44.8733339  57.3322224  31.6716305  37.0700761  57.7310307
  31.1756866  37.2664435  57.0401874  32.4285367  37.4693429  57.5599109
  31.7103130  37.1578494  57.6030444  28.9419185  40.7443106  54.3213618
  28.9661672  40.2103219  53.6326398  29.1930658  40.2360415  54.9839208
  28.9829103  40.5904010  54.3178263  16.4526774  48.0274601  53.7556762
  16.3470223  47.9821446  52.8908846  15.7026994  48.3728382  54.0371047
  16.3262377  48.0715510  53.6694092  25.2220507  39.4713925  53.7019362
  25.2618878  39.9723131  54.4154070  24.3970171  39.5624318  53.4325285
  25.1060033  39.5595741  53.7669900  27.4050120  49.0374665  61.8039657
  26.5545750  49.1746379  61.9397302  27.5678247  48.3038443  62.2487358
  27.3033983  48.9488766  61.8895256  26.6434870  45.9874434  55.9993261
  25.8126800  46.1548252  55.7928509  26.5886387  45.6110385  56.7842146
  26.5124285  45.9564166  56.0841789  24.4518653  39.4783327  61.6349672
  25.0771357  38.9345460  61.9079104  23.9969133  38.9978245  61.0657462
  24.4766914  39.3272809  61.5911266  29.8547092  52.0829987  57.3520214
  29.3472183  52.6365834  57.7960844  29.5573738  52.1438277  56.5338988
  29.7351977  52.1736298  57.2968671  32.0209274  40.4483306  56.1944877
  32.4464346  39.9955833  55.5828403  31.4066267  39.8943377  56.4709664
  31.9937920  40.2997283  56.1449902  21.5524124  47.3264978  47.1265502
  22.0616354  47.9229485  47.5076807  22.0258397  47.0590951  46.4441921
  21.6967500  47.3750793  47.0820024  32.4654872  55.9993245  45.2824157
  31.7484182  55.8254107  44.8171395  33.1161610  55.7645817  44.7499643
  32.4556723  55.9389037  45.1353375  29.0989577  57.0154545  54.2577221
  28.8755232  56.2573374  54.6261247  28.6099421  57.0452566  53.5357660
  28.9933026  56.9076770  54.2053962  23.9114656  43.9621236  49.9938682
  23.1926645  44.3785369  50.2611546  24.2827018  44.5275475  49.4430320
  23.8606588  44.1070518  49.9521489  33.2114237  44.5949085  55.8840678
  33.1912164  44.4132380  56.7375457  33.2593438  45.4661104  55.8600261
  33.2148878  44.6965624  56.0063973  31.1560567  51.1836277  61.8089154
  31.1156422  50.5385954  61.2234310  31.9683885  51.1272895  62.1214566
  31.2703720  51.0795244  61.7686104  27.7468034  57.2355003  51.7114305
  27.3328433  56.5729133  51.3218147  28.4315409  57.3832862  51.1909999
  27.7866406  57.1595661  51.5770802  31.1133328  56.3945088  52.4637922
  30.7149612  56.5047359  51.6958742  30.4984548  56.6027155  53.0464482
  30.9632218  56.4418656  52.4369221  26.8438275  44.8133214  58.3638912
  26.3317178  44.2054397  58.7223943  26.6717772  45.5289806  58.8312888
  26.7427912  44.8296513  58.4855136  21.6903990  43.2570789  61.0141274
  21.5206580  43.9172164  60.4689480  21.2469940  43.4677350  61.7353763
  21.6003324  43.3856771  61.0402903  30.7207346  42.7357458  60.8041168
  31.2778776  42.5071268  60.1719633  30.3968411  43.4963124  60.5276380
  30.7553756  42.8141295  60.6697665  18.5906055  46.1617655  56.2729764
  18.0432774  45.4918300  56.3910632  19.3798433  45.7947503  56.3373231
  18.6258238  46.0082641  56.2998464  28.4390463  45.8225112  61.7693175
  29.1901790  46.1376789  62.0832729  28.6313040  45.6204283  60.9427096
  28.5781877  45.8392494  61.6936570  17.3493024  45.3738462  53.4275787
  17.1714785  44.9215071  54.1530702  17.0612046  46.1764624  53.6114264
  17.2805977  45.4261020  53.5619290  33.0116605  46.6296180  52.6653177
  33.5070271  45.9119175  52.6257197  32.2016381  46.3266978  52.5507664
  32.9660499  46.4793826  52.6426903  28.4575217  50.4793993  44.8150181
  27.6486539  50.1560667  44.7683491  28.9650126  49.7727215  44.7478430
  28.4124884  50.3275309  44.7980476  19.0865494  47.9066186  50.5397546
  18.2211013  47.8951877  50.4280317  19.1864310  47.7196409  51.3868685
  18.9739661  47.8772247  50.6486490  35.0768424  49.3799867  55.3530306
  35.5023496  48.8574289  54.8000731  34.7125344  49.9780705  54.8318929
  35.0855027  49.3910094  55.1939316  24.7122504  57.6764085  54.1127651
  25.0269063  58.4900473  54.1205433  25.1215917  57.2914304  54.7809810
  24.8190602  57.7392787  54.2131743  31.6647024  53.0934132  51.6831463
  32.1358202  53.8074394  51.8521448  32.0007202  52.4932882  52.2191333
  31.7842139  53.1105596  51.7863839  33.7524008  54.7035445  63.8623535
  33.8620974  53.9144006  64.2180283  34.0814905  54.6141381  63.0597873
  33.8176414  54.5741298  63.7965926  28.5816518  37.8661602  58.6389558
  28.7144424  37.0692596  58.9670534  28.9661671  38.3928005  59.2187834
  28.6572847  37.8261519  58.7733061  32.3020970  52.8852066  58.4459156
  31.7541916  52.2609949  58.1779221  32.7633999  53.0746338  57.7303235
  32.2888179  52.8211116  58.3009587  35.1114834  40.9537420  55.8310348
  34.5277823  41.4546627  55.4187916  35.4319128  40.4466976  55.1974671
  35.0728010  40.9529255  55.6768855  26.2404965  37.8620777  56.8867452
  26.7849378  37.5211904  57.4771793  26.2941901  38.7206239  57.0288736
  26.3294085  37.9376037  56.9949325  22.0535524  51.6237193  53.7606260
  22.6580381  51.5833027  53.1320080  21.8462837  52.4708345  53.7910316
  22.1124421  51.7425196  53.6722376  31.8679296  53.8903138  54.9768497
  32.6877670  53.7466105  55.2384792  31.5873374  54.5149337  55.5184935
  31.9476040  53.9613491  55.0956436  17.2886806  50.6071811  53.6305183
  17.1911084  49.7968082  53.9395240  18.0715676  50.5863604  53.2451451
  17.3902943  50.4838901  53.6192046  48.3392947  61.5467990  47.9411373
  48.3086951  62.4012627  48.1129643  48.9374295  61.2463283  48.4997517
  48.4230104  61.6284487  48.0486176  41.5392631  60.6343641  52.6964304
  40.6830527  60.7952139  52.7473421  41.5860285  59.7635705  52.7169365
  41.4191743  60.5294443  52.7070370  35.9233771  70.1706359  48.4601535
  35.1716671  69.7921897  48.2317580  36.3719783  70.2024793  47.7120346
  35.8783438  70.1191966  48.3159038  44.8486348  66.9030167  62.3024760
  45.5553115  66.4082198  62.4311694  45.0374283  67.3439248  61.5727418
  44.9814254  66.8948517  62.2133805  41.3758731  70.5931729  43.8887083
  41.0410099  71.2708650  43.4531305  41.8885601  70.2037040  43.3003954
  41.4024312  70.6356307  43.7373874  40.9163022  72.5445997  49.8298194
  41.3002402  73.1132896  49.2902969  40.8522164  71.8195508  49.3504010
  40.9636449  72.5221461  49.6792057  44.3844452  62.6935685  55.3395955
  44.9300412  63.3720772  55.3989925  44.3261329  62.5523146  54.4797537
  44.4560367  62.7727687  55.2208016  37.5018527  70.1824751  50.7264308
  37.6028890  69.3725105  51.0361436  36.9060273  70.0881698  50.0963986
  37.4291066  70.0489779  50.6790546  46.1609521  64.1220292  46.2129683
  46.0449047  64.8727978  46.6421821  46.9565408  63.8644246  46.4625770
  46.2614111  64.1955139  46.3133775  37.3419267  75.1002340  52.1279164
  37.9856722  75.5415504  52.5175322  37.6675522  74.2955767  52.0409423
  37.4851096  75.0467535  52.1724641  30.6983572  66.2045038  50.3516642
  30.4633756  65.3712690  50.2448910  30.8369212  66.4849703  49.5377843
  30.6839234  66.1228541  50.2158997  32.9973659  58.3730768  53.2500949
  32.3778691  57.7823416  53.0810964  32.8957523  58.9642204  52.6165273
  32.8911335  58.3734851  53.1305939  38.0439847  68.1114315  47.4999026
  38.3655688  68.6519523  46.8960334  38.6911943  67.5411087  47.6321315
  38.1865902  68.1073490  47.4306061  40.0941555  60.1130310  47.5833412
  40.7921719  60.2918438  48.0754876  40.4093887  59.5900650  46.9603802
  40.2436892  60.0624082  47.5635423  32.7242792  61.9183050  55.4944518
  32.6001489  62.5045496  56.1294337  33.3761077  61.4243246  55.7956793
  32.8016441  61.9321855  55.6330448  40.2829490  66.5000755  47.5713204
  40.7223126  65.8917856  48.0167977  40.1334153  66.1208129  46.7998669
  40.3250956  66.3539226  47.5232371  37.7501133  65.0944767  54.7732029
  38.3950136  64.6017210  54.4542978  37.9902910  65.2369554  55.5998108
  37.8811718  65.0422209  54.8481563  40.2887224  67.9399673  54.4238922
  40.5710467  67.1451079  54.2025678  41.0173385  68.4180260  54.4443983
  40.4376788  67.8934270  54.3941937  38.2668418  55.4822707  51.6654687
  37.9371748  55.9333850  50.9958386  37.5913420  55.4038870  52.2127693
  38.1178855  55.5373842  51.6477910  43.8838827  64.8527936  44.5243973
  43.7990122  65.7088903  44.6693542  44.3723210  64.5772261  45.1926132
  43.9427724  64.9385258  44.6446055  44.8157260  61.4712731  46.0241708
  44.2868731  61.6872364  46.6839014  45.3382280  62.1648869  45.9442678
  44.8145713  61.6055868  46.1097307  50.2705313  67.0459035  51.3974753
  49.4403016  67.2569679  51.5608169  50.2214565  66.2196090  51.1217036
  50.1412048  66.9548641  51.3812118  36.7056868  65.3675947  44.8249176
  36.1214083  65.8725979  45.2315040  36.3026963  65.1418334  44.0845768
  36.5596171  65.4084196  44.7754201  32.2600896  71.0830709  51.6272848
  31.7768474  71.8081198  51.6032431  33.0724215  71.3806839  51.7383005
  32.3091644  71.2333062  51.6400127  38.3315050  69.8762889  54.2322662
  37.8141992  69.5170304  53.6283970  39.0289442  69.3525064  54.2428728
  38.3580631  69.7460577  54.1452921  41.9878642  70.3257703  60.1938835
  42.0761988  70.1383844  61.0417046  42.4168355  69.6795133  59.7943682
  42.0640745  70.2020711  60.2610587  39.5549102  69.6088863  59.1756497
  38.9919937  69.1961473  59.6996159  40.3170126  69.5341769  59.5949641
  39.5843551  69.5366264  59.3149498  41.1634082  61.6141600  43.3018097
  41.4030086  61.8219583  42.4893440  41.4849923  60.8099108  43.4107041
  41.2471240  61.5255701  43.1978650  36.4724372  53.5434995  47.1477635
  37.2270340  53.9113312  46.9094685  36.2951907  53.9174550  47.9156814
  36.5578851  53.6533183  47.2262523  35.1145094  71.5986884  51.7793128
  35.8165673  71.0838874  51.8365884  35.0342577  71.9261036  52.5840003
  35.2068854  71.5701111  51.9065920  49.7659271  59.6929436  55.1925174
  48.9287692  59.7631623  55.4272769  49.7347502  59.6953931  54.3199476
  49.6377553  59.7039663  55.0984722  36.1624000  61.8362471  60.9073543
  36.3344504  61.7268366  61.7558824  36.6993358  62.4816877  60.6704735
  36.2669004  61.9154473  60.9978639  34.8281437  55.9505314  43.8455748
  34.6457010  56.1677195  43.0196741  35.6907050  56.0644327  43.9014362
  34.9286026  55.9995212  43.7310235  34.4395869  67.7893236  51.2878736
  35.2784768  68.0216169  51.3352497  34.4707638  66.9197548  51.2185771
  34.5677587  67.6950183  51.2843380  35.0648572  68.2094112  55.5892041
  35.6046797  68.0665243  56.2595414  34.3818518  68.6090862  55.9576067
  35.0440726  68.2473783  55.7426463  44.4889457  63.8885112  50.7837066
  45.2446972  64.3216627  50.8225974  44.5951781  63.2389882  51.3571702
  44.6159627  63.8562596  50.8735091  47.5269628  67.7158390  51.5339468
  47.0904860  67.7195132  52.2898440  47.1932543  68.3963889  51.1019046
  47.4132248  67.8170845  51.5820301  42.0998702  69.7566722  62.8582619
  42.8839118  69.8697570  63.2238361  41.8995296  68.9307859  63.0541305
  42.1864727  69.6513442  62.9417005  30.4685717  64.4294402  55.7426463
  30.2024132  63.6133519  55.9017453  30.4824281  64.4747558  54.8721978
  30.4310439  64.3151307  55.6379945  47.4467111  54.7572217  53.7768896
  48.0893019  54.8270322  54.3630812  47.6990132  54.0901440  53.2748438
  47.5789243  54.6698566  53.7896176  34.3743464  59.2279487  42.3578221
  33.6601641  58.9417666  42.7700653  34.8587433  59.5676113  42.9984608
  34.3402827  59.2361137  42.5133856  35.2184323  57.9672781  58.3893470
  34.5256120  57.4969760  58.6354202  35.8344651  57.7411085  58.9635178
  35.2068853  57.8639913  58.5102623  42.2569095  71.6676824  56.5049074
  41.4584341  71.4276324  56.7622943  42.7055106  71.7191217  57.2516122
  42.2043706  71.6399216  56.6533999  50.6613974  64.4339309  50.4259106
  51.3230408  63.8729978  50.3255014  50.0205386  63.9391340  50.7511797
  50.6642842  64.2775718  50.4591446  41.5490782  67.7309441  42.7340029
  41.9641930  67.3994465  42.0424525  40.7182712  67.4978343  42.6060166
  41.4878791  67.6480697  42.6130876  30.8779131  65.2153182  53.0238207
  30.6954704  65.1900068  52.1710499  31.6128800  65.6852120  53.0627116
  30.9593195  65.2814544  52.9036125  46.9478805  65.4504692  50.1671094
  47.1834394  65.5949891  49.3397945  47.0968369  66.2147100  50.5602608
  47.0044608  65.5843746  50.1034698  33.9424882  61.9338185  59.5320316
  34.6664855  61.9191215  60.0185210  34.0441019  62.6433540  59.0342284
  34.0643091  62.0362888  59.5299102  48.7769262  64.2906358  48.0040698
  49.1077479  64.8233998  47.3980793  49.3502350  64.3445246  48.6602649
  48.9102941  64.3775927  48.0118480  41.3169832  65.4137269  64.3969263
  40.5242813  65.7280781  64.5821882  41.4318759  65.6288738  63.5590047
  41.2165242  65.4921106  64.3007597  43.9901151  62.1371260  48.6864278
  44.0848005  62.8760555  49.1403904  43.3659994  61.7088736  49.1198843
  43.9110181  62.1832581  48.8172426  42.2453625  65.3157473  59.3354559
  42.8192486  64.6784717  59.4903123  42.1668428  65.3161556  58.4664217
  42.3186859  65.2222585  59.2300970  30.8450041  62.0946683  53.1737274
  31.4223544  61.9583133  53.8129519  30.1464103  61.6382467  53.4282858
  30.8271062  62.0068949  53.3059563  44.2424172  63.9820000  41.9201230
  44.1604335  64.0522187  42.7856217  44.8803893  64.5449744  41.7284971
  44.3244009  64.0758971  42.0191180  37.6017343  63.7480738  51.3875757
  37.3436587  62.9152473  51.3607056  37.6565826  63.9738351  50.5468257
  37.5717121  63.6578509  51.2595894  36.5752055  61.3018501  51.8740651
  36.0001647  61.4610669  52.5104612  36.1987732  60.6653910  51.4109102
  36.4354868  61.2316314  51.8995210  40.2425344  59.7741850  56.7333030
  39.8539777  59.3496068  56.0785221  39.5780042  60.0224000  57.2410057
  40.0872272  59.7480571  56.7120898  49.8848613  59.5316855  49.5080860
  49.6285178  58.7196796  49.3178743  50.7277927  59.5394422  49.2811047
  49.9714639  59.4128852  49.4465677  26.3208874  60.9458575  49.8885092
  26.4069126  60.5690444  50.6698622  26.9484672  60.5719021  49.4105050
  26.4265425  60.8344058  49.9330569  44.0651706  53.4716479  54.2457014
  44.4462217  52.7894650  54.6324888  43.2614990  53.1826081  54.0632679
  44.0028167  53.3283527  54.2761070  41.3464282  64.0040455  44.9309837
  42.1604921  64.2955347  44.8192608  41.2823423  63.3500317  44.3568130
  41.4567021  63.9505649  44.8298674  47.5673772  66.6866451  59.3439413
  47.3312410  65.8554515  59.2251473  48.2117001  66.6352058  59.9294257
  47.6268443  66.5564139  59.4125306  37.2172190  67.4761972  50.0582149
  37.8546137  67.2373720  50.6033942  37.6427262  67.6799131  49.3235310
  37.3748357  67.4712982  50.0299306  31.9084833  69.7150309  53.9416453
  31.9488978  69.9865160  53.1136232  32.4679357  70.2392217  54.3574241
  31.9968179  69.8326064  53.8808341  37.8575006  62.6964262  44.3957038
  38.2420158  62.4771969  45.1473583  37.6086626  63.5227207  44.5258115
  37.8777078  62.7862408  44.5258115  38.0243546  55.9770677  64.1119623
  37.7096987  56.7470240  63.8489185  37.7033478  55.4140933  63.5271850
  37.9302465  56.0080946  63.9860973  48.5910193  66.4710899  55.4067707
  48.2856010  67.2038956  55.7681023  47.8716409  66.0648829  55.1260493
  48.4397535  66.5192632  55.4180844  39.5993662  67.9534395  51.7375935
  39.6732671  67.7909566  52.5917785  40.4163169  68.1424584  51.4936417
  39.7310021  67.9571137  51.8273961  54.2911985  63.1103900  54.7336051
  54.2236485  63.1299859  53.8638638  54.2767648  63.9534227  54.9591722
  54.2790742  63.2377635  54.6388528  33.3599419  68.2992257  48.7670379
  32.5337537  68.5453995  48.6404658  33.4211410  68.2204338  49.6332437
  33.2473586  68.3237206  48.8759323  35.5775443  54.3661198  49.7265819
  34.7097868  54.4383798  49.7923428  35.8650647  55.1683277  49.9153794
  35.4915191  54.4955346  49.7640585  44.7008332  54.5139058  58.0577141
  45.4461924  54.3248868  57.6440566  44.2845636  55.0397296  57.4990997
  44.7493306  54.5641203  57.9141714  38.1398248  70.9169138  46.4689409
  38.4296547  70.5258119  45.7448635  38.8701729  71.0985843  46.9094684
  38.2905132  70.8862951  46.4272216  52.0770602  61.8848286  53.0082646
  52.6278524  61.2516355  53.2479738  52.0614718  62.4163679  53.6998150
  52.1555799  61.8697234  53.1461504  38.7292993  65.7186884  57.5542539
  38.2304687  66.4302651  57.6327428  39.5393218  66.0387550  57.5160702
  38.7749100  65.8713732  57.5599108  36.0804164  72.8936520  49.5349558
  35.8604459  72.6033875  50.3276225  35.8598686  72.2351475  49.0067471
  36.0151758  72.7536228  49.5738467  34.9921111  64.9809837  51.8005260
  34.7034360  64.3547308  52.3350987  35.8604459  64.9230124  51.8669941
  35.0781363  64.8797381  51.8896215  45.7799009  60.1244620  52.1187242
  45.4363775  59.4034955  52.4694492  45.8792051  59.9158471  51.2765600
  45.7441052  59.9868823  52.0458922  38.2472119  74.2665910  48.3180251
  38.8996177  73.7342352  48.5471277  37.5497728  73.9134562  48.7048125
  38.2402837  74.1355433  48.4092419  35.1953384  66.6205088  47.7247625
  35.9499352  67.0018127  47.9383088  34.6023997  67.0716231  48.1794322
  35.2190098  66.7433915  47.8230504  46.2412038  66.5870324  47.6611230
  46.8070070  67.2463534  47.5769773  45.5939941  66.9320022  48.1327632
  46.2290794  66.7352265  47.7183987  37.6560051  58.5767928  62.8504837
  36.8459827  58.8825708  62.7394680  38.1334738  59.2973510  62.9657421
  37.6063530  58.7282529  62.8511908  36.5151611  67.7913649  53.0987741
  35.9932364  67.9313941  53.7839605  36.9025631  67.0324313  53.2889858
  36.4955312  67.6999173  53.2288817  33.5042795  57.8419458  47.1682695
  33.2167591  57.4720728  46.4314642  34.1913263  58.3114313  46.9066400
  33.5631692  57.8566427  47.0197771  42.7118616  69.5309108  47.0848309
  42.4705292  68.7976969  46.6775374  42.8919949  70.0795965  46.4314643
  42.7026240  69.5031499  46.9278532  37.9417937  64.8217668  48.4969232
  37.7460719  65.4292403  47.9029534  38.1652282  64.1285612  48.0160905
  37.9452578  64.8095194  48.3385312  36.3396467  61.7072406  48.6150100
  37.0619118  61.8713564  48.1553906  35.8604459  62.4282071  48.5089440
  36.3760197  61.8370636  48.5315714  44.2989974  58.0436205  53.9946785
  43.4601075  58.0697484  53.7585048  44.3694341  58.6906940  54.5752131
  44.1858368  58.1432331  54.0455902  33.9904083  64.1130478  57.7204240
  34.5025180  64.3914732  57.0713000  33.7040426  64.8519772  58.0867053
  34.0238946  64.2632832  57.6794118  48.1747498  63.2504192  51.2808027
  48.0881472  63.4059618  52.1342805  47.7197978  63.8942267  50.9067432
  48.0950755  63.3679947  51.3515133  31.0770990  58.6200670  48.0167976
  31.1787126  59.4226832  48.3448952  31.8726876  58.4188006  47.7191057
  31.2098895  58.7086569  48.0203332  37.5087809  56.2056867  57.7805281
  37.3171006  56.2212001  58.6304705  38.3586405  56.4020541  57.7571936
  37.6063531  56.2371218  57.9028576  31.8934722  58.7347848  55.7589098
  31.7520213  57.8831789  55.8833606  32.1775285  58.7776509  54.9351304
  31.9142568  58.6147598  55.6556722  42.0473314  60.5714939  49.9033586
  41.8008028  60.4910690  50.7370375  42.3758437  59.7868406  49.7096114
  42.0594558  60.4441204  49.9981109  45.9421363  67.2798298  53.6920367
  45.8035722  67.9779344  54.1969110  45.1621361  67.1246954  53.3356549
  45.8064590  67.3598465  53.7146641  44.2799448  63.5794673  59.9442749
  44.2747486  62.7074490  59.9485175  44.9860442  63.7782842  59.4712205
  44.3844452  63.4798548  59.8749784  38.0070341  63.3071657  59.3156569
  38.1513717  63.8872865  58.6799679  38.3545990  63.6847954  60.0206424
  38.0797803  63.4492361  59.3255564  40.1790259  62.5061826  57.0981701
  39.4313573  62.6992840  56.6929979  40.3331784  61.6807045  56.8605822
  40.0912686  62.4126937  57.0027107  37.0798096  71.4974429  56.1817596
  37.2287660  70.9377345  55.5291000  37.8598098  71.5766431  56.5650115
  37.2172190  71.4259995  56.1414545  47.4374736  66.6376552  44.4536867
  47.0581544  65.8513690  44.4466156  46.7740981  67.1863409  44.3108511
  47.2833210  66.6021376  44.4317663  39.6051397  71.6689072  57.4602087
  39.5295068  70.9997882  58.0152875  39.5341256  72.3706860  57.9742753
  39.5832004  71.6733979  57.6178935  40.4192036  56.4012376  57.9877104
  40.8764650  57.1336351  58.1149897  40.4948364  55.9778842  58.7464360
  40.4983006  56.4469614  58.1178181  32.6625027  56.6478196  59.0766548
  32.1267216  56.0358554  59.3927315  32.7242792  57.2226332  59.7300215
  32.5920660  56.6425124  59.2201975  40.2621644  70.1890071  48.2925693
  41.0271535  69.9199715  47.9708357  40.1599734  69.7040081  49.0095756
  40.3603139  70.0779635  48.3505520  38.2974414  58.3914480  54.8318929
  37.5070488  58.2105940  55.1536264  38.6935036  57.6141433  54.8149223
  38.2391290  58.2501941  54.8771477  42.7840304  67.2202255  40.2725642
  43.5513289  67.2802380  39.8631494  42.3371613  66.6482696  39.7881961
  42.8313732  67.1438830  40.1403352  43.6818100  66.0256910  52.5578374
  43.0063102  65.7942143  53.0591761  43.6910476  65.4178093  51.9320479
  43.5836604  65.9015836  52.5394527  40.8112244  60.8674739  59.3142427
  40.7471385  61.7284696  59.1862564  40.9509432  60.5506733  58.5137979
  40.8227714  60.9474906  59.1770640  45.6834834  68.8822043  44.7888552
  45.7654672  69.6889029  44.4650003  46.1684577  68.9018002  45.5129326
  45.7671992  69.0042705  44.8475451  39.4931338  63.5606879  53.4558630
  39.0693587  63.7611378  52.7197649  39.3176193  62.7135727  53.5682930
  39.4042218  63.4655660  53.3632320  38.9943031  75.0757392  55.9180088
  39.4838962  74.3768181  55.7355752  38.4227263  74.7781262  56.5056145
  38.9827561  74.9283615  55.9781128  34.7813783  64.0558930  48.8886603
  34.9378402  63.9905733  49.7442595  35.1214376  64.8307483  48.6765282
  34.8547018  64.1608128  48.9841197  41.3192927  63.4316814  47.7579966
  41.8608473  62.9287195  48.2218587  41.6339486  63.3782008  46.9469451
  41.4457324  63.3496235  47.7063778  45.1910035  67.6419461  64.8706878
  46.0044900  67.3704610  65.0312011  45.0305001  67.3427001  64.0667074
  45.2879983  67.5574387  64.7752284  39.4879377  68.8234165  45.0419994
  39.5572197  67.9648704  45.1812994  40.2667832  69.0406046  44.7139019
  39.6132227  68.7287029  45.0137151  42.4682197  58.3253118  57.8102267
  42.6824166  57.6864032  57.2565620  41.8516096  58.7698942  57.3810128
  42.4087526  58.2963262  57.6652698  43.8786865  71.2471867  49.2556487
  43.4866656  70.9438582  48.5379354  44.0339937  72.0840956  49.0661441
  43.8440454  71.3255703  49.1212985  31.3548044  61.2393881  49.2047370
  31.7347009  61.6578426  48.5407637  30.7803409  61.8207336  49.5116213
  31.3259369  61.3871739  49.1524111  44.6321285  59.9342183  58.7485574
  43.8197966  59.6268074  58.8298746  45.0911219  59.4541184  59.3128286
  44.5801669  59.8178676  58.8440168  44.0426539  67.8121855  49.1962518
  43.6841194  67.9836498  49.9726550  43.5565250  68.2735061  48.6390516
  43.9185236  67.9060826  49.2287787  38.8314905  63.4921021  41.7362752
  39.1207430  64.2685903  42.0106327  38.9186704  62.9809752  42.4377252
  38.8869161  63.5312939  41.8805250  41.7274792  61.3402255  63.5314276
  42.1974423  61.9644371  63.9182150  41.7736672  60.6719230  64.0907491
  41.8042668  61.3336935  63.6714347  40.9538299  53.9852242  56.0855932
  40.5670052  54.0101274  56.8669462  40.4671237  53.4193921  55.6330449
  40.8250808  53.9047993  56.1343836  45.2031279  68.7025751  60.1429719
  45.8410999  68.2085947  59.8092175  44.5605370  68.6303152  59.5581946
  45.2025505  68.6184760  60.0072074  46.9288279  60.5514897  54.7095634
  46.5015887  60.4641246  53.9543734  46.2914332  60.6592673  55.2950479
  46.7717886  60.5547557  54.6841076  40.6195441  50.8719228  58.3766192
  41.2488559  51.4079528  58.0987263  40.7881304  50.7796587  59.2279758
  40.7373236  50.9380590  58.4614720  40.4209356  55.6590423  60.6492604
  41.2482785  55.3875571  60.7051218  40.4417202  56.4551264  61.0056422
  40.5462206  55.7370177  60.7107787  45.2585535  69.3945560  56.7835076
  46.0477914  69.0434624  56.9037157  45.4329133  70.2081948  56.5211709
  45.4005817  69.4631417  56.7622944  34.9978846  62.8054285  53.8362864
  34.1566852  62.7058160  54.0441758  35.2068854  63.5749766  54.1877185
  34.9043538  62.9046329  53.9190179  32.4754413  60.4273822  51.6647615
  32.0811110  60.5016834  50.8897725  31.9194530  60.8131769  52.2155977
  32.3357225  60.4955597  51.6315275  38.8095511  60.7335685  53.0860462
  38.5058648  60.1791673  53.6870870  38.1074931  60.9127895  52.5988496
  38.6611720  60.6780467  53.1030168  37.8661608  58.0436204  47.6505164
  38.1421342  57.3255117  47.2382731  38.4660277  58.6421124  47.4426270
  37.9954872  58.0256575  47.5585925  36.8713862  67.9485405  57.7932560
  36.7634217  67.9587467  58.6594618  37.0809643  68.7740186  57.6037514
  36.8863973  68.0726480  57.8936651  41.3672128  55.7149722  45.9251759
  41.8215875  55.8860282  46.6499603  41.8412174  55.1017832  45.5249535
  41.5040448  55.6500607  45.9725520  34.8887654  65.1998048  55.2554497
  34.2975587  65.8407546  55.2257512  35.6508677  65.6235665  55.2285797
  34.9135914  65.3573886  55.2469645  35.2848276  56.3600045  55.9222515
  35.7449758  56.4338975  56.6597639  35.3304383  57.1581299  55.5722336
  35.3598832  56.4894192  55.9795271  36.9331626  57.0266740  60.4894542
  36.5417191  56.3800087  60.9250320  37.1017489  57.6178176  61.1088797
  36.9002537  57.0181008  60.6457248  51.0078075  65.0303817  56.2531776
  51.0661199  65.4790466  56.9991752  50.3744543  65.4402630  55.8161856
  50.9229370  65.1577552  56.2984324  44.6477170  70.6507359  52.6886522
  44.4496859  71.1398174  51.9942733  44.0264881  70.8548601  53.2670655
  44.5264734  70.7523897  52.6709745  38.7085148  62.4192256  47.0296766
  39.4527193  62.8066532  47.2679716  38.8545844  61.5749681  47.1937254
  38.8395733  62.3522729  47.0890736  41.6963024  57.9917729  52.9290685
  41.2222978  57.4659491  53.4395996  42.0681160  57.4447202  52.3605547
  41.6812913  57.8333726  52.9205833  32.0736054  59.9889236  58.2974231
  32.9361667  59.8884945  58.2111561  31.7427837  59.4083945  57.7359803
  32.1521251  59.8880863  58.2019637  47.9599755  63.0520105  54.3397466
  47.7197978  62.2126520  54.3439892  48.4391762  63.1320272  55.0638239
  47.9951938  62.9401505  54.4472268  43.6246524  58.8854284  45.9916439
  43.0969542  58.9683028  45.3022148  44.0842232  59.6272155  45.9881084
  43.6148374  59.0074946  45.8891134  49.9604942  59.8321562  52.2926725
  49.7214712  59.7917396  51.4547510  50.1238843  60.6792714  52.4192446
  49.9495245  59.9513647  52.1880207  46.5650972  64.2171512  58.2231770
  47.2885171  63.7644038  58.0442790  46.3000934  64.4976177  57.4404098
  46.6332245  64.1922480  58.0810486  35.4337840  58.8131685  54.9584649
  34.8090910  58.8250077  54.3510602  35.0983435  59.2891860  55.6075890
  35.2923332  58.8850202  54.9641218  35.6179589  57.1556804  41.0157334
  35.2692393  57.8076529  41.4788884  35.1376035  57.1413917  40.2881206
  35.4949833  57.2499857  40.9768426  32.1463516  66.8732145  56.3988414
  31.6163440  66.1824584  56.4483388  32.4188609  66.8642330  55.5701122
  32.1088238  66.7699277  56.2835830  43.1783606  67.4557848  45.1226096
  43.9017805  67.9215961  44.9790670  42.7384197  67.5231457  44.3723693
  43.2199298  67.5341684  44.9910878  42.3469761  64.3155390  56.3726785
  41.7326754  63.7713440  56.6675421  42.8637046  63.8019626  55.8932601
  42.3325424  64.1591799  56.3451014  41.5866058  65.3859660  54.1071084
  41.1593667  64.7609378  53.6736519  41.5791003  65.1034582  54.9330091
  41.5225200  65.2512440  54.1650911  34.7028586  60.4224833  57.1759518
  34.8622072  59.6668157  57.5811240  34.5221479  60.9715772  57.8300255
  34.6993945  60.3918647  57.3322224  42.6448889  52.5886068  57.7310307
  42.1489450  52.7849743  57.0401874  43.4017951  52.9878737  57.5599109
  42.6835713  52.6763802  57.6030444  39.9151768  56.2628414  54.3213618
  39.9394255  55.7288527  53.6326398  40.1663242  55.7545723  54.9839208
  39.9561687  56.1089318  54.3178263  27.4259358  63.5459909  53.7556762
  27.3202807  63.5006754  52.8908846  26.6759578  63.8913690  54.0371047
  27.2994961  63.5900817  53.6694092  36.1953090  54.9899233  53.7019362
  36.2351462  55.4908439  54.4154070  35.3702755  55.0809626  53.4325285
  36.0792616  55.0781049  53.7669900  38.3782703  64.5559973  61.8039657
  37.5278334  64.6931687  61.9397302  38.5410831  63.8223751  62.2487358
  38.2766567  64.4674074  61.8895256  37.6167454  61.5059742  55.9993261
  36.7859383  61.6733560  55.7928509  37.5618971  61.1295693  56.7842146
  37.4856869  61.4749474  56.0841789  35.4251237  54.9968635  61.6349672
  36.0503940  54.4530768  61.9079104  34.9701717  54.5163553  61.0657462
  35.4499498  54.8458117  61.5911266  35.9903498  59.7815334  46.5283379
  36.1306459  60.2787798  47.2312020  36.4886030  59.0801628  46.6697593
  36.0844579  59.7517313  46.6534958  36.0203720  60.6482445  43.8575956
  36.6548799  61.2442870  43.7925417  36.1029331  60.3485903  44.6721826
  36.1260271  60.6923353  43.9679042  48.9986286  63.1797922  56.7262320
  49.5904126  63.8195173  56.7580518  49.4345280  62.4820959  57.0154387
  49.1504717  63.1716273  56.7743152  37.5982703  56.5796420  43.8321398
  37.9198544  56.0999503  43.1780660  37.8609647  57.3896066  43.6412209
  37.6848728  56.6286318  43.7076890  40.8279676  67.6015295  57.3520214
  40.3204767  68.1551142  57.7960844  40.5306322  67.6623585  56.5338988
  40.7084561  67.6921606  57.2968671  42.9941858  55.9668614  56.1944877
  43.4196929  55.5141141  55.5828403  42.3798851  55.4128685  56.4709664
  42.9670503  55.8182591  56.1449902  32.5256708  62.8450286  47.1265502
  33.0348937  63.4414793  47.5076807  32.9990980  62.5776259  46.4441921
  32.6700084  62.8936101  47.0820024  43.4387456  71.5178552  45.2824157
  42.7216766  71.3439415  44.8171395  44.0894194  71.2831125  44.7499643
  43.4289306  71.4574345  45.1353375  46.0235427  60.3943141  49.0265462
  45.3526617  60.9372843  48.8978528  46.7175177  60.8637996  48.7847157
  46.0264295  60.5441412  48.9720990  40.0722161  72.5339853  54.2577221
  39.8487815  71.7758682  54.6261247  39.5832004  72.5637874  53.5357660
  39.9665610  72.4262078  54.2053962  46.1863555  56.8499025  51.9355836
  46.5391165  56.4228748  52.6101634  45.3278356  56.7649868  52.0656912
  46.1112999  56.7743765  52.0550846  34.8847240  59.4806544  49.9938682
  34.1659229  59.8970677  50.2611546  35.2559602  60.0460783  49.4430320
  34.8339171  59.6255826  49.9521489  44.1846820  60.1134393  55.8840678
  44.1644748  59.9317688  56.7375457  44.2326021  60.9846412  55.8600261
  44.1881461  60.2150931  56.0063973  42.1293150  66.7021585  61.8089154
  42.0889005  66.0571262  61.2234310  42.9416469  66.6458203  62.1214566
  42.2436304  66.5980552  61.7686104  38.7200618  72.7540311  51.7114305
  38.3061016  72.0914441  51.3218147  39.4047992  72.9018170  51.1909999
  38.7598990  72.6780969  51.5770802  42.0865912  71.9130396  52.4637922
  41.6882195  72.0232667  51.6958742  41.4717132  72.1212463  53.0464482
  41.9364801  71.9603964  52.4369221  40.6593814  58.5204544  45.3312062
  40.0658653  58.8421541  44.7796629  40.6969092  57.6745640  45.1233168
  40.5768203  58.4428872  45.2194833  43.5351631  58.4784049  48.7613812
  43.3065324  58.5016750  47.9192170  43.7949707  57.6541516  48.8808822
  43.5397819  58.3600129  48.6539010  37.8170859  60.3318522  58.3638912
  37.3049762  59.7239705  58.7223943  37.6450355  61.0475114  58.8312888
  37.7160496  60.3481821  58.4855136  32.6636574  58.7756097  61.0141274
  32.4939164  59.4357472  60.4689480  32.2202524  58.9862658  61.7353763
  32.5735907  58.9042079  61.0402903  36.5896393  57.0160595  50.0568008
  37.0653759  57.3777675  49.4218189  36.0884993  57.6717063  50.3368150
  36.5861752  57.1654784  50.0044748  49.8207755  66.4882363  45.8481013
  50.2041360  67.2373719  46.0779110  49.0251868  66.7348183  45.5893002
  49.7601537  66.6352057  45.8438586  41.6939929  58.2542766  60.8041168
  42.2511359  58.0256576  60.1719633  41.3700994  59.0148432  60.5276380
  41.7286340  58.3326603  60.6697665  29.5638638  61.6802963  56.2729764
  29.0165358  61.0103608  56.3910632  30.3531016  61.3132810  56.3373231
  29.5990822  61.5267949  56.2998464  39.4123047  61.3410420  61.7693175
  40.1634374  61.6562097  62.0832729  39.6045623  61.1389591  60.9427096
  39.5514461  61.3577801  61.6936570  38.6323046  59.1601795  43.4241391
  39.0122011  59.1781424  42.6392506  37.8915642  59.6055784  43.3032239
  38.5791884  59.2283569  43.2904960  46.2608337  57.4683986  49.0116970
  46.2602563  57.3132643  49.8701246  46.0564517  58.3146973  48.9558356
  46.2308115  57.5704607  49.1304910  28.3225608  60.8923770  53.4275787
  28.1447369  60.4400379  54.1530702  28.0344630  61.6949932  53.6114264
  28.2538561  60.9446328  53.5619290  43.9849189  62.1481488  52.6653177
  44.4802854  61.4304483  52.6257197  43.1748965  61.8452285  52.5507664
  43.9393082  61.9979134  52.6426903  39.4307800  65.9979301  44.8150181
  38.6219123  65.6745975  44.7683491  39.9382709  65.2912523  44.7478430
  39.3857467  65.8460617  44.7980476  30.0598078  63.4251494  50.5397546
  29.1943597  63.4137185  50.4280317  30.1596893  63.2381717  51.3868685
  29.9472245  63.3957555  50.6486490  46.0501008  64.8985175  55.3530306
  46.4756079  64.3759597  54.8000731  45.6857928  65.4966013  54.8318929
  46.0587610  64.9095402  55.1939316  35.6855087  73.1949393  54.1127651
  36.0001646  74.0085781  54.1205433  36.0948501  72.8099611  54.7809810
  35.7923185  73.2578095  54.2131743  42.6379607  68.6119440  51.6831463
  43.1090785  69.3259702  51.8521448  42.9739786  68.0118190  52.2191333
  42.7574722  68.6290904  51.7863839  44.7256592  70.2220753  63.8623535
  44.8353557  69.4329314  64.2180283  45.0547488  70.1326689  63.0597873
  44.7908997  70.0926606  63.7965926  39.5549102  53.3846910  58.6389558
  39.6877008  52.5877904  58.9670534  39.9394255  53.9113313  59.2187834
  39.6305431  53.3446827  58.7733061  43.2753553  68.4037374  58.4459156
  42.7274499  67.7795257  58.1779221  43.7366582  68.5931646  57.7303235
  43.2620763  68.3396424  58.3009587  46.0847418  56.4722728  55.8310348
  45.5010407  56.9731935  55.4187916  46.4051712  55.9652284  55.1974671
  46.0460593  56.4714563  55.6768855  38.6242217  55.3863323  46.1069023
  39.4457911  55.5561636  45.8650718  38.1611868  55.5410584  45.3835321
  38.6773379  55.4345056  45.9640667  37.2137549  53.3806085  56.8867452
  37.7581962  53.0397212  57.4771793  37.2674485  54.2391547  57.0288736
  37.3026668  53.4561345  56.9949325  33.0268108  67.1422501  53.7606260
  33.6312965  67.1018335  53.1320080  32.8195420  67.9893653  53.7910316
  33.0857005  67.2610504  53.6722376  42.8411880  69.4088446  54.9768497
  43.6610254  69.2651412  55.2384792  42.5605957  70.0334645  55.5184935
  42.9208623  69.4798798  55.0956436  28.2619390  66.1257119  53.6305183
  28.1643668  65.3153390  53.9395240  29.0448260  66.1048912  53.2451451
  28.3635526  66.0024209  53.6192046  59.3125530  77.0653298  47.9411373
  59.2819534  77.9197935  48.1129643  59.9106879  76.7648591  48.4997517
  59.3962688  77.1469795  48.0486176  52.5125215  76.1528949  52.6964304
  51.6563110  76.3137447  52.7473421  52.5592869  75.2821013  52.7169365
  52.3924326  76.0479751  52.7070370  55.3577036  78.2120993  55.3395955
  55.9032996  78.8906080  55.3989925  55.2993912  78.0708454  54.4797537
  55.4292950  78.2912995  55.2208016  57.1342105  79.6405600  46.2129683
  57.0181631  80.3913286  46.6421821  57.9297991  79.3829553  46.4625770
  57.2346694  79.7140447  46.3133775  43.9706243  73.8916076  53.2500949
  43.3511274  73.3008724  53.0810964  43.8690106  74.4827512  52.6165273
  43.8643918  73.8920159  53.1305939  49.0172430  83.6299623  47.4999026
  49.3388271  84.1704830  46.8960334  49.6644527  83.0596395  47.6321315
  49.1598485  83.6258798  47.4306061  51.0674138  75.6315618  47.5833412
  51.7654303  75.8103746  48.0754876  51.3826471  75.1085957  46.9603802
  51.2169475  75.5809390  47.5635423  43.6975376  77.4368358  55.4944518
  43.5734072  78.0230804  56.1294337  44.3493660  76.9428554  55.7956793
  43.7749025  77.4507162  55.6330448  51.2562074  82.0186063  47.5713204
  51.6955709  81.4103164  48.0167977  51.1066736  81.6393436  46.7998669
  51.2983539  81.8724534  47.5232371  48.7233717  80.6130075  54.7732029
  49.3682719  80.1202518  54.4542978  48.9635494  80.7554862  55.5998108
  48.8544302  80.5607517  54.8481563  51.2619808  83.4584981  54.4238922
  51.5443051  82.6636387  54.2025678  51.9905968  83.9365568  54.4443983
  51.4109372  83.4119578  54.3941937  49.2401002  71.0008015  51.6654687
  48.9104332  71.4519158  50.9958386  48.5646004  70.9224178  52.2127693
  49.0911438  71.0559150  51.6477910  54.8571410  80.3713244  44.5243973
  54.7722705  81.2274211  44.6693542  55.3455793  80.0957569  45.1926132
  54.9160307  80.4570566  44.6446055  56.4477410  66.9893538  49.9104298
  56.1330851  67.6797016  50.3424720  55.9304351  66.9338320  49.2089798
  56.3241880  67.0828426  49.8701247  55.7889843  76.9898039  46.0241708
  55.2601315  77.2057672  46.6839014  56.3114863  77.6834177  45.9442678
  55.7878296  77.1241175  46.1097307  47.6789451  80.8861255  44.8249176
  47.0946666  81.3911287  45.2315040  47.2759546  80.6603642  44.0845768
  47.5328755  80.9269504  44.7754201  52.1366666  77.1326907  43.3018097
  52.3762669  77.3404891  42.4893440  52.4582507  76.3284416  43.4107041
  52.2203824  77.0441009  43.1978650  47.4456956  69.0620303  47.1477635
  48.2002924  69.4298620  46.9094685  47.2684490  69.4359858  47.9156814
  47.5311434  69.1718491  47.2262523  60.7391855  75.2114744  55.1925174
  59.9020276  75.2816931  55.4272769  60.7080086  75.2139239  54.3199476
  60.6110137  75.2224971  55.0984722  47.1356584  77.3547779  60.9073543
  47.3077087  77.2453674  61.7558824  47.6725941  78.0002185  60.6704735
  47.2401588  77.4339781  60.9978639  45.8014021  71.4690622  43.8455748
  45.6189594  71.6862503  43.0196741  46.6639634  71.5829635  43.9014362
  45.9018610  71.5180520  43.7310235  51.4813740  68.4717033  46.8804772
  52.2099900  68.2932988  46.4342928  51.5708633  69.3135113  47.0911950
  51.6020402  68.5700911  46.8458289  55.4622040  79.4070420  50.7837066
  56.2179555  79.8401935  50.8225974  55.5684365  78.7575190  51.3571702
  55.5892211  79.3747904  50.8735091  41.4418301  79.9479710  55.7426463
  41.1756716  79.1318827  55.9017453  41.4556865  79.9932866  54.8721978
  41.4043023  79.8336615  55.6379945  58.4199694  70.2757525  53.7768896
  59.0625603  70.3455630  54.3630812  58.6722715  69.6086748  53.2748438
  58.5521827  70.1883874  53.7896176  45.3476048  74.7464795  42.3578221
  44.6334225  74.4602974  42.7700653  45.8320016  75.0861421  42.9984608
  45.3135411  74.7546444  42.5133856  46.1916907  73.4858089  58.3893470
  45.4988704  73.0155068  58.6354202  46.8077234  73.2596393  58.9635178
  46.1801437  73.3825221  58.5102623  52.5223365  83.2494749  42.7340029
  52.9374514  82.9179773  42.0424525  51.6915295  83.0163651  42.6060166
  52.4611374  83.1666005  42.6130876  41.8511714  80.7338490  53.0238207
  41.6687287  80.7085376  52.1710499  42.5861383  81.2037428  53.0627116
  41.9325778  80.7999852  52.9036125  57.9211388  80.9690000  50.1671094
  58.1566978  81.1135199  49.3397945  58.0700952  81.7332408  50.5602608
  57.9777192  81.1029054  50.1034698  44.9157466  77.4523493  59.5320316
  45.6397438  77.4376523  60.0185210  45.0173602  78.1618848  59.0342284
  45.0375675  77.5548196  59.5299102  59.7501845  79.8091666  48.0040698
  60.0810062  80.3419306  47.3980793  60.3234933  79.8630553  48.6602649
  59.8835524  79.8961235  48.0118480  54.9633734  77.6556568  48.6864278
  55.0580589  78.3945863  49.1403904  54.3392578  77.2274044  49.1198843
  54.8842764  77.7017889  48.8172426  41.8182625  77.6131990  53.1737274
  42.3956127  77.4768441  53.8129519  41.1196686  77.1567775  53.4282858
  41.8003646  77.5254257  53.3059563  55.2156756  79.5005308  41.9201230
  55.1336918  79.5707495  42.7856217  55.8536476  80.0635052  41.7284971
  55.2976593  79.5944279  42.0191180  48.5749927  79.2666046  51.3875757
  48.3169171  78.4337781  51.3607056  48.6298410  79.4923659  50.5468257
  48.5449705  79.1763817  51.2595894  53.6550977  71.3694497  51.4879849
  52.9507304  70.8803682  51.6463769  53.7035951  71.3816971  50.6168294
  53.5581028  71.2984145  51.3819189  47.5484639  76.8203809  51.8740651
  46.9734230  76.9795977  52.5104612  47.1720315  76.1839218  51.4109102
  47.4087451  76.7501622  51.8995210  51.2157928  75.2927158  56.7333030
  50.8272360  74.8681376  56.0785221  50.5512626  75.5409308  57.2410057
  51.0604855  75.2665879  56.7120898  60.8581197  75.0502163  49.5080860
  60.6017762  74.2382104  49.3178743  61.7010511  75.0579730  49.2811047
  60.9447222  74.9314160  49.4465677  37.2941458  76.4643883  49.8885092
  37.3801710  76.0875752  50.6698622  37.9217255  76.0904329  49.4105050
  37.3998009  76.3529366  49.9330569  55.0384289  68.9901787  54.2457014
  55.4194801  68.3079958  54.6324888  54.2347573  68.7011389  54.0632679
  54.9760751  68.8468835  54.2761070  52.3196866  79.5225762  44.9309837
  53.1337505  79.8140655  44.8192608  52.2556007  78.8685625  44.3568130
  52.4299605  79.4690957  44.8298674  48.1904774  82.9947280  50.0582149
  48.8278721  82.7559027  50.6033942  48.6159846  83.1984439  49.3235310
  48.3480940  82.9898290  50.0299306  48.8307589  78.2149570  44.3957038
  49.2152742  77.9957276  45.1473583  48.5819209  79.0412515  44.5258115
  48.8509662  78.3047716  44.5258115  48.9976129  71.4955985  64.1119623
  48.6829571  72.2655548  63.8489185  48.6766062  70.9326241  63.5271850
  48.9035049  71.5266254  63.9860973  50.5726246  83.4719703  51.7375935
  50.6465254  83.3094874  52.5917785  51.3895752  83.6609892  51.4936417
  50.7042605  83.4756445  51.8273961  46.5508026  69.8846506  49.7265819
  45.6830452  69.9569106  49.7923428  46.8383231  70.6868585  49.9153794
  46.4647775  70.0140653  49.7640585  55.6740915  70.0324366  58.0577141
  56.4194507  69.8434176  57.6440566  55.2578220  70.5582604  57.4990997
  55.7225889  70.0826511  57.9141714  63.0503186  77.4033594  53.0082646
  63.6011108  76.7701663  53.2479738  63.0347301  77.9348987  53.6998150
  63.1288382  77.3882542  53.1461504  49.7025577  81.2372192  57.5542539
  49.2037271  81.9487959  57.6327428  50.5125801  81.5572858  57.5160702
  49.7481684  81.3899040  57.5599108  45.9653695  80.4995145  51.8005260
  45.6766943  79.8732616  52.3350987  46.8337043  80.4415432  51.8669941
  46.0513946  80.3982689  51.8896215  56.7531592  75.6429928  52.1187242
  56.4096358  74.9220263  52.4694492  56.8524635  75.4343779  51.2765600
  56.7173635  75.5054131  52.0458922  46.1685968  82.1390396  47.7247625
  46.9231936  82.5203435  47.9383088  45.5756581  82.5901539  48.1794322
  46.1922681  82.2619223  47.8230504  48.6292635  74.0953236  62.8504837
  47.8192411  74.4011016  62.7394680  49.1067322  74.8158818  62.9657421
  48.5796114  74.2467837  62.8511908  47.4884195  83.3098957  53.0987741
  46.9664948  83.4499249  53.7839605  47.8758215  82.5509621  53.2889858
  47.4687895  83.2184481  53.2288817  44.4775379  73.3604766  47.1682695
  44.1900174  72.9906036  46.4314642  45.1645847  73.8299621  46.9066400
  44.5364276  73.3751735  47.0197771  48.9150520  80.3402976  48.4969232
  48.7193303  80.9477711  47.9029534  49.1384866  79.6470920  48.0160905
  48.9185161  80.3280501  48.3385312  47.3129050  77.2257714  48.6150100
  48.0351702  77.3898872  48.1553906  46.8337043  77.9467379  48.5089440
  47.3492781  77.3555943  48.5315714  55.2722558  73.5621513  53.9946785
  54.4333658  73.5882792  53.7585048  55.3426925  74.2092248  54.5752131
  55.1590951  73.6617639  54.0455902  44.9636667  79.6315786  57.7204240
  45.4757764  79.9100040  57.0713000  44.6773009  80.3705080  58.0867053
  44.9971530  79.7818140  57.6794118  53.7191836  70.4606890  48.7274401
  54.4218189  70.2614638  48.2494359  53.4536025  69.6882832  49.0343244
  53.7838468  70.3169856  48.7019842  59.1480082  78.7689499  51.2808027
  59.0614056  78.9244926  52.1342805  58.6930561  79.4127575  50.9067432
  59.0683338  78.8865255  51.3515133  42.0503573  74.1385978  48.0167976
  42.1519710  74.9412140  48.3448952  42.8459460  73.9373314  47.7191057
  42.1831479  74.2271877  48.0203332  48.4820392  71.7242175  57.7805281
  48.2903589  71.7397309  58.6304705  49.3318988  71.9205849  57.7571936
  48.5796114  71.7556526  57.9028576  42.8667305  74.2533156  55.7589098
  42.7252797  73.4017097  55.8833606  43.1507869  74.2961817  54.9351304
  42.8875151  74.1332906  55.6556722  53.0205898  76.0900247  49.9033586
  52.7740612  76.0095997  50.7370375  53.3491021  75.3053714  49.7096114
  53.0327141  75.9626512  49.9981109  48.9802925  78.8256965  59.3156569
  49.1246301  79.4058173  58.6799679  49.3278573  79.2033262  60.0206424
  49.0530386  78.9677669  59.3255564  51.1522842  78.0247134  57.0981701
  50.4046156  78.2178148  56.6929979  51.3064367  77.1992353  56.8605822
  51.0645270  77.9312245  57.0027107  51.3924619  71.9197684  57.9877104
  51.8497233  72.6521659  58.1149897  51.4680948  71.4964150  58.7464360
  51.4715589  71.9654922  58.1178181  43.6357610  72.1663504  59.0766548
  43.0999800  71.5543862  59.3927315  43.6975375  72.7411640  59.7300215
  43.5653243  72.1610432  59.2201975  55.8651945  65.0987559  51.8570947
  55.9835513  65.5564023  51.1238250  55.6914121  64.2932821  51.5707165
  55.8571116  65.0481332  51.7071881  49.2706997  73.9099788  54.8318929
  48.4803072  73.7291248  55.1536264  49.6667620  73.1326741  54.8149223
  49.2123873  73.7687249  54.8771477  53.7572888  82.7387562  40.2725642
  54.5245873  82.7987687  39.8631494  53.3104197  82.1668004  39.7881961
  53.8046315  82.6624138  40.1403352  54.6550683  81.5442218  52.5578374
  53.9795685  81.3127451  53.0591761  54.6643060  80.9363401  51.9320479
  54.5569188  81.4201144  52.5394527  51.7844827  76.3860047  59.3142427
  51.7203969  77.2470004  59.1862564  51.9242015  76.0692041  58.5137979
  51.7960298  76.4660214  59.1770640  50.4663921  79.0792187  53.4558630
  50.0426170  79.2796686  52.7197649  50.2908777  78.2321035  53.5682930
  50.3774802  78.9840968  53.3632320  45.7546366  79.5744238  48.8886603
  45.9110985  79.5091041  49.7442595  46.0946959  80.3492791  48.6765282
  45.8279601  79.6793436  48.9841197  52.2925511  78.9502122  47.7579966
  52.8341056  78.4472503  48.2218587  52.6072070  78.8967316  46.9469451
  52.4189908  78.8681543  47.7063778  50.4611961  84.3419473  45.0419994
  50.5304781  83.4834012  45.1812994  51.2400416  84.5591354  44.7139019
  50.5864811  84.2472337  45.0137151  53.4414780  73.8438426  57.8102267
  53.6556750  73.2049340  57.2565620  52.8248679  74.2884250  57.3810128
  53.3820110  73.8148570  57.6652698  42.3280628  76.7579189  49.2047370
  42.7079593  77.1763733  48.5407637  41.7535993  77.3392644  49.5116213
  42.2991953  76.9057047  49.1524111  55.6053868  75.4527491  58.7485574
  54.7930550  75.1453382  58.8298746  56.0643803  74.9726491  59.3128286
  55.5534253  75.3363984  58.8440168  55.0159123  83.3307163  49.1962518
  54.6573778  83.5021806  49.9726550  54.5297834  83.7920369  48.6390516
  54.8917820  83.4246134  49.2287787  52.8329509  66.9538362  52.7989609
  51.9623067  66.9277083  52.7522919  53.0869850  66.7815554  51.9815455
  52.7423069  66.9248506  52.6709746  49.8047488  79.0106329  41.7362752
  50.0940013  79.7871211  42.0106327  49.8919287  78.4995060  42.4377252
  49.8601745  79.0498247  41.8805250  49.8578649  68.9644590  54.2563080
  49.3417138  68.2724782  54.3814659  49.2972578  69.6315367  54.2025678
  49.6985163  68.9607848  54.2669146  51.9270883  69.5037550  56.0855932
  51.5402636  69.5286582  56.8669462  51.4403820  68.9379229  55.6330449
  51.7983392  69.4233301  56.1343836  57.9020862  76.0700205  54.7095634
  57.4748470  75.9826554  53.9543734  57.2646915  76.1777981  55.2950479
  57.7450470  76.0732865  54.6841076  51.5928025  66.3904536  58.3766192
  52.2221143  66.9264836  58.0987263  51.7613887  66.2981895  59.2279758
  51.7105819  66.4565898  58.4614720  51.3941939  71.1775730  60.6492604
  52.2215369  70.9060879  60.7051218  51.4149786  71.9736572  61.0056422
  51.5194790  71.2555485  60.7107787  45.9711429  78.3239593  53.8362864
  45.1299436  78.2243467  54.0441758  46.1801437  79.0935074  54.1877185
  45.8776122  78.4231637  53.9190179  43.4486996  75.9459130  51.6647615
  43.0543694  76.0202142  50.8897725  42.8927113  76.3317077  52.2155977
  43.3089809  76.0140905  51.6315275  55.0851943  68.9240424  51.3451494
  55.2901536  68.8562732  52.1908491  54.7578367  69.7299245  51.2772671
  55.0667191  69.0326365  51.4611149  49.7828094  76.2520992  53.0860462
  49.4791232  75.6976981  53.6870870  49.0807515  76.4313202  52.5988496
  49.6344304  76.1965775  53.1030168  48.8394191  73.5621512  47.6505164
  49.1153926  72.8440425  47.2382731  49.4392861  74.1606432  47.4426270
  48.9687456  73.5441883  47.5585925  58.3385631  69.4772189  50.8254259
  57.7259944  69.9642591  51.2107991  58.4349806  68.8015679  51.3691911
  58.2623528  69.4490497  50.9633118  52.3404712  71.2335030  45.9251759
  52.7948458  71.4045590  46.6499603  52.8144758  70.6203140  45.5249535
  52.4773032  71.1685915  45.9725520  45.8620237  80.7183356  55.2554497
  45.2708170  81.3592854  55.2257512  46.6241261  81.1420973  55.2285797
  45.8868498  80.8759194  55.2469645  46.2580860  71.8785353  55.9222515
  46.7182342  71.9524283  56.6597639  46.3036967  72.6766607  55.5722336
  46.3331415  72.0079500  55.9795271  47.9064210  72.5452048  60.4894542
  47.5149775  71.8985395  60.9250320  48.0750072  73.1363483  61.1088797
  47.8735120  72.5366316  60.6457248  49.6817732  77.9377564  47.0296766
  50.4259777  78.3251840  47.2679716  49.8278428  77.0934989  47.1937254
  49.8128317  77.8708037  47.0890736  51.5997307  69.7327823  52.0628627
  50.7533352  69.9050631  51.9369977  51.5968440  68.9277167  52.3994456
  51.4744457  69.6388852  52.0939754  52.6695608  73.5103037  52.9290685
  52.1955562  72.9844799  53.4395996  53.0413743  72.9632510  52.3605547
  52.6545497  73.3519034  52.9205833  43.0468638  75.5074544  58.2974231
  43.9094251  75.4070253  58.2111561  42.7160421  74.9269253  57.7359803
  43.1253834  75.4066171  58.2019637  58.9332338  78.5705413  54.3397466
  58.6930561  77.7311828  54.3439892  59.4124345  78.6505580  55.0638239
  58.9684522  78.4586813  54.4472268  54.5979107  74.4039592  45.9916439
  54.0702126  74.4868336  45.3022148  55.0574815  75.1457463  45.9881084
  54.5880958  74.5260254  45.8891134  60.9337525  75.3506870  52.2926725
  60.6947295  75.3102704  51.4547510  61.0971427  76.1978022  52.4192446
  60.9227829  75.4698955  52.1880207  46.4070424  74.3316993  54.9584649
  45.7823494  74.3435385  54.3510602  46.0716019  74.8077168  55.6075890
  46.2655916  74.4035510  54.9641218  46.5912172  72.6742111  41.0157334
  46.2424977  73.3261837  41.4788884  46.1108618  72.6599225  40.2881206
  46.4682416  72.7685165  40.9768426  54.1516190  82.9743155  45.1226096
  54.8750389  83.4401268  44.9790670  53.7116781  83.0416765  44.3723693
  54.1931882  83.0526992  44.9910878  53.3202345  79.8340698  56.3726785
  52.7059338  79.2898748  56.6675421  53.8369630  79.3204934  55.8932601
  53.3058007  79.6777107  56.3451014  52.5598642  80.9044968  54.1071084
  52.1326250  80.2794686  53.6736519  52.5523586  80.6219890  54.9330091
  52.4957783  80.7697748  54.1650911  45.6761169  75.9410141  57.1759518
  45.8354656  75.1853465  57.5811240  45.4954063  76.4901080  57.8300255
  45.6726528  75.9103955  57.3322224  53.6181472  68.1071376  57.7310307
  53.1222033  68.3035051  57.0401874  54.3750534  68.5064045  57.5599109
  53.6568297  68.1949110  57.6030444  50.8884352  71.7813722  54.3213618
  50.9126839  71.2473835  53.6326398  51.1395825  71.2731031  54.9839208
  50.9294270  71.6274626  54.3178263  38.3991942  79.0645217  53.7556762
  38.2935391  79.0192062  52.8908846  37.6492162  79.4098998  54.0371047
  38.2727544  79.1086125  53.6694092  47.1685674  70.5084541  53.7019362
  47.2084046  71.0093747  54.4154070  46.3435339  70.5994934  53.4325285
  47.0525200  70.5966357  53.7669900  48.5900037  77.0245050  55.9993261
  47.7591967  77.1918868  55.7928509  48.5351555  76.6481001  56.7842146
  48.4589452  76.9934782  56.0841789  46.3983821  70.5153943  61.6349672
  47.0236524  69.9716076  61.9079104  45.9434301  70.0348861  61.0657462
  46.4232081  70.3643425  61.5911266  46.9636081  75.3000642  46.5283379
  47.1039042  75.7973106  47.2312020  47.4618614  74.5986936  46.6697593
  47.0577162  75.2702621  46.6534958  46.9936304  76.1667753  43.8575956
  47.6281383  76.7628178  43.7925417  47.0761914  75.8671211  44.6721826
  47.0992855  76.2108661  43.9679042  48.5715286  72.0981728  43.8321398
  48.8931127  71.6184811  43.1780660  48.8342230  72.9081374  43.6412209
  48.6581312  72.1471626  43.7076890  53.9674441  71.4853922  56.1944877
  54.3929513  71.0326449  55.5828403  53.3531435  70.9313993  56.4709664
  53.9403087  71.3367899  56.1449902  43.4989291  78.3635594  47.1265502
  44.0081521  78.9600101  47.5076807  43.9723564  78.0961567  46.4441921
  43.6432667  78.4121409  47.0820024  52.4068664  67.9569022  49.6035454
  51.7636982  67.8066668  50.1720592  52.0668071  67.7111367  48.8384558
  52.2613742  67.8981145  49.5738469  56.9968011  75.9128449  49.0265462
  56.3259201  76.4558151  48.8978528  57.6907761  76.3823304  48.7847157
  56.9996878  76.0626720  48.9720990  57.1596138  72.3684333  51.9355836
  57.5123748  71.9414055  52.6101634  56.3010940  72.2835176  52.0656912
  57.0845583  72.2929073  52.0550846  45.8579823  74.9991852  49.9938682
  45.1391812  75.4155985  50.2611546  46.2292185  75.5646091  49.4430320
  45.8071755  75.1441134  49.9521489  55.1579404  75.6319701  55.8840678
  55.1377331  75.4502996  56.7375457  55.2058605  76.5031720  55.8600261
  55.1614045  75.7336239  56.0063973  51.6326398  74.0389852  45.3312062
  51.0391237  74.3606849  44.7796629  51.6701675  73.1930948  45.1233168
  51.5500787  73.9614180  45.2194833  58.5920198  67.4902744  52.8640148
  58.0851063  66.7831884  52.7961326  59.3887632  67.1595933  52.9941225
  58.6347437  67.3375896  52.8739143  54.5084214  73.9969357  48.7613812
  54.2797907  74.0202058  47.9192170  54.7682290  73.1726824  48.8808822
  54.5130402  73.8785437  48.6539010  48.7903443  75.8503830  58.3638912
  48.2782346  75.2425013  58.7223943  48.6182939  76.5660422  58.8312888
  48.6893080  75.8667129  58.4855136  43.6369157  74.2941405  61.0141274
  43.4671748  74.9542780  60.4689480  43.1935107  74.5047966  61.7353763
  43.5468491  74.4227387  61.0402903  47.5628977  72.5345903  50.0568008
  48.0386343  72.8962983  49.4218189  47.0617576  73.1902371  50.3368150
  47.5594336  72.6840092  50.0044748  52.6672513  73.7728074  60.8041168
  53.2243943  73.5441884  60.1719633  52.3433578  74.5333740  60.5276380
  52.7018923  73.8511911  60.6697665  40.5371222  77.1988271  56.2729764
  39.9897941  76.5288916  56.3910632  41.3263600  76.8318118  56.3373231
  40.5723405  77.0453257  56.2998464  49.6055630  74.6787103  43.4241391
  49.9854595  74.6966732  42.6392506  48.8648226  75.1241092  43.3032239
  49.5524468  74.7468877  43.2904960  57.2340920  72.9869294  49.0116970
  57.2335147  72.8317950  49.8701246  57.0297100  73.8332281  48.9558356
  57.2040698  73.0889915  49.1304910  39.2958191  76.4109078  53.4275787
  39.1179952  75.9585687  54.1530702  39.0077213  77.2135240  53.6114264
  39.2271144  76.4631636  53.5619290  54.9581772  77.6666796  52.6653177
  55.4535438  76.9489791  52.6257197  54.1481548  77.3637593  52.5507664
  54.9125666  77.5164442  52.6426903  50.4040384  81.5164609  44.8150181
  49.5951707  81.1931283  44.7683491  50.9115293  80.8097831  44.7478430
  50.3590051  81.3645925  44.7980476  41.0330661  78.9436802  50.5397546
  40.1676181  78.9322493  50.4280317  41.1329477  78.7567025  51.3868685
  40.9204828  78.9142863  50.6486490  57.0233591  80.4170483  55.3530306
  57.4488663  79.8944905  54.8000731  56.6590511  81.0151321  54.8318929
  57.0320194  80.4280710  55.1939316  53.6112191  84.1304747  51.6831463
  54.0823369  84.8445010  51.8521448  53.9472369  83.5303498  52.2191333
  53.7307306  84.1476212  51.7863839  50.5281686  68.9032218  58.6389558
  50.6609591  68.1063211  58.9670534  50.9126838  69.4298621  59.2187834
  50.6038014  68.8632135  58.7733061  53.6014041  65.8262544  55.2370651
  52.7960005  65.7160274  55.5538490  53.4720776  65.9275000  54.3800517
  53.4634174  65.8246214  55.1578692  57.0580001  71.9908036  55.8310348
  56.4742990  72.4917243  55.4187916  57.3784295  71.4837592  55.1974671
  57.0193177  71.9899871  55.6768855  49.5974800  70.9048631  46.1069023
  50.4190495  71.0746944  45.8650718  49.1344451  71.0595892  45.3835321
  49.6505963  70.9530364  45.9640667  48.1870132  68.8991393  56.8867452
  48.7314545  68.5582520  57.4771793  48.2407068  69.7576855  57.0288736
  48.2759252  68.9746652  56.9949325  26.0878603   7.4475505  34.8751420
  26.0572608   8.3020142  35.0469690  26.6859952   7.1470798  35.4337564
  26.1715761   7.5292002  34.9826223  19.2878288   6.5351157  39.6304351
  18.4316184   6.6959655  39.6813467  19.3345942   5.6643220  39.6509412
  19.1677400   6.4301958  39.6410417  13.6719428  16.0713874  35.3941582
  12.9202327  15.6929413  35.1657627  14.1205440  16.1032308  34.6460393
  13.6269095  16.0199482  35.2499084  22.5972005  12.8037682  49.2364807
  23.3038772  12.3089713  49.3651741  22.7859940  13.2446764  48.5067465
  22.7299910  12.7956032  49.1473852  19.1244388  16.4939244  30.8227129
  18.7895756  17.1716165  30.3871351  19.6371258  16.1044555  30.2344001
  19.1509969  16.5363822  30.6713921  18.6648679  18.4453513  36.7638241
  19.0488058  19.0140411  36.2243016  18.6007820  17.7203023  36.2844057
  18.7122106  18.4228976  36.6132103  22.1330109   8.5943200  42.2736002
  22.6786069   9.2728287  42.3329972  22.0746986   8.4530661  41.4137584
  22.2046024   8.6735202  42.1548063  15.2504184  16.0832267  37.6604355
  15.3514547  15.2732620  37.9701483  14.6545929  15.9889213  37.0304033
  15.1776723  15.9497295  37.6130593  23.9095178  10.0227808  33.1469730
  23.7934704  10.7735494  33.5761868  24.7051065   9.7651761  33.3965817
  24.0099767  10.0962654  33.2473822  15.0904924  21.0009856  39.0619211
  15.7342379  21.4423020  39.4515369  15.4161179  20.1963282  38.9749470
  15.2336752  20.9475050  39.1064688   8.4469228  12.1052553  37.2856688
   8.2119413  11.2720205  37.1788957   8.5854869  12.3857219  36.4717889
   8.4324891  12.0236057  37.1499043  15.7925503  14.0121831  34.4339073
  16.1141344  14.5527038  33.8300381  16.4397600  13.4418602  34.5661362
  15.9351559  14.0081006  34.3646108  17.8427211   6.0137825  34.5173459
  18.5407376   6.1925953  35.0094922  18.1579544   5.4908165  33.8943849
  17.9922549   5.9631598  34.4975469  10.4728449   7.8190565  42.4284565
  10.3487146   8.4053011  43.0634384  11.1246733   7.3250761  42.7296840
  10.5502098   7.8329370  42.5670494  18.0315147  12.4008271  34.5053251
  18.4708782  11.7925371  34.9508023  17.8819810  12.0215644  33.7338716
  18.0736613  12.2546742  34.4572418  15.4986790  10.9952282  41.7072076
  16.1435792  10.5024725  41.3883025  15.7388567  11.1377069  42.5338154
  15.6297375  10.9429725  41.7821609  18.0372881  13.8407188  41.3578969
  18.3196124  13.0458594  41.1365725  18.7659042  14.3187776  41.3784030
  18.1862445  13.7941785  41.3281984  21.6324483  10.7535452  31.4584020
  21.5475778  11.6096418  31.6033589  22.1208867  10.4779776  32.1266179
  21.6913381  10.8392773  31.5786101  23.2230483  -2.6284255  36.8444344
  22.9083924  -1.9380776  37.2764767  22.7057424  -2.6839473  36.1429845
  23.0994953  -2.5349366  36.8041294  22.5642917   7.3720246  32.9581755
  22.0354388   7.5879880  33.6179061  23.0867937   8.0656384  32.8782724
  22.5631370   7.5063383  33.0437354  14.4542524  11.2683463  31.7589223
  13.8699740  11.7733494  32.1655087  14.0512620  11.0425850  31.0185815
  14.3081828  11.3091711  31.7094248  10.0086553  16.9838224  38.5612895
   9.5254131  17.7088714  38.5372478  10.8209871  17.2814354  38.6723052
  10.0577301  17.1340578  38.5740174  16.0800707  15.7770405  41.1662709
  15.5627649  15.4177820  40.5624017  16.7775098  15.2532579  41.1768775
  16.1066288  15.6468093  41.0792968  19.7364299  16.2265219  47.1278882
  19.8247645  16.0391359  47.9757092  20.1654012  15.5802648  46.7283729
  19.8126401  16.1028226  47.1950634  17.3034759  15.5096379  46.1096544
  16.7405594  15.0968988  46.6336205  18.0655782  15.4349284  46.5289688
  17.3329207  15.4373779  46.2489545  18.9119739   7.5149115  30.2358144
  19.1515743   7.7227099  29.4233487  19.2335580   6.7106624  30.3447088
  18.9956897   7.4263216  30.1318697  12.8630750  17.4994400  38.7133174
  13.5651330  16.9846389  38.7705931  12.7828233  17.8268551  39.5180050
  12.9554511  17.4708626  38.8405967  27.5144928   5.5936951  42.1265221
  26.6773349   5.6639138  42.3612815  27.4833159   5.5961446  41.2539523
  27.3863210   5.6047178  42.0324769  13.9109657   7.7369987  47.8413590
  14.0830161   7.6275881  48.6898871  14.4479014   8.3824392  47.6044782
  14.0154661   7.8161988  47.9318686  12.1881526  13.6900752  38.2218782
  13.0270425  13.9223685  38.2692544  12.2193295  12.8205063  38.1525818
  12.3163243  13.5957698  38.2183427  12.8134229  14.1101627  42.5232088
  13.3532454  13.9672758  43.1935460  12.1304175  14.5098378  42.8916114
  12.7926383  14.1481298  42.6766510  22.2375114   9.7892628  37.7177112
  22.9932629  10.2224142  37.7566021  22.3437438   9.1397397  38.2911748
  22.3645284   9.7570111  37.8075138  19.8484358  15.6574238  49.7922666
  20.6324775  15.7705085  50.1578408  19.6480953  14.8315375  49.9881351
  19.9350384  15.5520957  49.8757052   8.2171374  10.3301918  42.6766510
   7.9509789   9.5141034  42.8357500   8.2309938  10.3755073  41.8062025
   8.1796096  10.2158823  42.5719991  25.1952768   0.6579733  40.7108943
  25.8378676   0.7277837  41.2970859  25.4475788  -0.0091044  40.2088485
  25.3274900   0.5706081  40.7236222  12.1229121   5.1287002  29.2918268
  11.4087298   4.8425182  29.7040700  12.6073089   5.4683628  29.9324655
  12.0888484   5.1368652  29.4473903  20.0054752  17.5684340  43.4389121
  19.2069997  17.3283840  43.6962990  20.4540763  17.6198733  44.1856169
  19.9529363  17.5406731  43.5874045  28.4099631  10.3346825  37.3599153
  29.0716065   9.7737493  37.2595061  27.7691043   9.8398855  37.6851844
  28.4128498  10.1783234  37.3931493  19.2976439  13.6316956  29.6680076
  19.7127587  13.3001980  28.9764572  18.4668368  13.3985858  29.5400212
  19.2364447  13.5488212  29.5470923   8.6264787  11.1160697  39.9578254
   8.4440361  11.0907583  39.1050546   9.3614456  11.5859635  39.9967163
   8.7078851  11.1822059  39.8376172  24.6964462  11.3512207  37.1011141
  24.9320051  11.4957406  36.2737992  24.8454025  12.1154615  37.4942655
  24.7530265  11.4851262  37.0374745  11.6910539   7.8345700  46.4660362
  12.4150511   7.8198731  46.9525257  11.7926676   8.5441055  45.9682331
  11.8128748   7.9370403  46.4639149  26.5254918  10.1913873  34.9380745
  26.8563135  10.7241513  34.3320840  27.0988006  10.2452761  35.5942696
  26.6588597  10.2783442  34.9458527  19.0655489  11.3144785  51.3309309
  18.2728469  11.6288297  51.5161929  19.1804416  11.5296253  50.4930094
  18.9650899  11.3928621  51.2347644  21.7386807   8.0378776  35.6204325
  21.8333662   8.7768070  36.0743951  21.1145651   7.6096251  36.0538890
  21.6595838   8.0840096  35.7512473  19.9939281  11.2164988  46.2694606
  20.5678143  10.5792233  46.4243170  19.9154085  11.2169071  45.4004264
  20.0672516  11.1230100  46.1641017   8.5935698   7.9954198  40.1077320
   9.1709200   7.8590649  40.7469566   7.8949759   7.5389982  40.3622905
   8.5756719   7.9076464  40.2399610  21.9909829   9.8827516  28.8541277
  21.9089991   9.9529703  29.7196264  22.6289549  10.4457260  28.6625018
  22.0729666   9.9766487  28.9531227  15.3503000   9.6488254  38.3215804
  15.0922244   8.8159988  38.2947103  15.4051483   9.8745867  37.4808304
  15.3202778   9.5586025  38.1935940  20.4304050   1.7516704  38.4219896
  19.7260377   1.2625890  38.5803815  20.4789024   1.7639179  37.5508341
  20.3334102   1.6806352  38.3159236  14.3237712   7.2026016  38.8080698
  13.7487303   7.3618184  39.4444659  13.9473388   6.5661425  38.3449149
  14.1840524   7.1323829  38.8335257  17.9911001   5.6749365  43.6673077
  17.6025433   5.2503583  43.0125268  17.3265699   5.9231515  44.1750103
  17.8357929   5.6488086  43.6460945  27.6334270   5.4324370  36.4420907
  27.3770835   4.6204311  36.2518790  28.4763584   5.4401937  36.2151094
  27.7200295   5.3136367  36.3805724  21.8137362  -0.6276006  41.1797061
  22.1947874  -1.3097835  41.5664935  21.0100647  -0.9166404  40.9972725
  21.7513824  -0.7708957  41.2101117  19.0949939   9.9047970  31.8649884
  19.9090578  10.1962863  31.7532655  19.0309080   9.2507832  31.2908177
  19.2052678   9.8513165  31.7638721  25.3159429  12.5873966  46.2779459
  25.0798067  11.7562031  46.1591520  25.9602658  12.5359573  46.8634304
  25.3754100  12.4571654  46.3465353  14.9657847  13.3769487  36.9922196
  15.6031794  13.1381235  37.5373989  15.3912919  13.5806646  36.2575356
  15.1234014  13.3720498  36.9639353   9.6570490  15.6157824  40.8756500
   9.6974635  15.8872675  40.0476279  10.2165014  16.1399732  41.2914287
   9.7453836  15.7333579  40.8148388  15.6060662   8.5971777  31.3297085
  15.9905815   8.3779484  32.0813630  15.3572283   9.4234723  31.4598162
  15.6262735   8.6869923  31.4598162  26.3395850  12.3718415  42.3407754
  26.0341667  13.1046472  42.7021069  25.6202065  11.9656344  42.0600540
  26.1883192  12.4200148  42.3520891  17.3479319  13.8541910  38.6715982
  17.4218327  13.6917082  39.5257832  18.1648826  14.0432100  38.4276464
  17.4795678  13.8578652  38.7614008  32.0397642   9.0111415  41.6676098
  31.9722142   9.0307375  40.7978685  32.0253304   9.8541743  41.8931769
  32.0276398   9.1385150  41.5728575  11.1085076  14.1999773  35.7010426
  10.2823194  14.4461510  35.5744704  11.1697067  14.1211854  36.5672484
  10.9959243  14.2244722  35.8099370  22.4493988   0.4146573  44.9917188
  23.1947580   0.2256384  44.5780613  22.0331293   0.9404811  44.4331044
  22.4978963   0.4648719  44.8481761  15.8883905  16.8176653  33.4029455
  16.1782203  16.4265634  32.6788682  16.6187386  16.9993358  33.8434731
  16.0390789  16.7870467  33.3612262  29.8256259   7.7855802  39.9422693
  30.3764181   7.1523871  40.1819785  29.8100375   8.3171194  40.6338197
  29.9041456   7.7704750  40.0801551  16.4778650  11.6194399  44.4882586
  15.9790344  12.3310167  44.5667474  17.2878874  11.9395066  44.4500748
  16.5234757  11.7721248  44.4939154  13.8289821  18.7944035  36.4689605
  13.6090116  18.5041390  37.2616272  13.6084343  18.1358990  35.9407518
  13.7637415  18.6543744  36.5078514  12.7406768  10.8817352  38.7345307
  12.4520016  10.2554823  39.2691034  13.6090116  10.8237639  38.8009987
  12.8267020  10.7804896  38.8236261  23.5284666   6.0252135  39.0527289
  23.1849431   5.3042471  39.4034538  23.6277708   5.8165986  38.2105647
  23.4926708   5.8876339  38.9798969  15.9957776  20.1673425  35.2520298
  16.6481834  19.6349868  35.4811324  15.2983385  19.8142078  35.6388172
  15.9888494  20.0362948  35.3432465  12.9439041  12.5212603  34.6587672
  13.6985009  12.9025642  34.8723134  12.3509654  12.9723747  35.1134368
  12.9675755  12.6441430  34.7570550  23.9897695  12.4877839  34.5951277
  24.5555727  13.1471049  34.5109820  23.3425598  12.8327537  35.0667679
  23.9776451  12.6359781  34.6524033  15.4045708   4.4775443  49.7844884
  14.5945484   4.7833223  49.6734726  15.8820395   5.1981026  49.8997468
  15.3549187   4.6290045  49.7851955  14.2637268  13.6921164  40.0327787
  13.7418021  13.8321456  40.7179652  14.6511288  12.9331829  40.2229905
  14.2440969  13.6006688  40.1628864  20.4604273  15.4316624  34.0188356
  20.2190949  14.6984484  33.6115421  20.6405606  15.9803481  33.3654689
  20.4511897  15.4039015  33.8618579  15.6903593  10.7225183  35.4309278
  15.4946376  11.3299918  34.8369581  15.9137939  10.0293127  34.9500952
  15.6938234  10.7102709  35.2725359  14.0882123   7.6079921  35.5490147
  14.8104775   7.7721079  35.0893953  13.6090116   8.3289586  35.4429486
  14.1245854   7.7378151  35.4655761  22.0475631   3.9443720  40.9286832
  21.2086732   3.9704999  40.6925095  22.1179998   4.5914456  41.5092178
  21.9344024   4.0439846  40.9795948  11.7389740  10.0137994  44.6544287
  12.2510837  10.2922247  44.0053046  11.4526083  10.7527288  45.0207100
  11.7724603  10.1640347  44.6134165  20.4944909   0.8429097  35.6614448
  21.1971262   0.6436845  35.1834406  20.2289098   0.0705039  35.9683291
  20.5591541   0.6992063  35.6359889  25.9233155   9.1511707  38.2148073
  25.8367129   9.3067133  39.0682852  25.4683635   9.7949782  37.8407478
  25.8436411   9.2687462  38.2855180  15.2573465   2.1064382  44.7145328
  15.0656662   2.1219517  45.5644752  16.1072061   2.3028057  44.6911983
  15.3549187   2.1378733  44.8368623  19.7958971   6.4722454  36.8373633
  19.5493685   6.3918205  37.6710422  20.1244094   5.6875922  36.6436160
  19.8080214   6.3448719  36.9321156  23.6907020  13.1805813  40.6260414
  23.5521379  13.8786859  41.1309156  22.9107018  13.0254470  40.2696596
  23.5550246  13.2605980  40.6486688  22.0285105   9.4802189  46.8782796
  22.0233143   8.6082005  46.8825222  22.7346099   9.6790358  46.4052252
  22.1330109   9.3806063  46.8089831  15.7555998   9.2079173  46.2496616
  15.8999374   9.7880381  45.6139726  16.1031647   9.5855469  46.9546471
  15.8283459   9.3499877  46.2595611  17.9275915   8.4069341  44.0321748
  17.1799229   8.6000355  43.6270026  18.0817441   7.5814560  43.7945869
  17.8398343   8.3134452  43.9367153  14.8283753  17.3981944  43.1157643
  14.9773317  16.8384860  42.4631047  15.6083755  17.4773946  43.4990162
  14.9657847  17.3267510  43.0754592  17.3537054  17.5696587  44.3942134
  17.2780725  16.9005398  44.9492922  17.2826913  18.2714375  44.9082800
  17.3317661  17.5741495  44.5518982  18.1677692   2.3019892  44.9217151
  18.6250307   3.0343866  45.0489944  18.2434021   1.8786357  45.6804407
  18.2468662   2.3477130  45.0518228  18.0107301  16.0897586  35.2265740
  18.7757192  15.8207230  34.9048404  17.9085391  15.6047596  35.9435802
  18.1088796  15.9787151  35.2845567  16.0460070   4.2921996  41.7658975
  15.2556145   4.1113456  42.0876311  16.4420693   3.5148948  41.7489270
  15.9876947   4.1509456  41.8111524  20.5325961  13.1209770  27.2065689
  21.2998946  13.1809895  26.7971541  20.0857270  12.5490211  26.7222007
  20.5799388  13.0446346  27.0743399  21.4303757  11.9264426  39.4918421
  20.7548758  11.6949658  39.9931808  21.4396133  11.3185609  38.8660526
  21.3322261  11.8023351  39.4734573  18.5597901   6.7682255  46.2482474
  18.4957042   7.6292211  46.1202611  18.6995088   6.4514248  45.4478026
  18.5713371   6.8482421  46.1110687  23.4320491  14.7829558  31.7228599
  23.5140329  15.5896544  31.3990050  23.9170233  14.8025517  32.4469373
  23.5157649  14.9050220  31.7815498  17.2416995   9.4614394  40.3898677
  16.8179244   9.6618893  39.6537695  17.0661850   8.6143242  40.5022977
  17.1527875   9.3663175  40.2972367  16.7428688  20.9764907  42.8520134
  17.2324618  20.2775696  42.6695799  16.1712920  20.6788777  43.4396192
  16.7313218  20.8291131  42.9121175  12.5299440   9.9566445  35.8226650
  12.6864059   9.8913248  36.6782642  12.8700033  10.7314998  35.6105329
  12.6032674  10.0615644  35.9181244  19.0678584   9.3324329  34.6920013
  19.6094130   8.8294710  35.1558633  19.3825143   9.2789524  33.8809498
  19.1942981   9.2503750  34.6403825  22.9395692  13.5426976  51.8046925
  23.7530557  13.2712125  51.9652058  22.7790658  13.2434516  51.0007121
  23.0365640  13.4581902  51.7092331  17.2365034  14.7241681  31.9760041
  17.3057854  13.8656219  32.1153041  18.0153489  14.9413561  31.6479065
  17.3617884  14.6294545  31.9477198  20.2167854   4.2260634  44.7442313
  20.4309823   3.5871548  44.1905667  19.6001753   4.6706457  44.3150175
  20.1573183   4.1970777  44.5992744  21.6272521  17.1479382  36.1896534
  21.2352313  16.8446097  35.4719400  21.7825594  17.9848472  36.0001488
  21.5926111  17.2263219  36.0553031   9.1033701   7.1401396  36.1387417
   9.4832666   7.5585941  35.4747684   8.5289066   7.7214852  36.4456260
   9.0745026   7.2879255  36.0864158  22.3806942   5.8349699  45.6825620
  21.5683623   5.5275589  45.7638793  22.8396876   5.3548699  46.2468333
  22.3287326   5.7186191  45.7780215  21.7912196  13.7129371  36.1302565
  21.4326851  13.8844014  36.9066597  21.3050907  14.1742576  35.5730563
  21.6670893  13.8068342  36.1627834  16.5800562   9.3928536  28.6702799
  16.8693086  10.1693419  28.9446373  16.6672360   8.8817268  29.3717298
  16.6354818   9.4320454  28.8145297  19.4760449   7.2409770  50.4654323
  19.9460080   7.8651887  50.8522197  19.5222329   6.5726746  51.0247537
  19.5528325   7.2344450  50.6054394  22.9516936  14.6033267  47.0769766
  23.5896656  14.1093462  46.7432222  22.3091027  14.5310667  46.4921992
  22.9511162  14.5192275  46.9412121  24.6773936   6.4522413  41.6435681
  24.2501544   6.3648761  40.8883781  24.0399989   6.5600188  42.2290525
  24.5203543   6.4555072  41.6181123  18.1695013   1.5597938  47.5832651
  18.9968442   1.2883087  47.6391265  18.1902859   2.3558780  47.9396469
  18.2947863   1.6377692  47.6447833  23.0071192  15.2953075  43.7175122
  23.7963570  14.9442140  43.8377204  23.1814790  16.1089463  43.4551756
  23.1491474  15.3638932  43.6962990  12.7464503   8.7061801  40.7702911
  11.9052509   8.6065675  40.9781805  12.9554511   9.4757281  41.1217232
  12.6529195   8.8053844  40.8530226  10.2240070   6.3281338  38.5987662
   9.8296767   6.4024349  37.8237772   9.6680186   6.7139284  39.1496024
  10.0842882   6.3963112  38.5655322  21.8605016  -0.6937368  38.2791541
  22.0654610  -0.7615060  39.1248538  21.5331440   0.1121453  38.2112718
  21.8420264  -0.5851428  38.3951196  16.5581167   6.6343200  40.0200509
  16.2544305   6.0799188  40.6210916  15.8560588   6.8135410  39.5328543
  16.4097377   6.5787982  40.0370214  15.6147265   3.9443720  34.5845211
  15.8906999   3.2262632  34.1722778  16.2145934   4.5428640  34.3766317
  15.7440529   3.9264090  34.4925972  14.6199518  13.8492921  44.7272607
  14.5119873  13.8594983  45.5934665  14.8295300  14.6747701  44.5377560
  14.6349629  13.9733995  44.8276698  25.1138704  -0.1405604  37.7594306
  24.5013018   0.3464798  38.1448038  25.2102879  -0.8162113  38.3031957
  25.0376602  -0.1687295  37.8973164  19.1157785   1.6157237  32.8591806
  19.5701532   1.7867797  33.5839650  19.5897831   1.0025348  32.4589581
  19.2526105   1.5508122  32.9065567  12.6373310  11.1005563  42.1894544
  12.0461244  11.7415061  42.1597559  13.3994334  11.5243180  42.1625844
  12.6621571  11.2581401  42.1809691  22.3962827  16.5514875  39.6226569
  22.1982515  17.0405689  38.9282780  21.7750538  16.7556116  40.2010702
  22.2750391  16.6531413  39.6049792  16.4570805   8.3199771  33.9636813
  17.2012850   8.7074048  34.2019763  16.6031501   7.4757197  34.1277301
  16.5881390   8.2530244  34.0230783  19.4448681   3.8925245  39.8630732
  18.9708635   3.3667007  40.3736043  19.8166817   3.3454718  39.2945594
  19.4298570   3.7341241  39.8545879  25.7085411   8.9527620  41.2737513
  25.4683634   8.1134036  41.2779939  26.1877419   9.0327787  41.9978286
  25.7437595   8.8409020  41.3812315  21.3732181   4.7861799  32.9256486
  20.8455199   4.8690543  32.2362195  21.8327889   5.5279671  32.9221131
  21.3634031   4.9082462  32.8231181  27.7090598   5.7329078  39.2266772
  27.4700368   5.6924912  38.3887556  27.8724500   6.5800230  39.3532493
  27.6980902   5.8521163  39.1220254  24.3136629  10.1179027  45.1571817
  25.0370827   9.6651553  44.9782837  24.0486591  10.3983693  44.3744145
  24.3817902  10.0929995  45.0150532  13.1823497   4.7139200  41.8924696
  12.5576567   4.7257592  41.2850649  12.8469092   5.1899376  42.5415936
  13.0408989   4.7857717  41.8981265   9.8949173  12.7739660  43.3328460
   9.3649097  12.0832099  43.3823435  10.1674266  12.7649846  42.5041169
   9.8573895  12.6706792  43.2175876  20.9269263  13.3565363  32.0566143
  21.6503462  13.8223476  31.9130716  20.4869854  13.4238972  31.3063740
  20.9684955  13.4349200  31.9250924  20.0955418  10.2162905  43.3066832
  19.4812411   9.6720955  43.6015467  20.6122703   9.7027142  42.8272648
  20.0811081  10.0599314  43.2791060  19.3351715  11.2867175  41.0411131
  18.9079323  10.6616894  40.6076566  19.3276660  11.0042097  41.8670138
  19.2710856  11.1519956  41.0990958  12.4514242   6.3232348  44.1099565
  12.6107729   5.5675672  44.5151287  12.2707136   6.8723288  44.7640302
  12.4479601   6.2926162  44.2662271  20.3934545  -1.5106416  44.6650354
  19.8975107  -1.3142742  43.9741921  21.1503607  -1.1113748  44.4939156
  20.4321370  -1.4228682  44.5370491  17.6637425   2.1635930  41.2553665
  17.6879912   1.6296042  40.5666445  17.9148899   1.6553238  41.9179255
  17.7047344   2.0096834  41.2518309   5.1745015   9.4467425  40.6896809
   5.0688464   9.4014269  39.8248893   4.4245235   9.7921205  40.9711094
   5.0480618   9.4908333  40.6034138  16.1268360  10.4567488  48.7379704
  15.2763991  10.5939202  48.8737348  16.2896488   9.7231266  49.1827405
  16.0252224  10.3681589  48.8235303  15.3653111   7.4067258  42.9333308
  14.5345040   7.5741076  42.7268556  15.3104628   7.0303209  43.7182193
  15.2342525   7.3756989  43.0181836  13.7389154   5.6822849  33.4623426
  13.8792115   6.1795314  34.1652067  14.2371687   4.9809144  33.6037639
  13.8330235   5.6524828  33.5875005  13.7689377   6.5489960  30.7916003
  14.4034456   7.1450385  30.7265464  13.8514988   6.2493418  31.6061873
  13.8745928   6.5930868  30.9019089  26.7471943   9.0805438  43.6602367
  27.3389783   9.7202688  43.6920565  27.1830937   8.3828474  43.9494434
  26.8990374   9.0723788  43.7083199  15.3468360   2.4803936  30.7661444
  15.6684201   2.0007018  30.1120707  15.6095303   3.2903582  30.5752256
  15.4334385   2.5293834  30.6416937  18.5765332  13.5022810  44.2860261
  18.0690424  14.0558657  44.7300891  18.2791979  13.5631100  43.4679035
  18.4570217  13.5929121  44.2308717  20.7427515   1.8676130  43.1284924
  21.1682586   1.4148656  42.5168450  20.1284508   1.3136200  43.4049711
  20.7156160   1.7190106  43.0789949  10.2742365   8.7457801  34.0605549
  10.7834594   9.3422309  34.4416854  10.7476637   8.4783775  33.3781968
  10.4185740   8.7943617  34.0160071  21.1873113  17.4186068  32.2164204
  20.4702422  17.2446930  31.7511441  21.8379850  17.1838640  31.6839690
  21.1774963  17.3581860  32.0693422  23.7721084   6.2950656  35.9605509
  23.1012274   6.8380359  35.8318575  24.4660834   6.7645512  35.7187204
  23.7749951   6.4448928  35.9061037  17.8207818  18.4347368  41.1917267
  17.5973472  17.6766198  41.5601294  17.3317661  18.4645390  40.4697707
  17.7151267  18.3269593  41.1394008  23.9349211   2.7506540  38.8695882
  24.2876821   2.3236263  39.5441681  23.0764013   2.6657383  38.9996959
  23.8598656   2.6751281  38.9890893  12.6332896   5.3814060  36.9278729
  11.9144886   5.7978192  37.1951592  13.0045259   5.9468298  36.3770367
  12.5824828   5.5263341  36.8861536  21.9332477   6.0141909  42.8180725
  21.9130405   5.8325204  43.6715504  21.9811678   6.8853927  42.7940308
  21.9367118   6.1158447  42.9404019  19.8778807  12.6029101  48.7429201
  19.8374662  11.9578777  48.1574357  20.6902125  12.5465718  49.0554613
  19.9921961  12.4988067  48.7026150  16.4686275  18.6547826  38.6454352
  16.0546673  17.9921957  38.2558194  17.1533649  18.8025685  38.1250046
  16.5084646  18.5788485  38.5110849  19.8351569  17.8137912  39.3977969
  19.4367852  17.9240182  38.6298789  19.2202788  18.0219978  39.9804528
  19.6850458  17.8611480  39.3709268  18.4079471   4.4212060  32.2652108
  17.8144310   4.7429056  31.7136675  18.4454748   3.5753155  32.0573215
  18.3253860   4.3436388  32.1534880  25.3673272  -2.1275048  39.7980195
  24.8604136  -2.8345909  39.7301372  26.1640705  -2.4581859  39.9281271
  25.4100511  -2.2801897  39.8079190  21.2837287   4.3791564  35.6953859
  21.0550980   4.4024265  34.8532217  21.5435364   3.5549031  35.8148869
  21.2883475   4.2607644  35.5879056  15.5656516   6.2326037  45.2978959
  15.0535419   5.6247220  45.6563990  15.3936012   6.9482630  45.7652935
  15.4646153   6.2489336  45.4195183  14.3382050   2.9168110  36.9908054
  14.8139416   3.2785190  36.3558235  13.8370649   3.5724578  37.2708197
  14.3347409   3.0662299  36.9384795  19.4425586   4.1550282  47.7381214
  19.9997016   3.9264091  47.1059680  19.1186651   4.9155947  47.4616427
  19.4771996   4.2334118  47.6037712  17.1608703   7.2417935  48.7033222
  17.9120030   7.5569612  49.0172776  17.3531280   7.0397106  47.8767143
  17.3000118   7.2585317  48.6276617  16.3808703   5.0609310  30.3581438
  16.7607668   5.0788939  29.5732553  15.6401299   5.5063299  30.2372286
  16.3277541   5.1291085  30.2245006  24.0093994   3.3691501  35.9457017
  24.0088220   3.2140158  36.8041293  23.8050174   4.2154488  35.8898403
  23.9793771   3.4712122  36.0644956  21.7334846   8.0489003  39.5993224
  22.2288511   7.3311998  39.5597244  20.9234621   7.7459801  39.4847711
  21.6878739   7.8986649  39.5766950  17.1793457  11.8986816  31.7490228
  16.3704780  11.5753490  31.7023538  17.6868366  11.1920038  31.6818477
  17.1343124  11.7468133  31.7320523   7.8083734   9.3259009  37.4737593
   6.9429254   9.3144700  37.3620364   7.9082550   9.1389232  38.3208732
   7.6957901   9.2965071  37.5826537  23.7986664  10.7992691  42.2870353
  24.2241736  10.2767112  41.7340778  23.4343584  11.3973528  41.7658976
  23.8073267  10.8102918  42.1279362  13.4340744  19.0956908  41.0467698
  13.7487303  19.9093297  41.0545480  13.8434158  18.7107127  41.7149857
  13.5408842  19.1585610  41.1471790  20.3865264  14.5126955  38.6171510
  20.8576442  15.2267217  38.7861495  20.7225442  13.9125705  39.1531380
  20.5060379  14.5298419  38.7203886  22.4742248  16.1228268  50.7963582
  22.5839214  15.3336829  51.1520329  22.8033145  16.0334204  49.9937920
  22.5394654  15.9934121  50.7305973  21.0239210  14.3044889  45.3799203
  20.4760156  13.6802773  45.1119268  21.4852239  14.4939161  44.6643282
  21.0106420  14.2403939  45.2349634  23.8333075   2.3730244  42.7650395
  23.2496063   2.8739450  42.3527962  24.1537369   1.8659800  42.1314718
  23.7946250   2.3722079  42.6108902  16.3727874   1.2870838  33.0409070
  17.1943568   1.4569151  32.7990765  15.9097525   1.4418099  32.3175367
  16.4259036   1.3352571  32.8980714  10.7753764  13.0430017  40.6946307
  11.3798622  13.0025851  40.0660127  10.5681077  13.8901169  40.7250362
  10.8342662  13.1618019  40.6062423  20.5897537  15.3095962  41.9108544
  21.4095910  15.1658928  42.1724839  20.3091614  15.9342161  42.4524982
  20.6694280  15.3806314  42.0296483   6.0105047  12.0264634  40.5645230
   5.9129325  11.2160906  40.8735286   6.7933916  12.0056427  40.1791498
   6.1121183  11.9031724  40.5532093  19.4201812  27.6237861  37.2856688
  19.1851996  26.7905513  37.1788957  19.5587453  27.9042527  36.4717889
  19.4057474  27.5421364  37.1499043  21.7191899  19.7923592  40.1840996
  21.0996931  19.2016239  40.0151011  21.6175763  20.3835027  39.5505319
  21.6129575  19.7927674  40.0645986  21.4461032  23.3375873  42.4284565
  21.3219729  23.9238319  43.0634384  22.0979317  22.8436069  42.7296840
  21.5234682  23.3514678  42.5670494  34.1963066  12.8901053  36.8444344
  33.8816507  13.5804532  37.2764767  33.6790008  12.8345835  36.1429845
  34.0727537  12.9835942  36.8041294  28.2767342  31.0281687  46.1096544
  27.7138177  30.6154296  46.6336205  29.0388366  30.9534592  46.5289688
  28.3061791  30.9559087  46.2489545  29.8852322  23.0334423  30.2358144
  30.1248326  23.2412407  29.4233487  30.2068163  22.2291931  30.3447088
  29.9689480  22.9448524  30.1318697  24.8842240  23.2555295  47.8413590
  25.0562744  23.1461189  48.6898871  25.4211598  23.9009700  47.6044782
  24.9887244  23.3347296  47.9318686  23.5499677  17.3698137  30.7795795
  23.3675251  17.5870018  29.9536787  24.4125290  17.4837150  30.8354409
  23.6504267  17.4188035  30.6650282  19.1903957  25.8487226  42.6766510
  18.9242373  25.0326342  42.8357500  19.2042521  25.8940381  41.8062025
  19.1528680  25.7344130  42.5719991  36.1685351  16.1765041  40.7108943
  36.8111260  16.2463145  41.2970859  36.4208372  15.5094264  40.2088485
  36.3007483  16.0891389  40.7236222  23.9402564  19.3865604  45.3233517
  23.2474360  18.9162584  45.5694249  24.5562891  19.1603909  45.8975224
  23.9287094  19.2832736  45.4442670  19.5997371  26.6346005  39.9578254
  19.4172944  26.6092891  39.1050546  20.3347040  27.1044943  39.9967163
  19.6811435  26.7007367  39.8376172  22.6643123  23.3531008  46.4660362
  23.3883095  23.3384039  46.9525257  22.7659259  24.0626363  45.9682331
  22.7861332  23.4555711  46.4639149  30.0388072  26.8330093  51.3309309
  29.2461053  27.1473604  51.5161929  30.1536999  27.0481561  50.4930094
  29.9383483  26.9113929  51.2347644  19.5668281  23.5139506  40.1077320
  20.1441784  23.3775957  40.7469566  18.8682343  23.0575290  40.3622905
  19.5489303  23.4261772  40.2399610  15.0427115  22.3651399  36.8225139
  15.1287366  21.9883267  37.6038669  15.6702912  21.9911844  36.3445097
  15.1483666  22.2536881  36.8670616  20.6303073  31.1343132  40.8756500
  20.6707218  31.4057983  40.0476279  21.1897597  31.6585040  41.2914287
  20.7186419  31.2518887  40.8148388  26.7461786  17.3963500  51.0459669
  26.4315227  18.1663063  50.7829232  26.4251719  16.8333756  50.4611896
  26.6520705  17.4273769  50.9201019  33.4226572  15.9331881  44.9917188
  34.1680164  15.7441691  44.5780613  33.0063877  16.4590119  44.4331044
  33.4711546  15.9834026  44.8481761  23.7139351  26.4002660  38.7345307
  23.4252600  25.7740131  39.2691034  24.5822699  26.3422947  38.8009987
  23.7999603  26.2990204  38.8236261  26.3778292  19.9960751  49.7844884
  25.5678067  20.3018531  49.6734726  26.8552978  20.7166334  49.8997468
  26.3281770  20.1475352  49.7851955  22.7122324  25.5323302  44.6544287
  23.2243421  25.8107555  44.0053046  22.4258666  26.2712596  45.0207100
  22.7457187  25.6825655  44.6134165  19.7989230  20.0393493  34.9508023
  19.9005366  20.8419655  35.2788998  20.5945117  19.8380829  34.6531104
  19.9317136  20.1279392  34.9543378  20.6152962  20.1540672  42.6929145
  20.4738454  19.3024612  42.8173653  20.8993525  20.1969332  41.8691351
  20.6360808  20.0340422  42.5896769  25.8016337  32.9167252  43.1157643
  25.9505900  32.3570168  42.4631047  26.5816339  32.9959254  43.4990162
  25.9390430  32.8452818  43.0754592  28.3269637  33.0881895  44.3942134
  28.2513308  32.4190706  44.9492922  28.2559496  33.7899683  44.9082800
  28.3050244  33.0926803  44.5518982  21.3843267  18.0671019  46.0106595
  20.8485457  17.4551377  46.3267362  21.4461032  18.6419155  46.6640262
  21.3138900  18.0617947  46.1542022  33.6137602  10.9995075  38.7910994
  33.7321170  11.4571538  38.0578297  33.4399778  10.1940336  38.5047212
  33.6056773  10.9488847  38.6411928  23.5032023  25.4751753  35.8226650
  23.6596642  25.4098556  36.6782642  23.8432616  26.2500306  35.6105329
  23.5765258  25.5800952  35.9181244  20.0766285  22.6586704  36.1387417
  20.4565249  23.0771249  35.4747684  19.5021649  23.2400160  36.4456260
  20.0477609  22.8064563  36.0864158  30.4493033  22.7595078  50.4654323
  30.9192664  23.3837194  50.8522197  30.4954913  22.0912054  51.0247537
  30.5260908  22.7529758  50.6054394  29.3413681  12.2912051  45.3106239
  29.9706799  12.8272351  45.0327309  29.5099544  12.1989410  46.1619805
  29.4591476  12.3573413  45.3954767  29.1427596  17.0783246  47.5832651
  29.9701026  16.8068395  47.6391265  29.1635442  17.8744087  47.9396469
  29.2680446  17.1563000  47.6447833  23.7197086  24.2247109  40.7702911
  22.8785093  24.1250983  40.9781805  23.9287094  24.9942589  41.1217232
  23.6261779  24.3239152  40.8530226  21.1972653  21.8466646  38.5987662
  20.8029351  21.9209657  37.8237772  20.6412770  22.2324592  39.1496024
  21.0575465  21.9148420  38.5655322  25.5932102  29.3678228  44.7272607
  25.4852457  29.3780291  45.5934665  25.8027884  30.1933009  44.5377560
  25.6082213  29.4919303  44.8276698  36.0871288  15.3779704  37.7594306
  35.4745601  15.8650106  38.1448038  36.1835462  14.7023195  38.3031957
  36.0109185  15.3498013  37.8973164  23.6105894  26.6190871  42.1894544
  23.0193827  27.2600369  42.1597559  24.3726918  27.0428488  42.1625844
  23.6354155  26.7766709  42.1809691  24.0066517  17.7792869  42.8562562
  24.4667998  17.8531798  43.5937686  24.0522624  18.5774123  42.5062383
  24.0817072  17.9087016  42.9135318  25.6549867  18.4459564  47.4234589
  25.2635432  17.7992911  47.8590367  25.8235729  19.0370999  48.0428844
  25.6220777  18.4373831  47.5797295  20.7954295  21.4082059  45.2314278
  21.6579908  21.3077769  45.1451608  20.4646078  20.8276769  44.6699850
  20.8739491  21.3073686  45.1359684  24.3397829  18.5749627  27.9497381
  23.9910634  19.2269352  28.4128931  23.8594275  18.5606740  27.2221252
  24.2168073  18.6692680  27.9108472  20.8681756  28.2924968  43.3328460
  20.3381681  27.6017407  43.3823435  21.1406849  28.2835154  42.5041169
  20.8306478  28.1892100  43.2175876  23.4246826  21.8417656  44.1099565
  23.5840313  21.0860980  44.5151287  23.2439720  22.3908596  44.7640302
  23.4212185  21.8111470  44.2662271  16.1477598  24.9652733  40.6896809
  16.0421047  24.9199577  39.8248893  15.3977818  25.3106513  40.9711094
  16.0213201  25.0093641  40.6034138  27.1000944  25.9752796  48.7379704
  26.2496574  26.1124510  48.8737348  27.2629071  25.2416574  49.1827405
  26.9984807  25.8866897  48.8235303  24.1469477  16.4161459  48.5689719
  24.7722181  15.8723591  48.8419151  23.6919957  15.9356376  47.9997509
  24.1717738  16.2650940  48.5251313  21.2474948  24.2643109  34.0605549
  21.7567178  24.8607617  34.4416854  21.7209221  23.9969083  33.3781968
  21.3918324  24.3128924  34.0160071  36.3405855  13.3910260  39.7980195
  35.8336720  12.6839399  39.7301372  37.1373289  13.0603449  39.9281271
  36.3833094  13.2383411  39.8079190  21.3854814  20.1948920  47.9481321
  21.2157404  20.8550295  47.4029527  20.9420764  20.4055482  48.6693810
  21.2954148  20.3234902  47.9742950  30.4158170  19.6735590  47.7381214
  30.9729600  19.4449399  47.1059680  30.0919235  20.4341255  47.4616427
  30.4504580  19.7519426  47.6037712  18.2856879  23.0995786  43.2069810
  17.7383598  22.4296431  43.3250679  19.0749257  22.7325634  43.2713278
  18.3209062  22.9460772  43.2338511  28.1341287  22.7603243  48.7033222
  28.8852614  23.0754920  49.0172776  28.3263863  22.5582414  47.8767143
  28.2732701  22.7770625  48.6276617  17.0443848  22.3116594  40.3615834
  16.8665609  21.8593203  41.0870749  16.7562870  23.1142755  40.5454311
  16.9756801  22.3639151  40.4959336  18.7816318  24.8444317  37.4737593
  17.9161837  24.8330008  37.3620364  18.8815134  24.6574540  38.3208732
  18.6690485  24.8150379  37.5826537  24.4073328  34.6142216  41.0467698
  24.7219887  35.4278604  41.0545480  24.8166741  34.2292435  41.7149857
  24.5141426  34.6770918  41.1471790  28.2767342  14.8039733  45.5729605
  28.4095248  14.0070727  45.9010580  28.6612495  15.3306136  46.1527880
  28.3523671  14.7639650  45.7073108  25.9355789  14.7998908  43.8207499
  26.4800202  14.4590035  44.4111840  25.9892725  15.6584370  43.9628783
  26.0244909  14.8754168  43.9289372  21.7486348  28.5615324  40.6946307
  22.3531205  28.5211159  40.0660127  21.5413660  29.4086477  40.7250362
  21.8075245  28.6803327  40.6062423  16.9837630  27.5449942  40.5645230
  16.8861908  26.7346213  40.8735286  17.7666500  27.5241735  40.1791498
  17.0853767  27.4217032  40.5532093  55.5169755  59.3593606  49.2364807
  56.2236523  58.8645637  49.3651741  55.7057691  59.8002687  48.5067465
  55.6497661  59.3511956  49.1473852  51.5846430  65.0009436  36.7638241
  51.9685809  65.5696335  36.2243016  51.5205571  64.2758947  36.2844057
  51.6319857  64.9784900  36.6132103  48.0102674  67.5565779  39.0619211
  48.6540130  67.9978944  39.4515369  48.3358930  66.7519206  38.9749470
  48.1534503  67.5030974  39.1064688  50.9570632  60.3963112  41.3578969
  51.2393875  59.6014518  41.1365725  51.6856792  60.8743699  41.3784030
  51.1060196  60.3497709  41.3281984  60.9388720  59.5022474  38.3314800
  60.1086423  59.7133118  38.4948216  60.8897973  58.6759529  38.0557083
  60.8095456  59.4112081  38.3152165  42.9284304  63.5394148  38.5612895
  42.4451882  64.2644637  38.5372478  43.7407622  63.8370278  38.6723052
  42.9775051  63.6896501  38.5740174  48.9998458  62.3326328  41.1662709
  48.4825399  61.9733743  40.5624017  49.6972849  61.8088503  41.1768775
  49.0264039  62.2024016  41.0792968  52.6562050  62.7821142  47.1278882
  52.7445396  62.5947283  47.9757092  53.0851762  62.1358572  46.7283729
  52.7324152  62.6584150  47.1950634  50.2232510  62.0652302  46.1096544
  49.6603344  61.6524912  46.6336205  50.9853533  61.9905208  46.5289688
  50.2526958  61.9929703  46.2489545  45.7828501  64.0550324  38.7133174
  46.4849080  63.5402313  38.7705931  45.7025984  64.3824475  39.5180050
  45.8752261  64.0264550  38.8405967  45.7331979  60.6657551  42.5232088
  46.2730204  60.5228682  43.1935460  45.0501926  61.0654302  42.8916114
  45.7124133  60.7037222  42.6766510  58.1953035  60.1721829  38.4679515
  57.7588267  60.1758571  39.2238487  57.8615951  60.8527328  38.0359093
  58.0815655  60.2734284  38.5160348  52.7682109  62.2130161  49.7922666
  53.5522526  62.3261009  50.1578408  52.5678704  61.3871299  49.9881351
  52.8548134  62.1076881  49.8757052  52.9252502  64.1240264  43.4389121
  52.1267748  63.8839764  43.6962990  53.3738514  64.1754656  44.1856169
  52.8727114  64.0962655  43.5874045  59.4452669  56.7469797  34.9380745
  59.7760886  57.2797437  34.3320840  60.0185757  56.8008685  35.5942696
  59.5786348  56.8339366  34.9458527  51.9853239  57.8700708  51.3309309
  51.1926220  58.1844220  51.5161929  52.1002166  58.0852177  50.4930094
  51.8848650  57.9484545  51.2347644  52.9137032  57.7720912  46.2694606
  53.4875894  57.1348156  46.4243170  52.8351836  57.7724995  45.4004264
  52.9870267  57.6786024  46.1641017  58.2357180  59.1429890  46.2779459
  57.9995817  58.3117955  46.1591520  58.8800409  59.0915497  46.8634304
  58.2951851  59.0127578  46.3465353  59.2593601  58.9274339  42.3407754
  58.9539418  59.6602395  42.7021069  58.5399816  58.5212268  42.0600540
  59.1080943  58.9756072  42.3520891  64.9595393  55.5667339  41.6676098
  64.8919893  55.5863298  40.7978685  64.9451055  56.4097666  41.8931769
  64.9474149  55.6941074  41.5728575  48.8081656  63.3732577  33.4029455
  49.0979954  62.9821558  32.6788682  49.5385137  63.5549282  33.8434731
  48.9588540  63.3426391  33.3612262  46.7487571  65.3499959  36.4689605
  46.5287867  65.0597314  37.2616272  46.5282093  64.6914914  35.9407518
  46.6835165  65.2099668  36.5078514  48.9155527  66.7229349  35.2520298
  49.5679585  66.1905791  35.4811324  48.2181136  66.3698001  35.6388172
  48.9086245  66.5918872  35.3432465  56.9095445  59.0433763  34.5951277
  57.4753478  59.7026973  34.5109820  56.2623349  59.3883461  35.0667679
  56.8974202  59.1915704  34.6524033  53.3802023  61.9872547  34.0188356
  53.1388699  61.2540408  33.6115421  53.5603356  62.5359404  33.3654689
  53.3709647  61.9594939  33.8618579  56.6104770  59.7361737  40.6260414
  56.4719130  60.4342783  41.1309156  55.8304768  59.5810394  40.2696596
  56.4747997  59.8161904  40.6486688  54.9482855  56.0358112  46.8782796
  54.9430894  55.1637929  46.8825222  55.6543849  56.2346282  46.4052252
  55.0527859  55.9361987  46.8089831  47.7481504  63.9537868  43.1157643
  47.8971068  63.3940784  42.4631047  48.5281506  64.0329870  43.4990162
  47.8855597  63.8823434  43.0754592  58.1058143  59.0939991  31.3876913
  57.7264952  58.3077129  31.3806203  57.4424389  59.6426848  31.2448558
  57.9516618  59.0584815  31.3657710  50.2734804  64.1252511  44.3942134
  50.1978476  63.4561322  44.9492922  50.2024664  64.8270299  44.9082800
  50.2515411  64.1297418  44.5518982  50.9305051  62.6453510  35.2265740
  51.6954942  62.3763154  34.9048404  50.8283141  62.1603520  35.9435802
  51.0286547  62.5343075  35.2845567  56.3518242  61.3385482  31.7228599
  56.4338079  62.1452468  31.3990050  56.8367984  61.3581441  32.4469373
  56.4355400  61.4606144  31.7815498  49.6626439  67.5320831  42.8520134
  50.1522369  66.8331620  42.6695799  49.0910671  67.2344701  43.4396192
  49.6510969  67.3847054  42.9121175  55.8593442  60.0982900  51.8046925
  56.6728308  59.8268049  51.9652058  55.6988409  59.7990440  51.0007121
  55.9563391  60.0137826  51.7092331  54.5470272  63.7035306  36.1896534
  54.1550064  63.4002021  35.4719400  54.7023344  64.5404396  36.0001488
  54.5123862  63.7819142  36.0553031  54.7109947  60.2685294  36.1302565
  54.3524602  60.4399937  36.9066597  54.2248658  60.7298500  35.5730563
  54.5868644  60.3624266  36.1627834  55.8714686  61.1589190  47.0769766
  56.5094407  60.6649386  46.7432222  55.2288778  61.0866591  46.4921992
  55.8708913  61.0748199  46.9412121  55.9268943  61.8508999  43.7175122
  56.7161321  61.4998063  43.8377204  56.1012541  62.6645387  43.4551756
  56.0689225  61.9194856  43.6962990  47.5397269  60.4048844  44.7272607
  47.4317624  60.4150906  45.5934665  47.7493051  61.2303625  44.5377560
  47.5547380  60.5289919  44.8276698  55.3160577  63.1070798  39.6226569
  55.1180266  63.5961613  38.9282780  54.6948288  63.3112040  40.2010702
  55.1948142  63.2087337  39.6049792  57.2334379  56.6734951  45.1571817
  57.9568578  56.2207477  44.9782837  56.9684342  56.9539616  44.3744145
  57.3015653  56.6485919  45.0150532  38.0942766  56.0023348  40.6896809
  37.9886215  55.9570193  39.8248893  37.3442985  56.3477129  40.9711094
  37.9678368  56.0464257  40.6034138  51.4963083  60.0578734  44.2860261
  50.9888174  60.6114581  44.7300891  51.1989729  60.1187024  43.4679035
  51.3767968  60.1485045  44.2308717  54.1070863  63.9741992  32.2164204
  53.3900173  63.8002854  31.7511441  54.7577601  63.7394564  31.6839690
  54.0972714  63.9137784  32.0693422  50.7405568  64.9903292  41.1917267
  50.5171223  64.2322121  41.5601294  50.2515412  65.0201313  40.4697707
  50.6349017  64.8825517  41.1394008  52.7976558  59.1585024  48.7429201
  52.7572413  58.5134701  48.1574357  53.6099876  59.1021642  49.0554613
  52.9119711  59.0543991  48.7026150  49.3884025  65.2103750  38.6454352
  48.9744424  64.5477880  38.2558194  50.0731400  65.3581609  38.1250046
  49.4282397  65.1344408  38.5110849  52.7549319  64.3693835  39.3977969
  52.3565603  64.4796106  38.6298789  52.1400539  64.5775902  39.9804528
  52.6048209  64.4167403  39.3709268  60.4891162  58.9445802  32.7821059
  60.8724768  59.6937158  33.0119156  59.6935275  59.1911622  32.5233048
  60.4284944  59.0915496  32.7778633  46.3538495  65.6512832  41.0467698
  46.6685054  66.4649220  41.0545480  46.7631908  65.2663051  41.7149857
  46.4606593  65.7141534  41.1471790  53.3063015  61.0682879  38.6171510
  53.7774193  61.7823141  38.7861495  53.6423193  60.4681629  39.1531380
  53.4258130  61.0854343  38.7203886  55.3939999  62.6784192  50.7963582
  55.5036965  61.8892753  51.1520329  55.7230896  62.5890128  49.9937920
  55.4592405  62.5490045  50.7305973  53.9436961  60.8600813  45.3799203
  53.3957907  60.2358696  45.1119268  54.4049990  61.0495085  44.6643282
  53.9304170  60.7959863  45.2349634  53.5095287  61.8651886  41.9108544
  54.3293661  61.7214852  42.1724839  53.2289365  62.4898084  42.4524982
  53.5892031  61.9362238  42.0296483  69.9808938  69.5216737  34.8751420
  69.9502942  70.3761374  35.0469690  70.5790286  69.2212030  35.4337564
  70.0646096  69.6033234  34.9826223  63.1808622  68.6092388  39.6304351
  62.3246518  68.7700886  39.6813467  63.2276276  67.7384452  39.6509412
  63.0607734  68.5043190  39.6410417  57.5649762  78.1455106  35.3941582
  56.8132662  77.7670644  35.1657627  58.0135774  78.1773540  34.6460393
  57.5199429  78.0940713  35.2499084  66.4902339  74.8778914  49.2364807
  67.1969106  74.3830945  49.3651741  66.6790274  75.3187995  48.5067465
  66.6230245  74.8697264  49.1473852  66.0260443  70.6684432  42.2736002
  66.5716404  71.3469519  42.3329972  65.9677320  70.5271893  41.4137584
  66.0976358  70.7476434  42.1548063  59.1434518  78.1573498  37.6604355
  59.2444881  77.3473852  37.9701483  58.5476264  78.0630445  37.0304033
  59.0707057  78.0238526  37.6130593  67.8025512  72.0969039  33.1469730
  67.6865038  72.8476725  33.5761868  68.5981399  71.8392993  33.3965817
  67.9030102  72.1703886  33.2473822  52.3399563  74.1793785  37.2856688
  52.1049747  73.3461437  37.1788957  52.4785203  74.4598451  36.4717889
  52.3255225  74.0977288  37.1499043  54.6389650  66.3479515  40.1840996
  54.0194682  65.7572163  40.0151011  54.5373514  66.9390951  39.5505319
  54.5327326  66.3483598  40.0645986  59.6855838  76.0863062  34.4339073
  60.0071679  76.6268270  33.8300381  60.3327934  75.5159834  34.5661362
  59.8281893  76.0822237  34.3646108  61.7357546  68.0879057  34.5173459
  62.4337710  68.2667185  35.0094922  62.0509878  67.5649397  33.8943849
  61.8852883  68.0372829  34.4975469  54.3658783  69.8931797  42.4284565
  54.2417480  70.4794243  43.0634384  55.0177068  69.3991993  42.7296840
  54.4432432  69.9070602  42.5670494  61.9245481  74.4749502  34.5053251
  62.3639117  73.8666603  34.9508023  61.7750144  74.0956876  33.7338716
  61.9666947  74.3287973  34.4572418  59.3917124  73.0693514  41.7072076
  60.0366127  72.5765957  41.3883025  59.6318901  73.2118301  42.5338154
  59.5227709  73.0170956  41.7821609  61.9303215  75.9148420  41.3578969
  62.2126458  75.1199826  41.1365725  62.6589376  76.3929007  41.3784030
  62.0792779  75.8683017  41.3281984  59.9084409  63.4571454  38.5994734
  59.5787739  63.9082597  37.9298433  59.2329411  63.3787617  39.1467740
  59.7594846  63.5122589  38.5817957  65.5254818  72.8276684  31.4584020
  65.4406113  73.6837650  31.6033589  66.0139201  72.5521008  32.1266179
  65.5843715  72.9134005  31.5786101  67.1160817  59.4456977  36.8444344
  66.8014258  60.1360455  37.2764767  66.5987759  59.3901759  36.1429845
  66.9925288  59.5391865  36.8041294  66.4573251  69.4461478  32.9581755
  65.9284722  69.6621111  33.6179061  66.9798271  70.1397616  32.8782724
  66.4561704  69.5804615  33.0437354  58.3472859  73.3424694  31.7589223
  57.7630074  73.8474726  32.1655087  57.9442954  73.1167081  31.0185815
  58.2012163  73.3832943  31.7094248  53.9016887  79.0579456  38.5612895
  53.4184466  79.7829945  38.5372478  54.7140206  79.3555586  38.6723052
  53.9507635  79.2081809  38.5740174  59.9731041  77.8511636  41.1662709
  59.4557983  77.4919051  40.5624017  60.6705433  77.3273811  41.1768775
  59.9996623  77.7209324  41.0792968  62.8050073  69.5890347  30.2358144
  63.0446077  69.7968330  29.4233487  63.1265914  68.7847855  30.3447088
  62.8887231  69.5004448  30.1318697  58.1140363  61.5183742  34.0817682
  58.8686331  61.8862059  33.8434732  57.9367898  61.8923297  34.8496861
  58.1994842  61.6281930  34.1602570  56.7561085  79.5735632  38.7133174
  57.4581664  79.0587621  38.7705931  56.6758568  79.9009783  39.5180050
  56.8484845  79.5449858  38.8405967  71.4075262  67.6678183  42.1265221
  70.5703683  67.7380370  42.3612815  71.3763493  67.6702678  41.2539523
  71.2793545  67.6788410  42.0324769  57.8039991  69.8111218  47.8413590
  57.9760495  69.7017113  48.6898871  58.3409349  70.4565624  47.6044782
  57.9084995  69.8903220  47.9318686  56.4697428  63.9254061  30.7795795
  56.2873001  64.1425942  29.9536787  57.3323041  64.0393074  30.8354409
  56.5702018  63.9743959  30.6650282  56.0811860  75.7641984  38.2218782
  56.9200759  75.9964916  38.2692544  56.1123629  74.8946295  38.1525818
  56.2093578  75.6698930  38.2183427  56.7064563  76.1842859  42.5232088
  57.2462788  76.0413990  43.1935460  56.0234509  76.5839609  42.8916114
  56.6856717  76.2222530  42.6766510  62.1497147  60.9280472  33.8144818
  62.8783308  60.7496427  33.3682975  62.2392040  61.7698552  34.0251997
  62.2703809  61.0264350  33.7798336  66.1305448  71.8633859  37.7177112
  66.8862963  72.2965374  37.7566021  66.2367772  71.2138629  38.2911748
  66.2575618  71.8311343  37.8075138  52.1101708  72.4043150  42.6766510
  51.8440123  71.5882266  42.8357500  52.1240272  72.4496305  41.8062025
  52.0726430  72.2900054  42.5719991  69.0883102  62.7320964  40.7108943
  69.7309010  62.8019069  41.2970859  69.3406123  62.0650187  40.2088485
  69.2205234  62.6447313  40.7236222  56.0159455  67.2028234  29.2918268
  55.3017632  66.9166413  29.7040700  56.5003424  67.5424860  29.9324655
  55.9818818  67.2109884  29.4473903  56.8600314  65.9421528  45.3233517
  56.1672111  65.4718507  45.5694249  57.4760642  65.7159832  45.8975224
  56.8484844  65.8388660  45.4442670  63.1906773  75.7058188  29.6680076
  63.6057921  75.3743212  28.9764572  62.3598703  75.4727090  29.5400212
  63.1294782  75.6229444  29.5470923  52.5195122  73.1901929  39.9578254
  52.3370695  73.1648815  39.1050546  53.2544791  73.6600867  39.9967163
  52.6009186  73.2563291  39.8376172  68.5894796  73.4253439  37.1011141
  68.8250385  73.5698638  36.2737992  68.7384360  74.1895847  37.4942655
  68.6460599  73.5592493  37.0374745  55.5840873  69.9086932  46.4660362
  56.3080846  69.8939962  46.9525257  55.6857010  70.6182287  45.9682331
  55.7059082  70.0111635  46.4639149  70.4185253  72.2655105  34.9380745
  70.7493470  72.7982745  34.3320840  70.9918341  72.3193993  35.5942696
  70.5518932  72.3524674  34.9458527  62.9585823  73.3886016  51.3309309
  62.1658804  73.7029528  51.5161929  63.0734750  73.6037485  50.4930094
  62.8581233  73.4669853  51.2347644  65.6317142  70.1120008  35.6204325
  65.7263996  70.8509302  36.0743951  65.0075985  69.6837483  36.0538890
  65.5526172  70.1581328  35.7512473  63.8869616  73.2906220  46.2694606
  64.4608477  72.6533464  46.4243170  63.8084419  73.2910303  45.4004264
  63.9602850  73.1971332  46.1641017  52.4866032  70.0695430  40.1077320
  53.0639535  69.9331880  40.7469566  51.7880094  69.6131214  40.3622905
  52.4687053  69.9817696  40.2399610  65.8840163  71.9568747  28.8541277
  65.8020326  72.0270934  29.7196264  66.5219884  72.5198491  28.6625018
  65.9660000  72.0507718  28.9531227  59.2433334  71.7229485  38.3215804
  58.9852579  70.8901220  38.2947103  59.2981817  71.9487098  37.4808304
  59.2133112  71.6327257  38.1935940  64.3234384  63.8257936  38.4219896
  63.6190711  63.3367121  38.5803815  64.3719359  63.8380410  37.5508341
  64.2264436  63.7547584  38.3159236  58.2168046  69.2767248  38.8080698
  57.6417638  69.4359416  39.4444659  57.8403723  68.6402657  38.3449149
  58.0770859  69.2065061  38.8335257  61.8841335  67.7490597  43.6673077
  61.4955768  67.3244815  43.0125268  61.2196033  67.9972747  44.1750103
  61.7288263  67.7229318  43.6460945  71.5264604  67.5065602  36.4420907
  71.2701169  66.6945543  36.2518790  72.3693918  67.5143169  36.2151094
  71.6130630  67.3877599  36.3805724  47.9624865  68.9207322  36.8225139
  48.0485117  68.5439191  37.6038669  48.5900663  68.5467768  36.3445097
  48.0681416  68.8092805  36.8670616  65.7067697  61.4465226  41.1797061
  66.0878208  60.7643397  41.5664935  64.9030981  61.1574828  40.9972725
  65.6444158  61.3032274  41.2101117  62.9880273  71.9789202  31.8649884
  63.8020912  72.2704094  31.7532655  62.9239415  71.3249064  31.2908177
  63.0983012  71.9254396  31.7638721  58.8588182  75.4510719  36.9922196
  59.4962128  75.2122467  37.5373989  59.2843253  75.6547878  36.2575356
  59.0164348  75.4461729  36.9639353  53.5500824  77.6899056  40.8756500
  53.5904969  77.9613907  40.0476279  54.1095348  78.2140964  41.2914287
  53.6384170  77.8074811  40.8148388  59.4990997  70.6713009  31.3297085
  59.8836149  70.4520716  32.0813630  59.2502617  71.4975954  31.4598162
  59.5193069  70.7611155  31.4598162  59.6659537  63.9519424  51.0459669
  59.3512978  64.7218987  50.7829232  59.3449470  63.3889680  50.4611896
  59.5718456  63.9829693  50.9201019  61.2409654  75.9283142  38.6715982
  61.3148662  75.7658314  39.5257832  62.0579160  76.1173331  38.4276464
  61.3726012  75.9319884  38.7614008  55.0015410  76.2741004  35.7010426
  54.1753528  76.5202742  35.5744704  55.0627401  76.1953085  36.5672484
  54.8889577  76.2985953  35.8099370  57.2191434  62.3409945  36.6605866
  56.3513859  62.4132545  36.7263475  57.5066638  63.1432024  36.8493841
  57.1331182  62.4704093  36.6980632  66.3424323  62.4887805  44.9917188
  67.0877915  62.2997615  44.5780613  65.9261627  63.0146043  44.4331044
  66.3909297  62.5389950  44.8481761  73.7186594  69.8597033  39.9422693
  74.2694515  69.2265102  40.1819785  73.7030709  70.3912426  40.6338197
  73.7971790  69.8445982  40.0801551  60.3708984  73.6935631  44.4882586
  59.8720678  74.4051398  44.5667474  61.1809209  74.0136297  44.4500748
  60.4165091  73.8462479  44.4939154  57.7220155  80.8685267  36.4689605
  57.5020450  80.5782622  37.2616272  57.5014677  80.2100222  35.9407518
  57.6567749  80.7284976  36.5078514  56.6337102  72.9558584  38.7345307
  56.3450351  72.3296055  39.2691034  57.5020450  72.8978871  38.8009987
  56.7197354  72.8546128  38.8236261  67.4215000  68.0993367  39.0527289
  67.0779766  67.3783702  39.4034538  67.5208042  67.8907218  38.2105647
  67.3857043  67.9617570  38.9798969  56.8369375  74.5953835  34.6587672
  57.5915343  74.9766874  34.8723134  56.2439988  75.0464978  35.1134368
  56.8606089  74.7182662  34.7570550  59.2976042  66.5516675  49.7844884
  58.4875818  66.8574455  49.6734726  59.7750729  67.2722257  49.8997468
  59.2479521  66.7031276  49.7851955  58.1567602  75.7662396  40.0327787
  57.6348356  75.9062688  40.7179652  58.5441622  75.0073060  40.2229905
  58.1371303  75.6747920  40.1628864  55.1458786  65.8168205  34.1022742
  54.8583582  65.4469475  33.3654689  55.8329254  66.2863060  33.8406447
  55.2047683  65.8315174  33.9537818  59.5833928  72.7966415  35.4309278
  59.3876710  73.4041150  34.8369581  59.8068273  72.1034359  34.9500952
  59.5868569  72.7843941  35.2725359  65.9405965  66.0184952  40.9286832
  65.1017066  66.0446231  40.6925095  66.0110332  66.6655687  41.5092178
  65.8274359  66.1181078  40.9795948  55.6320074  72.0879225  44.6544287
  56.1441171  72.3663479  44.0053046  55.3456417  72.8268519  45.0207100
  55.6654937  72.2381579  44.6134165  64.3875243  62.9170329  35.6614448
  65.0901596  62.7178077  35.1834406  64.1219432  62.1446271  35.9683291
  64.4521876  62.7733295  35.6359889  69.8163489  71.2252939  38.2148073
  69.7297464  71.3808365  39.0682852  69.3613969  71.8691014  37.8407478
  69.7366746  71.3428694  38.2855180  52.7186981  66.5949417  34.9508023
  52.8203117  67.3975579  35.2788998  53.5142867  66.3936753  34.6531104
  52.8514886  66.6835316  34.9543378  59.1503800  64.1805614  44.7145328
  58.9586997  64.1960748  45.5644752  60.0002396  64.3769288  44.6911983
  59.2479522  64.2119965  44.8368623  53.5350713  66.7096595  42.6929145
  53.3936205  65.8580536  42.8173653  53.8191276  66.7525256  41.8691351
  53.5558559  66.5896345  42.5896769  63.6889305  68.5463686  36.8373633
  63.4424019  68.4659437  37.6710422  64.0174428  67.7617154  36.6436160
  63.7010549  68.4189951  36.9321156  65.9215439  71.5543420  46.8782796
  65.9163478  70.6823237  46.8825222  66.6276433  71.7531590  46.4052252
  66.0260443  71.4547295  46.8089831  59.6486332  71.2820404  46.2496616
  59.7929708  71.8621612  45.6139726  59.9961981  71.6596701  46.9546471
  59.7213794  71.4241108  46.2595611  61.8206250  70.4810573  44.0321748
  61.0729564  70.6741587  43.6270026  61.9747775  69.6555792  43.7945869
  61.7328677  70.3875684  43.9367153  58.7214087  79.4723176  43.1157643
  58.8703651  78.9126092  42.4631047  59.5014089  79.5515178  43.4990162
  58.8588181  79.4008742  43.0754592  62.0608027  64.3761123  44.9217151
  62.5180641  65.1085098  45.0489944  62.1364356  63.9527589  45.6804407
  62.1398997  64.4218361  45.0518228  54.3041018  64.6226943  46.0106595
  53.7683207  64.0107301  46.3267362  54.3658783  65.1975079  46.6640262
  54.2336651  64.6173871  46.1542022  66.5335353  57.5550999  38.7910994
  66.6518921  58.0127462  38.0578297  66.3597528  56.7496260  38.5047212
  66.5254524  57.5044771  38.6411928  61.9037635  78.1638818  35.2265740
  62.6687526  77.8948462  34.9048404  61.8015725  77.6788828  35.9435802
  62.0019130  78.0528382  35.2845567  59.9390405  66.3663227  41.7658975
  59.1486479  66.1854687  42.0876311  60.3351028  65.5890180  41.7489270
  59.8807281  66.2250688  41.8111524  64.4256295  75.1951002  27.2065689
  65.1929281  75.2551127  26.7971541  63.9787604  74.6231443  26.7222007
  64.4729723  75.1187577  27.0743399  65.3234091  74.0005657  39.4918421
  64.6479093  73.7690890  39.9931808  65.3326467  73.3926840  38.8660526
  65.2252596  73.8764583  39.4734573  61.1347329  71.5355626  40.3898677
  60.7109578  71.7360125  39.6537695  60.9592184  70.6884474  40.5022977
  61.0458209  71.4404407  40.2972367  56.4229774  72.0307677  35.8226650
  56.5794393  71.9654480  36.6782642  56.7630367  72.8056230  35.6105329
  56.4963009  72.1356875  35.9181244  62.9608918  71.4065561  34.6920013
  63.5024464  70.9035942  35.1558633  63.2755477  71.3530755  33.8809498
  63.0873316  71.3244982  34.6403825  61.1295368  76.7982912  31.9760041
  61.1988188  75.9397451  32.1153041  61.9083823  77.0154793  31.6479065
  61.2548218  76.7035776  31.9477198  64.1098188  66.3001865  44.7442313
  64.3240157  65.6612779  44.1905667  63.4932087  66.7447689  44.3150175
  64.0503517  66.2712009  44.5992744  52.9964035  69.2142628  36.1387417
  53.3763000  69.6327173  35.4747684  52.4219400  69.7956083  36.4456260
  52.9675360  69.3620486  36.0864158  66.2737276  67.9090930  45.6825620
  65.4613958  67.6016821  45.7638793  66.7327210  67.4289931  46.2468333
  66.2217661  67.7927423  45.7780215  65.6842530  75.7870602  36.1302565
  65.3257185  75.9585245  36.9066597  65.1981241  76.2483808  35.5730563
  65.5601227  75.8809573  36.1627834  63.5012916  59.4101801  39.7329656
  62.6306474  59.3840522  39.6862966  63.7553258  59.2378993  38.9155502
  63.4106477  59.3811945  39.6049793  60.4730896  71.4669768  28.6702799
  60.7623421  72.2434650  28.9446373  60.5602695  70.9558499  29.3717298
  60.5285152  71.5061686  28.8145297  63.3690783  69.3151002  50.4654323
  63.8390414  69.9393118  50.8522197  63.4152663  68.6467977  51.0247537
  63.4458659  69.3085682  50.6054394  60.5262057  61.4208029  41.1903127
  60.0100546  60.7288221  41.3154706  59.9655986  62.0878806  41.1365725
  60.3668570  61.4171287  41.2009193  62.5954290  61.9600989  43.0195979
  62.2086044  61.9850021  43.8009509  62.1087228  61.3942668  42.5670496
  62.4666799  61.8796740  43.0683883  68.5704270  68.5263644  41.6435681
  68.1431878  68.4389993  40.8883781  67.9330323  68.6341420  42.2290525
  68.4133877  68.5296304  41.6181123  62.2611432  58.8467975  45.3106239
  62.8904550  59.3828275  45.0327309  62.4297295  58.7545334  46.1619805
  62.3789227  58.9129337  45.3954767  62.0625347  63.6339170  47.5832651
  62.8898776  63.3624318  47.6391265  62.0833193  64.4300011  47.9396469
  62.1878197  63.7118924  47.6447833  56.6394837  70.7803032  40.7702911
  55.7982843  70.6806907  40.9781805  56.8484845  71.5498513  41.1217232
  56.5459529  70.8795076  40.8530226  54.1170404  68.4022569  38.5987662
  53.7227102  68.4765581  37.8237772  53.5610521  68.7880516  39.1496024
  53.9773216  68.4704344  38.5655322  65.7535351  61.3803863  38.2791541
  65.9584944  61.3126171  39.1248538  65.4261775  62.1862685  38.2112718
  65.7350599  61.4889804  38.3951196  60.4511502  68.7084432  40.0200509
  60.1474639  68.1540420  40.6210916  59.7490922  68.8876642  39.5328543
  60.3027712  68.6529214  40.0370214  59.5077599  66.0184951  34.5845211
  59.7837333  65.3003864  34.1722778  60.1076268  66.6169871  34.3766317
  59.6370863  66.0005322  34.4925972  58.5129853  75.9234152  44.7272607
  58.4050208  75.9336214  45.5934665  58.7225634  76.7488933  44.5377560
  58.5279964  76.0475227  44.8276698  69.0069038  61.9335628  37.7594306
  68.3943352  62.4206030  38.1448038  69.1033213  61.2579118  38.3031957
  68.9306936  61.9053936  37.8973164  63.0088119  63.6898469  32.8591806
  63.4631866  63.8609029  33.5839650  63.4828165  63.0766579  32.4589581
  63.1456439  63.6249354  32.9065567  56.5303645  73.1746795  42.1894544
  55.9391578  73.8156293  42.1597559  57.2924668  73.5984412  42.1625844
  56.5551905  73.3322633  42.1809691  56.9264268  64.3348792  42.8562562
  57.3865749  64.4087722  43.5937686  56.9720374  65.1330046  42.5062383
  57.0014823  64.4642940  42.9135318  58.5747617  65.0015487  47.4234589
  58.1833182  64.3548834  47.8590367  58.7433480  65.5926923  48.0428844
  58.5418528  64.9929755  47.5797295  60.3501139  70.3941003  33.9636813
  61.0943184  70.7815279  34.2019763  60.4961835  69.5498428  34.1277301
  60.4811724  70.3271476  34.0230783  62.2680715  62.1891262  38.9968674
  61.4216760  62.3614070  38.8710024  62.2651847  61.3840606  39.3334503
  62.1427865  62.0952291  39.0279801  63.3379015  65.9666476  39.8630732
  62.8638969  65.4408238  40.3736043  63.7097151  65.4195949  39.2945594
  63.3228904  65.8082473  39.8545879  53.7152045  67.9637983  45.2314278
  54.5777658  67.8633692  45.1451608  53.3843828  67.3832692  44.6699850
  53.7937242  67.8629610  45.1359684  69.6015746  71.0268852  41.2737513
  69.3613969  70.1875267  41.2779939  70.0807753  71.1069019  41.9978286
  69.6367929  70.9150252  41.3812315  65.2662515  66.8603031  32.9256486
  64.7385533  66.9431775  32.2362195  65.7258223  67.6020902  32.9221131
  65.2564365  66.9823693  32.8231181  71.6020933  67.8070309  39.2266772
  71.3630703  67.7666143  38.3887556  71.7654834  68.6541461  39.3532493
  71.5911236  67.9262394  39.1220254  68.2066963  72.1920259  45.1571817
  68.9301162  71.7392785  44.9782837  67.9416925  72.4724924  44.3744145
  68.2748236  72.1671227  45.0150532  57.0753831  66.7880432  41.8924696
  56.4506901  66.7998824  41.2850649  56.7399426  67.2640607  42.5415936
  56.9339323  66.8598949  41.8981265  57.2595580  65.1305551  27.9497381
  56.9108384  65.7825276  28.4128931  56.7792026  65.1162664  27.2221252
  57.1365824  65.2248604  27.9108472  53.7879507  74.8480892  43.3328460
  53.2579431  74.1573331  43.3823435  54.0604600  74.8391078  42.5041169
  53.7504229  74.7448024  43.2175876  64.8199597  75.4306595  32.0566143
  65.5433796  75.8964708  31.9130716  64.3800188  75.4980204  31.3063740
  64.8615290  75.5090431  31.9250924  63.9885752  72.2904137  43.3066832
  63.3742746  71.7462187  43.6015467  64.5053037  71.7768373  42.8272648
  63.9741415  72.1340546  43.2791060  63.2282050  73.3608407  41.0411131
  62.8009658  72.7358125  40.6076566  63.2206994  73.0783329  41.8670138
  63.1641191  73.2261187  41.0990958  56.3444577  68.3973580  44.1099565
  56.5038063  67.6416904  44.5151287  56.1637470  68.9464519  44.7640302
  56.3409936  68.3667394  44.2662271  64.2864880  60.5634815  44.6650354
  63.7905441  60.7598490  43.9741921  65.0433942  60.9627484  44.4939156
  64.3251704  60.6512549  44.5370491  61.5567759  64.2377161  41.2553665
  61.5810246  63.7037274  40.5666445  61.8079233  63.7294470  41.9179255
  61.5977678  64.0838065  41.2518309  49.0675349  71.5208656  40.6896809
  48.9618798  71.4755501  39.8248893  48.3175569  71.8662437  40.9711094
  48.9410952  71.5649565  40.6034138  57.8369081  62.9647980  40.6359409
  57.8767453  63.4657186  41.3494116  57.0118746  63.0558373  40.3665332
  57.7208607  63.0529796  40.7009947  60.0198694  72.5308720  48.7379704
  59.1694325  72.6680434  48.8737348  60.1826822  71.7972498  49.1827405
  59.9182558  72.4422821  48.8235303  59.2583445  69.4808489  42.9333308
  58.4275375  69.6482307  42.7268556  59.2034962  69.1044440  43.7182193
  59.1272860  69.4498221  43.0181836  57.0667228  62.9717382  48.5689719
  57.6919932  62.4279515  48.8419151  56.6117708  62.4912300  47.9997509
  57.0915489  62.8206864  48.5251313  57.6319489  67.7564081  33.4623426
  57.7722450  68.2536545  34.1652067  58.1302022  67.0550375  33.6037639
  57.7260570  67.7266060  33.5875005  57.6619711  68.6231192  30.7916003
  58.2964791  69.2191617  30.7265464  57.7445322  68.3234650  31.6061873
  57.7676262  68.6672100  30.9019089  70.6402277  71.1546669  43.6602367
  71.2320117  71.7943920  43.6920565  71.0761271  70.4569706  43.9494434
  70.7920708  71.1465020  43.7083199  59.2398694  64.5545167  30.7661444
  59.5614535  64.0748250  30.1120707  59.5025638  65.3644813  30.5752256
  59.3264719  64.6035065  30.6416937  62.4695667  75.5764042  44.2860261
  61.9620758  76.1299889  44.7300891  62.1722313  75.6372332  43.4679035
  62.3500552  75.6670353  44.2308717  64.6357849  63.9417361  43.1284924
  65.0612920  63.4889888  42.5168450  64.0214842  63.3877432  43.4049711
  64.6086494  63.7931338  43.0789949  54.1672699  70.8199033  34.0605549
  54.6764928  71.4163540  34.4416854  54.6406971  70.5525006  33.3781968
  54.3116075  70.8684848  34.0160071  63.0752072  60.4132461  36.5375501
  62.4320390  60.2630108  37.1060639  62.7351479  60.1674806  35.7724605
  62.9297149  60.3544584  36.5078516  67.6651418  68.3691888  35.9605509
  66.9942608  68.9121590  35.8318575  68.3591168  68.8386743  35.7187204
  67.6680286  68.5190159  35.9061037  67.8279546  64.8247772  38.8695882
  68.1807156  64.3977495  39.5441681  66.9694347  64.7398615  38.9996959
  67.7528990  64.7492512  38.9890893  56.5263231  67.4555291  36.9278729
  55.8075220  67.8719424  37.1951592  56.8975593  68.0209530  36.3770367
  56.4755162  67.6004573  36.8861536  65.8262812  68.0883140  42.8180725
  65.8060739  67.9066435  43.6715504  65.8742012  68.9595159  42.7940308
  65.8297453  68.1899678  42.9404019  63.7709141  74.6770332  48.7429201
  63.7304996  74.0320009  48.1574357  64.5832460  74.6206950  49.0554613
  63.8852295  74.5729299  48.7026150  62.3009805  66.4953291  32.2652108
  61.7074644  66.8170288  31.7136675  62.3385083  65.6494387  32.0573215
  62.2184194  66.4177619  32.1534880  69.2603606  59.9466183  39.7980195
  68.7534470  59.2395323  39.7301372  70.0571040  59.6159372  39.9281271
  69.3030845  59.7939335  39.8079190  65.1767622  66.4532796  35.6953859
  64.9481315  66.4765497  34.8532217  65.4365698  65.6290263  35.8148869
  65.1813810  66.3348876  35.5879056  59.4586850  68.3067269  45.2978959
  58.9465753  67.6988452  45.6563990  59.2866346  69.0223861  45.7652935
  59.3576487  68.3230568  45.4195183  54.3052565  66.7504844  47.9481321
  54.1355155  67.4106219  47.4029527  53.8618515  66.9611405  48.6693810
  54.2151898  66.8790826  47.9742950  58.2312384  64.9909342  36.9908054
  58.7069750  65.3526422  36.3558235  57.7300984  65.6465810  37.2708197
  58.2277743  65.1403531  36.9384795  63.3355920  66.2291513  47.7381214
  63.8927351  66.0005323  47.1059680  63.0116985  66.9897179  47.4616427
  63.3702331  66.3075350  47.6037712  51.2054629  69.6551710  43.2069810
  50.6581349  68.9852355  43.3250679  51.9947007  69.2881558  43.2713278
  51.2406813  69.5016696  43.2338511  61.0539038  69.3159167  48.7033222
  61.8050365  69.6310844  49.0172776  61.2461614  69.1138338  47.8767143
  61.1930452  69.3326549  48.6276617  60.2739037  67.1350542  30.3581438
  60.6538002  67.1530171  29.5732553  59.5331633  67.5804531  30.2372286
  60.2207875  67.2032316  30.2245006  67.9024328  65.4432733  35.9457017
  67.9018554  65.2881390  36.8041293  67.6980508  66.2895720  35.8898403
  67.8724106  65.5453354  36.0644956  49.9641599  68.8672517  40.3615834
  49.7863360  68.4149126  41.0870749  49.6760621  69.6698679  40.5454311
  49.8954552  68.9195075  40.4959336  65.6265180  70.1230235  39.5993224
  66.1218845  69.4053230  39.5597244  64.8164956  69.8201033  39.4847711
  65.5809073  69.9727881  39.5766950  61.0723791  73.9728048  31.7490228
  60.2635114  73.6494722  31.7023538  61.5798700  73.2661270  31.6818477
  61.0273458  73.8209364  31.7320523  51.7014069  71.4000241  37.4737593
  50.8359588  71.3885932  37.3620364  51.8012885  71.2130464  38.3208732
  51.5888236  71.3706302  37.5826537  67.6916999  72.8733922  42.2870353
  68.1172070  72.3508344  41.7340778  67.3273919  73.4714760  41.7658976
  67.7003601  72.8844149  42.1279362  57.3271079  81.1698140  41.0467698
  57.6417638  81.9834528  41.0545480  57.7364492  80.7848359  41.7149857
  57.4339177  81.2326842  41.1471790  64.2795598  76.5868187  38.6171510
  64.7506776  77.3008449  38.7861495  64.6155777  75.9866937  39.1531380
  64.3990713  76.6039651  38.7203886  61.1965093  61.3595657  45.5729605
  61.3292999  60.5626651  45.9010580  61.5810246  61.8862060  46.1527880
  61.2721422  61.3195574  45.7073108  64.9169545  76.3786121  45.3799203
  64.3690491  75.7544004  45.1119268  65.3782573  76.5680393  44.6643282
  64.9036754  76.3145171  45.2349634  64.2697448  58.2825983  42.1710698
  63.4643412  58.1723713  42.4878536  64.1404184  58.3838439  41.3140564
  64.1317581  58.2809653  42.0918739  67.7263409  64.4471475  42.7650395
  67.1426398  64.9480682  42.3527962  68.0467703  63.9401031  42.1314718
  67.6876584  64.4463310  42.6108902  60.2658208  63.3612070  33.0409070
  61.0873902  63.5310383  32.7990765  59.8027859  63.5159331  32.3175367
  60.3189370  63.4093803  32.8980714  58.8553540  61.3554832  43.8207499
  59.3997953  61.0145959  44.4111840  58.9090476  62.2140294  43.9628783
  58.9442659  61.4310092  43.9289372  54.6684099  75.1171248  40.6946307
  55.2728956  75.0767082  40.0660127  54.4611411  75.9642400  40.7250362
  54.7272996  75.2359251  40.6062423  49.9035381  74.1005866  40.5645230
  49.8059659  73.2902137  40.8735286  50.6864251  74.0797659  40.1791498
  50.0051517  73.9772956  40.5532093  36.7562011  -0.0961055  21.8091467
  36.7256015   0.7583581  21.9809736  37.3543360  -0.3965763  22.3677611
  36.8399169  -0.0144559  21.9166269  29.9561696  -1.0085404  26.5644397
  29.0999591  -0.8476906  26.6153514  30.0029349  -1.8793340  26.5849459
  29.8360807  -1.1134602  26.5750464  24.3402835   8.5277313  22.3281629
  23.5885735   8.1492852  22.0997674  24.7888847   8.5595747  21.5800439
  24.2952502   8.4762921  22.1839131  33.2655412   5.2601121  36.1704854
  33.9722179   4.7653152  36.2991788  33.4543348   5.7010203  35.4407512
  33.3983318   5.2519472  36.0813899  29.7927795   8.9502683  17.7567176
  29.4579164   9.6279605  17.3211398  30.3054666   8.5607994  17.1684048
  29.8193376   8.9927261  17.6053968  29.3332087  10.9016952  23.6978288
  29.7171466  11.4703850  23.1583063  29.2691228  10.1766462  23.2184104
  29.3805514  10.8792415  23.5472150  32.8013517   1.0506640  29.2076049
  33.3469477   1.7291726  29.2670019  32.7430393   0.9094100  28.3477631
  32.8729431   1.1298641  29.0888110  34.5778585   2.4791247  20.0809777
  34.4618111   3.2298933  20.5101915  35.3734472   2.2215200  20.3305864
  34.6783175   2.5526094  20.1813869  25.7588331  13.4573295  25.9959258
  26.4025787  13.8986459  26.3855416  26.0844587  12.6526721  25.9089516
  25.9020160  13.4038490  26.0404735  19.1152636   4.5615992  24.2196735
  18.8802820   3.7283645  24.1129004  19.2538277   4.8420658  23.4057936
  19.1008298   4.4799496  24.0839090  26.4608911   6.4685270  21.3679119
  26.7824752   7.0090477  20.7640427  27.1081007   5.8982041  21.5001409
  26.6034966   6.4644445  21.2986155  28.5110619  -1.5298735  21.4513506
  29.2090784  -1.3510608  21.9434969  28.8262951  -2.0528396  20.8283895
  28.6605956  -1.5804963  21.4315516  21.1411856   0.2754005  29.3624612
  21.0170553   0.8616450  29.9974431  21.7930141  -0.2185800  29.6636887
  21.2185506   0.2892809  29.5010541  28.6998554   4.8571710  21.4393297
  29.1392190   4.2488810  21.8848070  28.5503217   4.4779083  20.6678763
  28.7420020   4.7110181  21.3912465  26.1670197   3.4515721  28.6412123
  26.8119200   2.9588165  28.3223072  26.4071974   3.5940508  29.4678201
  26.2980782   3.3993164  28.7161656  28.7056289   6.2970627  28.2919016
  28.9879532   5.5022033  28.0705771  29.4342449   6.7751215  28.3124077
  28.8545852   6.2505224  28.2622031  32.3007891   3.2098891  18.3924067
  32.2159186   4.0659858  18.5373636  32.7892274   2.9343215  19.0606226
  32.3596788   3.2956212  18.5126148  33.2326324  -0.1716315  19.8921802
  32.7037796   0.0443319  20.5519108  33.7551344   0.5219824  19.8122771
  33.2314777  -0.0373178  19.9777401  38.6874377   5.4029990  25.2654846
  37.8572080   5.6140633  25.4288263  38.6383629   4.5767044  24.9897130
  38.5581112   5.3119596  25.2492212  20.6769961   9.4401663  25.4952941
  20.1937539  10.1652153  25.4712525  21.4893279   9.7377793  25.6063099
  20.7260708   9.5904017  25.5080221  26.7484115   8.2333844  28.1002756
  26.2311056   7.8741259  27.4964064  27.4458506   7.7096018  28.1108822
  26.7749696   8.1031532  28.0133015  30.4047707   8.6828658  34.0618929
  30.4931052   8.4954798  34.9097139  30.8337419   8.0366087  33.6623776
  30.4809809   8.5591665  34.1290680  27.9718166   7.9659818  33.0436591
  27.4089001   7.5532428  33.5676252  28.7339190   7.8912723  33.4629734
  28.0012615   7.8937218  33.1829591  23.5314158   9.9557839  25.6473221
  24.2334737   9.4409828  25.7045978  23.4511641  10.2831990  26.4520096
  23.6237918   9.9272065  25.7746013  38.1828335  -1.9499610  29.0605268
  37.3456756  -1.8797423  29.2952862  38.1516566  -1.9475115  28.1879570
  38.0546618  -1.9389383  28.9664816  24.5793064   0.1933426  34.7753636
  24.7513568   0.0839320  35.6238918  25.1162422   0.8387831  34.5384829
  24.6838068   0.2725428  34.8658733  22.8564933   6.1464191  25.1558829
  23.6953833   6.3787124  25.2032591  22.8876702   5.2768502  25.0865865
  22.9846651   6.0521137  25.1523474  23.4817636   6.5665066  29.4572135
  24.0215861   6.4236197  30.1275507  22.7987583   6.9661817  29.8256161
  23.4609790   6.6044737  29.6106557  32.9058521   2.2456067  24.6517159
  33.6616036   2.6787581  24.6906068  33.0120846   1.5960836  25.2251795
  33.0328692   2.2133551  24.7415185  35.9438692   6.0729344  25.4019562
  35.5073924   6.0766086  26.1578534  35.6101608   6.7534843  24.9699140
  35.8301312   6.1741800  25.4500395  30.5167766   8.1137677  36.7262712
  31.3008182   8.2268525  37.0918455  30.3164360   7.2878814  36.9221398
  30.6033791   8.0084396  36.8097098  18.8854781   2.7865357  29.6106556
  18.6193197   1.9704474  29.7697547  18.8993345   2.8318512  28.7402072
  18.8479504   2.6722262  29.5060038  30.6738159  10.0247779  30.3729168
  29.8753405   9.7847279  30.6303037  31.1224171  10.0762172  31.1196216
  30.6212770   9.9970170  30.5214092  39.0783038   2.7910264  24.2939199
  39.7399473   2.2300932  24.1935108  38.4374450   2.2962295  24.6191891
  39.0811906   2.6346673  24.3271540  29.9659846   6.0880395  16.6020123
  30.3810995   5.7565419  15.9104618  29.1351776   5.8549298  16.4740259
  29.9047855   6.0051651  16.4810970  19.2948195   3.5724136  26.8918301
  19.1123768   3.5471022  26.0390593  20.0297864   4.0423074  26.9307209
  19.3762259   3.6385499  26.7716219  35.3647869   3.8075646  24.0351188
  35.6003458   3.9520845  23.2078039  35.5137433   4.5718054  24.4282702
  35.4213672   3.9414701  23.9714792  22.3593947   0.2909139  33.4000409
  23.0833919   0.2762170  33.8865304  22.4610083   1.0004494  32.9022377
  22.4812156   0.3933842  33.3979196  37.1938326   2.6477312  21.8720792
  37.5246543   3.1804952  21.2660887  37.7671414   2.7016200  22.5282743
  37.3272005   2.7346881  21.8798574  29.7338896   3.7708224  38.2649356
  28.9411877   4.0851736  38.4501976  29.8487823   3.9859692  37.4270141
  29.6334307   3.8492060  38.1687691  32.4070215   0.4942215  22.5544372
  32.5017069   1.2331509  23.0083998  31.7829059   0.0659690  22.9878937
  32.3279245   0.5403535  22.6852520  30.6622689   3.6728428  33.2034653
  31.2361551   3.0355672  33.3583217  30.5837493   3.6732510  32.3344311
  30.7355924   3.5793539  33.0981064  19.2619105   0.4517637  27.0417367
  19.8392608   0.3154088  27.6809613  18.5633167  -0.0046579  27.2962952
  19.2440127   0.3639903  27.1739657  26.0186407   2.1051693  25.2555850
  25.7605652   1.2723428  25.2287150  26.0734890   2.3309306  24.4148351
  25.9886185   2.0149464  25.1275987  24.9921120  -0.3410545  25.7420745
  24.4170711  -0.1818377  26.3784706  24.6156796  -0.9775136  25.2789196
  24.8523932  -0.4112732  25.7675304  28.6594408  -1.8687196  30.6013124
  28.2708841  -2.2932978  29.9465315  27.9949107  -1.6205046  31.1090150
  28.5041336  -1.8948475  30.5800992  29.7633347   2.3611409  18.7989931
  30.5773985   2.6526302  18.6872702  29.6992488   1.7071271  18.2248224
  29.8736086   2.3076604  18.6978768  35.9842837   5.0437405  33.2119506
  35.7481474   4.2125470  33.0931567  36.6286066   4.9923012  33.7974350
  36.0437507   4.9135093  33.2805400  25.6341255   5.8332926  23.9262243
  26.2715202   5.5944674  24.4714036  26.0596326   6.0370085  23.1915403
  25.7917421   5.8283937  23.8979400  20.3253897   8.0721263  27.8096546
  20.3658042   8.3436114  26.9816326  20.8848421   8.5963171  28.2254334
  20.4137243   8.1897018  27.7488435  37.0079257   4.8281854  29.2747801
  36.7025074   5.5609911  29.6361116  36.2885473   4.4219783  28.9940587
  36.8566600   4.8763587  29.2860938  28.0162727   6.3105349  25.6056029
  28.0901735   6.1480521  26.4597879  28.8332233   6.4995539  25.3616511
  28.1479085   6.3142091  25.6954054  42.7081049   1.4674855  28.6016145
  42.6405550   1.4870814  27.7318731  42.6936712   2.3105182  28.8271815
  42.6959806   1.5948589  28.5068622  21.7768483   6.6563212  22.6350472
  20.9506601   6.9024949  22.5084751  21.8380475   6.5775293  23.5012530
  21.6642650   6.6808161  22.7439417  26.5567312   9.2740092  20.3369502
  26.8465611   8.8829073  19.6128729  27.2870793   9.4556797  20.7774778
  26.7074197   9.2433906  20.2952309  40.4939667   0.2419241  26.8762739
  41.0447588  -0.3912690  27.1159831  40.4783782   0.7734634  27.5678244
  40.5724863   0.2268189  27.0141598  27.1462058   4.0757838  31.4222633
  26.6473751   4.7873606  31.5007521  27.9562282   4.3958505  31.3840795
  27.1918164   4.2284687  31.4279201  24.4973228  11.2507475  23.4029652
  24.2773523  10.9604829  24.1956319  24.2767750  10.5922430  22.8747564
  24.4320822  11.1107183  23.4418561  23.4090175   3.3380791  25.6685354
  23.1203424   2.7118262  26.2031081  24.2773523   3.2801078  25.7350034
  23.4950427   3.2368335  25.7576308  34.1968073  -1.5184426  25.9867336
  33.8532839  -2.2394090  26.3374585  34.2961116  -1.7270574  25.1445694
  34.1610116  -1.6560222  25.9139016  26.6641184  12.6236864  22.1860344
  27.3165242  12.0913307  22.4151370  25.9666792  12.2705517  22.5728218
  26.6571902  12.4926387  22.2772512  23.6122449   4.9776042  21.5927719
  24.3668417   5.3589081  21.8063181  23.0193061   5.4287186  22.0474415
  23.6359162   5.1004869  21.6910597  34.6581102   4.9441279  21.5291324
  35.2239135   5.6034488  21.4449867  34.0109006   5.2890977  22.0007726
  34.6459859   5.0923220  21.5864080  26.0729116  -3.0661118  36.7184931
  25.2628891  -2.7603338  36.6074773  26.5503802  -2.3455535  36.8337515
  26.0232594  -2.9146516  36.7192002  24.9320675   6.1484603  26.9667834
  24.4101429   6.2884895  27.6519699  25.3194696   5.3895268  27.1569951
  24.9124376   6.0570127  27.0968911  31.1287680   7.8880063  20.9528403
  30.8874356   7.1547923  20.5455468  31.3089013   8.4366920  20.2994736
  31.1195304   7.8602454  20.7958626  26.3587001   3.1788622  22.3649325
  26.1629783   3.7863357  21.7709628  26.5821346   2.4856566  21.8840999
  26.3621642   3.1666148  22.2065406  24.7565531   0.0643360  22.4830194
  25.4788183   0.2284519  22.0234000  24.2773524   0.7853025  22.3769533
  24.7929262   0.1941590  22.3995808  32.7159038  -3.5992841  27.8626878
  31.8770139  -3.5731562  27.6265142  32.7863406  -2.9522105  28.4432225
  32.6027432  -3.4996715  27.9135995  22.4073148   2.4701433  31.5884333
  22.9194244   2.7485686  30.9393093  22.1209490   3.2090727  31.9547146
  22.4408011   2.6203786  31.5474211  36.5916562   1.6075146  25.1488120
  36.5050537   1.7630572  26.0022899  36.1367042   2.2513221  24.7747525
  36.5119819   1.7250901  25.2195227  25.9256873  -5.4372179  31.6485375
  25.7340070  -5.4217044  32.4984798  26.7755469  -5.2408504  31.6252030
  26.0232595  -5.4057827  31.7708670  30.4642378  -1.0714107  23.7713680
  30.2177093  -1.1518356  24.6050469  30.7927501  -1.8560639  23.5776207
  30.4763622  -1.1987842  23.8661203  34.3590427   5.6369252  27.5600461
  34.2204786   6.3350298  28.0649203  33.5790425   5.4817909  27.2036643
  34.2233654   5.7169419  27.5826735  32.6968512   1.9365628  33.8122843
  32.6916551   1.0645444  33.8165269  33.4029506   2.1353797  33.3392298
  32.8013516   1.8369502  33.7429878  26.4239406   1.6642612  33.1836663
  26.5682781   2.2443820  32.5479773  26.7715054   2.0418908  33.8886517
  26.4966867   1.8063316  33.1935658  28.5959323   0.8632780  30.9661794
  27.8482637   1.0563794  30.5610072  28.7500848   0.0378000  30.7285916
  28.5081751   0.7697891  30.8707200  25.4967161   9.8545383  30.0497690
  25.6456724   9.2948299  29.3971094  26.2767163   9.9337385  30.4330208
  25.6341254   9.7830949  30.0094639  35.8543800   4.9947506  18.3216960
  35.4750609   4.2084644  18.3146250  35.1910045   5.5434363  18.1788604
  35.7002275   4.9592330  18.2997757  28.0220461  10.0260026  31.3282180
  27.9464132   9.3568837  31.8832969  27.9510320  10.7277815  31.8422847
  28.0001068  10.0304934  31.4859029  28.8361100  -5.2416669  31.8557198
  29.2933714  -4.5092695  31.9829990  28.9117429  -5.6650204  32.6144454
  28.9152070  -5.1959431  31.9858275  28.6790708   8.5461025  22.1605786
  29.4440599   8.2770669  21.8388451  28.5768798   8.0611036  22.8775849
  28.7772204   8.4350590  22.2185614  26.7143478  -3.2514565  28.6999022
  25.9239553  -3.4323105  29.0216358  27.1104101  -4.0287613  28.6829317
  26.6560354  -3.3927104  28.7451570  32.0987164   4.3827865  26.4258468
  31.4232166   4.1513097  26.9271855  32.1079540   3.7749048  25.8000573
  32.0005669   4.2586790  26.4074620  29.2281308  -0.7754306  33.1822521
  29.1640449   0.0855650  33.0542658  29.3678496  -1.0922313  32.3818072
  29.2396778  -0.6954140  33.0450734  34.1003899   7.2392997  18.6568646
  34.1823736   8.0459983  18.3330097  34.5853641   7.2588956  19.3809419
  34.1841057   7.3613660  18.7155545  27.9100402   1.9177833  27.3238724
  27.4862651   2.1182332  26.5877742  27.7345257   1.0706681  27.4363024
  27.8211283   1.8226615  27.2312414  29.7361992   1.7887768  21.6260060
  30.2777537   1.2858149  22.0898680  30.0508551   1.7352963  20.8149545
  29.8626389   1.7067189  21.5743872  33.6079099   5.9990415  38.7386972
  34.4213964   5.7275564  38.8992104  33.4474065   5.6997955  37.9347168
  33.7049048   5.9145342  38.6432378  27.9048441   7.1805120  18.9100088
  27.9741262   6.3219658  19.0493088  28.6836897   7.3977001  18.5819112
  28.0301291   7.0857984  18.8817245  30.8851261  -3.3175927  31.6782360
  31.0993231  -3.9565013  31.1245714  30.2685160  -2.8730104  31.2490222
  30.8256590  -3.3465784  31.5332791  32.2955929   9.6042821  23.1236581
  31.9035721   9.3009536  22.4059447  32.4509001  10.4411911  22.9341535
  32.2609519   9.6826658  22.9893078  33.0490349  -1.7086862  32.6165667
  32.2367031  -2.0160972  32.6978840  33.5080284  -2.1887862  33.1808379
  32.9970734  -1.8250370  32.7120261  32.4595604   6.1692810  23.0642612
  32.1010258   6.3407453  23.8406644  31.9734314   6.6306015  22.5070610
  32.3354301   6.2631781  23.0967881  30.1443857  -0.3026791  37.3994370
  30.6143488   0.3215326  37.7862244  30.1905737  -0.9709815  37.9587584
  30.2211732  -0.3092110  37.5394441  33.6200343   7.0596706  34.0109812
  34.2580064   6.5656901  33.6772269  32.9774435   6.9874106  33.4262039
  33.6194570   6.9755714  33.8752167  35.3457343  -1.0914148  28.5775728
  34.9184951  -1.1787800  27.8223828  34.7083396  -0.9836373  29.1630572
  35.1886950  -1.0881488  28.5521170  33.6754600   7.7516514  30.6515169
  34.4646978   7.4005579  30.7717251  33.8498197   8.5652902  30.3891803
  33.8174881   7.8202371  30.6303037  23.4147910   1.1625240  27.7042958
  22.5735917   1.0629114  27.9121852  23.6237918   1.9320720  28.0557279
  23.3212603   1.2617283  27.7870273  20.8923477  -1.2155223  25.5327709
  20.4980175  -1.1412211  24.7577818  20.3363594  -0.8297277  26.0836070
  20.7526289  -1.1473449  25.4995369  27.2264575  -0.9093361  26.9540556
  26.9227712  -1.4637373  27.5550963  26.5243996  -0.7301151  26.4668590
  27.0780785  -0.9648579  26.9710261  25.2882926   6.3056360  31.6612653
  25.1803281   6.3158422  32.5274711  25.4978707   7.1311140  31.4717607
  25.3033037   6.4297434  31.7616745  23.3056718   3.5569002  29.1234591
  22.7144651   4.1978500  29.0937606  24.0677741   3.9806619  29.0965890
  23.3304979   3.7144841  29.1149738  39.4247140   3.3874772  30.1211869
  39.4830263   3.8361421  30.8671846  38.7913607   3.7973585  29.6841949
  39.3398435   3.5148506  30.1664418  33.0646234   9.0078314  26.5566615
  32.8665923   9.4969128  25.8622827  32.4433945   9.2119555  27.1350749
  32.9433799   9.1094852  26.5389839  27.1254213   0.7763210  20.8976860
  27.8696257   1.1637487  21.1359810  27.2714909  -0.0679364  21.0617347
  27.2564798   0.7093683  20.9570829  30.1132088  -3.6511316  26.7970779
  29.6392043  -4.1769554  27.3076090  30.4850224  -4.1981843  26.2285641
  30.0981977  -3.8095320  26.7885926  36.3768819   1.4091059  28.2077560
  36.1367042   0.5697475  28.2119986  36.8560826   1.4891226  28.9318333
  36.4121003   1.2972459  28.3152362  34.9820036   2.5742466  32.0911864
  35.7054235   2.1214992  31.9122884  34.7169998   2.8547132  31.3084192
  35.0501309   2.5493434  31.9490579  23.8506905  -2.8297360  28.8264743
  23.2259975  -2.8178969  28.2190696  23.5152499  -2.3537185  29.4755983
  23.7092396  -2.7578843  28.8321311  20.5632580   5.2303100  30.2668507
  20.0332505   4.5395539  30.3163482  20.8357673   5.2213285  29.4381216
  20.5257302   5.1270231  30.1515923  31.5952671   5.8128802  18.9906190
  32.3186869   6.2786915  18.8470763  31.1553262   5.8802412  18.2403787
  31.6368363   5.8912639  18.8590971  30.7638826   2.6726344  30.2406879
  30.1495819   2.1284395  30.5355514  31.2806111   2.1590581  29.7612695
  30.7494488   2.5162753  30.2131107  30.0035123   3.7430614  27.9751177
  29.5762731   3.1180333  27.5416613  29.9960067   3.4605536  28.8010185
  29.9394264   3.6083395  28.0331005  23.1197650  -1.2204213  31.0439611
  23.2791137  -1.9760889  31.4491333  22.9390543  -0.6713273  31.6980349
  23.1163009  -1.2510399  31.2002317  28.3320832  -5.3800631  28.1893711
  28.3563320  -5.9140519  27.5006491  28.5832306  -5.8883322  28.8519302
  28.3730751  -5.5339727  28.1858356  15.8428422   1.9030864  27.6236856
  15.7371871   1.8577708  26.7588940  15.0928642   2.2484644  27.9051140
  15.7164025   1.9471772  27.5374185  26.7951768   2.9130927  35.6719750
  25.9447398   3.0502641  35.8077395  26.9579895   2.1794705  36.1167452
  26.6935631   2.8245028  35.7575350  26.0336518  -0.1369303  29.8673355
  25.2028448   0.0304515  29.6608603  25.9788035  -0.5133352  30.6522240
  25.9025933  -0.1679572  29.9521883  37.4155350   1.5368877  30.5942413
  38.0073190   2.1766128  30.6260612  37.8514345   0.8391914  30.8834480
  37.5673781   1.5287227  30.6423246  29.2448740   5.9586249  31.2200307
  28.7373831   6.5122096  31.6640938  28.9475386   6.0194539  30.4019082
  29.1253625   6.0492560  31.1648764  31.8556520   9.8749507  19.1504251
  31.1385830   9.7010369  18.6851488  32.5063258   9.6402079  18.6179737
  31.8458371   9.8145299  19.0033469  34.4404491  -1.2485905  22.8945556
  33.7695681  -0.7056202  22.7658622  35.1344242  -0.7791049  22.6527251
  34.4433359  -1.0987633  22.8401084  28.4891225  10.8910807  28.1257314
  28.2656880  10.1329637  28.4941341  28.0001068  10.9208829  27.4037754
  28.3834674  10.7833032  28.0734055  23.3016304  -2.1622501  23.8618776
  22.5828293  -1.7458369  24.1291639  23.6728666  -1.5968262  23.3110414
  23.2508236  -2.0173220  23.8201583  32.6015885  -1.5294652  29.7520771
  32.5813812  -1.7111357  30.6055550  32.6495085  -0.6582634  29.7280355
  32.6050526  -1.4278114  29.8744066  30.5462215   5.0592540  35.6769248
  30.5058069   4.4142217  35.0914404  31.3585533   5.0029157  35.9894660
  30.6605368   4.9551506  35.6366197  27.1369682  11.1111266  25.5794399
  26.7230081  10.4485396  25.1898241  27.8217056  11.2589124  25.0590093
  27.1768054  11.0351924  25.4450896  30.5034976  10.2701351  26.3318015
  30.1051259  10.3803621  25.5638836  29.8886196  10.4783417  26.9144575
  30.3533866  10.3174919  26.3049315  31.9520695  -3.1644997  22.6293905
  31.7234388  -3.1412295  21.7872264  32.2118771  -3.9887530  22.7488916
  31.9566883  -3.2828917  22.5219103  26.2339923  -1.3110524  32.2319006
  25.7218826  -1.9189341  32.5904037  26.0619419  -0.5953931  32.6992981
  26.1329560  -1.2947225  32.3535229  25.0065457  -4.6268451  23.9248101
  25.4822824  -4.2651371  23.2898282  24.5054057  -3.9711983  24.2048244
  25.0030816  -4.4774262  23.8724842  38.2376819   4.8453318  19.7161106
  38.6210425   5.5944674  19.9459203  37.4420932   5.0919137  19.4573095
  38.1770601   4.9923011  19.7118680  30.1108994  -3.3886279  34.6721261
  30.6680424  -3.6172470  34.0399727  29.7870059  -2.6280614  34.3956474
  30.1455404  -3.3102442  34.5377758  27.8292111  -0.3018626  35.6373268
  28.5803438   0.0133051  35.9512823  28.0214687  -0.5039455  34.8107190
  27.9683525  -0.2851244  35.5616664  32.4018253   0.5052442  26.5333271
  32.8971918  -0.2124563  26.4937291  31.5918029   0.2023240  26.4187758
  32.3562146   0.3550089  26.5106996  27.8476865   4.3550255  18.6830275
  27.0388187   4.0316929  18.6363585  28.3551773   3.6483478  18.6158524
  27.8026531   4.2031572  18.6660569  18.4767142   1.7822449  24.4077639
  17.6112661   1.7708139  24.2960411  18.5765958   1.5952671  25.2548779
  18.3641309   1.7528510  24.5166584  34.4670072   3.2556130  29.2210399
  34.8925144   2.7330552  28.6680824  34.1026992   3.8536967  28.6999022
  34.4756675   3.2666357  29.0619409  24.1024152  11.5520347  27.9807745
  24.4170711  12.3656736  27.9885527  24.5117565  11.1670566  28.6489904
  24.2092250  11.6149050  28.0811837  31.0548671   6.9690394  25.5511557
  31.5259850   7.6830657  25.7201542  31.3908850   6.3689144  26.0871426
  31.1743786   6.9861858  25.6543933  33.1425656   8.5791707  37.7303629
  33.2522621   7.7900268  38.0860376  33.4716553   8.4897644  36.9277967
  33.2078062   8.4497560  37.6646020  31.6922618   6.7608328  32.3139250
  31.1443564   6.1366212  32.0459315  32.1535646   6.9502600  31.5983329
  31.6789827   6.6967378  32.1689681  21.4437172   5.4993456  27.6286353
  22.0482029   5.4589290  27.0000174  21.2364484   6.3464608  27.6590409
  21.5026069   5.6181458  27.5402470  31.2580944   7.7659401  28.8448591
  32.0779318   7.6222367  29.1064886  30.9775022   8.3905600  29.3865029
  31.3377687   7.8369753  28.9636530  16.6788454   4.4828073  27.4985276
  16.5812732   3.6724345  27.8075333  17.4617324   4.4619867  27.1131545
  16.7804591   4.3595163  27.4872139  47.7294594  15.4224253  21.8091467
  47.6988599  16.2768889  21.9809736  48.3275943  15.1219545  22.3677611
  47.8131752  15.5040749  21.9166269  40.9294279  14.5099904  26.5644397
  40.0732175  14.6708402  26.6153514  40.9761933  13.6391968  26.5849459
  40.8093391  14.4050705  26.5750464  40.7660379  24.4687991  17.7567176
  40.4311747  25.1464913  17.3211398  41.2787249  24.0793302  17.1684048
  40.7925960  24.5112569  17.6053968  43.7746100  16.5691947  29.2076049
  44.3202060  17.2477034  29.2670019  43.7162977  16.4279408  28.3477631
  43.8462015  16.6483949  29.0888110  45.5511169  17.9976555  20.0809777
  45.4350695  18.7484241  20.5101915  46.3467056  17.7400508  20.3305864
  45.6515758  18.0711401  20.1813869  30.0885219  20.0801300  24.2196735
  29.8535404  19.2468953  24.1129004  30.2270860  20.3605966  23.4057936
  30.0740882  19.9984804  24.0839090  32.3875307  12.2487031  27.1181043
  31.7680339  11.6579678  26.9491058  32.2859170  12.8398466  26.4845366
  32.2812982  12.2491113  26.9986032  37.4341494  21.9870578  21.3679119
  37.7557336  22.5275785  20.7640427  38.0813591  21.4167349  21.5001409
  37.5767550  21.9829753  21.2986155  39.4843203  13.9886573  21.4513506
  40.1823367  14.1674700  21.9434969  39.7995535  13.4656912  20.8283895
  39.6338540  13.9380345  21.4315516  32.1144440  15.7939312  29.3624612
  31.9903137  16.3801758  29.9974431  32.7662724  15.2999508  29.6636887
  32.1918089  15.8078117  29.5010541  39.6731138  20.3757018  21.4393297
  40.1124773  19.7674118  21.8848070  39.5235801  19.9964391  20.6678763
  39.7152604  20.2295489  21.3912465  37.1402781  18.9701029  28.6412123
  37.7851783  18.4773473  28.3223072  37.3804558  19.1125816  29.4678201
  37.2713366  18.9178472  28.7161656  39.6788872  21.8155935  28.2919016
  39.9612115  21.0207341  28.0705771  40.4075033  22.2936523  28.3124077
  39.8278436  21.7690532  28.2622031  37.6570066   9.3578969  25.5334781
  37.3273396   9.8090113  24.8638479  36.9815068   9.2795133  26.0807787
  37.5080502   9.4130104  25.5158004  43.2740474  18.7284199  18.3924067
  43.1891770  19.5845166  18.5373636  43.7624858  18.4528523  19.0606226
  43.3329372  18.8141520  18.5126148  44.8646474   5.3464492  23.7784391
  44.5499915   6.0367971  24.2104814  44.3473416   5.2909274  23.0769892
  44.7410944   5.4399381  23.7381340  44.2058908  15.3468993  19.8921802
  43.6770379  15.5628627  20.5519108  44.7283928  16.0405131  19.8122771
  44.2047361  15.4812130  19.9777401  49.6606961  20.9215297  25.2654846
  48.8304664  21.1325941  25.4288263  49.6116213  20.0952352  24.9897130
  49.5313696  20.8304904  25.2492212  36.0958515  19.2432210  18.6929270
  35.5115731  19.7482241  19.0995134  35.6928611  19.0174597  17.9525862
  35.9497819  19.2840458  18.6434295  31.6502544  24.9586971  25.4952941
  31.1670122  25.6837461  25.4712525  32.4625862  25.2563101  25.6063099
  31.6993292  25.1089325  25.5080221  40.5535730  15.4897862  17.1698190
  40.7931734  15.6975846  16.3573534  40.8751571  14.6855371  17.2787135
  40.6372888  15.4011963  17.0658743  35.8626020   7.4191258  21.0157728
  36.6171988   7.7869575  20.7774779  35.6853555   7.7930812  21.7836908
  35.9480499   7.5289445  21.0942617  49.1560919  13.5685698  29.0605268
  48.3189340  13.6387885  29.2952862  49.1249150  13.5710193  28.1879570
  49.0279201  13.5795925  28.9664816  35.5525648  15.7118734  34.7753636
  35.7246152  15.6024628  35.6238918  36.0895005  16.3573139  34.5384829
  35.6570652  15.7910735  34.8658733  34.2183085   9.8261577  17.7135841
  34.0358658  10.0433457  16.8876834  35.0808698   9.9400589  17.7694456
  34.3187674   9.8751475  17.5990328  33.8297517  21.6649499  25.1558829
  34.6686416  21.8972432  25.2032591  33.8609286  20.7953810  25.0865865
  33.9579234  21.5706445  25.1523474  39.8982804   6.8287987  20.7484865
  40.6268964   6.6503942  20.3023021  39.9877697   7.6706067  20.9592043
  40.0189466   6.9271866  20.7138383  43.8791105  17.7641375  24.6517159
  44.6348620  18.1972889  24.6906068  43.9853429  17.1146144  25.2251795
  44.0061275  17.7318858  24.7415185  46.9171276  21.5914652  25.4019562
  46.4806508  21.5951394  26.1578534  46.5834191  22.2720151  24.9699140
  46.8033896  21.6927108  25.4500395  29.8587365  18.3050665  29.6106556
  29.5925780  17.4889782  29.7697547  29.8725929  18.3503820  28.7402072
  29.8212087  18.1907570  29.5060038  46.8368759   8.6328480  27.6448990
  47.4794667   8.7026584  28.2310905  47.0891779   7.9657703  27.1428532
  46.9690891   8.5454828  27.6576269  34.6085971  11.8429043  32.2573564
  33.9157768  11.3726023  32.5034296  35.2246299  11.6167348  32.8315271
  34.5970501  11.7396175  32.3782717  50.0515622  18.3095572  24.2939199
  50.7132056  17.7486240  24.1935108  49.4107034  17.8147603  24.6191891
  50.0544490  18.1531981  24.3271540  40.9392430  21.6065703  16.6020123
  41.3543578  21.2750727  15.9104618  40.1084359  21.3734605  16.4740259
  40.8780438  21.5236959  16.4810970  30.2680779  19.0909444  26.8918301
  30.0856352  19.0656330  26.0390593  31.0030447  19.5608382  26.9307209
  30.3494842  19.1570806  26.7716219  46.3380453  19.3260954  24.0351188
  46.5736042  19.4706153  23.2078039  46.4870016  20.0903362  24.4282702
  46.3946256  19.4600009  23.9714792  48.1670909  18.1662620  21.8720792
  48.4979127  18.6990260  21.2660887  48.7403998  18.2201508  22.5282743
  48.3004589  18.2532189  21.8798574  43.3802799  16.0127523  22.5544372
  43.4749653  16.7516817  23.0083998  42.7561642  15.5844998  22.9878937
  43.3011829  16.0588843  22.6852520  41.6355272  19.1913735  33.2034653
  42.2094134  18.5540980  33.3583217  41.5570076  19.1917818  32.3344311
  41.7088507  19.0978847  33.0981064  30.2351689  15.9702945  27.0417367
  30.8125191  15.8339396  27.6809613  29.5365751  15.5138729  27.2962952
  30.2172710  15.8825211  27.1739657  43.6325820  17.8576263  15.7881324
  43.5505982  17.9278450  16.6536311  44.2705540  18.4206007  15.5965065
  43.7145657  17.9515234  15.8871274  36.9918991  17.6237001  25.2555850
  36.7338235  16.7908735  25.2287150  37.0467474  17.8494614  24.4148351
  36.9618769  17.5334772  25.1275987  42.0720041   9.7265451  25.3559943
  41.3676368   9.2374637  25.5143862  42.1205016   9.7387926  24.4848387
  41.9750093   9.6555099  25.2499283  35.9653703  15.1774763  25.7420745
  35.3903294  15.3366931  26.3784706  35.5889379  14.5410172  25.2789196
  35.8256516  15.1072576  25.7675304  39.6326992  13.6498112  30.6013124
  39.2441425  13.2252330  29.9465315  38.9681690  13.8980262  31.1090150
  39.4773920  13.6236833  30.5800992  49.2750261  13.4073117  23.3760954
  49.0186826  12.5953058  23.1858836  50.1179575  13.4150684  23.1491141
  49.3616286  13.2885114  23.3145771  25.7110522  14.8214838  23.7565186
  25.7970774  14.4446706  24.5378716  26.3386320  14.4475283  23.2785144
  25.8167073  14.7100320  23.8010663  43.4553353   7.3472741  28.1137108
  43.8363865   6.6650912  28.5004982  42.6516638   7.0582343  27.9312772
  43.3929815   7.2039790  28.1441164  40.7365930  17.8796717  18.7989931
  41.5506569  18.1711610  18.6872702  40.6725071  17.2256579  18.2248224
  40.8468669  17.8261912  18.6978768  46.9575420  20.5622713  33.2119506
  46.7214058  19.7310778  33.0931567  47.6018649  20.5108320  33.7974350
  47.0170091  20.4320401  33.2805400  36.6073838  21.3518234  23.9262243
  37.2447785  21.1129982  24.4714036  37.0328910  21.5555393  23.1915403
  36.7650005  21.3469245  23.8979400  31.2986481  23.5906571  27.8096546
  31.3390626  23.8621422  26.9816326  31.8581005  24.1148479  28.2254334
  31.3869827  23.7082326  27.7488435  37.2476653  16.5720524  18.2637132
  37.6321806  16.3528231  19.0153677  36.9988274  17.3983470  18.3938208
  37.2678726  16.6618670  18.3938208  37.4145194   9.8526939  37.9799716
  37.0998635  10.6226502  37.7169279  37.0935126   9.2897195  37.3951943
  37.3204113   9.8837208  37.8541066  47.9811841  20.3467162  29.2747801
  47.6757658  21.0795219  29.6361116  47.2618057  19.9405091  28.9940587
  47.8299183  20.3948895  29.2860938  38.9895310  21.8290657  25.6056029
  39.0634319  21.6665829  26.4597879  39.8064817  22.0180847  25.3616511
  39.1211669  21.8327399  25.6954054  53.6813633  16.9860162  28.6016145
  53.6138133  17.0056122  27.7318731  53.6669295  17.8290490  28.8271815
  53.6692389  17.1133897  28.5068622  32.7501067  22.1748520  22.6350472
  31.9239185  22.4210257  22.5084751  32.8113058  22.0960601  23.5012530
  32.6375234  22.1993469  22.7439417  34.9677091   8.2417461  23.5945913
  34.0999516   8.3140060  23.6603522  35.2552295   9.0439540  23.7833888
  34.8816839   8.3711608  23.6320679  44.0909980   8.3895320  31.9257234
  44.8363572   8.2005131  31.5120660  43.6747284   8.9153558  31.3671091
  44.1394954   8.4397466  31.7821808  37.5299896  24.7925400  20.3369502
  37.8198194  24.4014381  19.6128729  38.2603377  24.9742105  20.7774778
  37.6806780  24.7619214  20.2952309  51.4672250  15.7604549  26.8762739
  52.0180172  15.1272618  27.1159831  51.4516366  16.2919941  27.5678244
  51.5457447  15.7453497  27.0141598  38.1194641  19.5943146  31.4222633
  37.6206335  20.3058914  31.5007521  38.9294865  19.9143813  31.3840795
  38.1650748  19.7469995  31.4279201  34.3822759  18.8566099  25.6685354
  34.0936007  18.2303570  26.2031081  35.2506107  18.7986386  25.7350034
  34.4683011  18.7553643  25.7576308  45.1700657  14.0000882  25.9867336
  44.8265422  13.2791218  26.3374585  45.2693699  13.7914734  25.1445694
  45.1342699  13.8625086  25.9139016  34.5855032  20.4961350  21.5927719
  35.3401000  20.8774389  21.8063181  33.9925645  20.9472494  22.0474415
  34.6091746  20.6190177  21.6910597  45.6313686  20.4626586  21.5291324
  46.1971718  21.1219796  21.4449867  44.9841589  20.8076285  22.0007726
  45.6192442  20.6108528  21.5864080  37.0461699  12.4524190  36.7184931
  36.2361475  12.7581970  36.6074773  37.5236386  13.1729773  36.8337515
  36.9965178  12.6038792  36.7192002  35.9053259  21.6669911  26.9667834
  35.3834012  21.8070203  27.6519699  36.2927279  20.9080576  27.1569951
  35.8856960  21.5755435  27.0968911  32.8944443  11.7175720  21.0362789
  32.6069239  11.3476991  20.2994736  33.5814911  12.1870575  20.7746494
  32.9533340  11.7322689  20.8877865  42.1020264  23.4065371  20.9528403
  41.8606940  22.6733231  20.5455468  42.2821597  23.9552228  20.2994736
  42.0927888  23.3787762  20.7958626  37.3319584  18.6973930  22.3649325
  37.1362367  19.3048665  21.7709628  37.5553930  18.0041874  21.8840999
  37.3354225  18.6851456  22.2065406  35.7298114  15.5828668  22.4830194
  36.4520766  15.7469826  22.0234000  35.2506107  16.3038333  22.3769533
  35.7661845  15.7126898  22.3995808  43.6891622  11.9192467  27.8626878
  42.8502723  11.9453746  27.6265142  43.7595989  12.5663203  28.4432225
  43.5760015  12.0188593  27.9135995  42.1360900   8.8177844  22.5954494
  42.8387253   8.6185592  22.1174453  41.8705089   8.0453786  22.9023338
  42.2007533   8.6740810  22.5699936  47.5649146  17.1260454  25.1488120
  47.4783120  17.2815880  26.0022899  47.1099626  17.7698529  24.7747525
  47.4852402  17.2436209  25.2195227  30.4672637  12.4956933  21.8848070
  30.5688774  13.2983094  22.2129045  31.2628524  12.2944268  21.5871150
  30.6000543  12.5842831  21.8883425  36.8989456  10.0813129  31.6485375
  36.7072654  10.0968264  32.4984798  37.7488052  10.2776804  31.6252030
  36.9965178  10.1127481  31.7708670  31.2836370  12.6104111  29.6269191
  31.1421861  11.7588051  29.7513699  31.5676933  12.6532771  28.8031397
  31.3044216  12.4903861  29.5236816  41.4374962  14.4471201  23.7713680
  41.1909676  14.3666952  24.6050469  41.7660085  13.6624669  23.5776207
  41.4496205  14.3197466  23.8661203  45.3323011  21.1554560  27.5600461
  45.1937370  21.8535606  28.0649203  44.5523009  21.0003217  27.2036643
  45.1966238  21.2354727  27.5826735  43.6701096  17.4550936  33.8122843
  43.6649134  16.5830752  33.8165269  44.3762090  17.6539105  33.3392298
  43.7746100  17.3554810  33.7429878  37.3971989  17.1827920  33.1836663
  37.5415365  17.7629128  32.5479773  37.7447638  17.5604216  33.8886517
  37.4699451  17.3248624  33.1935658  39.5691907  16.3818088  30.9661794
  38.8215221  16.5749102  30.5610072  39.7233432  15.5563307  30.7285916
  39.4814334  16.2883199  30.8707200  46.8276384  20.5132814  18.3216960
  46.4483192  19.7269952  18.3146250  46.1642629  21.0619671  18.1788604
  46.6734858  20.4777638  18.2997757  39.8093684  10.2768639  31.8557198
  40.2666298  11.0092613  31.9829990  39.8850012   9.8535104  32.6144454
  39.8884653  10.3225877  31.9858275  32.0526675  10.5234458  32.9446642
  31.5168864   9.9114817  33.2607409  32.1144440  11.0982594  33.5980308
  31.9822307  10.5181386  33.0882069  44.2821009   3.4558514  25.7251041
  44.4004578   3.9134977  24.9918344  44.1083185   2.6503775  25.4387259
  44.2740180   3.4052286  25.5751975  39.6523292  24.0646333  22.1605786
  40.4173183  23.7955977  21.8388451  39.5501382  23.5796343  22.8775849
  39.7504787  23.9535898  22.2185614  37.6876061  12.2670743  28.6999022
  36.8972136  12.0862203  29.0216358  38.0836684  11.4897695  28.6829317
  37.6292938  12.1258204  28.7451570  42.1741952  21.0958517  14.1405736
  42.9414937  21.1558642  13.7311588  41.7273261  20.5238958  13.6562054
  42.2215379  21.0195093  14.0083446  43.0719748  19.9013173  26.4258468
  42.3964750  19.6698405  26.9271855  43.0812124  19.2934356  25.8000573
  42.9738252  19.7772098  26.4074620  40.2013892  14.7431002  33.1822521
  40.1373033  15.6040958  33.0542658  40.3411079  14.4262995  32.3818072
  40.2129362  14.8231168  33.0450734  45.0736482  22.7578305  18.6568646
  45.1556320  23.5645291  18.3330097  45.5586225  22.7774264  19.3809419
  45.1573640  22.8798968  18.7155545  38.8832986  17.4363141  27.3238724
  38.4595235  17.6367640  26.5877742  38.7077841  16.5891989  27.4363024
  38.7943866  17.3411923  27.2312414  34.1715431  17.9315193  22.7566696
  34.3280050  17.8661995  23.6122689  34.5116024  18.7063745  22.5445376
  34.2448665  18.0364391  22.8521291  40.7094575  17.3073076  21.6260060
  41.2510121  16.8043457  22.0898680  41.0241134  17.2538271  20.8149545
  40.8358972  17.2252497  21.5743872  38.8781025  22.6990428  18.9100088
  38.9473845  21.8404966  19.0493088  39.6569480  22.9162308  18.5819112
  39.0033875  22.6043292  18.8817245  41.8583845  12.2009381  31.6782360
  42.0725814  11.5620295  31.1245714  41.2417744  12.6455204  31.2490222
  41.7989174  12.1719524  31.5332791  43.2688513  25.1228129  23.1236581
  42.8768304  24.8194844  22.4059447  43.4241585  25.9597219  22.9341535
  43.2342102  25.2011966  22.9893078  30.7449692  15.1150143  23.0727464
  31.1248657  15.5334688  22.4087731  30.1705057  15.6963599  23.3796307
  30.7161017  15.2628002  23.0204205  44.0222933  13.8098446  32.6165667
  43.2099614  13.5024336  32.6978840  44.4812867  13.3297446  33.1808379
  43.9703317  13.6934938  32.7120261  43.4328187  21.6878118  23.0642612
  43.0742842  21.8592761  23.8406644  42.9466898  22.1491323  22.5070610
  43.3086884  21.7817089  23.0967881  41.2498573   5.3109316  26.6669703
  40.3792131   5.2848037  26.6203012  41.5038915   5.1386508  25.8495549
  41.1592133   5.2819460  26.5389840  38.2216553  17.3677283  15.6042846
  38.5109078  18.1442166  15.8786420  38.3088352  16.8566015  16.3057345
  38.2770809  17.4069202  15.7485344  41.1176440  15.2158517  37.3994370
  41.5876071  15.8400634  37.7862244  41.1638320  14.5475493  37.9587584
  41.1944316  15.2093197  37.5394441  38.2747714   7.3215545  28.1243173
  37.7586202   6.6295736  28.2494752  37.7141643   7.9886322  28.0705772
  38.1154227   7.3178802  28.1349239  40.3439947   7.8608505  29.9536026
  39.9571700   7.8857536  30.7349556  39.8572884   7.2950183  29.5010543
  40.2152456   7.7804256  30.0023930  46.3189927  14.4271160  28.5775728
  45.8917535  14.3397508  27.8223828  45.6815980  14.5348935  29.1630572
  46.1619534  14.4303820  28.5521170  40.0097089   4.7475490  32.2446286
  40.6390207   5.2835790  31.9667356  40.1782952   4.6552849  33.0959851
  40.1274883   4.8136852  32.3294814  39.8111004   9.5346685  34.5172697
  40.6384433   9.2631834  34.5731312  39.8318850  10.3307527  34.8736516
  39.9363854   9.6126439  34.5787880  44.6487183  23.2701822  30.6515169
  45.4379561  22.9190887  30.7717251  44.8230781  24.0838210  30.3891803
  44.7907465  23.3387679  30.6303037  34.3880494  16.6810548  27.7042958
  33.5468500  16.5814422  27.9121852  34.5970502  17.4506028  28.0557279
  34.2945186  16.7802591  27.7870273  31.8656061  14.3030085  25.5327709
  31.4712758  14.3773096  24.7577818  31.3096177  14.6888031  26.0836070
  31.7258873  14.3711859  25.4995369  43.5021007   7.2811379  25.2131588
  43.7070601   7.2133687  26.0588585  43.1747431   8.0870200  25.1452765
  43.4836255   7.3897319  25.3291243  38.1997159  14.6091947  26.9540556
  37.8960296  14.0547935  27.5550963  37.4976579  14.7884157  26.4668590
  38.0513368  14.5536729  26.9710261  37.2563256  11.9192467  21.5185257
  37.5322990  11.2011379  21.1062825  37.8561925  12.5177387  21.3106363
  37.3856520  11.9012837  21.4266019  46.7554695   7.8343143  24.6934353
  46.1429009   8.3213545  25.0788085  46.8518870   7.1586634  25.2372004
  46.6792593   7.8061452  24.8313211  40.7573776   9.5905984  19.7931852
  41.2117523   9.7616544  20.5179697  41.2313822   8.9774095  19.3929628
  40.8942096   9.5256869  19.8405614  34.2789302  19.0754310  29.1234591
  33.6877235  19.7163808  29.0937606  35.0410325  19.4991927  29.0965890
  34.3037562  19.2330148  29.1149738  34.6749924  10.2356308  29.7902609
  35.1351406  10.3095237  30.5277732  34.7206031  11.0337562  29.4402430
  34.7500480  10.3650455  29.8475365  36.3233274  10.9023003  34.3574636
  35.9318839  10.2556350  34.7930413  36.4919137  11.4934438  34.9768891
  36.2904184  10.8937270  34.5137342  50.3979723  18.9060080  30.1211869
  50.4562847  19.3546728  30.8671846  49.7646191  19.3158892  29.6841949
  50.3131018  19.0333814  30.1664418  44.0378818  24.5263622  26.5566615
  43.8398506  25.0154436  25.8622827  43.4166529  24.7304863  27.1350749
  43.9166382  24.6280160  26.5389839  38.0986796  16.2948518  20.8976860
  38.8428841  16.6822795  21.1359810  38.2447492  15.4505944  21.0617347
  38.2297381  16.2278991  20.9570829  40.0166372   8.0898777  25.9308721
  39.1702417   8.2621585  25.8050071  40.0137504   7.2848121  26.2674549
  39.8913521   7.9959806  25.9619848  41.0864672  11.8673992  26.7970779
  40.6124626  11.3415754  27.3076090  41.4582808  11.3203465  26.2285641
  41.0714561  11.7089988  26.7885926  47.3501403  16.9276367  28.2077560
  47.1099625  16.0882783  28.2119986  47.8293410  17.0076534  28.9318333
  47.3853586  16.8157767  28.3152362  43.0148172  12.7610546  19.8596533
  42.4871190  12.8439290  19.1702242  43.4743880  13.5028418  19.8561177
  43.0050022  12.8831209  19.7571228  49.3506590  13.7077825  26.1606819
  49.1116360  13.6673659  25.3227603  49.5140491  14.5548977  26.2872540
  49.3396893  13.8269910  26.0560301  45.9552620  18.0927774  32.0911864
  46.6786819  17.6400300  31.9122884  45.6902582  18.3732440  31.3084192
  46.0233893  18.0678742  31.9490579  34.8239488  12.6887947  28.8264743
  34.1992558  12.7006339  28.2190696  34.4885083  13.1648123  29.4755983
  34.6824980  12.7606464  28.8321311  35.0081237  11.0313066  14.8837428
  34.6594041  11.6832791  15.3468977  34.5277683  11.0170179  14.1561299
  34.8851481  11.1256119  14.8448519  42.5685254  21.3314110  18.9906190
  43.2919453  21.7972223  18.8470763  42.1285845  21.3987720  18.2403787
  42.6100946  21.4097947  18.8590971  41.7371409  18.1911652  30.2406879
  41.1228402  17.6469702  30.5355514  42.2538694  17.6775889  29.7612695
  41.7227072  18.0348061  30.2131107  40.9767706  19.2615922  27.9751177
  40.5495314  18.6365641  27.5416613  40.9692651  18.9790844  28.8010185
  40.9126848  19.1268703  28.0331005  34.0930233  14.2981095  31.0439611
  34.2523720  13.5424419  31.4491333  33.9123127  14.8472035  31.6980349
  34.0895592  14.2674909  31.2002317  42.0350536   6.4642331  31.5990401
  41.5391098   6.6606005  30.9081968  42.7919598   6.8634999  31.4279203
  42.0737361   6.5520065  31.4710538  39.3053416  10.1384677  28.1893711
  39.3295903   9.6044789  27.5006491  39.5564890   9.6301986  28.8519302
  39.3463335   9.9845581  28.1858356  26.8161006  17.4216172  27.6236856
  26.7104455  17.3763016  26.7588940  26.0661226  17.7669952  27.9051140
  26.6896609  17.4657080  27.5374185  35.5854738   8.8655495  27.5699456
  35.6253110   9.3664702  28.2834163  34.7604403   8.9565889  27.3005379
  35.4694264   8.9537311  27.6349994  37.7684351  18.4316235  35.6719750
  36.9179982  18.5687949  35.8077395  37.9312479  17.6980013  36.1167452
  37.6668215  18.3430336  35.7575350  37.0069102  15.3816005  29.8673355
  36.1761031  15.5489823  29.6608603  36.9520619  15.0051956  30.6522240
  36.8758517  15.3505736  29.9521883  34.8152885   8.8724898  35.5029766
  35.4405588   8.3287030  35.7759198  34.3603365   8.3919815  34.9337556
  34.8401146   8.7214379  35.4591359  35.3805145  13.6571596  20.3963473
  35.5208107  14.1544061  21.0992114  35.8787678  12.9557891  20.5377686
  35.4746226  13.6273575  20.5215052  35.4105368  14.5238707  17.7256049
  36.0450447  15.1199132  17.6605511  35.4930979  14.2242165  18.5401919
  35.5161919  14.5679616  17.8359136  48.3887934  17.0554185  30.5942413
  48.9805774  17.6951435  30.6260612  48.8246928  16.3577221  30.8834480
  48.5406365  17.0472535  30.6423246  36.9884351  10.4552683  17.7001491
  37.3100192   9.9755765  17.0460754  37.2511294  11.2652329  17.5092303
  37.0750376  10.5042581  17.5756983  42.3843506   9.8424877  30.0624970
  42.8098577   9.3897403  29.4508497  41.7700499   9.2884947  30.3389758
  42.3572151   9.6938853  30.0129996  31.9158356  16.7206548  20.9945595
  32.4250585  17.3171056  21.3756901  32.3892628  16.4532522  20.3122015
  32.0601731  16.7692364  20.9500118  42.8289104  25.3934815  19.1504251
  42.1118414  25.2195677  18.6851488  43.4795841  25.1587387  18.6179737
  42.8190954  25.3330607  19.0033469  40.8237729   6.3139977  23.4715547
  40.1806047   6.1637623  24.0400686  40.4837136   6.0682322  22.7064652
  40.6782806   6.2552099  23.4418563  45.4137075  14.2699403  22.8945556
  44.7428265  14.8129106  22.7658622  46.1076825  14.7394259  22.6527251
  45.4165943  14.4197675  22.8401084  45.5765203  10.7255287  25.8035929
  45.9292813  10.2985010  26.4781728  44.7180004  10.6406131  25.9337006
  45.5014647  10.6500028  25.9230940  34.2748887  13.3562807  23.8618776
  33.5560877  13.7726939  24.1291639  34.6461250  13.9217045  23.3110414
  34.2240819  13.5012088  23.8201583  43.5748468  13.9890656  29.7520771
  43.5546396  13.8073951  30.6055550  43.6227669  14.8602674  29.7280355
  43.5783109  14.0907194  29.8744066  41.4767560  25.7886659  26.3318015
  41.0783843  25.8988929  25.5638836  40.8618779  25.9968725  26.9144575
  41.3266449  25.8360227  26.3049315  40.0495462  12.3960807  19.1992155
  39.4560301  12.7177803  18.6476722  40.0870740  11.5501902  18.9913261
  39.9669851  12.3185135  19.0874927  47.0089263   5.8473699  26.7320242
  46.5020127   5.1402838  26.6641419  47.8056696   5.5166888  26.8621318
  47.0516502   5.6946850  26.7419237  42.9253278  12.3540311  22.6293905
  42.6966971  12.3773013  21.7872264  43.1851355  11.5297778  22.7488916
  42.9299466  12.2356391  22.5219103  37.2072507  14.2074784  32.2319006
  36.6951410  13.5995967  32.5904037  37.0352003  14.9231377  32.6992981
  37.1062144  14.2238083  32.3535229  32.0538222  12.6512359  34.8821367
  31.8840812  13.3113734  34.3369574  31.6104171  12.8618921  35.6033857
  31.9637555  12.7798342  34.9082997  35.9798041  10.8916857  23.9248101
  36.4555407  11.2533937  23.2898282  35.4786641  11.5473325  24.2048244
  35.9763400  11.0411046  23.8724842  49.2109403  20.3638625  19.7161106
  49.5943008  21.1129982  19.9459203  48.4153516  20.6104445  19.4573095
  49.1503185  20.5108319  19.7118680  41.0841577  12.1299029  34.6721261
  41.6413007  11.9012838  34.0399727  40.7602642  12.8904694  34.3956474
  41.1187987  12.2082865  34.5377758  38.8024694  15.2166682  35.6373268
  39.5536021  15.5318359  35.9512823  38.9947271  15.0145853  34.8107190
  38.9416109  15.2334064  35.5616664  38.0224694  13.0358057  17.2921485
  38.4023659  13.0537686  16.5072600  37.2817290  13.4812046  17.1712332
  37.9693532  13.1039832  17.1585053  45.6509985  11.3440248  22.8797064
  45.6504211  11.1888905  23.7381340  45.4466165  12.1903235  22.8238449
  45.6209762  11.4460869  22.9985003  27.7127256  14.7680033  27.2955880
  27.5349017  14.3156642  28.0210796  27.4246278  15.5706194  27.4794358
  27.6440209  14.8202591  27.4299383  43.3750837  16.0237750  26.5333271
  43.8704502  15.3060745  26.4937291  42.5650612  15.7208548  26.4187758
  43.3294730  15.8735396  26.5106996  38.8209448  19.8735563  18.6830275
  38.0120771  19.5502237  18.6363585  39.3284357  19.1668785  18.6158524
  38.7759115  19.7216880  18.6660569  29.4499725  17.3007757  24.4077639
  28.5845245  17.2893447  24.2960411  29.5498541  17.1137979  25.2548779
  29.3373892  17.2713818  24.5166584  45.4402656  18.7741438  29.2210399
  45.8657727  18.2515859  28.6680824  45.0759575  19.3722275  28.6999022
  45.4489258  18.7851665  29.0619409  42.0281255  22.4875702  25.5511557
  42.4992433  23.2015965  25.7201542  42.3641434  21.8874452  26.0871426
  42.1476370  22.5047166  25.6543933  38.9450750   7.2603173  32.5069652
  39.0778656   6.4634166  32.8350627  39.3295903   7.7869575  33.0867927
  39.0207079   7.2203089  32.6413155  42.0183105   4.1833499  29.1050745
  41.2129069   4.0731228  29.4218583  41.8889841   4.2845954  28.2480611
  41.8803238   4.1817169  29.0258785  45.4749066  10.3478991  29.6990442
  44.8912054  10.8488197  29.2868009  45.7953360   9.8408547  29.0654765
  45.4362241  10.3470826  29.5448949  38.0143865   9.2619585  19.9749117
  38.8359559   9.4317898  19.7330812  37.5513516   9.4166846  19.2515414
  38.0675027   9.3101318  19.8320761  36.6039197   7.2562348  30.7547545
  37.1483610   6.9153474  31.3451887  36.6576132   8.1147809  30.8968830
  36.6928316   7.3317607  30.8629419  32.4169755  21.0178764  27.6286353
  33.0214613  20.9774598  27.0000174  32.2097068  21.8649916  27.6590409
  32.4758653  21.1366766  27.5402470  42.2313528  23.2844709  28.8448591
  43.0511901  23.1407675  29.1064886  41.9507605  23.9090908  29.3865029
  42.3110271  23.3555061  28.9636530  27.6521038  20.0013381  27.4985276
  27.5545316  19.1909653  27.8075333  28.4349907  19.9805174  27.1131545
  27.7537174  19.8780471  27.4872139  58.7027178  30.9409560  21.8091467
  58.6721182  31.7954197  21.9809736  59.3008527  30.6404853  22.3677611
  58.7864336  31.0226057  21.9166269  51.9026863  30.0285211  26.5644397
  51.0464758  30.1893710  26.6153514  51.9494517  29.1577275  26.5849459
  51.7825974  29.9236013  26.5750464  51.7392962  39.9873299  17.7567176
  51.4044331  40.6650220  17.3211398  52.2519833  39.5978610  17.1684048
  51.7658544  40.0297877  17.6053968  54.7478684  32.0877255  29.2076049
  55.2934644  32.7662342  29.2670019  54.6895560  31.9464716  28.3477631
  54.8194598  32.1669257  29.0888110  56.5243753  33.5161862  20.0809777
  56.4083278  34.2669549  20.5101915  57.3199639  33.2585816  20.3305864
  56.6248342  33.5896709  20.1813869  41.0617803  35.5986608  24.2196735
  40.8267987  34.7654260  24.1129004  41.2003444  35.8791274  23.4057936
  41.0473465  35.5170111  24.0839090  43.3607890  27.7672339  27.1181043
  42.7412922  27.1764986  26.9491058  43.2591754  28.3583774  26.4845366
  43.2545566  27.7676421  26.9986032  48.4074078  37.5055886  21.3679119
  48.7289919  38.0461093  20.7640427  49.0546175  36.9352657  21.5001409
  48.5500133  37.5015061  21.2986155  50.4575786  29.5071880  21.4513506
  51.1555951  29.6860008  21.9434969  50.7728119  28.9842220  20.8283895
  50.6071123  29.4565653  21.4315516  50.6463721  35.8942325  21.4393297
  51.0857357  35.2859426  21.8848070  50.4968384  35.5149699  20.6678763
  50.6885187  35.7480797  21.3912465  48.6302650  24.8764277  25.5334781
  48.3005980  25.3275421  24.8638479  47.9547651  24.7980440  26.0807787
  48.4813086  24.9315412  25.5158004  54.2473058  34.2469507  18.3924067
  54.1624353  35.1030473  18.5373636  54.7357441  33.9713831  19.0606226
  54.3061955  34.3326828  18.5126148  55.8379057  20.8649800  23.7784391
  55.5232498  21.5553279  24.2104814  55.3205999  20.8094582  23.0769892
  55.7143528  20.9584689  23.7381340  55.1791491  30.8654301  19.8921802
  54.6502963  31.0813934  20.5519108  55.7016511  31.5590439  19.8122771
  55.1779944  30.9997438  19.9777401  60.6339544  36.4400605  25.2654846
  59.8037247  36.6511249  25.4288263  60.5848796  35.6137660  24.9897130
  60.5046280  36.3490212  25.2492212  47.0691099  34.7617518  18.6929270
  46.4848314  35.2667549  19.0995134  46.6661194  34.5359905  17.9525862
  46.9230403  34.8025766  18.6434295  51.5268313  31.0083170  17.1698190
  51.7664317  31.2161154  16.3573534  51.8484154  30.2040678  17.2787135
  51.6105471  30.9197271  17.0658743  46.8358604  22.9376566  21.0157728
  47.5904572  23.3054883  20.7774779  46.6586138  23.3116120  21.7836908
  46.9213082  23.0474753  21.0942617  60.1293502  29.0871006  29.0605268
  59.2921924  29.1573193  29.2952862  60.0981733  29.0895501  28.1879570
  60.0011785  29.0981233  28.9664816  45.1915668  25.3446885  17.7135841
  45.0091242  25.5618765  16.8876834  46.0541281  25.4585897  17.7694456
  45.2920258  25.3936782  17.5990328  50.8715388  22.3473295  20.7484865
  51.6001548  22.1689250  20.3023021  50.9610280  23.1891375  20.9592043
  50.9922050  22.4457174  20.7138383  54.8523688  33.2826683  24.6517159
  55.6081203  33.7158197  24.6906068  54.9586013  32.6331452  25.2251795
  54.9793859  33.2504166  24.7415185  57.8903859  37.1099960  25.4019562
  57.4539091  37.1136702  26.1578534  57.5566775  37.7905459  24.9699140
  57.7766479  37.2112416  25.4500395  57.8101342  24.1513788  27.6448990
  58.4527251  24.2211892  28.2310905  58.0624363  23.4843011  27.1428532
  57.9423474  24.0640136  27.6576269  44.7377695  28.6221057  16.2258314
  44.0235873  28.3359237  16.6380747  45.2221664  28.9617683  16.8664702
  44.7037059  28.6302707  16.3813949  61.0248206  33.8280880  24.2939199
  61.6864640  33.2671548  24.1935108  60.3839618  33.3332910  24.6191891
  61.0277073  33.6717289  24.3271540  51.9125013  37.1251011  16.6020123
  52.3276162  36.7936035  15.9104618  51.0816943  36.8919913  16.4740259
  51.8513022  37.0422267  16.4810970  57.3113036  34.8446262  24.0351188
  57.5468625  34.9891461  23.2078039  57.4602600  35.6088670  24.4282702
  57.3678840  34.9785317  23.9714792  59.1403493  33.6847928  21.8720792
  59.4711710  34.2175568  21.2660887  59.7136581  33.7386816  22.5282743
  59.2737172  33.7717497  21.8798574  54.3535382  31.5312831  22.5544372
  54.4482237  32.2702125  23.0083998  53.7294226  31.1030306  22.9878937
  54.2744412  31.5774151  22.6852520  54.6058403  33.3761571  15.7881324
  54.5238566  33.4463758  16.6536311  55.2438124  33.9391314  15.5965065
  54.6878241  33.4700542  15.8871274  47.9651575  33.1422308  25.2555850
  47.7070819  32.3094043  25.2287150  48.0200057  33.3679921  24.4148351
  47.9351352  33.0520080  25.1275987  53.0452625  25.2450759  25.3559943
  52.3408951  24.7559945  25.5143862  53.0937599  25.2573234  24.4848387
  52.9482676  25.1740407  25.2499283  46.9386287  30.6960071  25.7420745
  46.3635878  30.8552239  26.3784706  46.5621963  30.0595480  25.2789196
  46.7989099  30.6257884  25.7675304  60.2482845  28.9258425  23.3760954
  59.9919409  28.1138366  23.1858836  61.0912159  28.9335992  23.1491141
  60.3348870  28.8070422  23.3145771  54.4285937  22.8658049  28.1137108
  54.8096449  22.1836220  28.5004982  53.6249221  22.5767651  27.9312772
  54.3662399  22.7225098  28.1441164  51.7098514  33.3982025  18.7989931
  52.5239152  33.6896918  18.6872702  51.6457655  32.7441887  18.2248224
  51.8201253  33.3447220  18.6978768  47.5806422  36.8703542  23.9262243
  48.2180369  36.6315290  24.4714036  48.0061493  37.0740701  23.1915403
  47.7382588  36.8654552  23.8979400  48.2209237  32.0905832  18.2637132
  48.6054390  31.8713539  19.0153677  47.9720857  32.9168777  18.3938208
  48.2411310  32.1803978  18.3938208  58.9544424  35.8652470  29.2747801
  58.6490242  36.5980527  29.6361116  58.2350640  35.4590399  28.9940587
  58.8031767  35.9134203  29.2860938  64.6546217  32.5045470  28.6016145
  64.5870717  32.5241430  27.7318731  64.6401879  33.3475798  28.8271815
  64.6424973  32.6319205  28.5068622  55.0642563  23.9080628  31.9257234
  55.8096155  23.7190439  31.5120660  54.6479868  24.4338866  31.3671091
  55.1127537  23.9582774  31.7821808  48.5032480  40.3110708  20.3369502
  48.7930778  39.9199689  19.6128729  49.2335960  40.4927413  20.7774778
  48.6539364  40.2804522  20.2952309  62.4404834  31.2789857  26.8762739
  62.9912755  30.6457926  27.1159831  62.4248949  31.8105249  27.5678244
  62.5190030  31.2638805  27.0141598  56.1433240  29.5186190  25.9867336
  55.7998006  28.7976525  26.3374585  56.2426283  29.3100041  25.1445694
  56.1075283  29.3810394  25.9139016  48.6106351  43.6607480  22.1860344
  49.2630409  43.1283923  22.4151370  47.9131960  43.3076133  22.5728218
  48.6037069  43.5297003  22.2772512  45.5587616  36.0146658  21.5927719
  46.3133584  36.3959697  21.8063181  44.9658228  36.4657802  22.0474415
  45.5824329  36.1375485  21.6910597  56.6046269  35.9811894  21.5291324
  57.1704302  36.6405104  21.4449867  55.9574173  36.3261592  22.0007726
  56.5925026  36.1293836  21.5864080  43.8677026  27.2361028  21.0362789
  43.5801822  26.8662298  20.2994736  44.5547495  27.7055883  20.7746494
  43.9265924  27.2507997  20.8877865  53.0752847  38.9250679  20.9528403
  52.8339523  38.1918539  20.5455468  53.2554180  39.4737536  20.2994736
  53.0660471  38.8973070  20.7958626  48.3052168  34.2159238  22.3649325
  48.1094951  34.8233973  21.7709628  48.5286514  33.5227182  21.8840999
  48.3086809  34.2036764  22.2065406  46.7030698  31.1013976  22.4830194
  47.4253350  31.2655134  22.0234000  46.2238691  31.8223641  22.3769533
  46.7394429  31.2312206  22.3995808  54.6624206  27.4377775  27.8626878
  53.8235306  27.4639054  27.6265142  54.7328573  28.0848510  28.4432225
  54.5492599  27.5373901  27.9135995  53.1093484  24.3363152  22.5954494
  53.8119837  24.1370900  22.1174453  52.8437673  23.5639094  22.9023338
  53.1740116  24.1926118  22.5699936  58.5381729  32.6445762  25.1488120
  58.4515704  32.8001188  26.0022899  58.0832209  33.2883837  24.7747525
  58.4584986  32.7621517  25.2195227  41.4405221  28.0142240  21.8848070
  41.5421357  28.8168402  22.2129045  42.2361108  27.8129576  21.5871150
  41.5733127  28.1028139  21.8883425  52.4107545  29.9656509  23.7713680
  52.1642260  29.8852260  24.6050469  52.7392669  29.1809977  23.5776207
  52.4228789  29.8382774  23.8661203  56.3055594  36.6739868  27.5600461
  56.1669954  37.3720914  28.0649203  55.5255592  36.5188525  27.2036643
  56.1698821  36.7540035  27.5826735  50.5424490  31.9003396  30.9661794
  49.7947804  32.0934410  30.5610072  50.6966015  31.0748615  30.7285916
  50.4546918  31.8068507  30.8707200  57.8008967  36.0318122  18.3216960
  57.4215776  35.2455260  18.3146250  57.1375213  36.5804979  18.1788604
  57.6467442  35.9962946  18.2997757  55.2553593  18.9743822  25.7251041
  55.3737161  19.4320285  24.9918344  55.0815769  18.1689083  25.4387259
  55.2472764  18.9237594  25.5751975  50.6255875  39.5831641  22.1605786
  51.3905766  39.3141285  21.8388451  50.5233965  39.0981651  22.8775849
  50.7237371  39.4721206  22.2185614  48.6608645  27.7856051  28.6999022
  47.8704720  27.6047511  29.0216358  49.0569268  27.0083003  28.6829317
  48.6025521  27.6443511  28.7451570  53.1474536  36.6143825  14.1405736
  53.9147521  36.6743950  13.7311588  52.7005845  36.0424266  13.6562054
  53.1947963  36.5380401  14.0083446  54.0452331  35.4198481  26.4258468
  53.3697333  35.1883713  26.9271855  54.0544707  34.8119664  25.8000573
  53.9470836  35.2957406  26.4074620  56.0469066  38.2763613  18.6568646
  56.1288903  39.0830599  18.3330097  56.5318808  38.2959572  19.3809419
  56.1306224  38.3984275  18.7155545  45.1448014  33.4500500  22.7566696
  45.3012633  33.3847303  23.6122689  45.4848607  34.2249053  22.5445376
  45.2181249  33.5549699  22.8521291  51.6827159  32.8258384  21.6260060
  52.2242704  32.3228765  22.0898680  51.9973718  32.7723579  20.8149545
  51.8091556  32.7437805  21.5743872  49.8513609  38.2175736  18.9100088
  49.9206429  37.3590274  19.0493088  50.6302064  38.4347616  18.5819112
  49.9766459  38.1228599  18.8817245  54.2421096  40.6413437  23.1236581
  53.8500888  40.3380152  22.4059447  54.3974168  41.4782527  22.9341535
  54.2074686  40.7197274  22.9893078  54.9955516  29.3283754  32.6165667
  54.1832198  29.0209644  32.6978840  55.4545451  28.8482754  33.1808379
  54.9435901  29.2120246  32.7120261  54.4060771  37.2063426  23.0642612
  54.0475426  37.3778069  23.8406644  53.9199482  37.6676631  22.5070610
  54.2819468  37.3002397  23.0967881  52.2231157  20.8294624  26.6669703
  51.3524715  20.8033345  26.6203012  52.4771498  20.6571816  25.8495549
  52.1324717  20.8004768  26.5389840  49.1949136  32.8862591  15.6042846
  49.4841661  33.6627474  15.8786420  49.2820935  32.3751323  16.3057345
  49.2503393  32.9254509  15.7485344  49.2480297  22.8400853  28.1243173
  48.7318786  22.1481044  28.2494752  48.6874226  23.5071630  28.0705772
  49.0886811  22.8364110  28.1349239  51.3172531  23.3793813  29.9536026
  50.9304284  23.4042844  30.7349556  50.8305468  22.8135491  29.5010543
  51.1885040  23.2989563  30.0023930  57.2922510  29.9456468  28.5775728
  56.8650118  29.8582816  27.8223828  56.6548563  30.0534243  29.1630572
  57.1352118  29.9489127  28.5521170  50.9829673  20.2660798  32.2446286
  51.6122790  20.8021098  31.9667356  51.1515535  20.1738157  33.0959851
  51.1007467  20.3322160  32.3294814  42.8388644  29.8215393  25.5327709
  42.4445342  29.8958404  24.7577818  42.2828761  30.2073339  26.0836070
  42.6991457  29.8897167  25.4995369  54.4753591  22.7996687  25.2131588
  54.6803184  22.7318994  26.0588585  54.1480015  23.6055508  25.1452765
  54.4568839  22.9082627  25.3291243  49.1729742  30.1277255  26.9540556
  48.8692880  29.5733243  27.5550963  48.4709163  30.3069465  26.4668590
  49.0245952  30.0722037  26.9710261  48.2295839  27.4377775  21.5185257
  48.5055574  26.7196687  21.1062825  48.8294509  28.0362695  21.3106363
  48.3589104  27.4198145  21.4266019  57.7287279  23.3528451  24.6934353
  57.1161592  23.8398853  25.0788085  57.8251454  22.6771942  25.2372004
  57.6525176  23.3246760  24.8313211  51.7306360  25.1091292  19.7931852
  52.1850106  25.2801852  20.5179697  52.2046405  24.4959403  19.3929628
  51.8674680  25.0442177  19.8405614  45.6482508  25.7541616  29.7902609
  46.1083989  25.8280545  30.5277732  45.6938615  26.5522870  29.4402430
  45.7233063  25.8835763  29.8475365  61.3712307  34.4245388  30.1211869
  61.4295430  34.8732036  30.8671846  60.7378774  34.8344200  29.6841949
  61.2863602  34.5519122  30.1664418  55.0111401  40.0448930  26.5566615
  54.8131090  40.5339744  25.8622827  54.3899112  40.2490171  27.1350749
  54.8898966  40.1465468  26.5389839  49.0719380  31.8133826  20.8976860
  49.8161425  32.2008103  21.1359810  49.2180076  30.9691252  21.0617347
  49.2029965  31.7464299  20.9570829  50.9898955  23.6084085  25.9308721
  50.1435000  23.7806893  25.8050071  50.9870088  22.8033429  26.2674549
  50.8646105  23.5145114  25.9619848  58.3233986  32.4461675  28.2077560
  58.0832209  31.6068090  28.2119986  58.8025993  32.5261842  28.9318333
  58.3586170  32.3343075  28.3152362  53.9880755  28.2795854  19.8596533
  53.4603774  28.3624598  19.1702242  54.4476463  29.0213726  19.8561177
  53.9782606  28.4016517  19.7571228  60.3239173  29.2263133  26.1606819
  60.0848943  29.1858967  25.3227603  60.4873074  30.0734285  26.2872540
  60.3129477  29.3455218  26.0560301  56.9285203  33.6113082  32.0911864
  57.6519402  33.1585608  31.9122884  56.6635166  33.8917748  31.3084192
  56.9966477  33.5864050  31.9490579  45.9813820  26.5498374  14.8837428
  45.6326625  27.2018099  15.3468977  45.5010266  26.5355487  14.1561299
  45.8584064  26.6441427  14.8448519  53.5417838  36.8499418  18.9906190
  54.2652037  37.3157531  18.8470763  53.1018429  36.9173027  18.2403787
  53.5833530  36.9283255  18.8590971  53.0083120  21.9827639  31.5990401
  52.5123681  22.1791313  30.9081968  53.7652182  22.3820307  31.4279203
  53.0469945  22.0705373  31.4710538  50.2786000  25.6569985  28.1893711
  50.3028487  25.1230097  27.5006491  50.5297473  25.1487293  28.8519302
  50.3195918  25.5030889  28.1858356  46.5587322  24.3840803  27.5699456
  46.5985693  24.8850009  28.2834163  45.7336987  24.4751197  27.3005379
  46.4426848  24.4722619  27.6349994  46.3537729  29.1756904  20.3963473
  46.4940690  29.6729368  21.0992114  46.8520262  28.4743199  20.5377686
  46.4478810  29.1458883  20.5215052  46.3837951  30.0424015  17.7256049
  47.0183031  30.6384440  17.6605511  46.4663562  29.7427473  18.5401919
  46.4894502  30.0864923  17.8359136  59.3620517  32.5739493  30.5942413
  59.9538357  33.2136743  30.6260612  59.7979512  31.8762529  30.8834480
  59.5138948  32.5657843  30.6423246  47.9616934  25.9737991  17.7001491
  48.2832775  25.4941073  17.0460754  48.2243878  26.7837637  17.5092303
  48.0482960  26.0227889  17.5756983  53.3576089  25.3610185  30.0624970
  53.7831161  24.9082711  29.4508497  52.7433082  24.8070255  30.3389758
  53.3304735  25.2124161  30.0129996  42.8890939  32.2391856  20.9945595
  43.3983169  32.8356364  21.3756901  43.3625212  31.9717830  20.3122015
  43.0334315  32.2877671  20.9500118  53.8021687  40.9120123  19.1504251
  53.0850997  40.7380985  18.6851488  54.4528425  40.6772695  18.6179737
  53.7923538  40.8515915  19.0033469  51.7970312  21.8325284  23.4715547
  51.1538630  21.6822931  24.0400686  51.4569719  21.5867630  22.7064652
  51.6515389  21.7737407  23.4418563  56.3869659  29.7884711  22.8945556
  55.7160848  30.3314414  22.7658622  57.0809409  30.2579567  22.6527251
  56.3898526  29.9382982  22.8401084  56.5497786  26.2440595  25.8035929
  56.9025396  25.8170318  26.4781728  55.6912588  26.1591438  25.9337006
  56.4747231  26.1685336  25.9230940  45.2481471  28.8748115  23.8618776
  44.5293460  29.2912247  24.1291639  45.6193833  29.4402353  23.3110414
  45.1973403  29.0197396  23.8201583  54.5481052  29.5075963  29.7520771
  54.5278979  29.3259259  30.6055550  54.5960253  30.3787982  29.7280355
  54.5515693  29.6092502  29.8744066  51.0228045  27.9146114  19.1992155
  50.4292885  28.2363111  18.6476722  51.0603323  27.0687210  18.9913261
  50.9402435  27.8370443  19.0874927  57.9821846  21.3659007  26.7320242
  57.4752711  20.6588146  26.6641419  58.7789280  21.0352196  26.8621318
  58.0249085  21.2132158  26.7419237  53.8985862  27.8725619  22.6293905
  53.6699555  27.8958320  21.7872264  54.1583938  27.0483086  22.7488916
  53.9032050  27.7541699  22.5219103  46.9530625  26.4102165  23.9248101
  47.4287991  26.7719245  23.2898282  46.4519224  27.0658633  24.2048244
  46.9495984  26.5596354  23.8724842  60.1841986  35.8823933  19.7161106
  60.5675592  36.6315290  19.9459203  59.3886099  36.1289753  19.4573095
  60.1235768  36.0293627  19.7118680  48.9957278  28.5543365  17.2921485
  49.3756243  28.5722994  16.5072600  48.2549874  28.9997354  17.1712332
  48.9426115  28.6225140  17.1585053  56.6242568  26.8625556  22.8797064
  56.6236795  26.7074213  23.7381340  56.4198748  27.7088543  22.8238449
  56.5942346  26.9646177  22.9985003  54.3483420  31.5423058  26.5333271
  54.8437086  30.8246053  26.4937291  53.5383196  31.2393856  26.4187758
  54.3027314  31.3920704  26.5106996  49.7942032  35.3920871  18.6830275
  48.9853354  35.0687545  18.6363585  50.3016941  34.6854093  18.6158524
  49.7491699  35.2402188  18.6660569  56.4135239  34.2926746  29.2210399
  56.8390311  33.7701167  28.6680824  56.0492159  34.8907583  28.6999022
  56.4221842  34.3036973  29.0619409  53.0013839  38.0061010  25.5511557
  53.4725017  38.7201272  25.7201542  53.3374017  37.4059760  26.0871426
  53.1208954  38.0232474  25.6543933  49.9183334  22.7788480  32.5069652
  50.0511239  21.9819474  32.8350627  50.3028486  23.3054883  33.0867927
  49.9939662  22.7388397  32.6413155  52.9915689  19.7018807  29.1050745
  52.1861652  19.5916536  29.4218583  52.8622424  19.8031262  28.2480611
  52.8535822  19.7002477  29.0258785  56.4481649  25.8664298  29.6990442
  55.8644638  26.3673505  29.2868009  56.7685943  25.3593855  29.0654765
  56.4094825  25.8656133  29.5448949  48.9876448  24.7804893  19.9749117
  49.8092143  24.9503206  19.7330812  48.5246099  24.9352154  19.2515414
  49.0407611  24.8286626  19.8320761  47.5771780  22.7747655  30.7547545
  48.1216193  22.4338782  31.3451887  47.6308716  23.6333117  30.8968830
  47.6660900  22.8502915  30.8629419  69.6759762  46.4594868  21.8091467
  69.6453766  47.3139505  21.9809736  70.2741110  46.1590161  22.3677611
  69.7596919  46.5411365  21.9166269  57.2600586  55.0833237  22.3281629
  56.5083486  54.7048776  22.0997674  57.7086598  55.1151671  21.5800439
  57.2150253  55.0318844  22.1839131  66.1853163  51.8157045  36.1704854
  66.8919930  51.3209076  36.2991788  66.3741098  52.2566127  35.4407512
  66.3181069  51.8075395  36.0813899  62.7125546  55.5058607  17.7567176
  62.3776914  56.1835528  17.3211398  63.2252416  55.1163918  17.1684048
  62.7391127  55.5483185  17.6053968  62.2529837  57.4572875  23.6978288
  62.6369217  58.0259774  23.1583063  62.1888979  56.7322386  23.2184104
  62.3003265  57.4348339  23.5472150  65.7211267  47.6062563  29.2076049
  66.2667227  48.2847650  29.2670019  65.6628144  47.4650024  28.3477631
  65.7927182  47.6854565  29.0888110  58.8385342  55.0951629  24.5944402
  58.9395705  54.2851983  24.9041529  58.2427088  55.0008576  23.9644080
  58.7657881  54.9616658  24.5470640  67.4976336  49.0347170  20.0809777
  67.3815862  49.7854857  20.5101915  68.2932223  48.7771124  20.3305864
  67.5980926  49.1082017  20.1813869  58.6786082  60.0129219  25.9959258
  59.3223537  60.4542383  26.3855416  59.0042337  59.2082645  25.9089516
  58.8217911  59.9594413  26.0404735  52.0350387  51.1171916  24.2196735
  51.8000571  50.2839568  24.1129004  52.1736027  51.3976582  23.4057936
  52.0206049  51.0355419  24.0839090  54.3340474  43.2857647  27.1181043
  53.7145506  42.6950294  26.9491058  54.2324338  43.8769082  26.4845366
  54.2278150  43.2861729  26.9986032  59.3806662  53.0241193  21.3679119
  59.7022503  53.5646401  20.7640427  60.0278758  52.4537965  21.5001409
  59.5232717  53.0200369  21.2986155  61.4308370  45.0257188  21.4513506
  62.1288534  45.2045316  21.9434969  61.7460702  44.5027528  20.8283895
  61.5803707  44.9750960  21.4315516  61.6196305  51.4127633  21.4393297
  62.0589941  50.8044734  21.8848070  61.4700968  51.0335007  20.6678763
  61.6617771  51.2666105  21.3912465  61.6254039  52.8526551  28.2919016
  61.9077282  52.0577957  28.0705771  62.3540200  53.3307139  28.3124077
  61.7743603  52.8061148  28.2622031  59.6035233  40.3949585  25.5334781
  59.2738563  40.8460729  24.8638479  58.9280235  40.3165748  26.0807787
  59.4545670  40.4500720  25.5158004  65.2205642  49.7654815  18.3924067
  65.1356937  50.6215781  18.5373636  65.7090025  49.4899139  19.0606226
  65.2794539  49.8512136  18.5126148  66.8111641  36.3835108  23.7784391
  66.4965082  37.0738587  24.2104814  66.2938583  36.3279890  23.0769892
  66.6876111  36.4769997  23.7381340  66.1524075  46.3839609  19.8921802
  65.6235546  46.5999242  20.5519108  66.6749095  47.0775747  19.8122771
  66.1512528  46.5182746  19.9777401  71.6072128  51.9585913  25.2654846
  70.7769831  52.1696557  25.4288263  71.5581380  51.1322968  24.9897130
  71.4778863  51.8675520  25.2492212  58.0423683  50.2802826  18.6929270
  57.4580898  50.7852857  19.0995134  57.6393778  50.0545213  17.9525862
  57.8962986  50.3211074  18.6434295  59.6681865  54.7889767  28.1002756
  59.1508807  54.4297182  27.4964064  60.3656257  54.2651942  28.1108822
  59.6947446  54.6587455  28.0133015  63.3245457  55.2384582  34.0618929
  63.4128803  55.0510722  34.9097139  63.7535170  54.5922011  33.6623776
  63.4007560  55.1147589  34.1290680  60.8915917  54.5215742  33.0436591
  60.3286752  54.1088351  33.5676252  61.6536941  54.4468647  33.4629734
  60.9210366  54.4493142  33.1829591  62.5000897  46.5268478  17.1698190
  62.7396901  46.7346461  16.3573534  62.8216738  45.7225986  17.2787135
  62.5838055  46.4382579  17.0658743  57.8091187  38.4561873  21.0157728
  58.5637155  38.8240191  20.7774779  57.6318722  38.8301428  21.7836908
  57.8945666  38.5660061  21.0942617  56.4511909  56.5113763  25.6473221
  57.1532488  55.9965752  25.7045978  56.3709392  56.8387914  26.4520096
  56.5435669  56.4827989  25.7746013  71.1026086  44.6056314  29.0605268
  70.2654507  44.6758501  29.2952862  71.0714317  44.6080809  28.1879570
  70.9744368  44.6166541  28.9664816  56.1648252  40.8632192  17.7135841
  55.9823825  41.0804073  16.8876834  57.0273865  40.9771205  17.7694456
  56.2652841  40.9122090  17.5990328  55.7762684  52.7020115  25.1558829
  56.6151583  52.9343047  25.2032591  55.8074453  51.8324426  25.0865865
  55.9044402  52.6077061  25.1523474  61.8447971  37.8658603  20.7484865
  62.5734132  37.6874558  20.3023021  61.9342864  38.7076683  20.9592043
  61.9654633  37.9642482  20.7138383  65.8256272  48.8011990  24.6517159
  66.5813787  49.2343505  24.6906068  65.9318596  48.1516760  25.2251795
  65.9526442  48.7689474  24.7415185  68.8636443  52.6285268  25.4019562
  68.4271675  52.6322010  26.1578534  68.5299358  53.3090767  24.9699140
  68.7499063  52.7297724  25.4500395  68.7833926  39.6699096  27.6448990
  69.4259834  39.7397200  28.2310905  69.0356947  39.0028318  27.1428532
  68.9156058  39.5825444  27.6576269  55.7110279  44.1406365  16.2258314
  54.9968456  43.8544545  16.6380747  56.1954248  44.4802991  16.8664702
  55.6769642  44.1488015  16.3813949  63.5935910  56.5803703  30.3729168
  62.7951156  56.3403203  30.6303037  64.0421921  56.6318096  31.1196216
  63.5410521  56.5526094  30.5214092  71.9980789  49.3466188  24.2939199
  72.6597223  48.7856856  24.1935108  71.3572201  48.8518218  24.6191891
  72.0009657  49.1902597  24.3271540  62.8857597  52.6436319  16.6020123
  63.3008745  52.3121343  15.9104618  62.0549527  52.4105221  16.4740259
  62.8245606  52.5607575  16.4810970  68.2845620  50.3631570  24.0351188
  68.5201209  50.5076769  23.2078039  68.4335184  51.1273978  24.4282702
  68.3411423  50.4970624  23.9714792  70.1136077  49.2033236  21.8720792
  70.4444294  49.7360876  21.2660887  70.6869165  49.2572124  22.5282743
  70.2469756  49.2902805  21.8798574  65.3267966  47.0498139  22.5544372
  65.4214820  47.7887433  23.0083998  64.7026809  46.6215614  22.9878937
  65.2476996  47.0959459  22.6852520  65.5790987  48.8946878  15.7881324
  65.4971150  48.9649066  16.6536311  66.2170708  49.4576622  15.5965065
  65.6610824  48.9885850  15.8871274  58.9384158  48.6607616  25.2555850
  58.6803402  47.8279351  25.2287150  58.9932641  48.8865229  24.4148351
  58.9083936  48.5705388  25.1275987  64.0185208  40.7636067  25.3559943
  63.3141535  40.2745253  25.5143862  64.0670183  40.7758542  24.4848387
  63.9215260  40.6925715  25.2499283  57.9118870  46.2145379  25.7420745
  57.3368462  46.3737547  26.3784706  57.5354547  45.5780788  25.2789196
  57.7721683  46.1443192  25.7675304  71.2215428  44.4443733  23.3760954
  70.9651993  43.6323674  23.1858836  72.0644742  44.4521300  23.1491141
  71.3081454  44.3255730  23.3145771  65.4018521  38.3843357  28.1137108
  65.7829032  37.7021528  28.5004982  64.5981805  38.0952959  27.9312772
  65.3394982  38.2410405  28.1441164  62.6831097  48.9167333  18.7989931
  63.4971736  49.2082226  18.6872702  62.6190239  48.2627195  18.2248224
  62.7933836  48.8632527  18.6978768  68.9040587  51.5993329  33.2119506
  68.6679225  50.7681394  33.0931567  69.5483816  51.5478936  33.7974350
  68.9635258  51.4691017  33.2805400  58.5539006  52.3888850  23.9262243
  59.1912952  52.1500598  24.4714036  58.9794077  52.5926009  23.1915403
  58.7115172  52.3839860  23.8979400  59.1941821  47.6091140  18.2637132
  59.5786973  47.3898847  19.0153677  58.9453441  48.4354085  18.3938208
  59.2143893  47.6989286  18.3938208  69.9277008  51.3837778  29.2747801
  69.6222825  52.1165834  29.6361116  69.2083224  50.9775707  28.9940587
  69.7764350  51.4319511  29.2860938  60.9360477  52.8661273  25.6056029
  61.0099486  52.7036445  26.4597879  61.7529984  53.0551462  25.3616511
  61.0676836  52.8698015  25.6954054  75.6278800  48.0230778  28.6016145
  75.5603300  48.0426737  27.7318731  75.6134463  48.8661106  28.8271815
  75.6157557  48.1504513  28.5068622  54.6966234  53.2119136  22.6350472
  53.8704352  53.4580873  22.5084751  54.7578225  53.1331217  23.5012530
  54.5840401  53.2364085  22.7439417  56.9142258  39.2788077  23.5945913
  56.0464683  39.3510676  23.6603522  57.2017462  40.0810156  23.7833888
  56.8282006  39.4082224  23.6320679  66.0375147  39.4265936  31.9257234
  66.7828739  39.2375746  31.5120660  65.6212451  39.9524174  31.3671091
  66.0860121  39.4768081  31.7821808  59.4765063  55.8296016  20.3369502
  59.7663362  55.4384997  19.6128729  60.2068544  56.0112721  20.7774778
  59.6271947  55.7989830  20.2952309  73.4137418  46.7975165  26.8762739
  73.9645339  46.1643234  27.1159831  73.3981533  47.3290557  27.5678244
  73.4922614  46.7824113  27.0141598  57.4170979  57.8063398  23.4029652
  57.1971274  57.5160753  24.1956319  57.1965501  57.1478353  22.8747564
  57.3518573  57.6663107  23.4418561  56.3287926  49.8936715  25.6685354
  56.0401175  49.2674186  26.2031081  57.1971274  49.8357002  25.7350034
  56.4148178  49.7924259  25.7576308  67.1165824  45.0371498  25.9867336
  66.7730590  44.3161833  26.3374585  67.2158866  44.8285349  25.1445694
  67.0807867  44.8995701  25.9139016  59.5838934  59.1792788  22.1860344
  60.2362993  58.6469231  22.4151370  58.8864543  58.8261441  22.5728218
  59.5769652  59.0482311  22.2772512  56.5320199  51.5331966  21.5927719
  57.2866167  51.9145005  21.8063181  55.9390812  51.9843110  22.0474415
  56.5556913  51.6560793  21.6910597  67.5778853  51.4997202  21.5291324
  68.1436885  52.1590412  21.4449867  66.9306756  51.8446900  22.0007726
  67.5657609  51.6479144  21.5864080  54.8409610  42.7546336  21.0362789
  54.5534406  42.3847606  20.2994736  55.5280078  43.2241191  20.7746494
  54.8998507  42.7693305  20.8877865  64.0485431  54.4435986  20.9528403
  63.8072107  53.7103847  20.5455468  64.2286764  54.9922843  20.2994736
  64.0393055  54.4158378  20.7958626  59.2784752  49.7344546  22.3649325
  59.0827534  50.3419281  21.7709628  59.5019097  49.0412490  21.8840999
  59.2819393  49.7222072  22.2065406  57.6763282  46.6199284  22.4830194
  58.3985933  46.7840442  22.0234000  57.1971274  47.3408949  22.3769533
  57.7127012  46.7497514  22.3995808  65.6356789  42.9563083  27.8626878
  64.7967890  42.9824362  27.6265142  65.7061156  43.6033818  28.4432225
  65.5225183  43.0559209  27.9135995  64.0826067  39.8548460  22.5954494
  64.7852420  39.6556208  22.1174453  63.8170256  39.0824402  22.9023338
  64.1472700  39.7111426  22.5699936  69.5114313  48.1631070  25.1488120
  69.4248288  48.3186496  26.0022899  69.0564793  48.8069145  24.7747525
  69.4317570  48.2806825  25.2195227  52.4137805  43.5327548  21.8848070
  52.5153941  44.3353710  22.2129045  53.2093691  43.3314884  21.5871150
  52.5465710  43.6213447  21.8883425  63.3840129  45.4841817  23.7713680
  63.1374843  45.4037568  24.6050469  63.7125252  44.6995285  23.5776207
  63.3961373  45.3568082  23.8661203  67.2788178  52.1925176  27.5600461
  67.1402537  52.8906222  28.0649203  66.4988176  52.0373833  27.2036643
  67.1431405  52.2725343  27.5826735  65.6166263  48.4921552  33.8122843
  65.6114301  47.6201368  33.8165269  66.3227257  48.6909721  33.3392298
  65.7211267  48.3925426  33.7429878  58.4164911  56.4101307  30.0497690
  58.5654475  55.8504223  29.3971094  59.1964913  56.4893309  30.4330208
  58.5539005  56.3386873  30.0094639  68.7741551  51.5503430  18.3216960
  68.3948359  50.7640568  18.3146250  68.1107796  52.0990287  18.1788604
  68.6200025  51.5148254  18.2997757  60.9418212  56.5815950  31.3282180
  60.8661883  55.9124761  31.8832969  60.8708071  57.2833738  31.8422847
  60.9198819  56.5860857  31.4859029  66.2286177  34.4929130  25.7251041
  66.3469745  34.9505593  24.9918344  66.0548352  33.6874391  25.4387259
  66.2205348  34.4422902  25.5751975  61.5988459  55.1016949  22.1605786
  62.3638350  54.8326593  21.8388451  61.4966549  54.6166959  22.8775849
  61.6969954  54.9906514  22.2185614  64.1207119  52.1329133  14.1405736
  64.8880105  52.1929258  13.7311588  63.6738428  51.5609574  13.6562054
  64.1680547  52.0565708  14.0083446  65.0184915  50.9383789  26.4258468
  64.3429917  50.7069021  26.9271855  65.0277291  50.3304972  25.8000573
  64.9203419  50.8142714  26.4074620  67.0201649  53.7948921  18.6568646
  67.1021487  54.6015907  18.3330097  67.5051392  53.8144880  19.3809419
  67.1038807  53.9169583  18.7155545  60.3309846  59.9884270  29.7860181
  60.8205777  59.2895059  29.6035846  59.7594079  59.6908140  30.3736239
  60.3194376  59.8410494  29.8461222  56.1180598  48.9685808  22.7566696
  56.2745217  48.9032611  23.6122689  56.4581191  49.7434361  22.5445376
  56.1913833  49.0735006  22.8521291  62.6559742  48.3443692  21.6260060
  63.1975288  47.8414073  22.0898680  62.9706301  48.2908887  20.8149545
  62.7824139  48.2623113  21.5743872  66.5276850  52.5546339  38.7386972
  67.3411715  52.2831488  38.8992104  66.3671816  52.2553879  37.9347168
  66.6246798  52.4701265  38.6432378  60.8246192  53.7361043  18.9100088
  60.8939012  52.8775582  19.0493088  61.6034647  53.9532924  18.5819112
  60.9499042  53.6413907  18.8817245  65.2153680  56.1598745  23.1236581
  64.8233471  55.8565460  22.4059447  65.3706752  56.9967835  22.9341535
  65.1807270  56.2382581  22.9893078  52.6914859  46.1520759  23.0727464
  53.0713824  46.5705304  22.4087731  52.1170224  46.7334214  23.3796307
  52.6626184  46.2998618  23.0204205  65.3793354  52.7248734  23.0642612
  65.0208009  52.8963376  23.8406644  64.8932065  53.1861939  22.5070610
  65.2552051  52.8187705  23.0967881  63.1963740  36.3479932  26.6669703
  62.3257298  36.3218653  26.6203012  63.4504082  36.1757124  25.8495549
  63.1057300  36.3190076  26.5389840  60.1681720  48.4047899  15.6042846
  60.4574245  49.1812781  15.8786420  60.2553519  47.8936630  16.3057345
  60.2235976  48.4439817  15.7485344  60.2212881  38.3586161  28.1243173
  59.7051369  37.6666352  28.2494752  59.6606810  39.0256938  28.0705772
  60.0619394  38.3549418  28.1349239  62.2905114  38.8979121  29.9536026
  61.9036867  38.9228152  30.7349556  61.8038052  38.3320799  29.5010543
  62.1617623  38.8174871  30.0023930  66.5398094  53.6152630  34.0109812
  67.1777814  53.1212825  33.6772269  65.8972185  53.5430030  33.4262039
  66.5392320  53.5311638  33.8752167  68.2655094  45.4641775  28.5775728
  67.8382702  45.3768124  27.8223828  67.6281147  45.5719551  29.1630572
  68.1084701  45.4674435  28.5521170  61.9562256  35.7846106  32.2446286
  62.5855374  36.3206406  31.9667356  62.1248119  35.6923465  33.0959851
  62.0740051  35.8507468  32.3294814  66.5952350  54.3072438  30.6515169
  67.3844729  53.9561503  30.7717251  66.7695948  55.1208826  30.3891803
  66.7372632  54.3758295  30.6303037  53.8121228  45.3400700  25.5327709
  53.4177925  45.4143712  24.7577818  53.2561345  45.7258647  26.0836070
  53.6724040  45.4082475  25.4995369  65.4486175  38.3181995  25.2131588
  65.6535768  38.2504302  26.0588585  65.1212599  39.1240816  25.1452765
  65.4301422  38.4267935  25.3291243  59.2028423  42.9563083  21.5185257
  59.4788157  42.2381995  21.1062825  59.8027092  43.5548002  21.3106363
  59.3321687  42.9383453  21.4266019  68.7019862  38.8713759  24.6934353
  68.0894176  39.3584161  25.0788085  68.7984037  38.1957250  25.2372004
  68.6257760  38.8432067  24.8313211  62.7038943  40.6276600  19.7931852
  63.1582690  40.7987160  20.5179697  63.1778989  40.0144711  19.3929628
  62.8407263  40.5627485  19.8405614  72.3444890  49.9430696  30.1211869
  72.4028014  50.3917344  30.8671846  71.7111358  50.3529508  29.6841949
  72.2596185  50.0704430  30.1664418  65.9843985  55.5634237  26.5566615
  65.7863674  56.0525052  25.8622827  65.3631696  55.7675479  27.1350749
  65.8631549  55.6650776  26.5389839  60.0451963  47.3319134  20.8976860
  60.7894008  47.7193411  21.1359810  60.1912659  46.4876560  21.0617347
  60.1762548  47.2649607  20.9570829  61.9631539  39.1269393  25.9308721
  61.1167584  39.2992201  25.8050071  61.9602671  38.3218737  26.2674549
  61.8378689  39.0330422  25.9619848  63.0329839  42.9044608  26.7970779
  62.5589793  42.3786370  27.3076090  63.4047975  42.3574080  26.2285641
  63.0179728  42.7460604  26.7885926  69.2966570  47.9646983  28.2077560
  69.0564793  47.1253398  28.2119986  69.7758577  48.0447150  28.9318333
  69.3318753  47.8528383  28.3152362  64.9613339  43.7981162  19.8596533
  64.4336357  43.8809906  19.1702242  65.4209047  44.5399034  19.8561177
  64.9515189  43.9201825  19.7571228  71.2971757  44.7448440  26.1606819
  71.0581527  44.7044275  25.3227603  71.4605658  45.5919592  26.2872540
  71.2862060  44.8640525  26.0560301  67.9017787  49.1298390  32.0911864
  68.6251986  48.6770916  31.9122884  67.6367749  49.4103055  31.3084192
  67.9699060  49.1049358  31.9490579  56.9546404  42.0683682  14.8837428
  56.6059208  42.7203407  15.3468977  56.4742850  42.0540795  14.1561299
  56.8316648  42.1626735  14.8448519  64.5150421  52.3684726  18.9906190
  65.2384620  52.8342839  18.8470763  64.0751012  52.4358335  18.2403787
  64.5566113  52.4468562  18.8590971  63.6836576  49.2282268  30.2406879
  63.0693569  48.6840318  30.5355514  64.2003861  48.7146504  29.7612695
  63.6692239  49.0718677  30.2131107  62.9232874  50.2986538  27.9751177
  62.4960482  49.6736257  27.5416613  62.9157818  50.0161460  28.8010185
  62.8592015  50.1639319  28.0331005  63.9815704  37.5012947  31.5990401
  63.4856265  37.6976621  30.9081968  64.7384766  37.9005615  31.4279203
  64.0202528  37.5890680  31.4710538  61.2518583  41.1755293  28.1893711
  61.2761070  40.6415405  27.5006491  61.5030057  40.6672601  28.8519302
  61.2928502  41.0216197  28.1858356  57.5319905  39.9026111  27.5699456
  57.5718277  40.4035317  28.2834163  56.7069570  39.9936504  27.3005379
  57.4159431  39.9907927  27.6349994  57.3270313  44.6942212  20.3963473
  57.4673274  45.1914676  21.0992114  57.8252845  43.9928507  20.5377686
  57.4211394  44.6644191  20.5215052  57.3570535  45.5609323  17.7256049
  57.9915614  46.1569748  17.6605511  57.4396146  45.2612781  18.5401919
  57.4627086  45.6050231  17.8359136  70.3353101  48.0924801  30.5942413
  70.9270941  48.7322051  30.6260612  70.7712095  47.3947837  30.8834480
  70.4871532  48.0843151  30.6423246  58.9349518  41.4923299  17.7001491
  59.2565359  41.0126381  17.0460754  59.1976462  42.3022945  17.5092303
  59.0215543  41.5413197  17.5756983  62.1646491  52.5142173  31.2200307
  61.6571582  53.0678020  31.6640938  61.8673137  52.5750463  30.4019082
  62.0451376  52.6048484  31.1648764  53.8623523  47.7577164  20.9945595
  54.3715752  48.3541671  21.3756901  54.3357795  47.4903138  20.3122015
  54.0066899  47.8062979  20.9500118  64.7754271  56.4305431  19.1504251
  64.0583581  56.2566293  18.6851488  65.4261009  56.1958003  18.6179737
  64.7656121  56.3701223  19.0033469  62.7702896  37.3510592  23.4715547
  62.1271214  37.2008239  24.0400686  62.4302303  37.1052938  22.7064652
  62.6247973  37.2922715  23.4418563  67.3602242  45.3070019  22.8945556
  66.6893432  45.8499721  22.7658622  68.0541992  45.7764875  22.6527251
  67.3631110  45.4568290  22.8401084  61.4088976  57.4466731  28.1257314
  61.1854630  56.6885560  28.4941341  60.9198819  57.4764752  27.4037754
  61.3032425  57.3388956  28.0734055  67.5230370  41.7625903  25.8035929
  67.8757980  41.3355626  26.4781728  66.6645171  41.6776746  25.9337006
  67.4479814  41.6870643  25.9230940  56.2214055  44.3933423  23.8618776
  55.5026044  44.8097555  24.1291639  56.5926417  44.9587661  23.3110414
  56.1705986  44.5382704  23.8201583  60.0567433  57.6667189  25.5794399
  59.6427831  57.0041320  25.1898241  60.7414807  57.8145048  25.0590093
  60.0965805  57.5907847  25.4450896  63.4232727  56.8257275  26.3318015
  63.0249010  56.9359545  25.5638836  62.8083947  57.0339341  26.9144575
  63.2731616  56.8730843  26.3049315  61.9960629  43.4331422  19.1992155
  61.4025468  43.7548419  18.6476722  62.0335907  42.5872518  18.9913261
  61.9135018  43.3555751  19.0874927  68.9554430  36.8844315  26.7320242
  68.4485294  36.1773454  26.6641419  69.7521863  36.5537504  26.8621318
  68.9981669  36.7317466  26.7419237  64.8718446  43.3910927  22.6293905
  64.6432139  43.4143628  21.7872264  65.1316522  42.5668394  22.7488916
  64.8764634  43.2727007  22.5219103  57.9263208  41.9287473  23.9248101
  58.4020574  42.2904553  23.2898282  57.4251808  42.5843941  24.2048244
  57.9228567  42.0781662  23.8724842  71.1574570  51.4009241  19.7161106
  71.5408175  52.1500597  19.9459203  70.3618683  51.6475061  19.4573095
  71.0968352  51.5478935  19.7118680  59.9689861  44.0728673  17.2921485
  60.3488826  44.0908302  16.5072600  59.2282457  44.5182662  17.1712332
  59.9158699  44.1410448  17.1585053  67.5975152  42.3810864  22.8797064
  67.5969378  42.2259521  23.7381340  67.3931332  43.2273851  22.8238449
  67.5674930  42.4831485  22.9985003  65.3216004  47.0608366  26.5333271
  65.8169669  46.3431361  26.4937291  64.5115780  46.7579164  26.4187758
  65.2759897  46.9106012  26.5106996  60.7674615  50.9106179  18.6830275
  59.9585938  50.5872853  18.6363585  61.2749524  50.2039401  18.6158524
  60.7224282  50.7587496  18.6660569  67.3867823  49.8112054  29.2210399
  67.8122894  49.2886475  28.6680824  67.0224743  50.4092891  28.6999022
  67.3954425  49.8222281  29.0619409  57.0221902  58.1076271  27.9807745
  57.3368461  58.9212659  27.9885527  57.4315316  57.7226490  28.6489904
  57.1290000  58.1704973  28.0811837  63.9746422  53.5246318  25.5511557
  64.4457600  54.2386580  25.7201542  64.3106601  52.9245068  26.0871426
  64.0941537  53.5417782  25.6543933  66.0623407  55.1347631  37.7303629
  66.1720372  54.3456192  38.0860376  66.3914303  55.0453567  36.9277967
  66.1275813  55.0053484  37.6646020  64.6120368  53.3164252  32.3139250
  64.0641314  52.6922136  32.0459315  65.0733397  53.5058524  31.5983329
  64.5987578  53.2523302  32.1689681  63.9648272  35.2204114  29.1050745
  63.1594236  35.1101844  29.4218583  63.8355008  35.3216570  28.2480611
  63.8268405  35.2187785  29.0258785  67.4214233  41.3849606  29.6990442
  66.8377222  41.8858813  29.2868009  67.7418527  40.8779163  29.0654765
  67.3827408  41.3841441  29.5448949  59.9609032  40.2990201  19.9749117
  60.7824726  40.4688514  19.7330812  59.4978683  40.4537462  19.2515414
  60.0140194  40.3471934  19.8320761  64.1778695  54.3215325  28.8448591
  64.9977069  54.1778291  29.1064886  63.8972772  54.9461523  29.3865029
  64.2575438  54.3925677  28.9636530  73.8492030  61.0655827  26.5644397
  72.9929926  61.2264326  26.6153514  73.8959684  60.1947891  26.5849459
  73.7291141  60.9606629  26.5750464  68.2333170  70.6018545  22.3281629
  67.4816069  70.2234084  22.0997674  68.6819181  70.6336979  21.5800439
  68.1882837  70.5504152  22.1839131  77.1585747  67.3342353  36.1704854
  77.8652514  66.8394384  36.2991788  77.3473682  67.7751434  35.4407512
  77.2913652  67.3260703  36.0813899  76.6943851  63.1247871  29.2076049
  77.2399811  63.8032958  29.2670019  76.6360727  62.9835332  28.3477631
  76.7659765  63.2039873  29.0888110  69.8117926  70.6136937  24.5944402
  69.9128289  69.8037291  24.9041529  69.2159671  70.5193884  23.9644080
  69.7390465  70.4801965  24.5470640  63.0082970  66.6357224  24.2196735
  62.7733155  65.8024876  24.1129004  63.1468611  66.9161890  23.4057936
  62.9938633  66.5540727  24.0839090  65.3073058  58.8042955  27.1181043
  64.6878089  58.2135602  26.9491058  65.2056921  59.3954390  26.4845366
  65.2010733  58.8047037  26.9986032  72.4040953  60.5442496  21.4513506
  73.1021118  60.7230624  21.9434969  72.7193286  60.0212836  20.8283895
  72.5536290  60.4936268  21.4315516  65.0342191  62.3495236  29.3624612
  64.9100887  62.9357682  29.9974431  65.6860475  61.8555432  29.6636887
  65.1115840  62.3634041  29.5010541  72.5928889  66.9312941  21.4393297
  73.0322524  66.3230042  21.8848070  72.4433552  66.5520315  20.6678763
  72.6350354  66.7851412  21.3912465  70.0600532  65.5256953  28.6412123
  70.7049534  65.0329396  28.3223072  70.3002309  65.6681740  29.4678201
  70.1911117  65.4734395  28.7161656  72.5986623  68.3711859  28.2919016
  72.8809866  67.5763265  28.0705771  73.3272783  68.8492446  28.3124077
  72.7476187  68.3246456  28.2622031  70.5767817  55.9134893  25.5334781
  70.2471147  56.3646037  24.8638479  69.9012819  55.8351056  26.0807787
  70.4278253  55.9686028  25.5158004  77.7844225  51.9020416  23.7784391
  77.4697666  52.5923894  24.2104814  77.2671166  51.8465198  23.0769892
  77.6608695  51.9955304  23.7381340  64.5700295  71.5142895  25.4952941
  64.0867873  72.2393384  25.4712525  65.3823613  71.8119025  25.6063099
  64.6191043  71.6645248  25.5080221  70.6414449  70.3075075  28.1002756
  70.1241391  69.9482490  27.4964064  71.3388840  69.7837250  28.1108822
  70.6680030  70.1772763  28.0133015  71.8648501  70.0401049  33.0436591
  71.3019335  69.6273659  33.5676252  72.6269524  69.9653955  33.4629734
  71.8942949  69.9678450  33.1829591  68.7823771  53.9747181  21.0157728
  69.5369739  54.3425498  20.7774779  68.6051306  54.3486736  21.7836908
  68.8678249  54.0845369  21.0942617  67.4244492  72.0299071  25.6473221
  68.1265071  71.5151060  25.7045978  67.3441975  72.3573222  26.4520096
  67.5168253  72.0013297  25.7746013  68.4723399  62.2674658  34.7753636
  68.6443902  62.1580552  35.6238918  69.0092756  62.9129063  34.5384829
  68.5768403  62.3466659  34.8658733  67.1380836  56.3817500  17.7135841
  66.9556409  56.5989381  16.8876834  68.0006449  56.4956513  17.7694456
  67.2385425  56.4307398  17.5990328  66.7495268  68.2205423  25.1558829
  67.5884167  68.4528355  25.2032591  66.7807037  67.3509734  25.0865865
  66.8776985  68.1262369  25.1523474  67.3747971  68.6406298  29.4572135
  67.9146195  68.4977429  30.1275507  66.6917917  69.0403049  29.8256161
  67.3540124  68.6785969  29.6106557  72.8180555  53.3843911  20.7484865
  73.5466715  53.2059866  20.3023021  72.9075448  54.2261991  20.9592043
  72.9387217  53.4827789  20.7138383  76.7988855  64.3197298  24.6517159
  77.5546370  64.7528813  24.6906068  76.9051180  63.6702068  25.2251795
  76.9259026  64.2874782  24.7415185  62.7785116  64.8606589  29.6106556
  62.5123531  64.0445705  29.7697547  62.7923680  64.9059744  28.7402072
  62.7409838  64.7463493  29.5060038  66.6842863  59.6591673  16.2258314
  65.9701040  59.3729853  16.6380747  67.1686831  59.9988299  16.8664702
  66.6502226  59.6673323  16.3813949  67.5283722  58.3984967  32.2573564
  66.8355519  57.9281947  32.5034296  68.1444049  58.1723271  32.8315271
  67.5168252  58.2952099  32.3782717  63.1878529  65.6465368  26.8918301
  63.0054102  65.6212254  26.0390593  63.9228198  66.1164306  26.9307209
  63.2692593  65.7126730  26.7716219  66.2524281  62.3650371  33.4000409
  66.9764253  62.3503402  33.8865304  66.3540417  63.0745726  32.9022377
  66.3742490  62.4675074  33.3979196  73.6269230  65.8449455  38.2649356
  72.8342211  66.1592967  38.4501976  73.7418157  66.0600924  37.4270141
  73.5264641  65.9233292  38.1687691  76.3000549  62.5683447  22.5544372
  76.3947404  63.3072741  23.0083998  75.6759393  62.1400922  22.9878937
  76.2209579  62.6144767  22.6852520  74.5553023  65.7469659  33.2034653
  75.1291885  65.1096903  33.3583217  74.4767827  65.7473742  32.3344311
  74.6286258  65.6534771  33.0981064  63.1549440  62.5258869  27.0417367
  63.7322942  62.3895319  27.6809613  62.4563501  62.0694653  27.2962952
  63.1370461  62.4381135  27.1739657  69.9116742  64.1792924  25.2555850
  69.6535986  63.3464659  25.2287150  69.9665225  64.4050537  24.4148351
  69.8816520  64.0890696  25.1275987  74.9917792  56.2821375  25.3559943
  74.2874119  55.7930561  25.5143862  75.0402766  56.2943849  24.4848387
  74.8947843  56.2111023  25.2499283  68.8851454  61.7330687  25.7420745
  68.3101045  61.8922855  26.3784706  68.5087130  61.0966096  25.2789196
  68.7454266  61.6628500  25.7675304  72.5524743  60.2054036  30.6013124
  72.1639175  59.7808254  29.9465315  71.8879441  60.4536186  31.1090150
  72.3971670  60.1792757  30.5800992  58.6308273  61.3770762  23.7565186
  58.7168525  61.0002630  24.5378716  59.2584070  61.0031207  23.2785144
  58.7364824  61.2656244  23.8010663  76.3751104  53.9028665  28.1137108
  76.7561616  53.2206836  28.5004982  75.5714388  53.6138267  27.9312772
  76.3127566  53.7595713  28.1441164  69.5271589  67.9074158  23.9262243
  70.1645536  67.6685906  24.4714036  69.9526661  68.1111317  23.1915403
  69.6847755  67.9025168  23.8979400  64.2184231  70.1462495  27.8096546
  64.2588377  70.4177346  26.9816326  64.7778756  70.6704403  28.2254334
  64.3067577  70.2638250  27.7488435  70.1674404  63.1276448  18.2637132
  70.5519557  62.9084155  19.0153677  69.9186024  63.9539393  18.3938208
  70.1876477  63.2174594  18.3938208  70.3342945  56.4082863  37.9799716
  70.0196386  57.1782426  37.7169279  70.0132877  55.8453119  37.3951943
  70.2401864  56.4393132  37.8541066  71.9093061  68.3846581  25.6056029
  71.9832069  68.2221753  26.4597879  72.7262567  68.5736770  25.3616511
  72.0409420  68.3883323  25.6954054  65.6698818  68.7304444  22.6350472
  64.8436935  68.9766181  22.5084751  65.7310809  68.6516524  23.5012530
  65.5572985  68.7549393  22.7439417  67.8874841  54.7973385  23.5945913
  67.0197267  54.8695984  23.6603522  68.1750046  55.5995464  23.7833888
  67.8014590  54.9267532  23.6320679  77.0107730  54.9451244  31.9257234
  77.7561322  54.7561054  31.5120660  76.5945035  55.4709482  31.3671091
  77.0592704  54.9953389  31.7821808  71.0392392  66.1499070  31.4222633
  70.5404086  66.8614837  31.5007521  71.8492616  66.4699736  31.3840795
  71.0848499  66.3025918  31.4279201  68.3903562  73.3248706  23.4029652
  68.1703858  73.0346061  24.1956319  68.1698084  72.6663661  22.8747564
  68.3251157  73.1848415  23.4418561  67.3020510  65.4122023  25.6685354
  67.0133758  64.7859494  26.2031081  68.1703858  65.3542310  25.7350034
  67.3880761  65.3109567  25.7576308  78.0898407  60.5556806  25.9867336
  77.7463173  59.8347141  26.3374585  78.1891450  60.3470657  25.1445694
  78.0540450  60.4181009  25.9139016  67.5052783  67.0517274  21.5927719
  68.2598751  67.4330313  21.8063181  66.9123396  67.5028417  22.0474415
  67.5289496  67.1746101  21.6910597  69.9659450  59.0080114  36.7184931
  69.1559226  59.3137894  36.6074773  70.4434137  59.7285696  36.8337515
  69.9162929  59.1594715  36.7192002  68.8251010  68.2225835  26.9667834
  68.3031763  68.3626127  27.6519699  69.2125030  67.4636499  27.1569951
  68.8054710  68.1311359  27.0968911  65.8142194  58.2731644  21.0362789
  65.5266989  57.9032914  20.2994736  66.5012662  58.7426499  20.7746494
  65.8731091  58.2878613  20.8877865  70.2517335  65.2529854  22.3649325
  70.0560118  65.8604589  21.7709628  70.4751681  64.5597798  21.8840999
  70.2551976  65.2407380  22.2065406  68.6495865  62.1384592  22.4830194
  69.3718517  62.3025750  22.0234000  68.1703858  62.8594257  22.3769533
  68.6859596  62.2682822  22.3995808  76.6089373  58.4748391  27.8626878
  75.7700473  58.5009670  27.6265142  76.6793740  59.1219126  28.4432225
  76.4957766  58.5744517  27.9135995  66.3003482  64.5442664  31.5884333
  66.8124579  64.8226918  30.9393093  66.0139824  65.2831959  31.9547146
  66.3338345  64.6945018  31.5474211  75.0558651  55.3733768  22.5954494
  75.7585004  55.1741516  22.1174453  74.7902840  54.6009710  22.9023338
  75.1205283  55.2296734  22.5699936  63.3870388  59.0512856  21.8848070
  63.4886525  59.8539018  22.2129045  64.1826275  58.8500192  21.5871150
  63.5198294  59.1398755  21.8883425  69.8187207  56.6369053  31.6485375
  69.6270404  56.6524188  32.4984798  70.6685803  56.8332727  31.6252030
  69.9162929  56.6683404  31.7708670  64.2034120  59.1660035  29.6269191
  64.0619612  58.3143975  29.7513699  64.4874684  59.2088695  28.8031397
  64.2241966  59.0459785  29.5236816  74.3572713  61.0027125  23.7713680
  74.1107427  60.9222876  24.6050469  74.6857836  60.2180593  23.5776207
  74.3693956  60.8753390  23.8661203  76.5898847  64.0106859  33.8122843
  76.5846885  63.1386676  33.8165269  77.2959840  64.2095029  33.3392298
  76.6943851  63.9110734  33.7429878  70.3169740  63.7383843  33.1836663
  70.4613116  64.3185052  32.5479773  70.6645388  64.1160140  33.8886517
  70.3897201  63.8804547  33.1935658  72.4889657  62.9374012  30.9661794
  71.7412971  63.1305026  30.5610072  72.6431182  62.1119231  30.7285916
  72.4012085  62.8439123  30.8707200  69.3897495  71.9286615  30.0497690
  69.5387059  71.3689531  29.3971094  70.1697497  72.0078617  30.4330208
  69.5271589  71.8572181  30.0094639  72.7291434  56.8324562  31.8557198
  73.1864048  57.5648537  31.9829990  72.8047763  56.4091028  32.6144454
  72.8082404  56.8781801  31.9858275  64.9724426  57.0790382  32.9446642
  64.4366615  56.4670740  33.2607409  65.0342190  57.6538518  33.5980308
  64.9020058  57.0737310  33.0882069  77.2018760  50.0114438  25.7251041
  77.3202328  50.4690901  24.9918344  77.0280936  49.2059699  25.4387259
  77.1937931  49.9608210  25.5751975  70.6073812  58.8226666  28.6999022
  69.8169887  58.6418126  29.0216358  71.0034435  58.0453619  28.6829317
  70.5490688  58.6814127  28.7451570  75.9917499  66.4569097  26.4258468
  75.3162500  66.2254329  26.9271855  76.0009875  65.8490279  25.8000573
  75.8936003  66.3328022  26.4074620  73.1211642  61.2986926  33.1822521
  73.0570784  62.1596882  33.0542658  73.2608830  60.9818919  32.3818072
  73.1327113  61.3787092  33.0450734  71.8030736  63.9919065  27.3238724
  71.3792985  64.1923564  26.5877742  71.6275592  63.1447913  27.4363024
  71.7141617  63.8967846  27.2312414  67.0913181  64.4871116  22.7566696
  67.2477800  64.4217919  23.6122689  67.4313774  65.2619669  22.5445376
  67.1646416  64.5920314  22.8521291  73.6292326  63.8629000  21.6260060
  74.1707871  63.3599381  22.0898680  73.9438885  63.8094195  20.8149545
  73.7556723  63.7808421  21.5743872  74.7781595  58.7565304  31.6782360
  74.9923565  58.1176219  31.1245714  74.1615495  59.2011128  31.2490222
  74.7186925  58.7275448  31.5332791  63.6647443  61.6706067  23.0727464
  64.0446408  62.0890612  22.4087731  63.0902808  62.2519522  23.3796307
  63.6358768  61.8183926  23.0204205  76.9420683  60.3654370  32.6165667
  76.1297365  60.0580260  32.6978840  77.4010618  59.8853370  33.1808379
  76.8901068  60.2490862  32.7120261  74.1696324  51.8665240  26.6669703
  73.2989882  51.8403961  26.6203012  74.4236665  51.6942432  25.8495549
  74.0789884  51.8375384  26.5389840  74.0374191  61.7714441  37.3994370
  74.5073822  62.3956557  37.7862244  74.0836071  61.1031417  37.9587584
  74.1142067  61.7649121  37.5394441  71.1945464  53.8771468  28.1243173
  70.6783953  53.1851660  28.2494752  70.6339393  54.5442246  28.0705772
  71.0351978  53.8734726  28.1349239  73.2637698  54.4164428  29.9536026
  72.8769451  54.4413460  30.7349556  72.7770635  53.8506107  29.5010543
  73.1350207  54.3360179  30.0023930  72.9294840  51.3031414  32.2446286
  73.5587958  51.8391714  31.9667356  73.0980702  51.2108773  33.0959851
  73.0472634  51.3692776  32.3294814  72.7308755  56.0902609  34.5172697
  73.5582184  55.8187758  34.5731312  72.7516601  56.8863450  34.8736516
  72.8561605  56.1682363  34.5787880  67.3078244  63.2366471  27.7042958
  66.4666251  63.1370346  27.9121852  67.5168252  64.0061952  28.0557279
  67.2142937  63.3358515  27.7870273  64.7853811  60.8586008  25.5327709
  64.3910509  60.9329020  24.7577818  64.2293928  61.2443955  26.0836070
  64.6456624  60.9267783  25.4995369  76.4218758  53.8367302  25.2131588
  76.6268351  53.7689610  26.0588585  76.0945182  54.6426124  25.1452765
  76.4034006  53.9453243  25.3291243  71.1194909  61.1647871  26.9540556
  70.8158047  60.6103859  27.5550963  70.4174330  61.3440081  26.4668590
  70.9711119  61.1092653  26.9710261  70.1761006  58.4748390  21.5185257
  70.4520741  57.7567303  21.1062825  70.7759676  59.0733310  21.3106363
  70.3054271  58.4568761  21.4266019  69.1813260  68.3797591  31.6612653
  69.0733615  68.3899654  32.5274711  69.3909042  69.2052372  31.4717607
  69.1963371  68.5038666  31.7616745  73.6771527  56.1461908  19.7931852
  74.1315273  56.3172468  20.5179697  74.1511573  55.5330019  19.3929628
  73.8139847  56.0812793  19.8405614  67.1987052  65.6310234  29.1234591
  66.6074985  66.2719732  29.0937606  67.9608076  66.0547851  29.0965890
  67.2235313  65.7886072  29.1149738  67.5947675  56.7912232  29.7902609
  68.0549157  56.8651161  30.5277732  67.6403782  57.5893486  29.4402430
  67.6698230  56.9206379  29.8475365  69.2431025  57.4578926  34.3574636
  68.8516590  56.8112274  34.7930413  69.4116888  58.0490362  34.9768891
  69.2101935  57.4493194  34.5137342  71.0184547  62.8504442  20.8976860
  71.7626592  63.2378718  21.1359810  71.1645243  62.0061868  21.0617347
  71.1495132  62.7834915  20.9570829  72.9364122  54.6454701  25.9308721
  72.0900167  54.8177509  25.8050071  72.9335255  53.8404045  26.2674549
  72.8111272  54.5515730  25.9619848  74.0062423  58.4229915  26.7970779
  73.5322377  57.8971678  27.3076090  74.3780558  57.8759388  26.2285641
  73.9912312  58.2645912  26.7885926  64.3835453  60.4201422  32.1654325
  65.2461066  60.3197131  32.0791655  64.0527236  59.8396131  31.6039897
  64.4620649  60.3193049  32.0699731  75.9345922  59.3166470  19.8596533
  75.4068941  59.3995214  19.1702242  76.3941630  60.0584342  19.8561177
  75.9247773  59.4387132  19.7571228  67.7437239  59.2443871  28.8264743
  67.1190309  59.2562263  28.2190696  67.4082834  59.7204046  29.4755983
  67.6022731  59.3162388  28.8321311  67.9278987  57.5868990  14.8837428
  67.5791792  58.2388715  15.3468977  67.4475433  57.5726103  14.1561299
  67.8049231  57.6812043  14.8448519  64.4562914  67.3044331  30.2668507
  63.9262839  66.6136770  30.3163482  64.7288008  67.2954517  29.4381216
  64.4187637  67.2011463  30.1515923  74.6569160  64.7467576  30.2406879
  74.0426153  64.2025626  30.5355514  75.1736445  64.2331812  29.7612695
  74.6424822  64.5903985  30.2131107  73.8965457  65.8171846  27.9751177
  73.4693065  65.1921565  27.5416613  73.8890401  65.5346768  28.8010185
  73.8324598  65.6824627  28.0331005  67.0127984  60.8537019  31.0439611
  67.1721471  60.0980343  31.4491333  66.8320878  61.4027959  31.6980349
  67.0093343  60.8230833  31.2002317  74.9548287  53.0198255  31.5990401
  74.4588848  53.2161929  30.9081968  75.7117349  53.4190923  31.4279203
  74.9935112  53.1075988  31.4710538  72.2251167  56.6940600  28.1893711
  72.2493654  56.1600713  27.5006491  72.4762640  56.1857909  28.8519302
  72.2661085  56.5401504  28.1858356  59.7358757  63.9772095  27.6236856
  59.6302206  63.9318940  26.7588940  58.9858977  64.3225876  27.9051140
  59.6094360  64.0213004  27.5374185  68.5052489  55.4211419  27.5699456
  68.5450861  55.9220625  28.2834163  67.6802154  55.5121812  27.3005379
  68.3892015  55.5093235  27.6349994  70.6882102  64.9872159  35.6719750
  69.8377732  65.1243873  35.8077395  70.8510230  64.2535937  36.1167452
  70.5865965  64.8986260  35.7575350  69.9266852  61.9371929  29.8673355
  69.0958782  62.1045747  29.6608603  69.8718370  61.5607879  30.6522240
  69.7956267  61.9061660  29.9521883  67.7350636  55.4280821  35.5029766
  68.3603339  54.8842954  35.7759198  67.2801116  54.9475739  34.9337556
  67.7598896  55.2770303  35.4591359  68.3002896  60.2127520  20.3963473
  68.4405857  60.7099984  21.0992114  68.7985429  59.5113814  20.5377686
  68.3943977  60.1829499  20.5215052  68.3303119  61.0794631  17.7256049
  68.9648198  61.6755056  17.6605511  68.4128729  60.7798089  18.5401919
  68.4359670  61.1235539  17.8359136  69.9082101  57.0108607  17.7001491
  70.2297943  56.5311689  17.0460754  70.1709045  57.8208253  17.5092303
  69.9948127  57.0598504  17.5756983  73.1379074  68.0327481  31.2200307
  72.6304165  68.5863328  31.6640938  72.8405720  68.0935771  30.4019082
  73.0183959  68.1233792  31.1648764  75.3041256  56.3980801  30.0624970
  75.7296328  55.9453327  29.4508497  74.6898250  55.8440871  30.3389758
  75.2769902  56.2494777  30.0129996  64.8356106  63.2762472  20.9945595
  65.3448336  63.8726979  21.3756901  65.3090379  63.0088446  20.3122015
  64.9799482  63.3248287  20.9500118  73.7435479  52.8695900  23.4715547
  73.1003797  52.7193547  24.0400686  73.4034886  52.6238246  22.7064652
  73.5980557  52.8108023  23.4418563  78.4962953  57.2811211  25.8035929
  78.8490563  56.8540934  26.4781728  77.6377755  57.1962054  25.9337006
  78.4212398  57.2055951  25.9230940  67.1946638  59.9118730  23.8618776
  66.4758627  60.3282863  24.1291639  67.5659001  60.4772969  23.3110414
  67.1438570  60.0568012  23.8201583  76.4946219  60.5446579  29.7520771
  76.4744146  60.3629875  30.6055550  76.5425420  61.4158598  29.7280355
  76.4980860  60.6463118  29.8744066  74.4392549  67.1333771  35.6769248
  74.3988404  66.4883448  35.0914404  75.2515867  67.0770389  35.9894660
  74.5535702  67.0292738  35.6366197  72.9693213  58.9516730  19.1992155
  72.3758052  59.2733727  18.6476722  73.0068490  58.1057826  18.9913261
  72.8867602  58.8741059  19.0874927  75.8451029  58.9096235  22.6293905
  75.6164722  58.9328936  21.7872264  76.1049105  58.0853702  22.7488916
  75.8497217  58.7912315  22.5219103  70.1270258  60.7630708  32.2319006
  69.6149161  60.1551891  32.5904037  69.9549754  61.4787300  32.6992981
  70.0259895  60.7794007  32.3535229  64.9735972  59.2068283  34.8821367
  64.8038563  59.8669658  34.3369574  64.5301922  59.4174844  35.6033857
  64.8835306  59.3354265  34.9082997  68.8995792  57.4472781  23.9248101
  69.3753158  57.8089861  23.2898282  68.3984391  58.1029249  24.2048244
  68.8961151  57.5966970  23.8724842  74.0039328  58.6854953  34.6721261
  74.5610758  58.4568762  34.0399727  73.6800393  59.4460618  34.3956474
  74.0385738  58.7638789  34.5377758  61.8738037  62.1115149  30.1409857
  61.3264756  61.4415794  30.2590726  62.6630415  61.7444997  30.2053325
  61.9090220  61.9580135  30.1678558  71.7222445  61.7722606  35.6373268
  72.4733772  62.0874283  35.9512823  71.9145022  61.5701777  34.8107190
  71.8613859  61.7889988  35.5616664  70.9422445  59.5913981  17.2921485
  71.3221410  59.6093610  16.5072600  70.2015041  60.0367970  17.1712332
  70.8891283  59.6595756  17.1585053  78.5707735  57.8996172  22.8797064
  78.5701962  57.7444829  23.7381340  78.3663915  58.7459159  22.8238449
  78.5407513  58.0016793  22.9985003  60.6325006  61.3235957  27.2955880
  60.4546767  60.8712566  28.0210796  60.3444028  62.1262118  27.4794358
  60.5637959  61.3758514  27.4299383  76.2948587  62.5793674  26.5333271
  76.7902253  61.8616669  26.4937291  75.4848363  62.2764472  26.4187758
  76.2492481  62.4291320  26.5106996  62.3697476  63.8563680  24.4077639
  61.5042996  63.8449371  24.2960411  62.4696292  63.6693903  25.2548779
  62.2571643  63.8269742  24.5166584  78.3600406  65.3297361  29.2210399
  78.7855478  64.8071783  28.6680824  77.9957326  65.9278199  28.6999022
  78.3687009  65.3407588  29.0619409  67.9954486  73.6261579  27.9807745
  68.3101045  74.4397967  27.9885527  68.4047899  73.2411798  28.6489904
  68.1022584  73.6890281  28.0811837  74.9479006  69.0431626  25.5511557
  75.4190184  69.7571888  25.7201542  75.2839184  68.4430376  26.0871426
  75.0674121  69.0603090  25.6543933  71.8648501  53.8159096  32.5069652
  71.9976406  53.0190090  32.8350627  72.2493653  54.3425499  33.0867927
  71.9404830  53.7759013  32.6413155  75.5852952  68.8349560  32.3139250
  75.0373898  68.2107443  32.0459315  76.0465981  69.0243832  31.5983329
  75.5720161  68.7708610  32.1689681  74.9380856  50.7389422  29.1050745
  74.1326820  50.6287152  29.4218583  74.8087591  50.8401878  28.2480611
  74.8000989  50.7373092  29.0258785  78.3946816  56.9034914  29.6990442
  77.8109805  57.4044121  29.2868009  78.7151110  56.3964471  29.0654765
  78.3559992  56.9026749  29.5448949  70.9341616  55.8175509  19.9749117
  71.7557310  55.9873822  19.7330812  70.4711266  55.9722770  19.2515414
  70.9872778  55.8657242  19.8320761  69.5236947  53.8118271  30.7547545
  70.0681360  53.4709398  31.3451887  69.5773883  54.6703733  30.8968830
  69.6126067  53.8873531  30.8629419  65.3367506  67.5734687  27.6286353
  65.9412364  67.5330522  27.0000174  65.1294819  68.4205839  27.6590409
  65.3956403  67.6922690  27.5402470  60.5718789  66.5569305  27.4985276
  60.4743067  65.7465576  27.8075333  61.3547658  66.5361098  27.1131545
  60.6734925  66.4336395  27.4872139  36.4271739   5.9136734  12.9299304
  37.0709194   6.3549898  13.3195463  36.7527994   5.1090160  12.8429563
  36.5703567   5.8601929  12.9744782  41.0731114   1.1392097  20.9958976
  41.1614460   0.9518237  21.8437186  41.5020827   0.4929526  20.5963822
  41.1493216   1.0155105  21.0630727  38.6401574   0.4223257  19.9776638
  38.0772409   0.0095867  20.5016299  39.4022597   0.3476162  20.3969781
  38.6696022   0.3500657  20.1169638  41.1851173   0.5701116  23.6602759
  41.9691590   0.6831964  24.0258501  40.9847768  -0.2557747  23.8561445
  41.2717199   0.4647835  23.7437145  41.3421567   2.4811218  17.3069215
  40.5436812   2.2410718  17.5643083  41.7907578   2.5325611  18.0536263
  41.2896178   2.4533609  17.4554139  36.1650568   2.3108823  16.9837736
  36.3140132   1.7511738  16.3311141  36.9450570   2.3900824  17.3670255
  36.3024662   2.2394388  16.9434686  38.6903869   2.4823465  18.2622227
  38.6147540   1.8132276  18.8173016  38.6193728   3.1841254  18.7762893
  38.6684476   2.4868373  18.4199075  38.0795503   5.8891785  16.7200228
  38.5691433   5.1902574  16.5375893  37.5079735   5.5915655  17.3076285
  38.0680033   5.7418009  16.7801269  35.9566333  -1.2380201  18.5952700
  35.8486688  -1.2278139  19.4614758  36.1662115  -0.4125421  18.4057654
  35.9716445  -1.1139126  18.6956792  43.7329642   1.4641753  13.4906662
  43.5349330   1.9532567  12.7962874  43.1117353   1.6682994  14.0690796
  43.6117206   1.5658291  13.4729885  39.9132147  -1.5850312  18.1540354
  39.4057239  -1.0314465  18.5980985  39.6158794  -1.5242022  17.3359129
  39.7937032  -1.4944001  18.0988811  39.1574633   3.3474247  15.0597361
  38.9340287   2.5893076  15.4281387  38.6684476   3.3772268  14.3377801
  39.0518082   3.2396471  15.0074102  34.7707559   4.0083786  14.9147792
  35.0854118   4.8220175  14.9225573  35.1800973   3.6234005  15.5829951
  34.8775657   4.0712489  15.0151883  43.8109064   1.0355146  24.6643676
  43.9206029   0.2463707  25.0200423  44.1399960   0.9461083  23.8618014
  43.8761469   0.9060999  24.5986066  41.9264352   0.2222840  15.7788638
  42.7462725   0.0785806  16.0404933  41.6458429   0.8469039  16.3205075
  42.0061095   0.2933192  15.8976577  51.5977687   6.9663343  13.4984444
  50.7415582   7.1271841  13.5493561  51.6445341   6.0955407  13.5189505
  51.4776798   6.8614145  13.5090510  45.9818827  16.5026061   9.2621676
  45.2301726  16.1241599   9.0337721  46.4304838  16.5344494   8.5140486
  45.9368493  16.4511668   9.1179178  54.9071403  13.2349868  23.1044900
  55.6138171  12.7401899  23.2331835  55.0959339  13.6758950  22.3747558
  55.0399309  13.2268219  23.0153946  51.4343786  16.9251430   4.6907223
  51.0995155  17.6028352   4.2551445  51.9470657  16.5356741   4.1024095
  51.4609367  16.9676008   4.5394014  50.9748078  18.8765699  10.6318335
  51.3587457  19.4452597  10.0923110  50.9107219  18.1515209  10.1524151
  51.0221505  18.8541162  10.4812197  54.4429508   9.0255387  16.1416096
  54.9885468   9.7040473  16.2010066  54.3846384   8.8842847  15.2817677
  54.5145422   9.1047388  16.0228157  47.5603583  16.5144453  11.5284448
  47.6613946  15.7044807  11.8381576  46.9645328  16.4201399  10.8984127
  47.4876121  16.3809481  11.4810687  56.2194576  10.4539994   7.0149824
  56.1034102  11.2047680   7.4441962  57.0150463  10.1963947   7.2645911
  56.3199166  10.5274841   7.1153915  47.4004322  21.4322042  12.9299304
  48.0441778  21.8735206  13.3195463  47.7260578  20.6275468  12.8429563
  47.5436151  21.3787237  12.9744782  40.7568627  12.5364739  11.1536782
  40.5218811  11.7032392  11.0469051  40.8954268  12.8169405  10.3397983
  40.7424289  12.4548243  11.0179137  43.0558714   4.7050470  14.0521090
  42.4363746   4.1143117  13.8831105  42.9542578   5.2961905  13.4185413
  42.9496390   4.7054552  13.9326079  48.1024902  14.4434017   8.3019166
  48.4240743  14.9839224   7.6980474  48.7496998  13.8730788   8.4341456
  48.2450957  14.4393192   8.2326201  50.1526610   6.4450012   8.3853553
  50.8506775   6.6238139   8.8775016  50.4678943   5.9220351   7.7623942
  50.3021947   6.3943784   8.3655563  42.7827847   8.2502752  16.2964659
  42.6586544   8.8365197  16.9314478  43.4346132   7.7562947  16.5976934
  42.8601497   8.2641556  16.4350588  50.3414545  12.8320457   8.3733344
  50.7808181  12.2237557   8.8188117  50.1919208  12.4527830   7.6018809
  50.3836011  12.6858928   8.3252512  47.8086188  11.4264469  15.5752170
  48.4535191  10.9336912  15.2563118  48.0487965  11.5689255  16.4018248
  47.9396774  11.3741911  15.6501703  50.3472280  14.2719374  15.2259062
  50.6295523  13.4770780  15.0045818  51.0758440  14.7499962  15.2464123
  50.4961843  14.2253971  15.1962078  48.3253474   1.8142408  12.4674827
  47.9956804   2.2653552  11.7978526  47.6498475   1.7358572  13.0147834
  48.1763910   1.8693544  12.4498051  53.9423882  11.1847638   5.3264114
  53.8575177  12.0408605   5.4713682  54.4308265  10.9091962   5.9946273
  54.0012779  11.2704959   5.4466195  54.8742315   7.8032432   6.8261849
  54.3453787   8.0192066   7.4859155  55.3967335   8.4968571   6.7462818
  54.8730768   7.9375569   6.9117448  60.3290368  13.3778737  12.1994893
  59.4988071  13.5889380  12.3628310  60.2799620  12.5515791  11.9237177
  60.1997104  13.2868343  12.1832259  42.3185952  17.4150410  12.4292988
  41.8353530  18.1400900  12.4052572  43.1309270  17.7126540  12.5403146
  42.3676699  17.5652764  12.4420267  48.3900106  16.2082591  15.0342803
  47.8727047  15.8490006  14.4304111  49.0874497  15.6844765  15.0448869
  48.4165687  16.0780279  14.9473061  52.0463698  16.6577405  20.9958976
  52.1347043  16.4703545  21.8437186  52.4753410  16.0114834  20.5963822
  52.1225800  16.5340413  21.0630727  49.6134157  15.9408565  19.9776638
  49.0504992  15.5281175  20.5016299  50.3755181  15.8661470  20.3969781
  49.6428606  15.8685965  20.1169638  45.1730149  17.9306586  12.5813268
  45.8750728  17.4158575  12.6386025  45.0927632  18.2580737  13.3860143
  45.2653909  17.9020812  12.7086060  59.8244326   6.0249137  15.9945315
  58.9872747   6.0951324  16.2292909  59.7932557   6.0273632  15.1219617
  59.6962609   6.0359364  15.9004862  46.2209055   8.1682173  21.7093683
  46.3929559   8.0588068  22.5578965  46.7578413   8.8136578  21.4724875
  46.3254059   8.2474175  21.7998780  44.4980924  14.1212938  12.0898876
  45.3369824  14.3535871  12.1372638  44.5292693  13.2517249  12.0205911
  44.6262642  14.0269884  12.0863521  45.1233627  14.5413813  16.3912182
  45.6631852  14.3984944  17.0615554  44.4403574  14.9410564  16.7596208
  45.1025781  14.5793484  16.5446603  54.5474512  10.2204814  11.5857206
  55.3032027  10.6536328  11.6246115  54.6536837   9.5709583  12.1591842
  54.6744683  10.1882298  11.6755232  57.5854683  14.0478091  12.3359609
  57.1489915  14.0514833  13.0918580  57.2517599  14.7283590  11.9039186
  57.4717303  14.1490547  12.3840442  52.1583757  16.0886424  23.6602759
  52.9424174  16.2017272  24.0258501  51.9580351  15.2627561  23.8561445
  52.2449782  15.9833143  23.7437145  40.5270772  10.7614104  16.5446603
  40.2609188   9.9453221  16.7037593  40.5409337  10.8067259  15.6742119
  40.4895495  10.6471009  16.4400085  45.2769379   4.2992482  19.1913611
  44.5841176   3.8289462  19.4374342  45.8929706   4.0730787  19.7655318
  45.2653909   4.1959614  19.3122763  52.3154150  17.9996526  17.3069215
  51.5169396  17.7596026  17.5643083  52.7640162  18.0510919  18.0536263
  52.2628762  17.9718917  17.4554139  60.7199030  10.7659011  11.2279246
  61.3815464  10.2049679  11.1275155  60.0790442  10.2711042  11.5531937
  60.7227897  10.6095420  11.2611586  51.6075837  14.0629142   3.5360169
  52.0226986  13.7314166   2.8444665  50.7767767  13.8298045   3.4080306
  51.5463846  13.9800398   3.4151017  40.9364186  11.5472883  13.8258347
  40.7539759  11.5219769  12.9730640  41.6713855  12.0171821  13.8647256
  41.0178250  11.6134246  13.7056266  57.0063860  11.7824393  10.9691235
  57.2419449  11.9269592  10.1418086  57.1553424  12.5466801  11.3622749
  57.0629664  11.9163448  10.9054839  44.0009938   8.2657886  20.3340456
  44.7249910   8.2510917  20.8205351  44.1026074   8.9753241  19.8362424
  44.1228147   8.3682589  20.3319243  58.8354317  10.6226059   8.8060839
  59.1662534  11.1553699   8.2000934  59.4087405  10.6764947   9.4622790
  58.9687996  10.7095628   8.8138621  51.3754887  11.7456971  25.1989403
  50.5827868  12.0600483  25.3842023  51.4903814  11.9608439  24.3610188
  51.2750298  11.8240807  25.1027738  54.0486206   8.4690962   9.4884419
  54.1433060   9.2080256   9.9424044  53.4245050   8.0408437   9.9218983
  53.9695236   8.5152283   9.6192566  52.3038680  11.6477175  20.1374700
  52.8777542  11.0104419  20.2923264  52.2253484  11.6481257  19.2684357
  52.3771915  11.5542286  20.0321111  40.9035096   8.4266384  13.9757414
  41.4808599   8.2902835  14.6149659  40.2049158   7.9702168  14.2302998
  40.8856118   8.3388650  14.1079704  47.6602399  10.0800440  12.1895897
  47.4021643   9.2472175  12.1627197  47.7150881  10.3058053  11.3488398
  47.6302176   9.9898211  12.0616034  46.6337111   7.6338202  12.6760792
  46.0586702   7.7930371  13.3124753  46.2572787   6.9973611  12.2129243
  46.4939923   7.5636015  12.7015350  50.3010399   6.1061551  17.5353170
  49.9124832   5.6815769  16.8805362  49.6365098   6.3543701  18.0430197
  50.1457327   6.0800273  17.5141038  51.4049338  10.3360156   5.7329977
  52.2189976  10.6275049   5.6212749  51.3408479   9.6820018   5.1588270
  51.5152077  10.2825351   5.6318815  57.6258828  13.0186152  20.1459553
  57.3897465  12.1874217  20.0271614  58.2702057  12.9671759  20.7314397
  57.6853499  12.8883840  20.2145447  47.2757246  13.8081673  10.8602289
  47.9131193  13.5693421  11.4054083  47.7012317  14.0118832  10.1255450
  47.4333412  13.8032684  10.8319447  41.9669888  16.0470010  14.7436593
  42.0074034  16.3184861  13.9156373  42.5264412  16.5711918  15.1594381
  42.0553234  16.1645765  14.6828481  48.0828601   2.3090378  24.9139763
  47.7682042   3.0789941  24.6509326  47.7618534   1.7460634  24.3291990
  47.9887520   2.3400647  24.7881113  58.6495248  12.8030601  16.2087848
  58.3441065  13.5358658  16.5701163  57.9301464  12.3968530  15.9280634
  58.4982591  12.8512334  16.2200985  49.6578718  14.2854096  12.5396076
  49.7317726  14.1229268  13.3937926  50.4748224  14.4744286  12.2956557
  49.7895076  14.2890838  12.6294101  64.3497041   9.4423602  15.5356192
  64.2821541   9.4619561  14.6658778  64.3352703  10.2853929  15.7611862
  64.3375797   9.5697336  15.4408669  43.4184475  14.6311959   9.5690519
  42.5922592  14.8773696   9.4424798  43.4796466  14.5524040  10.4352577
  43.3058641  14.6556908   9.6779464  48.1983304  17.2488839   7.2709549
  48.4881602  16.8577820   6.5468776  48.9286784  17.4305544   7.7114824
  48.3490188  17.2182653   7.2292356  62.1355658   8.2167988  13.8102786
  62.6863579   7.5836057  14.0499878  62.1199773   8.7483381  14.5018290
  62.2140854   8.2016936  13.9481644  48.7878049  12.0506585  18.3562680
  48.2889742  12.7622353  18.4347568  49.5978273  12.3707252  18.3180842
  48.8334155  12.2033434  18.3619248  46.1389219  19.2256222  10.3369699
  45.9189515  18.9353576  11.1296366  45.9183741  18.5671177   9.8087611
  46.0736813  19.0855930  10.3758608  45.0506166  11.3129538  12.6025400
  44.7619415  10.6867009  13.1371128  45.9189514  11.2549825  12.6690081
  45.1366418  11.2117082  12.6916355  55.8384064   6.4564321  12.9207382
  55.4948830   5.7354657  13.2714632  55.9377107   6.2478173  12.0785741
  55.8026107   6.3188525  12.8479062  48.3057175  20.5985611   9.1200391
  48.9581233  20.0662054   9.3491417  47.6082784  20.2454264   9.5068265
  48.2987893  20.4675134   9.2112559  45.2538440  12.9524789   8.5267766
  46.0084408  13.3337828   8.7403228  44.6609052  13.4035933   8.9814462
  45.2775153  13.0753616   8.6250644  56.2997093  12.9190026   8.4631370
  56.8655126  13.5783235   8.3789913  55.6524997  13.2639724   8.9347773
  56.2875850  13.0671967   8.5204127  47.7145107   4.9087629  23.6524978
  46.9044882   5.2145409  23.5414820  48.1919793   5.6293212  23.7677562
  47.6648585   5.0602231  23.6532049  46.5736666  14.1233350  13.9007881
  46.0517420  14.2633642  14.5859746  46.9610687  13.3644015  14.0909998
  46.5540367  14.0318874  14.0308957  52.7703671  15.8628810   7.8868450
  52.5290347  15.1296670   7.4795515  52.9505004  16.4115667   7.2334783
  52.7611295  15.8351201   7.7298673  48.0002992  11.1537370   9.2989372
  47.8045775  11.7612104   8.7049675  48.2237337  10.4605314   8.8181046
  48.0037633  11.1414895   9.1405453  46.3981522   8.0392107   9.4170240
  47.1204174   8.2033266   8.9574046  45.9189515   8.7601772   9.3109580
  46.4345253   8.1690337   9.3335854  54.3575030   4.3755906  14.7966925
  53.5186130   4.4017185  14.5605189  54.4279397   5.0226642  15.3772272
  54.2443423   4.4752032  14.8476042  44.0489139  10.4450180  18.5224380
  44.5610236  10.7234433  17.8733140  43.7625481  11.1839474  18.8887193
  44.0824002  10.5952534  18.4814258  58.2332553   9.5823893  12.0828167
  58.1466528   9.7379319  12.9362946  57.7783033  10.2261969  11.7087572
  58.1535810   9.6999648  12.1535274  47.5672864   2.5376568  18.5825422
  47.3756061   2.5531703  19.4324845  48.4171460   2.7340243  18.5592077
  47.6648586   2.5690920  18.7048717  41.9519777   5.0667550  16.5609238
  41.8105269   4.2151491  16.6853746  42.2360340   5.1096211  15.7371444
  41.9727623   4.9467300  16.4576862  52.1058369   6.9034640  10.7053727
  51.8593084   6.8230391  11.5390515  52.4343492   6.1188108  10.5116254
  52.1179613   6.7760905  10.8001250  56.0006418  13.6117999  14.4940508
  55.8620778  14.3099045  14.9989250  55.2206416  13.4566656  14.1376690
  55.8649645  13.6918166  14.5166782  54.3384503   9.9114375  20.7462889
  54.3332542   9.0394191  20.7505316  55.0445497  10.1102544  20.2732345
  54.4429507   9.8118249  20.6769925  48.0655397   9.6391359  20.1176710
  48.2098772  10.2192567  19.4819820  48.4131045  10.0167655  20.8226564
  48.1382858   9.7812063  20.1275705  50.2375314   8.8381527  17.9001841
  49.4898628   9.0312541  17.4950119  50.3916839   8.0126747  17.6625962
  50.1497742   8.7446638  17.8047247  47.1383152  17.8294130  16.9837736
  47.2872715  17.2697046  16.3311141  47.9183154  17.9086132  17.3670255
  47.2757245  17.7579696  16.9434686  49.6636452  18.0008773  18.2622227
  49.5880123  17.3317584  18.8173016  49.5926311  18.7026562  18.7762893
  49.6417059  18.0053681  18.4199075  50.4777091   2.7332078  18.7897245
  50.9349705   3.4656052  18.9170037  50.5533420   2.3098543  19.5484501
  50.5568061   2.7789316  18.9198321  42.7210082   2.9797898  19.8786689
  42.1852272   2.3678256  20.1947456  42.7827847   3.5546033  20.5320355
  42.6505715   2.9744825  20.0222115  50.3206699  16.5209772   9.0945833
  51.0856590  16.2519416   8.7728497  50.2184789  16.0359783   9.8115896
  50.4188195  16.4099337   9.1525661  48.3559469   4.7234182  15.6339069
  47.5655544   4.5425642  15.9556405  48.7520092   3.9461134  15.6169363
  48.2976345   4.5821643  15.6791617  53.7403155  12.3576612  13.3598515
  53.0648157  12.1261844  13.8611902  53.7495531  11.7497795  12.7340620
  53.6421660  12.2335537  13.3414667  50.8697299   7.1994441  20.1162568
  50.8056440   8.0604397  19.9882705  51.0094487   6.8826434  19.3158119
  50.8812769   7.2794607  19.9790781  55.7419890  15.2141744   5.5908693
  55.8239727  16.0208730   5.2670144  56.2269632  15.2337703   6.3149466
  55.8257048  15.3362407   5.6495591  49.5516393   9.8926580  14.2578771
  49.1278642  10.0931079  13.5217789  49.3761248   9.0455428  14.3703071
  49.4627274   9.7975362  14.1652461  49.0528087  21.4077093  16.7200228
  49.5424017  20.7087882  16.5375893  48.4812319  21.1100963  17.3076285
  49.0412617  21.2603317  16.7801269  44.8398838  10.3878632   9.6906743
  44.9963457  10.3225434  10.5462735  45.1799431  11.1627184   9.4785423
  44.9132073  10.4927830   9.7861337  51.3777983   9.7636515   8.5600107
  51.9193528   9.2606896   9.0238727  51.6924542   9.7101710   7.7489592
  51.5042380   9.6815936   8.5083919  55.2495090  13.9739163  25.6727019
  56.0629955  13.7024311  25.8332151  55.0890056  13.6746702  24.8687215
  55.3465039  13.8894089  25.5772425  49.5464432  15.1553867   5.8440135
  49.6157253  14.2968405   5.9833135  50.3252888  15.3725748   5.5159159
  49.6717283  15.0606731   5.8157292  52.5267252   4.6572820  18.6122407
  52.7409222   4.0183734  18.0585761  51.9101151   5.1018644  18.1830269
  52.4672581   4.6282963  18.4672838  53.9371920  17.5791568  10.0576628
  53.5451712  17.2758283   9.3399494  54.0924992  18.4160658   9.8681582
  53.9025510  17.6575405   9.9233125  41.4133100   7.5713582  10.0067510
  41.7932064   7.9898127   9.3427778  40.8388464   8.1527038  10.3136354
  41.3844425   7.7191441   9.9544251  54.6906340   6.2661885  19.5505714
  53.8783022   5.9587775  19.6318887  55.1496275   5.7860885  20.1148426
  54.6386725   6.1498377  19.6460308  54.1011595  14.1441557   9.9982658
  53.7426250  14.3156200  10.7746691  53.6150306  14.6054762   9.4410657
  53.9770292  14.2380528  10.0307928  51.7859848   7.6721956  24.3334416
  52.2559479   8.2964073  24.7202290  51.8321728   7.0038932  24.8927631
  51.8627723   7.6656637  24.4734488  55.2616334  15.0345453  20.9449859
  55.8996055  14.5405648  20.6112315  54.6190426  14.9622853  20.3602086
  55.2610561  14.9504461  20.8092214  56.9873334   6.8834599  15.5115775
  56.5600942   6.7960947  14.7563874  56.3499387   6.9912374  16.0970619
  56.8302941   6.8867259  15.4861216  55.3170591  15.7265261  17.5855216
  56.1062969  15.3754326  17.7057298  55.4914189  16.5401649  17.3231850
  55.4590872  15.7951118  17.5643084  45.0563901   9.1373987  14.6383005
  44.2151908   9.0377861  14.8461899  45.2653909   9.9069467  14.9897326
  44.9628594   9.2366030  14.7210320  42.5339468   6.7593524  12.4667756
  42.1396166   6.8336536  11.6917865  41.9779585   7.1451470  13.0176117
  42.3942280   6.8275298  12.4335415  48.8680566   7.0655386  13.8880602
  48.5643704   6.5111374  14.4891010  48.1659987   7.2447596  13.4008637
  48.7196776   7.0100168  13.9050308  46.9298917  14.2805107  18.5952700
  46.8219272  14.2907169  19.4614758  47.1394699  15.1059887  18.4057654
  46.9449028  14.4046182  18.6956792  44.9472709  11.5317749  16.0574638
  44.3560642  12.1727247  16.0277653  45.7093733  11.9555366  16.0305937
  44.9720970  11.6893588  16.0489785  45.3433332   2.6919747  16.7242655
  45.8034813   2.7658676  17.4617779  45.3889439   3.4901001  16.3742477
  45.4183887   2.8213894  16.7815412  46.9916682   3.3586442  21.2914682
  46.6002247   2.7119789  21.7270460  47.1602544   3.9497877  21.9108938
  46.9587592   3.3500710  21.4477388  61.0663131  11.3623519  17.0551916
  61.1246254  11.8110168  17.8011893  60.4329598  11.7722332  16.6181996
  60.9814426  11.4897253  17.1004464  54.7062225  16.9827061  13.4906662
  54.5081914  17.4717875  12.7962874  54.0849936  17.1868302  14.0690796
  54.5849790  17.0843599  13.4729885  48.7670204   8.7511958   7.8316906
  49.5112249   9.1386234   8.0699856  48.9130900   7.9069383   7.9957394
  48.8980789   8.6842430   7.8910876  51.7548079   4.3237431  13.7310826
  51.2808034   3.7979193  14.2416137  52.1266215   3.7766904  13.1625687
  51.7397968   4.1653427  13.7225973  42.1321110   6.3208938  19.0994372
  42.9946723   6.2204647  19.0131701  41.8012893   5.7403647  18.5379944
  42.2106306   6.2200564  19.0039777  58.0184810   9.3839807  15.1417606
  57.7783033   8.5446222  15.1460033  58.4976817   9.4639973  15.8658380
  58.0536994   9.2721206  15.2492409  60.0189997   6.1641264  13.0946865
  59.7799767   6.1237098  12.2567650  60.1823898   7.0112416  13.2212587
  60.0080301   6.2833349  12.9900347  56.6236027  10.5491213  19.0251911
  57.3470226  10.0963739  18.8462931  56.3585990  10.8295879  18.2424238
  56.6917301  10.5242182  18.8830626  45.4922896   5.1451387  15.7604790
  44.8675966   5.1569779  15.1530742  45.1568490   5.6211562  16.4096030
  45.3508387   5.2169904  15.7661358  42.2048571  13.2051847  17.2008554
  41.6748496  12.5144286  17.2503529  42.4773664  13.1962032  16.3721263
  42.1673293  13.1018978  17.0855970  53.2368662  13.7877549   5.9246237
  53.9602861  14.2535662   5.7810810  52.7969253  13.8551159   5.1743834
  53.2784354  13.8661386   5.7931018  52.4054817  10.6475091  17.1746926
  51.7911810  10.1033142  17.4695561  52.9222102  10.1339328  16.6952742
  52.3910479  10.4911500  17.1471154  51.6451114  11.7179361  14.9091224
  51.2178722  11.0929080  14.4756660  51.6376058  11.4354283  15.7350232
  51.5810255  11.5832142  14.9671052  44.7613641   6.7544534  17.9779658
  44.9207128   5.9987858  18.3831380  44.5806535   7.3035474  18.6320396
  44.7579000   6.7238348  18.1342364  49.9736824   2.5948116  15.1233758
  49.9979311   2.0608228  14.4346538  50.2248297   2.0865425  15.7859349
  50.0146742   2.4409020  15.1198403  37.4844413   9.8779611  14.5576902
  37.3787862   9.8326455  13.6928986  36.7344633  10.2233391  14.8391187
  37.3580016   9.9220519  14.4714232  46.2538146   1.3218934  14.5039503
  46.2936517   1.8228141  15.2174210  45.4287810   1.4129328  14.2345426
  46.1377672   1.4100750  14.5690041  48.4367759  10.8879674  22.6059797
  47.5863389  11.0251388  22.7417442  48.5995886  10.1543452  23.0507499
  48.3351622  10.7993775  22.6915396  47.6752509   7.8379444  16.8013402
  46.8444439   8.0053262  16.5948650  47.6204026   7.4615395  17.5862287
  47.5441924   7.8069175  16.8861930  45.4836292   1.3288337  22.4369812
  46.1088996   0.7850470  22.7099245  45.0286772   0.8483254  21.8677603
  45.5084553   1.1777818  22.3931406  59.0571341   9.5117624  17.5282460
  59.6489181  10.1514875  17.5600658  59.4930336   8.8140661  17.8174527
  59.2089772   9.5035974  17.5763293  50.8864731  13.9334996  18.1540354
  50.3789822  14.4870843  18.5980985  50.5891377  13.9943286  17.3359129
  50.7669616  14.0241307  18.0988811  53.4972511  17.8498254   6.0844298
  52.7801821  17.6759116   5.6191535  54.1479249  17.6150826   5.5519784
  53.4874362  17.7894046   5.9373516  56.0820483   6.7262842   9.8285603
  55.4111672   7.2692545   9.6998668  56.7760233   7.1957698   9.5867298
  56.0849350   6.8761114   9.7741131  50.1307216  18.8659554  15.0597361
  49.9072871  18.1078384  15.4281387  49.6417060  18.8957576  14.3377801
  50.0250665  18.7581779  15.0074102  44.9432295   5.8126246  10.7958823
  44.2244284   6.2290378  11.0631686  45.3144657   6.3780485  10.2450461
  44.8924227   5.9575527  10.7541630  54.2431876   6.4454095  16.6860818
  54.2229803   6.2637390  17.5395597  54.2911077   7.3166113  16.6620402
  54.2466517   6.5470633  16.8084113  52.1878206  13.0341287  22.6109295
  52.1474061  12.3890964  22.0254451  53.0001524  12.9777904  22.9234707
  52.3021359  12.9300254  22.5706244  48.7785673  19.0860013  12.5134446
  48.3646072  18.4234143  12.1238287  49.4633047  19.2337871  11.9930140
  48.8184045  19.0100671  12.3790943  52.1450967  18.2450098  13.2658062
  51.7467251  18.3552368  12.4978883  51.5302187  18.4532164  13.8484622
  51.9949857  18.2923666  13.2389362  53.5936686   4.8103750   9.5633952
  53.3650379   4.8336452   8.7212310  53.8534762   3.9861217   9.6828963
  53.5982874   4.6919830   9.4559150  47.8755914   6.6638223  19.1659052
  47.3634817   6.0559406  19.5244084  47.7035411   7.3794816  19.6333028
  47.7745551   6.6801523  19.2875276  42.7221629   5.1075799  21.8161414
  42.5524219   5.7677173  21.2709621  42.2787579   5.3182360  22.5373903
  42.6320963   5.2361781  21.8423044  46.6481448   3.3480296  10.8588148
  47.1238815   3.7097376  10.2238329  46.1470048   4.0036764  11.1388291
  46.6446807   3.4974485  10.8064889  51.7524985   4.5862468  21.6061308
  52.3096415   4.3576277  20.9739773  51.4286050   5.3468133  21.3296520
  51.7871395   4.6646305  21.4717805  39.6223694   8.0122664  17.0749904
  39.0750413   7.3423310  17.1930772  40.4116072   7.6452512  17.1393371
  39.6575877   7.8587651  17.1018605  49.4708102   7.6730121  22.5713315
  50.2219429   7.9881798  22.8852869  49.6630678   7.4709292  21.7447237
  49.6099516   7.6897503  22.4956711  38.3810663   7.2243472  14.2295927
  38.2032424   6.7720081  14.9550843  38.0929685   8.0269633  14.4134405
  38.3123616   7.2766030  14.3639430  54.0434244   8.4801189  13.4673317
  54.5387910   7.7624184  13.4277338  53.2334020   8.1771987  13.3527804
  53.9978137   8.3298836  13.4447043  49.4892856  12.3299003   5.6170322
  48.6804178  12.0065676   5.5703631  49.9967765  11.6232225   5.5498571
  49.4442522  12.1780319   5.6000616  40.1183133   9.7571196  11.3417686
  39.2528652   9.7456886  11.2300457  40.2181949   9.5701419  12.1888825
  40.0057300   9.7277257  11.4506631  56.1086063  11.2304877  16.1550446
  56.5341135  10.7079299  15.6020871  55.7442983  11.8285714  15.6339069
  56.1172666  11.2415104  15.9959456  45.7440143  19.5269094  14.9147792
  46.0586702  20.3405483  14.9225573  46.1533556  19.1419313  15.5829951
  45.8508241  19.5897797  15.0151883  52.6964663  14.9439141  12.4851604
  53.1675841  15.6579404  12.6541589  53.0324841  14.3437891  13.0211473
  52.8159778  14.9610605  12.5883980  54.7841647  16.5540454  24.6643676
  54.8938613  15.7649015  25.0200423  55.1132544  16.4646391  23.8618014
  54.8494053  16.4246307  24.5986066  53.3338609  14.7357075  19.2479296
  52.7859555  14.1114959  18.9799362  53.7951638  14.9251347  18.5323376
  53.3205818  14.6716125  19.1029727  43.0853163  13.4742203  14.5626400
  43.6898020  13.4338037  13.9340221  42.8780476  14.3213355  14.5930456
  43.1442060  13.5930205  14.4742517  52.8996935  15.7408148  15.7788638
  53.7195309  15.5971114  16.0404933  52.6191013  16.3654347  16.3205075
  52.9793679  15.8118500  15.8976577  38.3204445  12.4576820  14.4325323
  38.2228723  11.6473092  14.7415380  39.1033315  12.4368614  14.0471591
  38.4220582  12.3343910  14.4212186  62.5710270  22.4848651  13.4984444
  61.7148166  22.6457149  13.5493561  62.6177924  21.6140715  13.5189505
  62.4509382  22.3799452  13.5090510  56.9551410  32.0211368   9.2621676
  56.2034310  31.6426907   9.0337721  57.4037422  32.0529802   8.5140486
  56.9101077  31.9696976   9.1179178  65.8803987  28.7535176  23.1044900
  66.5870754  28.2587207  23.2331835  66.0691922  29.1944258  22.3747558
  66.0131893  28.7453527  23.0153946  62.4076370  32.4436738   4.6907223
  62.0727738  33.1213660   4.2551445  62.9203240  32.0542049   4.1024095
  62.4341951  32.4861316   4.5394014  61.9480661  34.3951007  10.6318335
  62.3320041  34.9637905  10.0923110  61.8839802  33.6700517  10.1524151
  61.9954088  34.3726470  10.4812197  65.4162091  24.5440695  16.1416096
  65.9618051  25.2225781  16.2010066  65.3578968  24.4028155  15.2817677
  65.4878006  24.6232696  16.0228157  58.5336166  32.0329761  11.5284448
  58.6346529  31.2230115  11.8381576  57.9377912  31.9386707  10.8984127
  58.4608705  31.8994789  11.4810687  67.1927160  25.9725302   7.0149824
  67.0766686  26.7232988   7.4441962  67.9883047  25.7149255   7.2645911
  67.2931749  26.0460149   7.1153915  58.3736906  36.9507350  12.9299304
  59.0174361  37.3920514  13.3195463  58.6993161  36.1460776  12.8429563
  58.5168735  36.8972545  12.9744782  51.7301211  28.0550047  11.1536782
  51.4951395  27.2217700  11.0469051  51.8686851  28.3354713  10.3397983
  51.7156873  27.9733551  11.0179137  54.0291298  20.2235778  14.0521090
  53.4096330  19.6328425  13.8831105  53.9275162  20.8147213  13.4185413
  53.9228973  20.2239860  13.9326079  59.0757486  29.9619325   8.3019166
  59.3973327  30.5024532   7.6980474  59.7229582  29.3916096   8.4341456
  59.2183541  29.9578500   8.2326201  53.7560431  23.7688059  16.2964659
  53.6319128  24.3550505  16.9314478  54.4078716  23.2748255  16.5976934
  53.8334080  23.7826864  16.4350588  61.3147129  28.3505765   8.3733344
  61.7540764  27.7422865   8.8188117  61.1651792  27.9713138   7.6018809
  61.3568595  28.2044236   8.3252512  58.7818772  26.9449776  15.5752170
  59.4267775  26.4522220  15.2563118  59.0220549  27.0874563  16.4018248
  58.9129357  26.8927219  15.6501703  61.3204863  29.7904682  15.2259062
  61.6028106  28.9956088  15.0045818  62.0491024  30.2685270  15.2464123
  61.4694427  29.7439279  15.1962078  59.2986057  17.3327716  12.4674827
  58.9689387  17.7838860  11.7978526  58.6231059  17.2543880  13.0147834
  59.1496494  17.3878851  12.4498051  64.9156466  26.7032946   5.3264114
  64.8307761  27.5593913   5.4713682  65.4040849  26.4277270   5.9946273
  64.9745363  26.7890267   5.4466195  65.8474899  23.3217740   6.8261849
  65.3186370  23.5377374   7.4859155  66.3699919  24.0153879   6.7462818
  65.8463352  23.4560877   6.9117448  71.3022952  28.8964044  12.1994893
  70.4720655  29.1074688  12.3628310  71.2532204  28.0701099  11.9237177
  71.1729687  28.8053651  12.1832259  57.7374507  27.2180957   5.6269317
  57.1531722  27.7230988   6.0335181  57.3344602  26.9923344   4.8865909
  57.5913810  27.2589205   5.5774342  53.2918535  32.9335718  12.4292988
  52.8086113  33.6586208  12.4052572  54.1041853  33.2311848  12.5403146
  53.3409283  33.0838072  12.4420267  59.3632689  31.7267899  15.0342803
  58.8459631  31.3675314  14.4304111  60.0607081  31.2030073  15.0448869
  59.3898270  31.5965587  14.9473061  63.0196281  32.1762713  20.9958976
  63.1079627  31.9888853  21.8437186  63.4485994  31.5300142  20.5963822
  63.0958384  32.0525720  21.0630727  60.5866741  31.4593873  19.9776638
  60.0237576  31.0466483  20.5016299  61.3487765  31.3846778  20.3969781
  60.6161190  31.3871273  20.1169638  57.5042011  15.3940005   7.9497775
  58.2587979  15.7618322   7.7114825  57.3269546  15.7679559   8.7176955
  57.5896490  15.5038193   8.0282664  56.1462732  33.4491894  12.5813268
  56.8483312  32.9343883  12.6386025  56.0660216  33.7766045  13.3860143
  56.2386493  33.4206120  12.7086060  70.7976910  21.5434445  15.9945315
  69.9605331  21.6136632  16.2292909  70.7665141  21.5458940  15.1219617
  70.6695192  21.5544672  15.9004862  57.1941639  23.6867481  21.7093683
  57.3662143  23.5773375  22.5578965  57.7310997  24.3321886  21.4724875
  57.2986643  23.7659482  21.7998780  55.8599076  17.8010324   4.6475888
  55.6774649  18.0182204   3.8216881  56.7224689  17.9149336   4.7034503
  55.9603665  17.8500222   4.5330375  55.4713508  29.6398246  12.0898876
  56.3102407  29.8721179  12.1372638  55.5025277  28.7702557  12.0205911
  55.5995225  29.5455192  12.0863521  56.0966211  30.0599121  16.3912182
  56.6364436  29.9170252  17.0615554  55.4136157  30.4595872  16.7596208
  56.0758365  30.0978792  16.5446603  65.5207096  25.7390122  11.5857206
  66.2764611  26.1721636  11.6246115  65.6269420  25.0894891  12.1591842
  65.6477266  25.7067606  11.6755232  68.5587267  29.5663399  12.3359609
  68.1222499  29.5700141  13.0918580  68.2250182  30.2468898  11.9039186
  68.4449887  29.6675855  12.3840442  63.1316341  31.6071732  23.6602759
  63.9156757  31.7202580  24.0258501  62.9312935  30.7812869  23.8561445
  63.2182366  31.5018451  23.7437145  51.5003356  26.2799412  16.5446603
  51.2341771  25.4638529  16.7037593  51.5141920  26.3252567  15.6742119
  51.4628078  26.1656317  16.4400085  68.4784750  16.6077227  14.5789037
  69.1210658  16.6775331  15.1650952  68.7307771  15.9406450  14.0768579
  68.6106882  16.5203575  14.5916316  55.4061103  21.0784496   3.1598361
  54.6919280  20.7922676   3.5720794  55.8905072  21.4181122   3.8004749
  55.3720466  21.0866146   3.3153996  56.2501962  19.8177790  19.1913611
  55.5573759  19.3474770  19.4374342  56.8662290  19.5916095  19.7655318
  56.2386492  19.7144922  19.3122763  63.2886734  33.5181834  17.3069215
  62.4901980  33.2781334  17.5643083  63.7372745  33.5696227  18.0536263
  63.2361345  33.4904225  17.4554139  71.6931613  26.2844319  11.2279246
  72.3548047  25.7234987  11.1275155  71.0523025  25.7896350  11.5531937
  71.6960481  26.1280728  11.2611586  62.5808421  29.5814450   3.5360169
  62.9959569  29.2499474   2.8444665  61.7500350  29.3483352   3.4080306
  62.5196430  29.4985706   3.4151017  51.9096770  27.0658191  13.8258347
  51.7272343  27.0405077  12.9730640  52.6446439  27.5357129  13.8647256
  51.9910834  27.1319553  13.7056266  67.9796444  27.3009701  10.9691235
  68.2152033  27.4454900  10.1418086  68.1286007  28.0652109  11.3622749
  68.0362247  27.4348756  10.9054839  54.9742521  23.7843194  20.3340456
  55.6982494  23.7696225  20.8205351  55.0758658  24.4938549  19.8362424
  55.0960730  23.8867897  20.3319243  69.8086901  26.1411367   8.8060839
  70.1395118  26.6739007   8.2000934  70.3819989  26.1950255   9.4622790
  69.9420580  26.2280936   8.8138621  62.3487471  27.2642279  25.1989403
  61.5560452  27.5785791  25.3842023  62.4636398  27.4793747  24.3610188
  62.2482881  27.3426115  25.1027738  65.0218790  23.9876270   9.4884419
  65.1165644  24.7265564   9.9424044  64.3977633  23.5593745   9.9218983
  64.9427820  24.0337590   9.6192566  63.2771264  27.1662482  20.1374700
  63.8510125  26.5289727  20.2923264  63.1986067  27.1666565  19.2684357
  63.3504498  27.0727594  20.0321111  51.8767680  23.9451692  13.9757414
  52.4541183  23.8088143  14.6149659  51.1781742  23.4887476  14.2302998
  51.8588701  23.8573958  14.1079704  58.6334982  25.5985748  12.1895897
  58.3754226  24.7657482  12.1627197  58.6883465  25.8243361  11.3488398
  58.6034760  25.5083519  12.0616034  63.7136032  17.7014198  12.2899990
  63.0092359  17.2123384  12.4483909  63.7621007  17.7136673  11.4188434
  63.6166084  17.6303846  12.1839330  57.6069694  23.1523510  12.6760792
  57.0319286  23.3115678  13.3124753  57.2305371  22.5158919  12.2129243
  57.4672507  23.0821323  12.7015350  61.2742983  21.6246859  17.5353170
  60.8857416  21.2001077  16.8805362  60.6097681  21.8729009  18.0430197
  61.1189911  21.5985580  17.5141038  47.3526513  22.7963585  10.6905233
  47.4386765  22.4195453  11.4718763  47.9802311  22.4224030  10.2125191
  47.4583064  22.6849067  10.7350710  65.0969344  15.3221488  15.0477155
  65.4779856  14.6399659  15.4345029  64.2932629  15.0331090  14.8652819
  65.0345806  15.1788537  15.0781211  62.3781921  25.8545464   5.7329977
  63.1922560  26.1460357   5.6212749  62.3141062  25.2005326   5.1588270
  62.4884660  25.8010659   5.6318815  68.5991411  28.5371460  20.1459553
  68.3630049  27.7059525  20.0271614  69.2434640  28.4857067  20.7314397
  68.6586082  28.4069148  20.2145447  58.2489829  29.3266981  10.8602289
  58.8863776  29.0878729  11.4054083  58.6744901  29.5304140  10.1255450
  58.4065996  29.3217992  10.8319447  52.9402472  31.5655318  14.7436593
  52.9806617  31.8370169  13.9156373  53.4996996  32.0897226  15.1594381
  53.0285818  31.6831073  14.6828481  58.8892644  24.5469271   5.1977179
  59.2737797  24.3276978   5.9493724  58.6404265  25.3732217   5.3278255
  58.9094717  24.6367417   5.3278255  59.0561185  17.8275686  24.9139763
  58.7414626  18.5975249  24.6509326  58.7351117  17.2645942  24.3291990
  58.9620104  17.8585955  24.7881113  69.6227832  28.3215909  16.2087848
  69.3173649  29.0543966  16.5701163  68.9034048  27.9153838  15.9280634
  69.4715174  28.3697642  16.2200985  60.6311301  29.8039404  12.5396076
  60.7050310  29.6414576  13.3937926  61.4480808  29.9929594  12.2956557
  60.7627660  29.8076146  12.6294101  75.3229624  24.9608910  15.5356192
  75.2554124  24.9804869  14.6658778  75.3085287  25.8039237  15.7611862
  75.3108381  25.0882644  15.4408669  54.3917058  30.1497267   9.5690519
  53.5655176  30.3959004   9.4424798  54.4529049  30.0709348  10.4352577
  54.2791225  30.1742216   9.6779464  56.6093082  16.2166208  10.5285959
  55.7415507  16.2888807  10.5943569  56.8968286  17.0188287  10.7173934
  56.5232830  16.3460355  10.5660726  65.7325971  16.3644067  18.8597281
  66.4779563  16.1753878  18.4460707  65.3163275  16.8902305  18.3011138
  65.7810945  16.4146213  18.7161854  59.1715887  32.7674147   7.2709549
  59.4614186  32.3763128   6.5468776  59.9019368  32.9490852   7.7114824
  59.3222771  32.7367961   7.2292356  73.1088241  23.7353296  13.8102786
  73.6596163  23.1021365  14.0499878  73.0932357  24.2668689  14.5018290
  73.1873438  23.7202244  13.9481644  59.7610632  27.5691893  18.3562680
  59.2622326  28.2807661  18.4347568  60.5710857  27.8892560  18.3180842
  59.8066739  27.7218742  18.3619248  57.1121803  34.7441529  10.3369699
  56.8922098  34.4538884  11.1296366  56.8916325  34.0856485   9.8087611
  57.0469397  34.6041238  10.3758608  56.0238750  26.8314846  12.6025400
  55.7351999  26.2052317  13.1371128  56.8922098  26.7735133  12.6690081
  56.1099002  26.7302390  12.6916355  66.8116648  21.9749629  12.9207382
  66.4681414  21.2539965  13.2714632  66.9109690  21.7663481  12.0785741
  66.7758691  21.8373833  12.8479062  59.2789758  36.1170919   9.1200391
  59.9313816  35.5847362   9.3491417  58.5815367  35.7639572   9.5068265
  59.2720476  35.9860442   9.2112559  56.2271023  28.4710097   8.5267766
  56.9816991  28.8523136   8.7403228  55.6341636  28.9221241   8.9814462
  56.2507737  28.5938924   8.6250644  67.2729677  28.4375333   8.4631370
  67.8387709  29.0968543   8.3789913  66.6257580  28.7825032   8.9347773
  67.2608433  28.5857275   8.5204127  58.6877690  20.4272937  23.6524978
  57.8777466  20.7330717  23.5414820  59.1652377  21.1478520  23.7677562
  58.6381169  20.5787539  23.6532049  57.5469250  29.6418658  13.9007881
  57.0250003  29.7818950  14.5859746  57.9343270  28.8829323  14.0909998
  57.5272951  29.5504182  14.0308957  54.5360434  19.6924467   7.9702836
  54.2485230  19.3225738   7.2334783  55.2230902  20.1619322   7.7086541
  54.5949331  19.7071437   7.8217911  63.7436255  31.3814118   7.8868450
  63.5022931  30.6481978   7.4795515  63.9237588  31.9300975   7.2334783
  63.7343879  31.3536509   7.7298673  58.9735575  26.6722677   9.2989372
  58.7778358  27.2797412   8.7049675  59.1969921  25.9790621   8.8181046
  58.9770217  26.6600203   9.1405453  57.3714106  23.5577415   9.4170240
  58.0936757  23.7218573   8.9574046  56.8922098  24.2787080   9.3109580
  57.4077836  23.6875645   9.3335854  65.3307613  19.8941214  14.7966925
  64.4918714  19.9202493  14.5605189  65.4011980  20.5411950  15.3772272
  65.2176007  19.9937340  14.8476042  55.0221722  25.9635488  18.5224380
  55.5342819  26.2419741  17.8733140  54.7358065  26.7024782  18.8887193
  55.0556585  26.1137841  18.4814258  69.2065137  25.1009201  12.0828167
  69.1199111  25.2564627  12.9362946  68.7515617  25.7447276  11.7087572
  69.1268394  25.2184956  12.1535274  52.1088629  20.4705680   8.8188117
  52.2104765  21.2731841   9.1469092  52.9044515  20.2693016   8.5211197
  52.2416534  20.5591578   8.8223472  58.5405448  18.0561876  18.5825422
  58.3488645  18.0717011  19.4324845  59.3904044  18.2525551  18.5592077
  58.6381170  18.0876228  18.7048717  52.9252361  20.5852858  16.5609238
  52.7837852  19.7336798  16.6853746  53.2092924  20.6281518  15.7371444
  52.9460207  20.4652608  16.4576862  63.0790953  22.4219948  10.7053727
  62.8325667  22.3415699  11.5390515  63.4076076  21.6373416  10.5116254
  63.0912197  22.2946213  10.8001250  66.9739002  29.1303307  14.4940508
  66.8353361  29.8284353  14.9989250  66.1939000  28.9751964  14.1376690
  66.8382229  29.2103474  14.5166782  65.3117087  25.4299683  20.7462889
  65.3065125  24.5579499  20.7505316  66.0178081  25.6287852  20.2732345
  65.4162091  25.3303557  20.6769925  59.0387980  25.1576667  20.1176710
  59.1831356  25.7377875  19.4819820  59.3863629  25.5352963  20.8226564
  59.1115442  25.2997371  20.1275705  61.2107898  24.3566835  17.9001841
  60.4631212  24.5497849  17.4950119  61.3649423  23.5312055  17.6625962
  61.1230325  24.2631946  17.8047247  58.1115735  33.3479438  16.9837736
  58.2605299  32.7882354  16.3311141  58.8915737  33.4271440  17.3670255
  58.2489829  33.2765004  16.9434686  60.6369036  33.5194081  18.2622227
  60.5612707  32.8502892  18.8173016  60.5658895  34.2211869  18.7762893
  60.6149643  33.5238989  18.4199075  61.4509675  18.2517386  18.7897245
  61.9082289  18.9841360  18.9170037  61.5266003  17.8283851  19.5484501
  61.5300644  18.2974624  18.9198321  53.6942666  18.4983205  19.8786689
  53.1584855  17.8863564  20.1947456  53.7560431  19.0731341  20.5320355
  53.6238299  18.4930133  20.0222115  61.2939283  32.0395080   9.0945833
  62.0589174  31.7704724   8.7728497  61.1917373  31.5545091   9.8115896
  61.3920778  31.9284645   9.1525661  59.3292053  20.2419490  15.6339069
  58.5388127  20.0610950  15.9556405  59.7252675  19.4646442  15.6169363
  59.2708929  20.1006951  15.6791617  64.7135739  27.8761920  13.3598515
  64.0380741  27.6447152  13.8611902  64.7228115  27.2683103  12.7340620
  64.6154243  27.7520845  13.3414667  61.8429883  22.7179749  20.1162568
  61.7789024  23.5789705  19.9882705  61.9827071  22.4011742  19.3158119
  61.8545353  22.7979915  19.9790781  66.7152473  30.7327052   5.5908693
  66.7972311  31.5394038   5.2670144  67.2002216  30.7523011   6.3149466
  66.7989631  30.8547715   5.6495591  60.5248977  25.4111888  14.2578771
  60.1011226  25.6116387  13.5217789  60.3493832  24.5640736  14.3703071
  60.4359857  25.3160670  14.1652461  60.0260670  36.9262401  16.7200228
  60.5156600  36.2273190  16.5375893  59.4544902  36.6286271  17.3076285
  60.0145200  36.7788625  16.7801269  55.8131422  25.9063940   9.6906743
  55.9696041  25.8410742  10.5462735  56.1532015  26.6812492   9.4785423
  55.8864657  26.0113138   9.7861337  62.3510566  25.2821823   8.5600107
  62.8926112  24.7792204   9.0238727  62.6657125  25.2287018   7.7489592
  62.4774963  25.2001244   8.5083919  66.2227674  29.4924470  25.6727019
  67.0362539  29.2209619  25.8332151  66.0622640  29.1932010  24.8687215
  66.3197622  29.4079396  25.5772425  60.5197016  30.6739175   5.8440135
  60.5889836  29.8153713   5.9833135  61.2985471  30.8911056   5.5159159
  60.6449866  30.5792039   5.8157292  63.4999836  20.1758128  18.6122407
  63.7141805  19.5369042  18.0585761  62.8833735  20.6203951  18.1830269
  63.4405165  20.1468271  18.4672838  64.9104504  33.0976876  10.0576628
  64.5184295  32.7943591   9.3399494  65.0657576  33.9345966   9.8681582
  64.8758093  33.1760713   9.9233125  52.3865683  23.0898890  10.0067510
  52.7664648  23.5083435   9.3427778  51.8121048  23.6712346  10.3136354
  52.3577008  23.2376749   9.9544251  65.6638924  21.7847193  19.5505714
  64.8515605  21.4773083  19.6318887  66.1228858  21.3046193  20.1148426
  65.6119308  21.6683685  19.6460308  65.0744178  29.6626865   9.9982658
  64.7158833  29.8341508  10.7746691  64.5882889  30.1240070   9.4410657
  64.9502875  29.7565836  10.0307928  62.8914564  13.2858063  13.6009750
  62.0208122  13.2596784  13.5543059  63.1454906  13.1135255  12.7835595
  62.8008124  13.2568207  13.4729887  59.8632544  25.3426030   2.5382893
  60.1525069  26.1190913   2.8126467  59.9504343  24.8314762   3.2397392
  59.9186800  25.3817949   2.6825391  62.7592431  23.1907264  24.3334416
  63.2292062  23.8149381  24.7202290  62.8054311  22.5224240  24.8927631
  62.8360307  23.1841945  24.4734488  59.9163705  15.2964292  15.0583220
  59.4002193  14.6044483  15.1834799  59.3557634  15.9635069  15.0045819
  59.7570218  15.2927549  15.0689286  61.9855938  15.8357252  16.8876073
  61.5987691  15.8606283  17.6689603  61.4988876  15.2698930  16.4350589
  61.8568447  15.7553003  16.9363976  66.2348918  30.5530761  20.9449859
  66.8728638  30.0590956  20.6112315  65.5923009  30.4808161  20.3602086
  66.2343144  30.4689769  20.8092214  67.9605918  22.4019907  15.5115775
  67.5333526  22.3146255  14.7563874  67.3231971  22.5097682  16.0970619
  67.8035525  22.4052567  15.4861216  61.6513080  12.7224237  19.1786333
  62.2806198  13.2584537  18.9007403  61.8198943  12.6301596  20.0299898
  61.7690875  12.7885599  19.2634861  61.4526995  17.5095432  21.4512744
  62.2800424  17.2380581  21.5071359  61.4734841  18.3056274  21.8076562
  61.5779845  17.5875186  21.5127927  66.2903174  31.2450569  17.5855216
  67.0795552  30.8939634  17.7057298  66.4646772  32.0586957  17.3231850
  66.4323456  31.3136426  17.5643084  56.0296485  24.6559295  14.6383005
  55.1884491  24.5563169  14.8461899  56.2386493  25.4254775  14.9897326
  55.9361177  24.7551338  14.7210320  53.5072052  22.2778832  12.4667756
  53.1128749  22.3521844  11.6917865  52.9512169  22.6636778  13.0176117
  53.3674864  22.3460606  12.4335415  65.1436998  15.2560126  12.1471634
  65.3486592  15.1882434  12.9928632  64.8163422  16.0618947  12.0792812
  65.1252246  15.3646066  12.2631290  59.8413150  22.5840694  13.8880602
  59.5376287  22.0296682  14.4891010  59.1392570  22.7632904  13.4008637
  59.6929359  22.5285476  13.9050308  58.8979247  19.8941214   8.4525304
  59.1738981  19.1760126   8.0402872  59.4977916  20.4926134   8.2446410
  59.0272511  19.8761584   8.3606065  57.9031501  29.7990415  18.5952700
  57.7951856  29.8092477  19.4614758  58.1127282  30.6245195  18.4057654
  57.9181612  29.9231489  18.6956792  55.9205293  27.0503057  16.0574638
  55.3293226  27.6912555  16.0277653  56.6826316  27.4740674  16.0305937
  55.9453553  27.2078895  16.0489785  56.3165915  18.2105055  16.7242655
  56.7767397  18.2843984  17.4617779  56.3622022  19.0086309  16.3742477
  56.3916471  18.3399202  16.7815412  57.9649265  18.8771750  21.2914682
  57.5734830  18.2305097  21.7270460  58.1335128  19.4683185  21.9108938
  57.9320175  18.8686018  21.4477388  72.0395714  26.8808827  17.0551916
  72.0978838  27.3295475  17.8011893  71.4062182  27.2907640  16.6181996
  71.9547009  27.0082561  17.1004464  65.6794809  32.5012369  13.4906662
  65.4814497  32.9903183  12.7962874  65.0582520  32.7053610  14.0690796
  65.5582373  32.6028907  13.4729885  59.7402787  24.2697265   7.8316906
  60.4844832  24.6571542   8.0699856  59.8863483  23.4254691   7.9957394
  59.8713372  24.2027738   7.8910876  61.6582363  16.0647524  12.8648768
  60.8118408  16.2370332  12.7390118  61.6553495  15.2596868  13.2014596
  61.5329513  15.9708553  12.8959895  62.7280663  19.8422739  13.7310826
  62.2540617  19.3164501  14.2416137  63.0998799  19.2952212  13.1625687
  62.7130552  19.6838735  13.7225973  53.1053693  21.8394245  19.0994372
  53.9679306  21.7389955  19.0131701  52.7745476  21.2588955  18.5379944
  53.1838890  21.7385872  19.0039777  68.9917394  24.9025114  15.1417606
  68.7515617  24.0631530  15.1460033  69.4709401  24.9825281  15.8658380
  69.0269577  24.7906514  15.2492409  70.9922581  21.6826572  13.0946865
  70.7532351  21.6422406  12.2567650  71.1556482  22.5297724  13.2212587
  70.9812884  21.8018657  12.9900347  67.5968611  26.0676521  19.0251911
  68.3202810  25.6149047  18.8462931  67.3318573  26.3481187  18.2424238
  67.6649884  26.0427489  18.8830626  56.4655479  20.6636694  15.7604790
  55.8408549  20.6755086  15.1530742  56.1301074  21.1396870  16.4096030
  56.3240971  20.7355211  15.7661358  56.6497228  19.0061813   1.8177475
  56.3010032  19.6581538   2.2809024  56.1693674  18.9918926   1.0901346
  56.5267472  19.1004867   1.7788566  53.1781155  28.7237155  17.2008554
  52.6481079  28.0329593  17.2503529  53.4506248  28.7147340  16.3721263
  53.1405877  28.6204286  17.0855970  64.2101245  29.3062857   5.9246237
  64.9335444  29.7720970   5.7810810  63.7701836  29.3736467   5.1743834
  64.2516937  29.3846694   5.7931018  63.3787400  26.1660399  17.1746926
  62.7644393  25.6218449  17.4695561  63.8954685  25.6524636  16.6952742
  63.3643063  26.0096808  17.1471154  62.6183697  27.2364669  14.9091224
  62.1911305  26.6114388  14.4756660  62.6108642  26.9539591  15.7350232
  62.5542839  27.1017450  14.9671052  55.7346225  22.2729842  17.9779658
  55.8939711  21.5173166  18.3831380  55.5539118  22.8220782  18.6320396
  55.7311584  22.2423656  18.1342364  63.6766528  14.4391078  18.5330448
  63.1807089  14.6354752  17.8422014  64.4335590  14.8383746  18.3619249
  63.7153352  14.5268812  18.4050585  60.9469407  18.1133424  15.1233758
  60.9711894  17.5793536  14.4346538  61.1980881  17.6050733  15.7859349
  60.9879326  17.9594328  15.1198403  48.4576997  25.3964919  14.5576902
  48.3520446  25.3511763  13.6928986  47.7077217  25.7418699  14.8391187
  48.3312600  25.4405827  14.4714232  57.2270729  16.8404242  14.5039503
  57.2669101  17.3413449  15.2174210  56.4020394  16.9314636  14.2345426
  57.1110255  16.9286058  14.5690041  59.4100342  26.4064982  22.6059797
  58.5595973  26.5436696  22.7417442  59.5728470  25.6728760  23.0507499
  59.3084206  26.3179083  22.6915396  58.6485093  23.3564752  16.8013402
  57.8177022  23.5238570  16.5948650  58.5936610  22.9800703  17.5862287
  58.5174508  23.3254483  16.8861930  56.4568876  16.8473645  22.4369812
  57.0821579  16.3035778  22.7099245  56.0019356  16.3668562  21.8677603
  56.4817137  16.6963126  22.3931406  57.0221137  21.6320343   7.3303519
  57.1624098  22.1292808   8.0332161  57.5203669  20.9306638   7.4717733
  57.1162218  21.6022322   7.4555098  57.0521359  22.4987454   4.6596096
  57.6866438  23.0947879   4.5945558  57.1346970  22.1990912   5.4741966
  57.1577910  22.5428363   4.7699183  70.0303925  25.0302932  17.5282460
  70.6221765  25.6700182  17.5600658  70.4662919  24.3325968  17.8174527
  70.1822356  25.0221282  17.5763293  58.6300342  18.4301430   4.6341538
  58.9516183  17.9504512   3.9800800  58.8927286  19.2401076   4.4432350
  58.7166367  18.4791328   4.5097030  61.8597315  29.4520304  18.1540354
  61.3522406  30.0056151  18.5980985  61.5623961  29.5128594  17.3359129
  61.7402200  29.5426615  18.0988811  64.0259497  17.8173624  16.9965017
  64.4514568  17.3646150  16.3848544  63.4116490  17.2633694  17.2729805
  63.9988142  17.6687600  16.9470042  53.5574347  24.6955295   7.9285642
  54.0666576  25.2919803   8.3096948  54.0308619  24.4281269   7.2462062
  53.7017723  24.7441111   7.8840165  64.4705095  33.3683562   6.0844298
  63.7534405  33.1944424   5.6191535  65.1211833  33.1336134   5.5519784
  64.4606945  33.3079354   5.9373516  62.4653720  14.2888724  10.4055594
  61.8222038  14.1386370  10.9740733  62.1253127  14.0431069   9.6404699
  62.3198797  14.2300846  10.3758609  67.0553066  22.2448150   9.8285603
  66.3844256  22.7877853   9.6998668  67.7492816  22.7143006   9.5867298
  67.0581934  22.3946422   9.7741131  61.1039800  34.3844862  15.0597361
  60.8805454  33.6263692  15.4281387  60.6149643  34.4142884  14.3377801
  60.9983249  34.2767087  15.0074102  67.2181194  18.7004034  12.7375976
  67.5708804  18.2733757  13.4121775  66.3595995  18.6154878  12.8677052
  67.1430638  18.6248775  12.8570986  55.9164879  21.3311554  10.7958823
  55.1976868  21.7475686  11.0631686  56.2877241  21.8965792  10.2450461
  55.8656810  21.4760835  10.7541630  65.2164459  21.9639403  16.6860818
  65.1962387  21.7822698  17.5395597  65.2643660  22.8351421  16.6620402
  65.2199100  22.0655941  16.8084113  63.1610789  28.5526595  22.6109295
  63.1206644  27.9076272  22.0254451  63.9734108  28.4963212  22.9234707
  63.2753943  28.4485561  22.5706244  59.7518257  34.6045320  12.5134446
  59.3378655  33.9419451  12.1238287  60.4365631  34.7523179  11.9930140
  59.7916629  34.5285979  12.3790943  63.1183551  33.7635406  13.2658062
  62.7199834  33.8737676  12.4978883  62.5034771  33.9717472  13.8484622
  62.9682440  33.8108974  13.2389362  61.6911453  20.3709554   6.1332202
  61.0976292  20.6926550   5.5816769  61.7286731  19.5250649   5.9253308
  61.6085842  20.2933882   6.0214973  64.5669270  20.3289058   9.5633952
  64.3382963  20.3521760   8.7212310  64.8267346  19.5046525   9.6828963
  64.5715458  20.2105138   9.4559150  58.8488498  22.1823531  19.1659052
  58.3367401  21.5744714  19.5244084  58.6767994  22.8980124  19.6333028
  58.7478135  22.1986830  19.2875276  53.6954213  20.6261106  21.8161414
  53.5256803  21.2862481  21.2709621  53.2520163  20.8367668  22.5373903
  53.6053546  20.7547089  21.8423044  57.6214032  18.8665604  10.8588148
  58.0971398  19.2282684  10.2238329  57.1202632  19.5222072  11.1388291
  57.6179391  19.0159793  10.8064889  62.7257568  20.1047776  21.6061308
  63.2828998  19.8761585  20.9739773  62.4018633  20.8653441  21.3296520
  62.7603978  20.1831612  21.4717805  50.5956277  23.5307972  17.0749904
  50.0482997  22.8608618  17.1930772  51.3848655  23.1637820  17.1393371
  50.6308461  23.3772958  17.1018605  60.4440686  23.1915429  22.5713315
  61.1952013  23.5067106  22.8852869  60.6363262  22.9894600  21.7447237
  60.5832100  23.2082811  22.4956711  59.6640685  21.0106804   4.2261532
  60.0439650  21.0286433   3.4412647  58.9233281  21.4560793   4.1052379
  59.6109523  21.0788579   4.0925100  49.3543247  22.7428780  14.2295927
  49.1765008  22.2905389  14.9550843  49.0662269  23.5454941  14.4134405
  49.2856200  22.7951338  14.3639430  65.0166828  23.9986497  13.4673317
  65.5120493  23.2809492  13.4277338  64.2066604  23.6957295  13.3527804
  64.9710721  23.8484143  13.4447043  60.4625439  27.8484310   5.6170322
  59.6536762  27.5250984   5.5703631  60.9700348  27.1417533   5.5498571
  60.4175106  27.6965627   5.6000616  51.0915717  25.2756504  11.3417686
  50.2261236  25.2642194  11.2300457  51.1914532  25.0886726  12.1888825
  50.9789884  25.2462565  11.4506631  67.0818647  26.7490185  16.1550446
  67.5073718  26.2264607  15.6020871  66.7175566  27.3471022  15.6339069
  67.0905249  26.7600412  15.9959456  56.7172726  35.0454402  14.9147792
  57.0319285  35.8590791  14.9225573  57.1266140  34.6604621  15.5829951
  56.8240824  35.1083105  15.0151883  63.6697246  30.4624449  12.4851604
  64.1408424  31.1764712  12.6541589  64.0057425  29.8623199  13.0211473
  63.7892361  30.4795913  12.5883980  65.7574231  32.0725762  24.6643676
  65.8671196  31.2834323  25.0200423  66.0865127  31.9831699  23.8618014
  65.8226636  31.9431615  24.5986066  60.5866741  15.2351920  19.4409699
  60.7194647  14.4382913  19.7690674  60.9711894  15.7618323  20.0207974
  60.6623070  15.1951836  19.5753201  64.3071192  30.2542383  19.2479296
  63.7592138  29.6300267  18.9799362  64.7684221  30.4436655  18.5323376
  64.2938402  30.1901433  19.1029727  63.6599096  12.1582246  16.0390792
  62.8545060  12.0479975  16.3558630  63.5305832  12.2594701  15.1820658
  63.5219229  12.1565916  15.9598832  67.1165057  18.3227738  16.6330489
  66.5328046  18.8236944  16.2208056  67.4369351  17.8157294  15.9994812
  67.0778232  18.3219573  16.4788996  59.6559856  17.2368332   6.9089163
  60.4775550  17.4066645   6.6670858  59.1929507  17.3915593   6.1855461
  59.7091018  17.2850065   6.7660808  58.2455188  15.2311095  17.6887592
  58.7899601  14.8902221  18.2791934  58.2992124  16.0896556  17.8308877
  58.3344307  15.3066354  17.7969466  54.0585747  28.9927511  14.5626400
  54.6630604  28.9523345  13.9340221  53.8513059  29.8398663  14.5930456
  54.1174644  29.1115513  14.4742517  63.8729519  31.2593456  15.7788638
  64.6927893  31.1156422  16.0404933  63.5923596  31.8839655  16.3205075
  63.9526262  31.3303808  15.8976577  49.2937029  27.9762128  14.4325323
  49.1961307  27.1658400  14.7415380  50.0765899  27.9553922  14.0471591
  49.3953165  27.8529218  14.4212186  73.5442854  38.0033958  13.4984444
  72.6880749  38.1642457  13.5493561  73.5910508  37.1326022  13.5189505
  73.4241965  37.8984760  13.5090510  67.9283994  47.5396676   9.2621676
  67.1766893  47.1612215   9.0337721  68.3770005  47.5715110   8.5140486
  67.8833660  47.4882284   9.1179178  76.8536570  44.2720484  23.1044900
  77.5603338  43.7772515  23.2331835  77.0424506  44.7129566  22.3747558
  76.9864476  44.2638834  23.0153946  76.3894675  40.0626002  16.1416096
  76.9350635  40.7411089  16.2010066  76.3311551  39.9213463  15.2817677
  76.4610589  40.1418004  16.0228157  69.5068750  47.5515069  11.5284448
  69.6079113  46.7415422  11.8381576  68.9110495  47.4572015  10.8984127
  69.4341288  47.4180097  11.4810687  69.3469489  52.4692658  12.9299304
  69.9906945  52.9105822  13.3195463  69.6725745  51.6646084  12.8429563
  69.4901318  52.4157852  12.9744782  62.7033794  43.5735355  11.1536782
  62.4683979  42.7403007  11.0469051  62.8419435  43.8540021  10.3397983
  62.6889457  43.4918858  11.0179137  65.0023882  35.7421086  14.0521090
  64.3828913  35.1513733  13.8831105  64.9007745  36.3332521  13.4185413
  64.8961557  35.7425168  13.9326079  72.0991777  37.4820627   8.3853553
  72.7971942  37.6608755   8.8775016  72.4144110  36.9590967   7.7623942
  72.2487114  37.4314400   8.3655563  64.7293015  39.2873367  16.2964659
  64.6051711  39.8735813  16.9314478  65.3811299  38.7933563  16.5976934
  64.8066664  39.3012172  16.4350588  72.2879713  43.8691073   8.3733344
  72.7273348  43.2608173   8.8188117  72.1384375  43.4898446   7.6018809
  72.3301178  43.7229544   8.3252512  69.7551356  42.4635084  15.5752170
  70.4000358  41.9707527  15.2563118  69.9953133  42.6059871  16.4018248
  69.8861941  42.4112527  15.6501703  72.2937447  45.3089990  15.2259062
  72.5760690  44.5141396  15.0045818  73.0223607  45.7870578  15.2464123
  72.4427011  45.2624587  15.1962078  70.2718641  32.8513024  12.4674827
  69.9421971  33.3024168  11.7978526  69.5963643  32.7729187  13.0147834
  70.1229077  32.9064159  12.4498051  64.2651119  48.4521026  12.4292988
  63.7818697  49.1771516  12.4052572  65.0774437  48.7497156  12.5403146
  64.3141867  48.6023380  12.4420267  70.3365273  47.2453207  15.0342803
  69.8192214  46.8860622  14.4304111  71.0339664  46.7215381  15.0448869
  70.3630854  47.1150895  14.9473061  73.9928865  47.6948021  20.9958976
  74.0812211  47.5074161  21.8437186  74.4218577  47.0485450  20.5963822
  74.0690967  47.5711028  21.0630727  71.5599325  46.9779181  19.9776638
  70.9970159  46.5651790  20.5016299  72.3220348  46.9032086  20.3969781
  71.5893773  46.9056581  20.1169638  68.4774595  30.9125313   7.9497775
  69.2320563  31.2803630   7.7114825  68.3002129  31.2864867   8.7176955
  68.5629073  31.0223500   8.0282664  67.1195316  48.9677202  12.5813268
  67.8215895  48.4529191  12.6386025  67.0392799  49.2951353  13.3860143
  67.2119076  48.9391428  12.7086060  68.1674223  39.2052789  21.7093683
  68.3394726  39.0958683  22.5578965  68.7043580  39.8507194  21.4724875
  68.2719227  39.2844790  21.7998780  66.8331659  33.3195632   4.6475888
  66.6507233  33.5367512   3.8216881  67.6957273  33.4334644   4.7034503
  66.9336249  33.3685529   4.5330375  66.4446091  45.1583554  12.0898876
  67.2834991  45.3906487  12.1372638  66.4757861  44.2887865  12.0205911
  66.5727809  45.0640500  12.0863521  67.0698794  45.5784429  16.3912182
  67.6097019  45.4355560  17.0615554  66.3868741  45.9781180  16.7596208
  67.0490948  45.6164100  16.5446603  76.4939679  41.2575430  11.5857206
  77.2497194  41.6906944  11.6246115  76.6002004  40.6080199  12.1591842
  76.6209850  41.2252913  11.6755232  74.1048924  47.1257040  23.6602759
  74.8889341  47.2387887  24.0258501  73.9045519  46.2998177  23.8561445
  74.1914949  47.0203759  23.7437145  62.4735940  41.7984720  16.5446603
  62.2074355  40.9823836  16.7037593  62.4874504  41.8437875  15.6742119
  62.4360662  41.6841625  16.4400085  66.3793687  36.5969804   3.1598361
  65.6651864  36.3107984   3.5720794  66.8637655  36.9366430   3.8004749
  66.3453050  36.6051454   3.3153996  67.2234546  35.3363098  19.1913611
  66.5306343  34.8660078  19.4374342  67.8394873  35.1101403  19.7655318
  67.2119076  35.2330230  19.3122763  74.2619317  49.0367142  17.3069215
  73.4634563  48.7966642  17.5643083  74.7105329  49.0881535  18.0536263
  74.2093929  49.0089533  17.4554139  62.8829353  42.5843499  13.8258347
  62.7004926  42.5590385  12.9730640  63.6179022  43.0542437  13.8647256
  62.9643417  42.6504861  13.7056266  65.9475105  39.3028502  20.3340456
  66.6715077  39.2881533  20.8205351  66.0491241  40.0123857  19.8362424
  66.0693314  39.4053205  20.3319243  73.3220054  42.7827587  25.1989403
  72.5293035  43.0971098  25.3842023  73.4368981  42.9979055  24.3610188
  73.2215465  42.8611423  25.1027738  75.9951373  39.5061578   9.4884419
  76.0898228  40.2450872   9.9424044  75.3710217  39.0779053   9.9218983
  75.9160403  39.5522898   9.6192566  74.2503847  42.6847790  20.1374700
  74.8242709  42.0475035  20.2923264  74.1718651  42.6851873  19.2684357
  74.3237082  42.5912902  20.0321111  62.8500264  39.4637000  13.9757414
  63.4273766  39.3273451  14.6149659  62.1514325  39.0072784  14.2302998
  62.8321285  39.3759266  14.1079704  69.6067566  41.1171056  12.1895897
  69.3486810  40.2842790  12.1627197  69.6616049  41.3428669  11.3488398
  69.5767344  41.0268827  12.0616034  74.6868616  33.2199506  12.2899990
  73.9824943  32.7308692  12.4483909  74.7353590  33.2321981  11.4188434
  74.5898667  33.1489154  12.1839330  68.5802278  38.6708818  12.6760792
  68.0051869  38.8300986  13.3124753  68.2037954  38.0344227  12.2129243
  68.4405090  38.6006631  12.7015350  72.2475567  37.1432167  17.5353170
  71.8589999  36.7186385  16.8805362  71.5830265  37.3914317  18.0430197
  72.0922494  37.1170888  17.5141038  58.3259097  38.3148893  10.6905233
  58.4119349  37.9380761  11.4718763  58.9534894  37.9409338  10.2125191
  58.4315648  38.2034375  10.7350710  76.0701928  30.8406796  15.0477155
  76.4512440  30.1584967  15.4345029  75.2665212  30.5516398  14.8652819
  76.0078390  30.6973845  15.0781211  69.2222413  44.8452289  10.8602289
  69.8596360  44.6064037  11.4054083  69.6477485  45.0489448  10.1255450
  69.3798579  44.8403300  10.8319447  63.9135055  47.0840626  14.7436593
  63.9539201  47.3555477  13.9156373  64.4729579  47.6082534  15.1594381
  64.0018401  47.2016381  14.6828481  69.8625228  40.0654579   5.1977179
  70.2470381  39.8462286   5.9493724  69.6136848  40.8917524   5.3278255
  69.8827301  40.1552725   5.3278255  70.0293768  33.3460994  24.9139763
  69.7147210  34.1160557  24.6509326  69.7083701  32.7831250  24.3291990
  69.9352688  33.3771263  24.7881113  71.6043885  45.3224712  12.5396076
  71.6782893  45.1599884  13.3937926  72.4213391  45.5114902  12.2956557
  71.7360244  45.3261454  12.6294101  65.3649642  45.6682575   9.5690519
  64.5387759  45.9144312   9.4424798  65.4261633  45.5894656  10.4352577
  65.2523809  45.6927524   9.6779464  67.5825665  31.7351516  10.5285959
  66.7148091  31.8074115  10.5943569  67.8700870  32.5373595  10.7173934
  67.4965414  31.8645663  10.5660726  76.7058554  31.8829375  18.8597281
  77.4512146  31.6939186  18.4460707  76.2895859  32.4087613  18.3011138
  76.7543528  31.9331521  18.7161854  70.7343216  43.0877201  18.3562680
  70.2354910  43.7992969  18.4347568  71.5443440  43.4077868  18.3180842
  70.7799323  43.2404050  18.3619248  68.0854386  50.2626837  10.3369699
  67.8654682  49.9724192  11.1296366  67.8648908  49.6041792   9.8087611
  68.0201980  50.1226546  10.3758608  66.9971333  42.3500154  12.6025400
  66.7084582  41.7237625  13.1371128  67.8654682  42.2920441  12.6690081
  67.0831585  42.2487698  12.6916355  77.7849231  37.4934937  12.9207382
  77.4413997  36.7725273  13.2714632  77.8842274  37.2848788  12.0785741
  77.7491274  37.3559141  12.8479062  67.2003607  43.9895405   8.5267766
  67.9549575  44.3708444   8.7403228  66.6074220  44.4406549   8.9814462
  67.2240320  44.1124232   8.6250644  69.6610274  35.9458245  23.6524978
  68.8510050  36.2516025  23.5414820  70.1384961  36.6663828  23.7677562
  69.6113753  36.0972846  23.6532049  68.5201833  45.1603966  13.9007881
  67.9982587  45.3004258  14.5859746  68.9075854  44.4014631  14.0909998
  68.5005534  45.0689490  14.0308957  65.5093017  35.2109775   7.9702836
  65.2217813  34.8411045   7.2334783  66.1963486  35.6804630   7.7086541
  65.5681915  35.2256744   7.8217911  69.9468159  42.1907985   9.2989372
  69.7510942  42.7982720   8.7049675  70.1702505  41.4975929   8.8181046
  69.9502800  42.1785511   9.1405453  68.3446689  39.0762723   9.4170240
  69.0669341  39.2403881   8.9574046  67.8654682  39.7972388   9.3109580
  68.3810420  39.2060953   9.3335854  76.3040197  35.4126522  14.7966925
  75.4651297  35.4387801  14.5605189  76.3744564  36.0597258  15.3772272
  76.1908590  35.5122648  14.8476042  65.9954306  41.4820796  18.5224380
  66.5075403  41.7605049  17.8733140  65.7090648  42.2210090  18.8887193
  66.0289169  41.6323149  18.4814258  63.0821212  35.9890988   8.8188117
  63.1837349  36.7917149   9.1469092  63.8777099  35.7878323   8.5211197
  63.2149118  36.0776886   8.8223472  69.5138031  33.5747184  18.5825422
  69.3221228  33.5902319  19.4324845  70.3636627  33.7710859  18.5592077
  69.6113753  33.6061535  18.7048717  63.8984944  36.1038166  16.5609238
  63.7570436  35.2522106  16.6853746  64.1825508  36.1466826  15.7371444
  63.9192790  35.9837916  16.4576862  74.0523537  37.9405256  10.7053727
  73.8058251  37.8601007  11.5390515  74.3808660  37.1558724  10.5116254
  74.0644780  37.8131521  10.8001250  77.9471585  44.6488615  14.4940508
  77.8085945  45.3469661  14.9989250  77.1671583  44.4937272  14.1376690
  77.8114812  44.7288782  14.5166782  76.2849671  40.9484991  20.7462889
  76.2797709  40.0764807  20.7505316  76.9910664  41.1473160  20.2732345
  76.3894675  40.8488865  20.6769925  70.0120564  40.6761975  20.1176710
  70.1563940  41.2563183  19.4819820  70.3596212  41.0538271  20.8226564
  70.0848025  40.8182679  20.1275705  72.1840481  39.8752143  17.9001841
  71.4363795  40.0683157  17.4950119  72.3382006  39.0497362  17.6625962
  72.0962909  39.7817254  17.8047247  69.0848319  48.8664746  16.9837736
  69.2337883  48.3067662  16.3311141  69.8648321  48.9456748  17.3670255
  69.2222412  48.7950312  16.9434686  71.6101619  49.0379389  18.2622227
  71.5345291  48.3688200  18.8173016  71.5391479  49.7397177  18.7762893
  71.5882226  49.0424297  18.4199075  72.4242258  33.7702694  18.7897245
  72.8814872  34.5026668  18.9170037  72.4998587  33.3469159  19.5484501
  72.5033228  33.8159932  18.9198321  64.6675249  34.0168513  19.8786689
  64.1317439  33.4048872  20.1947456  64.7293014  34.5916649  20.5320355
  64.5970882  34.0115441  20.0222115  70.3024636  35.7604798  15.6339069
  69.5120711  35.5796258  15.9556405  70.6985259  34.9831750  15.6169363
  70.2441512  35.6192258  15.6791617  75.6868322  43.3947228  13.3598515
  75.0113324  43.1632460  13.8611902  75.6960699  42.7868411  12.7340620
  75.5886827  43.2706153  13.3414667  72.8162466  38.2365057  20.1162568
  72.7521608  39.0975013  19.9882705  72.9559654  37.9197050  19.3158119
  72.8277936  38.3165223  19.9790781  71.4981560  40.9297196  14.2578771
  71.0743809  41.1301695  13.5217789  71.3226415  40.0826044  14.3703071
  71.4092441  40.8345977  14.1652461  70.9993254  52.4447709  16.7200228
  71.4889184  51.7458498  16.5375893  70.4277486  52.1471579  17.3076285
  70.9877784  52.2973933  16.7801269  66.7864005  41.4249247   9.6906743
  66.9428624  41.3596050  10.5462735  67.1264598  42.1997800   9.4785423
  66.8597240  41.5298446   9.7861337  73.3243150  40.8007131   8.5600107
  73.8658695  40.2977512   9.0238727  73.6389709  40.7472326   7.7489592
  73.4507547  40.7186552   8.5083919  77.1960257  45.0109778  25.6727019
  78.0095123  44.7394927  25.8332151  77.0355224  44.7117318  24.8687215
  77.2930206  44.9264704  25.5772425  74.4732419  35.6943436  18.6122407
  74.6874389  35.0554350  18.0585761  73.8566318  36.1389259  18.1830269
  74.4137749  35.6653579  18.4672838  63.3598267  38.6084198  10.0067510
  63.7397232  39.0268743   9.3427778  62.7853632  39.1897654  10.3136354
  63.3309592  38.7562057   9.9544251  76.6371507  37.3032501  19.5505714
  75.8248189  36.9958391  19.6318887  77.0961442  36.8231501  20.1148426
  76.5851892  37.1868993  19.6460308  73.8647148  28.8043371  13.6009750
  72.9940706  28.7782092  13.5543059  74.1187489  28.6320563  12.7835595
  73.7740708  28.7753515  13.4729887  73.7325015  38.7092572  24.3334416
  74.2024646  39.3334689  24.7202290  73.7786895  38.0409548  24.8927631
  73.8092891  38.7027252  24.4734488  70.8896288  30.8149600  15.0583220
  70.3734777  30.1229791  15.1834799  70.3290217  31.4820377  15.0045819
  70.7302802  30.8112857  15.0689286  72.9588522  31.3542560  16.8876073
  72.5720275  31.3791591  17.6689603  72.4721459  30.7884238  16.4350589
  72.8301031  31.2738311  16.9363976  77.2081501  46.0716069  20.9449859
  77.8461222  45.5776264  20.6112315  76.5655593  45.9993469  20.3602086
  77.2075728  45.9875077  20.8092214  78.9338501  37.9205215  15.5115775
  78.5066109  37.8331563  14.7563874  78.2964554  38.0282990  16.0970619
  78.7768109  37.9237874  15.4861216  72.6245664  28.2409545  19.1786333
  73.2538782  28.7769845  18.9007403  72.7931526  28.1486904  20.0299898
  72.7423458  28.3070907  19.2634861  72.4259578  33.0280740  21.4512744
  73.2533008  32.7565889  21.5071359  72.4467425  33.8241582  21.8076562
  72.5512429  33.1060494  21.5127927  77.2635758  46.7635877  17.5855216
  78.0528136  46.4124942  17.7057298  77.4379356  47.5772265  17.3231850
  77.4056040  46.8321734  17.5643084  67.0029068  40.1744603  14.6383005
  66.1617075  40.0748477  14.8461899  67.2119076  40.9440083  14.9897326
  66.9093761  40.2736646  14.7210320  64.4804635  37.7964140  12.4667756
  64.0861333  37.8707151  11.6917865  63.9244752  38.1822086  13.0176117
  64.3407448  37.8645914  12.4335415  76.1169582  30.7745434  12.1471634
  76.3219175  30.7067742  12.9928632  75.7896006  31.5804255  12.0792812
  76.0984830  30.8831374  12.2631290  70.8145733  38.1026002  13.8880602
  70.5108871  37.5481990  14.4891010  70.1125154  38.2818212  13.4008637
  70.6661943  38.0470784  13.9050308  69.8711830  35.4126522   8.4525304
  70.1471565  34.6945434   8.0402872  70.4710500  36.0111442   8.2446410
  70.0005095  35.3946892   8.3606065  68.8764084  45.3175723  18.5952700
  68.7684439  45.3277785  19.4614758  69.0859866  46.1430503  18.4057654
  68.8914195  45.4416797  18.6956792  66.8937876  42.5688365  16.0574638
  66.3025809  43.2097863  16.0277653  67.6558900  42.9925982  16.0305937
  66.9186137  42.7264203  16.0489785  67.2898499  33.7290363  16.7242655
  67.7499981  33.8029292  17.4617779  67.3354606  34.5271617  16.3742477
  67.3649054  33.8584510  16.7815412  68.9381849  34.3957058  21.2914682
  68.5467414  33.7490405  21.7270460  69.1067711  34.9868493  21.9108938
  68.9052759  34.3871325  21.4477388  76.6527392  48.0197677  13.4906662
  76.4547081  48.5088491  12.7962874  76.0315103  48.2238918  14.0690796
  76.5314957  48.1214215  13.4729885  70.7135371  39.7882573   7.8316906
  71.4577416  40.1756850   8.0699856  70.8596067  38.9439999   7.9957394
  70.8445956  39.7213046   7.8910876  72.6314946  31.5832832  12.8648768
  71.7850991  31.7555640  12.7390118  72.6286079  30.7782176  13.2014596
  72.5062096  31.4893861  12.8959895  73.7013247  35.3608047  13.7310826
  73.2273201  34.8349809  14.2416137  74.0731382  34.8137520  13.1625687
  73.6863136  35.2024043  13.7225973  64.0786277  37.3579553  19.0994372
  64.9411890  37.2575263  19.0131701  63.7478060  36.7774263  18.5379944
  64.1571473  37.2571180  19.0039777  67.4388063  36.1822002  15.7604790
  66.8141133  36.1940394  15.1530742  67.1033658  36.6582178  16.4096030
  67.2973555  36.2540519  15.7661358  67.6229811  34.5247121   1.8177475
  67.2742616  35.1766846   2.2809024  67.1426257  34.5104234   1.0901346
  67.5000055  34.6190174   1.7788566  64.1513738  44.2422462  17.2008554
  63.6213663  43.5514901  17.2503529  64.4238832  44.2332648  16.3721263
  64.1138461  44.1389594  17.0855970  74.3519984  41.6845707  17.1746926
  73.7376977  41.1403757  17.4695561  74.8687269  41.1709944  16.6952742
  74.3375646  41.5282116  17.1471154  73.5916281  42.7549977  14.9091224
  73.1643889  42.1299696  14.4756660  73.5841225  42.4724899  15.7350232
  73.5275422  42.6202758  14.9671052  66.7078808  37.7915150  17.9779658
  66.8672295  37.0358474  18.3831380  66.5271702  38.3406090  18.6320396
  66.7044167  37.7608964  18.1342364  74.6499111  29.9576386  18.5330448
  74.1539672  30.1540060  17.8422014  75.4068173  30.3569054  18.3619249
  74.6885936  30.0454120  18.4050585  71.9201991  33.6318732  15.1233758
  71.9444478  33.0978844  14.4346538  72.1713464  33.1236040  15.7859349
  71.9611909  33.4779636  15.1198403  59.4309581  40.9150227  14.5576902
  59.3253030  40.8697071  13.6928986  58.6809801  41.2604007  14.8391187
  59.3045183  40.9591135  14.4714232  68.2003313  32.3589550  14.5039503
  68.2401685  32.8598756  15.2174210  67.3752978  32.4499944  14.2345426
  68.0842839  32.4471366  14.5690041  70.3832926  41.9250290  22.6059797
  69.5328556  42.0622004  22.7417442  70.5461054  41.1914068  23.0507499
  70.2816789  41.8364391  22.6915396  69.6217676  38.8750060  16.8013402
  68.7909606  39.0423878  16.5948650  69.5669194  38.4986011  17.5862287
  69.4907091  38.8439791  16.8861930  67.4301460  32.3658953  22.4369812
  68.0554163  31.8221085  22.7099245  66.9751940  31.8853870  21.8677603
  67.4549720  32.2148434  22.3931406  67.9953720  37.1505651   7.3303519
  68.1356681  37.6478116   8.0332161  68.4936253  36.4491946   7.4717733
  68.0894801  37.1207630   7.4555098  68.0253943  38.0172762   4.6596096
  68.6599022  38.6133187   4.5945558  68.1079553  37.7176220   5.4741966
  68.1310494  38.0613670   4.7699183  69.6032925  33.9486738   4.6341538
  69.9248766  33.4689820   3.9800800  69.8659869  34.7586384   4.4432350
  69.6898951  33.9976636   4.5097030  72.8329898  44.9705612  18.1540354
  72.3254989  45.5241459  18.5980985  72.5356544  45.0313902  17.3359129
  72.7134783  45.0611923  18.0988811  74.9992080  33.3358932  16.9965017
  75.4247152  32.8831458  16.3848544  74.3849074  32.7819002  17.2729805
  74.9720726  33.1872908  16.9470042  64.5306930  40.2140603   7.9285642
  65.0399160  40.8105111   8.3096948  65.0041203  39.9466577   7.2462062
  64.6750306  40.2626419   7.8840165  73.4386303  29.8074031  10.4055594
  72.7954621  29.6571678  10.9740733  73.0985710  29.5616377   9.6404699
  73.2931381  29.7486154  10.3758609  78.0285650  37.7633458   9.8285603
  77.3576840  38.3063161   9.6998668  78.7225400  38.2328314   9.5867298
  78.0314517  37.9131730   9.7741131  72.0772383  49.9030170  15.0597361
  71.8538038  49.1449000  15.4281387  71.5882227  49.9328192  14.3377801
  71.9715832  49.7952395  15.0074102  78.1913777  34.2189342  12.7375976
  78.5441387  33.7919065  13.4121775  77.3328579  34.1340185  12.8677052
  78.1163222  34.1434083  12.8570986  66.8897462  36.8496862  10.7958823
  66.1709451  37.2660994  11.0631686  67.2609824  37.4151100  10.2450461
  66.8389394  36.9946143  10.7541630  76.1897043  37.4824711  16.6860818
  76.1694970  37.3008006  17.5395597  76.2376244  38.3536729  16.6620402
  76.1931684  37.5841249  16.8084113  74.1343373  44.0711903  22.6109295
  74.0939228  43.4261579  22.0254451  74.9466691  44.0148520  22.9234707
  74.2486526  43.9670869  22.5706244  70.7250840  50.1230628  12.5134446
  70.3111239  49.4604759  12.1238287  71.4098215  50.2708487  11.9930140
  70.7649212  50.0471287  12.3790943  74.0916135  49.2820714  13.2658062
  73.6932418  49.3922984  12.4978883  73.4767354  49.4902780  13.8484622
  73.9415024  49.3294282  13.2389362  72.6644037  35.8894862   6.1332202
  72.0708876  36.2111858   5.5816769  72.7019314  35.0435957   5.9253308
  72.5818426  35.8119190   6.0214973  75.5401853  35.8474366   9.5633952
  75.3115546  35.8707067   8.7212310  75.7999929  35.0231833   9.6828963
  75.5448041  35.7290446   9.4559150  69.8221082  37.7008839  19.1659052
  69.3099985  37.0930022  19.5244084  69.6500578  38.4165432  19.6333028
  69.7210719  37.7172138  19.2875276  64.6686796  36.1446414  21.8161414
  64.4989387  36.8047789  21.2709621  64.2252746  36.3552976  22.5373903
  64.5786130  36.2732397  21.8423044  73.6990152  35.6233084  21.6061308
  74.2561582  35.3946893  20.9739773  73.3751217  36.3838749  21.3296520
  73.7336562  35.7016920  21.4717805  61.5688861  39.0493280  17.0749904
  61.0215580  38.3793925  17.1930772  62.3581239  38.6823128  17.1393371
  61.6041044  38.8958266  17.1018605  71.4173269  38.7100737  22.5713315
  72.1684596  39.0252414  22.8852869  71.6095846  38.5079908  21.7447237
  71.5564683  38.7268119  22.4956711  70.6373269  36.5292112   4.2261532
  71.0172234  36.5471741   3.4412647  69.8965865  36.9746101   4.1052379
  70.5842107  36.5973887   4.0925100  60.3275830  38.2614088  14.2295927
  60.1497591  37.8090697  14.9550843  60.0394852  39.0640249  14.4134405
  60.2588783  38.3136646  14.3639430  75.9899411  39.5171805  13.4673317
  76.4853077  38.7994800  13.4277338  75.1799187  39.2142603  13.3527804
  75.9443305  39.3669451  13.4447043  62.0648300  40.7941811  11.3417686
  61.1993820  40.7827502  11.2300457  62.1647116  40.6072034  12.1888825
  61.9522467  40.7647873  11.4506631  78.0551230  42.2675493  16.1550446
  78.4806302  41.7449914  15.6020871  77.6908150  42.8656330  15.6339069
  78.0637833  42.2785720  15.9959456  67.6905310  50.5639710  14.9147792
  68.0051869  51.3776099  14.9225573  68.0998723  50.1789929  15.5829951
  67.7973408  50.6268412  15.0151883  74.6429830  45.9809757  12.4851604
  75.1141008  46.6950019  12.6541589  74.9790008  45.3808507  13.0211473
  74.7624945  45.9981221  12.5883980  76.7306814  47.5911070  24.6643676
  76.8403780  46.8019631  25.0200423  77.0597711  47.5017006  23.8618014
  76.7959220  47.4616923  24.5986066  71.5599325  30.7537227  19.4409699
  71.6927230  29.9568221  19.7690674  71.9444477  31.2803630  20.0207974
  71.6355653  30.7137144  19.5753201  75.2803776  45.7727691  19.2479296
  74.7324722  45.1485575  18.9799362  75.7416805  45.9621963  18.5323376
  75.2670985  45.7086741  19.1029727  74.6331680  27.6767554  16.0390792
  73.8277643  27.5665283  16.3558630  74.5038415  27.7780009  15.1820658
  74.4951813  27.6751224  15.9598832  78.0897640  33.8413045  16.6330489
  77.5060629  34.3422252  16.2208056  78.4101934  33.3342602  15.9994812
  78.0510816  33.8404881  16.4788996  70.6292439  32.7553640   6.9089163
  71.4508134  32.9251953   6.6670858  70.1662090  32.9100901   6.1855461
  70.6823602  32.8035373   6.7660808  69.2187771  30.7496403  17.6887592
  69.7632184  30.4087529  18.2791934  69.2724707  31.6081864  17.8308877
  69.3076891  30.8251662  17.7969466  65.0318330  44.5112819  14.5626400
  65.6363188  44.4708653  13.9340221  64.8245643  45.3583971  14.5930456
  65.0907227  44.6300821  14.4742517  74.8462102  46.7778764  15.7788638
  75.6660476  46.6341730  16.0404933  74.5656180  47.4024963  16.3205075
  74.9258846  46.8489116  15.8976577  60.2669612  43.4947436  14.4325323
  60.1693890  42.6843708  14.7415380  61.0498482  43.4739229  14.0471591
  60.3685749  43.3714526  14.4212186  75.7025598  54.8058675  16.2964659
  75.5784295  55.3921121  16.9314478  76.3543883  54.3118871  16.5976934
  75.7799247  54.8197480  16.4350588  73.4468523  57.3170028  16.5446603
  73.1806938  56.5009144  16.7037593  73.4607087  57.3623183  15.6742119
  73.4093245  57.2026932  16.4400085  78.1967130  50.8548406  19.1913611
  77.5038926  50.3845386  19.4374342  78.8127457  50.6286710  19.7655318
  78.1851659  50.7515538  19.3122763  76.9207688  54.8213810  20.3340456
  77.6447661  54.8066841  20.8205351  77.0223825  55.5309165  19.8362424
  77.0425898  54.9238513  20.3319243  76.9686889  57.0006104  18.5224380
  77.4807986  57.2790357  17.8733140  76.6823232  57.7395398  18.8887193
  77.0021753  57.1508457  18.4814258  74.8717528  51.6223474  16.5609238
  74.7303020  50.7707414  16.6853746  75.1558091  51.6652134  15.7371444
  74.8925374  51.5023224  16.4576862  75.6407833  49.5353821  19.8786689
  75.1050022  48.9234179  20.1947456  75.7025598  50.1101957  20.5320355
  75.5703466  49.5300749  20.0222115  78.2631083  49.2475671  16.7242655
  78.7232564  49.3214600  17.4617779  78.3087189  50.0456925  16.3742477
  78.3381638  49.3769818  16.7815412  75.0518860  52.8764861  19.0994372
  75.9144473  52.7760571  19.0131701  74.7210643  52.2959571  18.5379944
  75.1304057  52.7756488  19.0039777  78.4120646  51.7007310  15.7604790
  77.7873716  51.7125702  15.1530742  78.0766241  52.1767485  16.4096030
  78.2706138  51.7725827  15.7661358  77.6811392  53.3100458  17.9779658
  77.8404878  52.5543782  18.3831380  77.5004285  53.8591398  18.6320396
  77.6776751  53.2794272  18.1342364  75.6419380  51.6631722  21.8161414
  75.4721970  52.3233097  21.2709621  75.1985330  51.8738284  22.5373903
  75.5518713  51.7917704  21.8423044  72.5421444  54.5678588  17.0749904
  71.9948164  53.8979233  17.1930772  73.3313823  54.2008436  17.1393371
  72.5773628  54.4143574  17.1018605  71.3008414  53.7799396  14.2295927
  71.1230175  53.3276005  14.9550843  71.0127436  54.5825557  14.4134405
  71.2321367  53.8321953  14.3639430   4.8328146  45.7549337  47.6676734
   4.8022150  46.6093974  47.8395003   5.4309494  45.4544630  48.2262878
   4.9165303  45.8365834  47.7751536   1.3421547  51.1111514  62.0290120
   2.0488314  50.6163545  62.1577055   1.5309482  51.5520596  61.2992778
   1.4749453  51.1029864  61.9399166   0.8779651  46.9017032  55.0661316
   1.4235611  47.5802119  55.1255286   0.8196528  46.7604493  54.2062897
   0.9495566  46.9809034  54.9473377   2.6544720  48.3301639  45.9395044
   2.5384246  49.0809326  46.3687182   3.4500607  48.0725593  46.1891131
   2.7549309  48.4036486  46.0399135   1.9680025  35.6789577  49.6369658
   1.6533466  36.3693056  50.0690080   1.4506967  35.6234359  48.9355159
   1.8444495  35.7724466  49.5966607   1.3092459  45.6794078  45.7507069
   0.7803930  45.8953711  46.4104375   1.8317479  46.3730216  45.6708038
   1.3080912  45.8137215  45.8362668   6.7640512  51.2540382  51.1240113
   5.9338215  51.4651026  51.2873530   6.7149764  50.4277437  50.8482397
   6.6347247  51.1629989  51.1077479   6.2594470  43.9010783  54.9190535
   5.4222891  43.9712970  55.1538129   6.2282701  43.9035278  54.0464837
   6.1312752  43.9121010  54.8250083   0.9824656  48.0966460  50.5102426
   1.7382171  48.5297974  50.5491335   1.0886980  47.4471229  51.0837062
   1.1094826  48.0643943  50.6000452   4.0204827  51.9239737  51.2604829
   3.5840059  51.9276479  52.0163800   3.6867742  52.6045236  50.8284406
   3.9067447  52.0252193  51.3085662   3.9402310  38.9653565  53.5034257
   4.5828218  39.0351669  54.0896172   4.1925331  38.2982788  53.0013799
   4.0724442  38.8779913  53.5161536   7.1549173  48.6420657  50.1524466
   7.8165607  48.0811325  50.0520375   6.5140585  48.1472687  50.4777157
   7.1578041  48.4857066  50.1856806   3.4414004  49.6586039  49.8936455
   3.6769593  49.8031238  49.0663306   3.5903567  50.4228447  50.2867969
   3.4979807  49.7925094  49.8300059   5.2704461  48.4987705  47.7306059
   5.6012678  49.0315345  47.1246154   5.8437549  48.5526593  48.3868010
   5.4038140  48.5857274  47.7383841   6.3783812  43.7398202  49.2346220
   6.1220377  42.9278143  49.0444103   7.2213126  43.7475769  49.0076408
   6.4649837  43.6210199  49.1731038   4.0608971  50.8947798  59.0704773
   3.8247609  50.0635863  58.9516834   4.7052200  50.8433405  59.6559617
   4.1203642  50.7645486  59.1390667   5.0845392  50.6792247  55.1333068
   4.7791209  51.4120304  55.4946383   4.3651608  50.2730176  54.8525854
   4.9332734  50.7273980  55.1446205  10.7847184  47.3185247  54.4601412
  10.7171684  47.3381207  53.5903998  10.7702847  48.1615575  54.6857082
  10.7725941  47.4458982  54.3653889   1.1943531  38.7220405  57.7842501
   1.9397123  38.5330215  57.3705927   0.7780835  39.2478643  57.2256358
   1.2428505  38.7722550  57.6407074   8.5705801  46.0929634  52.7348006
   9.1213723  45.4597703  52.9745098   8.5549917  46.6245026  53.4263510
   8.6490998  46.0778582  52.8726864   2.2734208  44.3325967  51.8452602
   1.9298974  43.6116302  52.1959852   2.3727250  44.1239818  51.0030961
   2.2376251  44.1950171  51.7724282   2.7347237  50.7951671  47.3876590
   3.3005269  51.4544881  47.3035133   2.0875140  51.1401369  47.8592993
   2.7225993  50.9433613  47.4449347   4.6682697  47.4585539  51.0073387
   4.5816671  47.6140965  51.8608166   4.2133177  48.1023614  50.6332792
   4.5885954  47.5761294  51.0780494   2.4356562  51.4879645  53.4185728
   2.2970921  52.1860691  53.9234470   1.6556560  51.3328302  53.0621910
   2.2999789  51.5679812  53.4412002   0.7734647  47.7876021  59.6708109
   0.7682685  46.9155837  59.6750536   1.4795641  47.9864190  59.1977565
   0.8779651  47.6879895  59.6015145   3.9309935  50.8457899  44.1802227
   3.5516743  50.0595037  44.1731516   3.2676180  51.3944756  44.0373871
   3.7768409  50.8102723  44.1583024   1.3854561  33.7883599  51.5836308
   1.5038129  34.2460062  50.8503611   1.2116736  32.9828860  51.2972525
   1.3773732  33.7377371  51.4337242   2.1770033  53.0903390  44.5153913
   2.2589871  53.8970376  44.1915364   2.6619776  53.1099349  45.2394686
   2.2607191  53.2124052  44.5740811   1.6845234  51.8500808  64.5972239
   2.4980099  51.5785957  64.7577371   1.5240200  51.5508348  63.7932435
   1.7815182  51.7655734  64.5017645   1.6966478  52.9107099  59.8695079
   2.3346198  52.4167294  59.5357535   1.0540569  52.8384499  59.2847306
   1.6960704  52.8266107  59.7337434   3.4223478  44.7596245  54.4360995
   2.9951086  44.6722593  53.6809094   2.7849531  44.8674020  55.0215839
   3.2653085  44.7628904  54.4106436   1.7520734  53.6026907  56.5100436
   2.5413112  53.2515972  56.6302518   1.9264332  54.4163295  56.2477070
   1.8941016  53.6712764  56.4888304   3.8588246  38.1668228  50.5519620
   3.2462560  38.6538630  50.9373352   3.9552421  37.4911719  51.0957271
   3.7826144  38.1386537  50.6898478   7.5013274  49.2385165  55.9797136
   7.5596398  49.6871813  56.7257113   6.8679742  49.6483977  55.5427216
   7.4164569  49.3658899  56.0249684   4.4534954  47.2601452  54.0662826
   4.2133177  46.4207867  54.0705253   4.9326961  47.3401619  54.7903600
   4.4887137  47.1482852  54.1737629   6.4540141  44.0402910  52.0192085
   6.2149911  43.9998744  51.1812870   6.6174042  44.8874062  52.1457807
   6.4430444  44.1594995  51.9145567   3.0586171  48.4252859  57.9497131
   3.7820370  47.9725385  57.7708151   2.7936133  48.7057525  57.1669458
   3.1267444  48.4003827  57.8075846   5.4921485  47.3879270  56.4527680
   6.0839325  48.0276520  56.4845878   5.9280479  46.6902306  56.7419747
   5.6439916  47.3797620  56.5008513   2.5170626  44.6024488  48.7530823
   1.8461816  45.1454191  48.6243888   3.2110376  45.0719344  48.5112518
   2.5199494  44.7522759  48.6986351   2.6798754  41.0580372  51.6621196
   3.0326364  40.6310095  52.3366995   1.8213555  40.9731215  51.7922272
   2.6048198  40.9825113  51.7816207   4.1122814  36.1798784  52.5905509
   3.6053678  35.4727923  52.5226686   4.9090247  35.8491973  52.7206585
   4.1550053  36.0271935  52.6004504   6.3142954  50.6963710  45.5746373
   6.6976559  51.4455067  45.8044470   5.5187067  50.9429530  45.3158362
   6.2536736  50.8433404  45.5703947   2.7543536  41.6765333  48.7382331
   2.7537762  41.5213990  49.5966607   2.5499716  42.5228320  48.6823716
   2.7243314  41.7785954  48.8570270   2.5436207  49.1066523  55.0795666
   2.9691278  48.5840944  54.5266091   2.1793126  49.7047360  54.5584289
   2.5522809  49.1176750  54.9204676   2.5782617  40.6804075  55.5575709
   1.9945606  41.1813282  55.1453276   2.8986911  40.1733632  54.9240032
   2.5395792  40.6795910  55.4034216  15.8060729  61.2734645  47.6676734
  15.7754733  62.1279282  47.8395003  16.4042078  60.9729938  48.2262878
  15.8897887  61.3551142  47.7751536   9.0060414  60.3610296  52.4229664
   8.1498309  60.5218795  52.4738781   9.0528068  59.4902360  52.4434725
   8.8859525  60.2561098  52.4335730  12.3154130  66.6296822  62.0290120
  13.0220898  66.1348853  62.1577055  12.5042066  67.0705904  61.2992778
  12.4482036  66.6215172  61.9399166  11.8512235  62.4202340  55.0661316
  12.3968195  63.0987427  55.1255286  11.7929111  62.2789801  54.2062897
  11.9228149  62.4994342  54.9473377  13.6277304  63.8486947  45.9395044
  13.5116830  64.5994633  46.3687182  14.4233190  63.5910901  46.1891131
  13.7281893  63.9221794  46.0399135   5.5107629  67.8380970  47.2264386
   5.8323470  68.3786178  46.6225694   6.1579726  67.2677742  47.3586676
   5.6533684  67.8340146  47.1571422   7.5609337  59.8396965  47.3098773
   8.2589502  60.0185093  47.8020236   7.8761670  59.3167305  46.6869162
   7.7104674  59.7890737  47.2900783   7.7497273  66.2267410  47.2978564
   8.1890908  65.6184511  47.7433337   7.6001935  65.8474784  46.5264029
   7.7918738  66.0805882  47.2497732   5.2168916  64.8211422  54.4997390
   5.8617918  64.3283865  54.1808338   5.4570693  64.9636209  55.3263468
   5.3479501  64.7688864  54.5746923   7.7555007  67.6666328  54.1504282
   8.0378250  66.8717734  53.9291038   8.4841167  68.1446916  54.1709343
   7.9044571  67.6200925  54.1207298   5.7336201  55.2089362  51.3920047
   5.4039531  55.6600506  50.7223746   5.0581203  55.1305525  51.9393054
   5.5846637  55.2640497  51.3743271  11.3506609  64.5794592  44.2509334
  11.2657904  65.4355558  44.3958902  11.8390992  64.3038916  44.9191493
  11.4095506  64.6651913  44.3711415  12.9412609  51.1974885  49.6369658
  12.6266050  51.8878364  50.0690080  12.4239550  51.1419667  48.9355159
  12.8177079  51.2909774  49.5966607  12.2825042  61.1979386  45.7507069
  11.7536514  61.4139019  46.4104375  12.8050062  61.8915524  45.6708038
  12.2813495  61.3322523  45.8362668  17.7373095  66.7725690  51.1240113
  16.9070798  66.9836334  51.2873530  17.6882348  65.9462745  50.8482397
  17.6079831  66.6815297  51.1077479   4.1724650  65.0942603  44.5514537
   3.5881865  65.5992634  44.9580401   3.7694745  64.8684990  43.8111129
   4.0263954  65.1350851  44.5019562   9.4546425  70.0524359  59.9204196
   9.5429771  69.8650499  60.7682406   9.8836137  69.4061788  59.5209043
   9.5308527  69.9287366  59.9875947   8.6301865  61.3408255  43.0283457
   8.8697868  61.5486238  42.2158800   8.9517706  60.5365763  43.1372402
   8.7139022  61.2522356  42.9244010   3.9392155  53.2701650  46.8742995
   4.6938123  53.6379968  46.6360045   3.7619689  53.6441205  47.6422175
   4.0246633  53.3799838  46.9527884  17.2327054  59.4196091  54.9190535
  16.3955475  59.4898278  55.1538129  17.2015284  59.4220586  54.0464837
  17.1045336  59.4306318  54.8250083   3.6291783  61.5629127  60.6338903
   3.8012286  61.4535021  61.4824185   4.1661140  62.2083532  60.3970095
   3.7336787  61.6421128  60.7244000   1.9063651  67.5159892  51.0144096
   2.7452551  67.7482824  51.0617858   1.9375421  66.6464203  50.9451132
   2.0345369  67.4216838  51.0108741   7.9748939  52.6798380  46.6070132
   8.7035099  52.5014335  46.1608288   8.0643832  53.5216460  46.8177310
   8.0955601  52.7782259  46.5723650  11.9557239  63.6151767  50.5102426
  12.7114754  64.0483282  50.5491335  12.0619564  62.9656537  51.0837062
  12.0827410  63.5829251  50.6000452  14.9937410  67.4425045  51.2604829
  14.5572642  67.4461787  52.0163800  14.6600326  68.1230544  50.8284406
  14.8800030  67.5437501  51.3085662  14.9134893  54.4838873  53.5034257
  15.5560802  54.5536977  54.0896172  15.1657914  53.8168095  53.0013799
  15.0457025  54.3965221  53.5161536   1.8411247  58.9546142  42.0843581
   1.1269424  58.6684322  42.4966014   2.3255215  59.2942768  42.7249969
   1.8070610  58.9627792  42.2399216   2.6852106  57.6939436  58.1158831
   1.9923903  57.2236416  58.3619562   3.3012433  57.4677740  58.6900538
   2.6736636  57.5906568  58.2367983  18.1281757  64.1605965  50.1524466
  18.7898191  63.5996633  50.0520375  17.4873169  63.6657995  50.4777157
  18.1310624  64.0042374  50.1856806   9.0158564  67.4576096  42.4605389
   9.4309713  67.1261120  41.7689885   8.1850494  67.2244998  42.3325526
   8.9546573  67.3747352  42.3396237  14.4146587  65.1771347  49.8936455
  14.6502177  65.3216546  49.0663306  14.5636151  65.9413755  50.2867969
  14.4712391  65.3110401  49.8300059   1.4092665  61.6604840  59.2585676
   2.1332637  61.6457871  59.7450571   1.5108801  62.3700195  58.7607644
   1.5310874  61.7629543  59.2564463  16.2437044  64.0173013  47.7306059
  16.5745261  64.5500653  47.1246154  16.8170132  64.0711901  48.3868010
  16.3770723  64.1042582  47.7383841  11.4568933  61.8637916  48.4129639
  11.5515788  62.6027210  48.8669264  10.8327777  61.4355391  48.8464203
  11.3777963  61.9099236  48.5437786   9.7121407  65.0424128  59.0619920
  10.2860269  64.4051372  59.2168484   9.6336211  65.0428211  58.1929577
   9.7854642  64.9489240  58.9566331  11.7091955  63.7086655  41.6466591
  11.6272117  63.7788843  42.5121578  12.3471675  64.2716399  41.4550332
  11.7911792  63.8025627  41.7456540   5.0685126  63.4747393  51.1141117
   4.8104370  62.6419128  51.0872417   5.1233609  63.7005006  50.2733618
   5.0384904  63.3845165  50.9861254  10.1486176  55.5775844  51.2145210
   9.4442503  55.0885030  51.3729129  10.1971150  55.5898319  50.3433654
  10.0516227  55.5065492  51.1084550   4.0419838  61.0285156  51.6006012
   3.4669429  61.1877324  52.2369973   3.6655514  60.3920565  51.1374463
   3.9022650  60.9582969  51.6260570   7.7093127  59.5008505  56.4598390
   7.3207559  59.0762723  55.8050582   7.0447825  59.7490655  56.9675417
   7.5540054  59.4747226  56.4386258  17.3516396  59.2583510  49.2346220
  17.0952960  58.4463451  49.0444103  18.1945710  59.2661077  49.0076408
  17.4382421  59.1395507  49.1731038  11.5319488  53.1983134  53.9722375
  11.9130000  52.5161305  54.3590249  10.7282772  52.9092736  53.7898039
  11.4695950  53.0550182  54.0026431   8.8132065  63.7307110  44.6575197
   9.6272704  64.0222003  44.5457969   8.7491206  63.0766972  44.0833490
   8.9234804  63.6772304  44.5564035  15.0341555  66.4133106  59.0704773
  14.7980192  65.5821171  58.9516834  15.6784784  66.3618713  59.6559617
  15.0936226  66.2830794  59.1390667   4.6839973  67.2028627  49.7847509
   5.3213920  66.9640375  50.3299303   5.1095045  67.4065786  49.0500670
   4.8416139  67.1979637  49.7564667   5.3242788  62.4230917  44.1222399
   5.7087941  62.2038624  44.8738944   5.0754408  63.2493862  44.2523475
   5.3444861  62.5129063  44.2523475   5.4911328  55.7037332  63.8384983
   5.1764770  56.4736895  63.5754546   5.1701261  55.1407588  63.2537210
   5.3970248  55.7347601  63.7126333  16.0577976  66.1977555  55.1333068
  15.7523793  66.9305611  55.4946383  15.3384191  65.7915484  54.8525854
  15.9065318  66.2459288  55.1446205   7.0661445  67.6801050  51.4641296
   7.1400453  67.5176222  52.3183146   7.8830951  67.8691239  51.2201777
   7.1977804  67.6837792  51.5539321  21.7579768  62.8370555  54.4601412
  21.6904268  62.8566514  53.5903998  21.7435430  63.6800883  54.6857082
  21.7458524  62.9644290  54.3653889   3.0443225  54.0927854  49.4531179
   2.1765651  54.1650453  49.5188789   3.3318430  54.8949933  49.6419154
   2.9582974  54.2222001  49.4905946  12.1676114  54.2405713  57.7842501
  12.9129706  54.0515523  57.3705927  11.7513419  54.7663951  57.2256358
  12.2161088  54.2907858  57.6407074  19.5438385  61.6114942  52.7348006
  20.0946307  60.9783011  52.9745098  19.5282500  62.1430334  53.4263510
  19.6223581  61.5963890  52.8726864   6.1960776  65.4453539  57.2807900
   5.6972470  66.1569307  57.3592788   7.0061000  65.7654205  57.2426062
   6.2416883  65.5980387  57.2864468   2.4588894  64.7076492  51.5270620
   2.1702142  64.0813963  52.0616348   3.3272242  64.6496779  51.5935301
   2.5449145  64.6064036  51.6161575  13.2466791  59.8511275  51.8452602
  12.9031557  59.1301610  52.1959852  13.3459834  59.6425126  51.0030961
  13.2108834  59.7135478  51.7724282   2.6621167  66.3471743  47.4512986
   3.4167135  66.7284782  47.6648448   2.0691780  66.7982887  47.9059682
   2.6857880  66.4700570  47.5495864  13.7079820  66.3136979  47.3876590
  14.2737853  66.9730189  47.3035133  13.0607724  66.6586677  47.8592993
  13.6958577  66.4618921  47.4449347   5.1227834  58.3034583  62.5770198
   4.3127610  58.6092363  62.4660040   5.6002521  59.0240166  62.6922782
   5.0731313  58.4549184  62.5777269   3.9819393  67.5180304  52.8253101
   3.4600147  67.6580596  53.5104966   4.3693414  66.7590969  53.0155218
   3.9623094  67.4265828  52.9554177   0.9710578  57.5686113  46.8948056
   0.6835373  57.1987383  46.1580003   1.6581046  58.0380968  46.6331761
   1.0299475  57.5833082  46.7463131  10.1786398  69.2575763  46.8113670
   9.9373074  68.5243624  46.4040735  10.3587731  69.8062620  46.1580003
  10.1694022  69.2298155  46.6543893   5.4085719  64.5484323  48.2234592
   5.2128502  65.1559058  47.6294895   5.6320065  63.8552267  47.7426266
   5.4120360  64.5361849  48.0650673   3.8064249  61.4339061  48.3415460
   4.5286901  61.5980219  47.8819266   3.3272242  62.1548726  48.2354800
   3.8427980  61.5637291  48.2581074  11.7657757  57.7702860  53.7212145
  10.9268857  57.7964139  53.4850409  11.8362124  58.4173595  54.3017492
  11.6526150  57.8698986  53.7721262  10.2127035  54.6688237  48.4539761
  10.9153388  54.4695985  47.9759719   9.9471224  53.8964179  48.7608605
  10.2773667  54.5251203  48.4285203  15.6415281  62.9770847  51.0073387
  15.5549255  63.1326273  51.8608166  15.1865760  63.6208922  50.6332792
  15.5618537  63.0946602  51.0780494   4.9755591  55.9323522  57.5070642
   4.7838788  55.9478657  58.3570065   5.8254187  56.1287196  57.4837297
   5.0731313  55.9637873  57.6293937   9.5141097  60.2981594  49.6298947
   9.2675811  60.2177345  50.4635735   9.8426220  59.5135062  49.4361474
   9.5262340  60.1707859  49.7246470  13.4089145  67.0064953  53.4185728
  13.2703505  67.7045999  53.9234470  12.6289143  66.8513610  53.0621910
  13.2732372  67.0865120  53.4412002  11.7467231  63.3061329  59.6708109
  11.7415269  62.4341145  59.6750536  12.4528224  63.5049498  59.1977565
  11.8512235  63.2065203  59.6015145   5.4738124  63.0338312  59.0421930
   5.6181500  63.6139521  58.4065040   5.8213772  63.4114609  59.7471784
   5.5465585  63.1759016  59.0520925   7.6458041  62.2328481  56.8247061
   6.8981355  62.4259495  56.4195339   7.7999566  61.4073700  56.5871182
   7.5580469  62.1393592  56.7292467  14.9042518  66.3643207  44.1802227
  14.5249327  65.5780345  44.1731516  14.2408764  66.9130064  44.0373871
  14.7500993  66.3288031  44.1583024   7.8859818  56.1279032  57.7142465
   8.3432432  56.8603006  57.8415257   7.9616147  55.7045497  58.4729721
   7.9650788  56.1736270  57.8443541  12.3587144  49.3068907  51.5836308
  12.4770712  49.7645370  50.8503611  12.1849320  48.5014168  51.2972525
  12.3506315  49.2562679  51.4337242   5.7642196  58.1181135  54.5584289
   4.9738271  57.9372596  54.8801625   6.1602819  57.3408088  54.5414583
   5.7059072  57.9768596  54.6036837  10.2508087  66.9468910  39.9991003
  11.0181072  67.0069035  39.5896854   9.8039396  66.3749351  39.5147321
  10.2981514  66.8705485  39.8668713  11.1485882  65.7523566  52.2843735
  10.4730884  65.5208798  52.7857122  11.1578259  65.1444749  51.6585840
  11.0504387  65.6282491  52.2659887   8.2780026  60.5941395  59.0407788
   8.2139168  61.4551351  58.9127925   8.4177214  60.2773388  58.2403339
   8.2895496  60.6741561  58.9036001  13.1502617  68.6088698  44.5153913
  13.2322454  69.4155684  44.1915364  13.6352359  68.6284657  45.2394686
  13.2339775  68.7309360  44.5740811   6.9599120  63.2873534  53.1823991
   6.5361369  63.4878033  52.4463009   6.7843976  62.4402382  53.2948291
   6.8710001  63.1922315  53.0897681   2.2481565  63.7825585  48.6151963
   2.4046184  63.7172388  49.4707955   2.5882158  64.5574138  48.4030643
   2.3214800  63.8874783  48.7106557   8.7860710  63.1583469  47.4845327
   9.3276255  62.6553850  47.9483947   9.1007269  63.1048664  46.6734812
   8.9125107  63.0762890  47.4329139  12.6577817  67.3686116  64.5972239
  13.4712683  67.0971265  64.7577371  12.4972784  67.0693656  63.7932435
  12.7547766  67.2841042  64.5017645   6.9547160  68.5500820  44.7685355
   7.0239980  67.6915359  44.9078355   7.7335615  68.7672701  44.4404379
   7.0800010  68.4553684  44.7402512   9.9349979  58.0519773  57.5367627
  10.1491949  57.4130688  56.9830981   9.3183878  58.4965597  57.1075489
   9.8755309  58.0229917  57.3918058  12.0989067  59.6608839  58.4750934
  11.2865749  59.3534729  58.5564107  12.5579002  59.1807839  59.0393646
  12.0469452  59.5445331  58.5705528  11.5094322  67.5388511  48.9227878
  11.1508977  67.7103153  49.6991911  11.0233033  68.0001716  48.3655877
  11.3853019  67.6327482  48.9553148   9.3264708  51.1619709  52.5254970
   8.4558266  51.1358430  52.4788279   9.5805049  50.9896901  51.7080815
   9.2358268  51.1329853  52.3975107   6.2982687  63.2187676  41.4628113
   6.5875212  63.9952558  41.7371687   6.3854486  62.7076407  42.1642612
   6.3536944  63.2579594  41.6070611   9.1942575  61.0668910  63.2579636
   9.6642206  61.6911026  63.6447510   9.2404455  60.3985886  63.8172851
   9.2710451  61.0603590  63.3979708   6.3513848  53.1725938  53.9828440
   5.8352337  52.4806129  54.1080019   5.7907777  53.8396715  53.9291039
   6.1920362  53.1689195  53.9934506   8.4206082  53.7118898  55.8121293
   8.0337835  53.7367929  56.5934823   7.9339019  53.1460576  55.3595809
   8.2918591  53.6314648  55.8609196  12.6699061  68.4292407  59.8695079
  13.3078782  67.9352602  59.5357535  12.0273153  68.3569807  59.2847306
  12.6693288  68.3451415  59.7337434  14.3956061  60.2781552  54.4360995
  13.9683669  60.1907901  53.6809094  13.7582114  60.3859328  55.0215839
  14.2385669  60.2814212  54.4106436   8.0863224  50.5985883  58.1031553
   8.7156342  51.1346183  57.8252623   8.2549086  50.5063242  58.9545118
   8.2041018  50.6647245  58.1880081   7.8877138  55.3857078  60.3757964
   8.7150568  55.1142227  60.4316579   7.9084985  56.1817919  60.7321782
   8.0129989  55.4636832  60.4373147  12.7253318  69.1212215  56.5100436
  13.5145696  68.7701280  56.6302518  12.8996916  69.9348603  56.2477070
  12.8673600  69.1898072  56.4888304   2.4646628  62.5320941  53.5628225
   1.6234635  62.4324815  53.7707119   2.6736636  63.3016421  53.9142546
   2.3711321  62.6312984  53.6455540  11.5787142  53.1321772  51.0716854
  11.7836735  53.0644079  51.9173852  11.2513566  53.9380593  51.0038032
  11.5602390  53.2407712  51.1876510   6.2763293  60.4602340  52.8125822
   5.9726431  59.9058328  53.4136230   5.5742714  60.6394550  52.3253857
   6.1279503  60.4047122  52.8295528   5.3329390  57.7702860  47.3770524
   5.6089125  57.0521772  46.9648092   5.9328060  58.3687779  47.1691630
   5.4622655  57.7523230  47.2851285  14.8320830  53.6853536  50.5519620
  14.2195143  54.1723938  50.9373352  14.9285005  53.0097027  51.0957271
  14.7558727  53.6571844  50.6898478   8.8339911  55.4416377  45.6517119
   9.2883657  55.6126937  46.3764964   9.3079957  54.8284488  45.2514895
   8.9708231  55.3767262  45.6990881   2.3555436  64.9264703  54.9819858
   1.7643369  65.5674201  54.9522873   3.1176460  65.3502320  54.9551157
   2.3803697  65.0840541  54.9735005   2.7516059  56.0866701  55.6487875
   3.2117541  56.1605630  56.3862999   2.7972166  56.8847955  55.2987697
   2.8266614  56.2160848  55.7060632   4.3999409  56.7533395  60.2159902
   4.0084974  56.1066743  60.6515680   4.5685271  57.3444831  60.8354158
   4.3670319  56.7447663  60.3722608  18.4745858  64.7570473  55.9797136
  18.5328981  65.2057121  56.7257113  17.8412325  65.1669285  55.5427216
  18.3897153  64.8844207  56.0249684  12.1144952  70.3774014  52.4151882
  11.9164641  70.8664829  51.7208094  11.4932663  70.5815256  52.9936016
  11.9932517  70.4790553  52.3975105   6.1752931  62.1458911  46.7562126
   6.9194976  62.5333188  46.9945076   6.3213627  61.3016337  46.9202614
   6.3063516  62.0789384  46.8156096   8.0932506  53.9409170  51.7893988
   7.2468551  54.1131978  51.6635338   8.0903639  53.1358514  52.1259816
   7.9679656  53.8470199  51.8205115   9.1630807  57.7184385  52.6556046
   8.6890761  57.1926147  53.1661357   9.5348942  57.1713857  52.0870907
   9.1480696  57.5600381  52.6471193  15.4267537  62.7786760  54.0662826
  15.1865760  61.9393175  54.0705253  15.9059544  62.8586927  54.7903600
  15.4619721  62.6668160  54.1737629  11.0914306  58.6120939  45.7181800
  10.5637325  58.6949683  45.0287508  11.5510014  59.3538811  45.7146444
  11.0816157  58.7341602  45.6156495  17.4272724  59.5588217  52.0192085
  17.1882494  59.5184052  51.1812870  17.5906625  60.4059369  52.1457807
  17.4163028  59.6780302  51.9145567   3.0847371  56.8823459  40.7422695
   2.7360176  57.5343184  41.2054244   2.6043817  56.8680572  40.0146566
   2.9617615  56.9766512  40.7033786  10.6451389  67.1824503  44.8491457
  11.3685588  67.6482616  44.7056030  10.2051980  67.2498112  44.0989054
  10.6867081  67.2608339  44.7176238   9.8137544  64.0422045  56.0992146
   9.1994537  63.4980095  56.3940781  10.3304829  63.5286281  55.6197962
   9.7993206  63.8858454  56.0716374   9.0533841  65.1126315  53.8336444
   8.6261449  64.4876034  53.4001880   9.0458785  64.8301237  54.6595452
   8.9892982  64.9779096  53.8916272   2.1696368  60.1491488  56.9024878
   2.3289855  59.3934812  57.3076600   1.9889262  60.6982428  57.5565616
   2.1661727  60.1185302  57.0587584  10.1116671  52.3152724  57.4575668
   9.6157232  52.5116398  56.7667234  10.8685733  52.7145392  57.2864469
  10.1503496  52.4030457  57.3295805   7.3819551  55.9895070  54.0478978
   7.4062038  55.4555182  53.3591758   7.6331024  55.4812378  54.7104569
   7.4229469  55.8355973  54.0443623   3.6620873  54.7165888  53.4284723
   3.7019245  55.2175094  54.1419430   2.8370538  54.8076281  53.1590646
   3.5460399  54.8047704  53.4935261   5.0835236  61.2326398  55.7258622
   4.2527166  61.4000216  55.5193870   5.0286754  60.8562348  56.5107507
   4.9524651  61.2016129  55.8107150   2.8919020  54.7235291  61.3615032
   3.5171723  54.1797423  61.6344465   2.4369500  54.2430208  60.7922823
   2.9167280  54.5724772  61.3176626   3.4571280  59.5081989  46.2548739
   3.5974241  60.0054453  46.9577381   3.9553813  58.8068284  46.3962953
   3.5512361  59.4783968  46.3800318   3.4871503  60.3749100  43.5841316
   4.1216582  60.9709525  43.5190778   3.5697113  60.0752558  44.3987186
   3.5928054  60.4190008  43.6944403  16.4654068  62.9064578  56.4527680
  17.0571909  63.5461828  56.4845878  16.9013063  62.2087614  56.7419747
  16.6172500  62.8982928  56.5008513   5.0650485  56.3063076  43.5586758
   5.3866326  55.8266158  42.9046020   5.3277429  57.1162722  43.3677570
   5.1516511  56.3552974  43.4342250   8.2947458  67.3281950  57.0785574
   7.7872549  67.8817797  57.5226205   7.9974104  67.3890240  56.2604349
   8.1752343  67.4188261  57.0234031  10.4609640  55.6935270  55.9210237
  10.8864712  55.2407796  55.3093764   9.8466634  55.1395340  56.1975025
  10.4338286  55.5449246  55.8715263   8.9003863  52.1650369  49.3300814
   8.2572181  52.0148016  49.8985953   8.5603270  51.9192715  48.5649919
   8.7548941  52.1062492  49.3003829  13.4903210  60.1209796  48.7530823
  12.8194400  60.6639498  48.6243888  14.1842960  60.5904652  48.5112518
  13.4932077  60.2708067  48.6986351  13.6531337  56.5765680  51.6621196
  14.0058947  56.1495403  52.3366995  12.7946139  56.4916523  51.7922272
  13.5780782  56.5010420  51.7816207   2.3515022  59.2073200  49.7204043
   1.6327011  59.6237332  49.9876906   2.7227384  59.7727438  49.1695681
   2.3006954  59.3522481  49.6786850   9.5960933  66.4288240  61.5354515
   9.5556788  65.7837917  60.9499671  10.4084251  66.3724858  61.8479927
   9.7104086  66.3247207  61.4951464   8.1261597  58.2471199  45.0577422
   7.5326436  58.5688196  44.5061989   8.1636874  57.4012295  44.8498528
   8.0435986  58.1695528  44.9460193  15.0855397  51.6984092  52.5905509
  14.5786262  50.9913231  52.5226686  15.8822831  51.3677280  52.7206585
  15.1282636  51.5457243  52.6004504  11.0019413  58.2050704  48.4879172
  10.7733106  58.2283405  47.6457531  11.2617489  57.3808171  48.6074183
  11.0065601  58.0866784  48.3804370   5.2838642  60.0585177  58.0904273
   4.7717545  59.4506360  58.4489304   5.1118138  60.7741769  58.5578248
   5.1828279  60.0748476  58.2120496   4.0564176  56.7427250  49.7833368
   4.5321542  57.1044330  49.1483549   3.5552775  57.3983718  50.0633511
   4.0529535  56.8921439  49.7310109  17.2875537  66.2149018  45.5746373
  17.6709143  66.9640374  45.8044470  16.4919651  66.4614838  45.3158362
  17.2269319  66.3618712  45.5703947   9.1607712  57.9809422  60.5306528
   9.7179142  57.7523231  59.8984993   8.8368777  58.7415087  60.2541740
   9.1954122  58.0593258  60.3963025   6.8790829  61.0677075  61.4958535
   7.6302156  61.3828752  61.8098089   7.0713406  60.8656246  60.6692457
   7.0182243  61.0844457  61.4201931   6.0990829  58.8868450  43.1506752
   6.4789794  58.9048079  42.3657867   5.3583425  59.3322439  43.0297599
   6.0459667  58.9550225  43.0170320  13.7276119  57.1950641  48.7382331
  13.7270346  57.0399298  49.5966607  13.5232299  58.0413628  48.6823716
  13.6975897  57.2971262  48.8570270  11.4516971  61.8748143  52.3918537
  11.9470637  61.1571138  52.3522558  10.6416747  61.5718941  52.2773024
  11.4060865  61.7245789  52.3692263   6.8975583  65.7245956  44.5415542
   6.0886906  65.4012630  44.4948851   7.4050492  65.0179178  44.4743791
   6.8525250  65.5727273  44.5245836  13.5168790  64.6251831  55.0795666
  13.9423862  64.1026252  54.5266091  13.1525710  65.2232668  54.5584289
  13.5255393  64.6362058  54.9204676  10.1047390  68.3386095  51.4096824
  10.5758568  69.0526357  51.5786809  10.4407568  67.7384845  51.9456693
  10.2242505  68.3557559  51.5129200   7.0216885  53.1113565  58.3654919
   7.1544790  52.3144559  58.6935894   7.4062037  53.6379968  58.9453194
   7.0973213  53.0713482  58.4998421  10.7421336  68.1304029  58.1724516
  10.1942282  67.5061913  57.9044582  11.2034365  68.3198301  57.4568596
  10.7288545  68.0663079  58.0274947  10.0949240  50.0343891  54.9636012
   9.2895203  49.9241621  55.2803850   9.9655975  50.1356347  54.1065878
   9.9569373  50.0327562  54.8844052  13.5515200  56.1989383  55.5575709
  12.9678189  56.6998590  55.1453276  13.8719494  55.6918940  54.9240032
  13.5128376  56.1981218  55.4034216   6.0909999  55.1129978  45.8334383
   6.9125694  55.2828291  45.5916078   5.6279650  55.2677239  45.1100681
   6.1441162  55.1611711  45.6906028   4.6805331  53.1072740  56.6132812
   5.2249744  52.7663867  57.2037154   4.7342267  53.9658202  56.7554097
   4.7694451  53.1828000  56.7214686  10.3079662  69.1355102  54.7033858
  11.1278036  68.9918068  54.9650153  10.0273740  69.7601300  55.2450295
  10.3876406  69.2065454  54.8221797  16.7068784  70.7274670  51.3920047
  16.3772114  71.1785814  50.7223746  16.0313786  70.6490833  51.9393054
  16.5579221  70.7825805  51.3743271  23.9145192  66.7160193  49.6369658
  23.5998633  67.4063671  50.0690080  23.3972134  66.6604975  48.9355159
  23.7909663  66.8095081  49.5966607  14.9124738  68.7886958  46.8742995
  15.6670706  69.1565275  46.6360045  14.7352273  69.1626513  47.6422175
  14.9979217  68.8985146  46.9527884  28.2059637  74.9381399  54.9190535
  27.3688058  75.0083586  55.1538129  28.1747868  74.9405894  54.0464837
  28.0777920  74.9491626  54.8250083  13.2681803  71.1957277  43.5721108
  13.0857376  71.4129158  42.7462101  14.1307416  71.3096290  43.6279723
  13.3686393  71.2447175  43.4575595  18.9481522  68.1983688  46.6070132
  19.6767683  68.0199643  46.1608288  19.0376415  69.0401768  46.8177310
  19.0688184  68.2967566  46.5723650  25.8867477  70.0024180  53.5034257
  26.5293385  70.0722285  54.0896172  26.1390498  69.3353403  53.0013799
  26.0189609  69.9150529  53.5161536  21.1218759  71.0961152  51.2145210
  20.4175086  70.6070338  51.3729129  21.1703734  71.1083626  50.3433654
  21.0248811  71.0250800  51.1084550  28.3248979  74.7768818  49.2346220
  28.0685544  73.9648759  49.0444103  29.1678293  74.7846385  49.0076408
  28.4115005  74.6580815  49.1731038  22.5052072  68.7168442  53.9722375
  22.8862583  68.0346613  54.3590249  21.7015356  68.4278044  53.7898039
  22.4428533  68.5735490  54.0026431  16.4643912  71.2222640  63.8384983
  16.1497353  71.9922203  63.5754546  16.1433845  70.6592896  63.2537210
  16.3702831  71.2532909  63.7126333  14.0175809  69.6113162  49.4531179
  13.1498234  69.6835761  49.5188789  14.3051013  70.4135241  49.6419154
  13.9315557  69.7407309  49.4905946  23.1408698  69.7591021  57.7842501
  23.8862290  69.5700831  57.3705927  22.7246002  70.2849259  57.2256358
  23.1893672  69.8093166  57.6407074  30.5170969  77.1300249  52.7348006
  31.0678890  76.4968319  52.9745098  30.5015084  77.6615642  53.4263510
  30.5956165  77.1149198  52.8726864  24.2199375  75.3696583  51.8452602
  23.8764141  74.6486918  52.1959852  24.3192417  75.1610434  51.0030961
  24.1841418  75.2320786  51.7724282  22.7390340  73.2888168  53.7212145
  21.9001441  73.3149447  53.4850409  22.8094708  73.9358903  54.3017492
  22.6258734  73.3884294  53.7721262  21.1859619  70.1873545  48.4539761
  21.8885971  69.9881293  47.9759719  20.9203807  69.4149487  48.7608605
  21.2506251  70.0436511  48.4285203  15.9488175  71.4508830  57.5070642
  15.7571372  71.4663965  58.3570065  16.7986771  71.6472504  57.4837297
  16.0463897  71.4823181  57.6293937  18.8592402  71.6464339  57.7142465
  19.3165016  72.3788314  57.8415257  18.9348731  71.2230805  58.4729721
  18.9383372  71.6921578  57.8443541  23.3319728  64.8254215  51.5836308
  23.4503296  65.2830678  50.8503611  23.1581903  64.0199476  51.2972525
  23.3238899  64.7747987  51.4337242  20.9082563  73.5705081  57.5367627
  21.1224532  72.9315996  56.9830981  20.2916462  74.0150905  57.1075489
  20.8487892  73.5415225  57.3918058  23.0721651  75.1794147  58.4750934
  22.2598333  74.8720037  58.5564107  23.5311585  74.6993147  59.0393646
  23.0202036  75.0630639  58.5705528  20.2997292  66.6805017  52.5254970
  19.4290849  66.6543738  52.4788279  20.5537633  66.5082209  51.7080815
  20.2090852  66.6515161  52.3975107  17.3246432  68.6911245  53.9828440
  16.8084921  67.9991437  54.1080019  16.7640361  69.3582022  53.9291039
  17.1652945  68.6874503  53.9934506  19.3938665  69.2304205  55.8121293
  19.0070419  69.2553237  56.5934823  18.9071603  68.6645884  55.3595809
  19.2651174  69.1499956  55.8609196  19.0595807  66.1171191  58.1031553
  19.6888925  66.6531491  57.8252623  19.2281670  66.0248550  58.9545118
  19.1773602  66.1832553  58.1880081  18.8609722  70.9042386  60.3757964
  19.6883151  70.6327535  60.4316579  18.8817568  71.7003227  60.7321782
  18.9862572  70.9822140  60.4373147  22.5519726  68.6507079  51.0716854
  22.7569319  68.5829387  51.9173852  22.2246150  69.4565901  51.0038032
  22.5334974  68.7593020  51.1876510  25.8053413  69.2038844  50.5519620
  25.1927727  69.6909246  50.9373352  25.9017588  68.5282335  51.0957271
  25.7291311  69.1757152  50.6898478  19.8072494  70.9601685  45.6517119
  20.2616241  71.1312245  46.3764964  20.2812540  70.3469796  45.2514895
  19.9440814  70.8952570  45.6990881  19.0665090  69.4594478  51.7893988
  18.2201135  69.6317286  51.6635338  19.0636222  68.6543822  52.1259816
  18.9412240  69.3655507  51.8205115  20.1363390  73.2369692  52.6556046
  19.6623344  72.7111455  53.1661357  20.5081526  72.6899165  52.0870907
  20.1213279  73.0785689  52.6471193  22.0646890  74.1306247  45.7181800
  21.5369908  74.2134991  45.0287508  22.5242598  74.8724119  45.7146444
  22.0548740  74.2526909  45.6156495  28.4005308  75.0773525  52.0192085
  28.1615078  75.0369360  51.1812870  28.5639209  75.9244677  52.1457807
  28.3895611  75.1965610  51.9145567  21.0849255  67.8338032  57.4575668
  20.5889816  68.0301706  56.7667234  21.8418317  68.2330700  57.2864469
  21.1236079  67.9215765  57.3295805  18.3552134  71.5080377  54.0478978
  18.3794621  70.9740490  53.3591758  18.6063608  70.9997686  54.7104569
  18.3962053  71.3541281  54.0443623  14.6353457  70.2351196  53.4284723
  14.6751828  70.7360402  54.1419430  13.8103121  70.3261589  53.1590646
  14.5192982  70.3233012  53.4935261  13.8651603  70.2420598  61.3615032
  14.4904307  69.6982731  61.6344465  13.4102083  69.7615516  60.7922823
  13.8899864  70.0910080  61.3176626  16.0383069  71.8248384  43.5586758
  16.3598910  71.3451466  42.9046020  16.3010013  72.6348030  43.3677570
  16.1249094  71.8738281  43.4342250  21.4342224  71.2120577  55.9210237
  21.8597296  70.7593104  55.3093764  20.8199217  70.6580648  56.1975025
  21.4070869  71.0634554  55.8715263  19.8736447  67.6835677  49.3300814
  19.2304765  67.5333324  49.8985953  19.5335854  67.4378023  48.5649919
  19.7281524  67.6247800  49.3003829  24.6263921  72.0950988  51.6621196
  24.9791531  71.6680711  52.3366995  23.7678722  72.0101831  51.7922272
  24.5513365  72.0195728  51.7816207  26.0587981  67.2169400  52.5905509
  25.5518845  66.5098539  52.5226686  26.8555415  66.8862588  52.7206585
  26.1015220  67.0642551  52.6004504  21.9751997  73.7236012  48.4879172
  21.7465690  73.7468713  47.6457531  22.2350073  72.8993479  48.6074183
  21.9798185  73.6052092  48.3804370  24.7008703  72.7135949  48.7382331
  24.7002929  72.5584606  49.5966607  24.4964883  73.5598936  48.6823716
  24.6708481  72.8156570  48.8570270  17.9949468  68.6298873  58.3654919
  18.1277374  67.8329867  58.6935894  18.3794621  69.1565276  58.9453194
  18.0705797  68.5898790  58.4998421  21.0681823  65.5529199  54.9636012
  20.2627787  65.4426929  55.2803850  20.9388559  65.6541655  54.1065878
  20.9301956  65.5512869  54.8844052  24.5247784  71.7174691  55.5575709
  23.9410773  72.2183898  55.1453276  24.8452078  71.2104247  54.9240032
  24.4860959  71.7166526  55.4034216  17.0642583  70.6315286  45.8334383
  17.8858277  70.8013599  45.5916078  16.6012234  70.7862547  45.1100681
  17.1173745  70.6797019  45.6906028  15.6537915  68.6258048  56.6132812
  16.1982328  68.2849175  57.2037154  15.7074851  69.4843510  56.7554097
  15.7427034  68.7013308  56.7214686   4.5278969  22.6927469  34.6016781
   4.4972974  23.5472105  34.7735050   5.1260318  22.3922761  35.1602924
   4.6116127  22.7743965  34.7091583   1.0372371  28.0489645  48.9630167
   1.7439138  27.5541676  49.0917102   1.2260306  28.4898727  48.2332825
   1.1700276  28.0407996  48.8739213   2.3495544  25.2679771  32.8735091
   2.2335070  26.0187457  33.3027229   3.1451431  25.0103724  33.1231178
   2.4500133  25.3414618  32.9739182   1.6630849  12.6167708  36.5709705
   1.3484290  13.3071187  37.0030127   1.1457791  12.5612490  35.8695206
   1.5395319  12.7102597  36.5306654   6.4591336  28.1918514  38.0580160
   5.6289039  28.4029157  38.2213577   6.4100588  27.3655568  37.7822444
   6.3298071  28.1008120  38.0417525   5.9545294  20.8388914  41.8530581
   5.1173715  20.9091101  42.0878176   5.9233525  20.8413409  40.9804884
   5.8263576  20.8499141  41.7590129   0.6775480  25.0344591  37.4442473
   1.4332995  25.4676105  37.4831382   0.7837804  24.3849360  38.0177109
   0.8045650  25.0022075  37.5340498   3.7155651  28.8617868  38.1944876
   3.2790883  28.8654610  38.9503847   3.3818566  29.5423367  37.7624453
   3.6018271  28.9630324  38.2425708   3.6353134  15.9031696  40.4374304
   4.2779042  15.9729800  41.0236219   3.8876154  15.2360919  39.9353846
   3.7675266  15.8158044  40.4501583   6.8499997  25.5798788  37.0864513
   7.5116431  25.0189456  36.9860421   6.2091409  25.0850819  37.4117204
   6.8528865  25.4235197  37.1196853   3.1364828  26.5964170  36.8276502
   3.3720417  26.7409369  36.0003352   3.2854391  27.3606578  37.2208015
   3.1930631  26.7303225  36.7640106   4.9655284  25.4365836  34.6646106
   5.2963502  25.9693476  34.0586200   5.5388373  25.4904724  35.3208057
   5.0988964  25.5235405  34.6723887   6.0734636  20.6776333  36.1686267
   5.8171201  19.8656275  35.9784150   6.9163950  20.6853900  35.9416455
   6.1600661  20.5588331  36.1071084   3.7559795  27.8325929  46.0044820
   3.5198433  27.0013994  45.8856880   4.4003024  27.7811536  46.5899664
   3.8154466  27.7023617  46.0730713   4.7796216  27.6170378  42.0673114
   4.4742033  28.3498435  42.4286430   4.0602432  27.2108307  41.7865900
   4.6283558  27.6652111  42.0786251  10.4798008  24.2563379  41.3941459
  10.4122508  24.2759338  40.5244045  10.4653670  25.0993706  41.6197129
  10.4676765  24.3837113  41.2993935   8.2656625  23.0307765  39.6688053
   8.8164547  22.3975834  39.9085145   8.2500741  23.5623158  40.3603557
   8.3441822  23.0156713  39.8066911   1.9685032  21.2704098  38.7792649
   1.6249797  20.5494434  39.1299899   2.0678074  21.0617950  37.9371007
   1.9327074  21.1328302  38.7064329   2.4298061  27.7329803  34.3216637
   2.9956093  28.3923012  34.2375180   1.7825964  28.0779501  34.7933039
   2.4176817  27.8811744  34.3789394   4.3633521  24.3963670  37.9413434
   4.2767495  24.5519096  38.7948213   3.9084001  25.0401746  37.5672839
   4.2836778  24.5139425  38.0120541   2.1307386  28.4257776  40.3525775
   1.9921745  29.1238822  40.8574517   1.3507384  28.2706433  39.9961956
   1.9950613  28.5057943  40.3752049   3.6260759  27.7836030  31.1142274
   3.2467567  26.9973168  31.1071563   2.9627004  28.3322887  30.9713918
   3.4719233  27.7480854  31.0923071   1.8720857  30.0281521  31.4493960
   1.9540695  30.8348507  31.1255411   2.3570600  30.0477480  32.1734733
   1.9558015  30.1502184  31.5080858   1.3796058  28.7878940  51.5312286
   2.1930923  28.5164088  51.6917418   1.2191024  28.4886479  50.7272481
   1.4766006  28.7033866  51.4357691   1.3917302  29.8485230  46.8035126
   2.0297022  29.3545425  46.4697582   0.7491393  29.7762630  46.2187353
   1.3911528  29.7644238  46.6677481   3.1174302  21.6974376  41.3701042
   2.6901910  21.6100724  40.6149141   2.4800355  21.8052151  41.9555886
   2.9603909  21.7007036  41.3446483   1.4471558  30.5405038  43.4440483
   2.2363936  30.1894103  43.5642564   1.6215156  31.3541426  43.1817117
   1.5891840  30.6090895  43.4228351   3.5539070  15.1046359  37.4859667
   2.9413384  15.5916761  37.8713399   3.6503245  14.4289850  38.0297318
   3.4776968  15.0764668  37.6238525   7.1964098  26.1763296  42.9137183
   7.2547222  26.6249945  43.6597159   6.5630566  26.5862109  42.4767263
   7.1115393  26.3037030  42.9589731   4.1485778  24.1979584  41.0002873
   3.9084000  23.3585999  41.0045300   4.6277785  24.2779750  41.7243647
   4.1837961  24.0860983  41.1077676   6.1490965  20.9781041  38.9532132
   5.9100735  20.9376875  38.1152917   6.3124866  21.8252193  39.0797853
   6.1381268  21.0973126  38.8485614   2.7536995  25.3630990  44.8837177
   3.4771194  24.9103516  44.7048197   2.4886957  25.6435656  44.1009505
   2.8218268  25.3381959  44.7415893   5.1872309  24.3257401  43.3867727
   5.7790149  24.9654652  43.4185925   5.6231303  23.6280438  43.6759794
   5.3390740  24.3175751  43.4348560   2.2121450  21.5402619  35.6870870
   1.5412640  22.0832322  35.5583935   2.9061200  22.0097475  35.4452564
   2.2150318  21.6900891  35.6326397   2.3749578  17.9958503  38.5961243
   2.7277188  17.5688226  39.2707042   1.5164379  17.9109347  38.7262319
   2.2999022  17.9203244  38.7156253   3.8073638  13.1176915  39.5245555
   3.3004502  12.4106054  39.4566733   4.6041071  12.7870104  39.6546632
   3.8500877  12.9650066  39.5344550   6.0093778  27.6341842  32.5086420
   6.3927383  28.3833198  32.7384517   5.2137891  27.8807661  32.2498409
   5.9487560  27.7811535  32.5043993   2.4494360  18.6143464  35.6722377
   2.4488586  18.4592121  36.5306654   2.2450540  19.4606452  35.6163763
   2.4194138  18.7164085  35.7910317   2.2387031  26.0444654  42.0135713
   2.6642102  25.5219076  41.4606138   1.8743950  26.6425491  41.4924336
   2.2473633  26.0554881  41.8544723   0.9142615  31.3680231  50.5228943
   1.0239580  30.5788792  50.8785690   1.2433511  31.2786168  49.7203281
   0.9795020  31.2386084  50.4571333   2.2733441  17.6182207  42.4915755
   1.6896430  18.1191413  42.0793323   2.5937735  17.1111763  41.8580079
   2.2346616  17.6174042  42.3374263  15.5011553  38.2112777  34.6016781
  15.4705557  39.0657413  34.7735050  16.0992902  37.9108069  35.1602924
  15.5848711  38.2929273  34.7091583   8.7011238  37.2988428  39.3569711
   7.8449133  37.4596926  39.4078828   8.7478892  36.4280492  39.3774772
   8.5810349  37.1939229  39.3675777   3.0852378  46.8351145  35.1206943
   2.3335277  46.4566684  34.8922988   3.5338389  46.8669579  34.3725753
   3.0402044  46.7836753  34.9764445  12.0104954  43.5674953  48.9630167
  12.7171722  43.0726984  49.0917102  12.1992890  44.0084035  48.2332825
  12.1432860  43.5593304  48.8739213   8.5377337  47.2576515  30.5492490
   8.2028706  47.9353437  30.1136712   9.0504208  46.8681826  29.9609361
   8.5642919  47.3001093  30.3979281   8.0781629  49.2090784  36.4903601
   8.4621008  49.7777682  35.9508377   8.0140770  48.4840294  36.0109417
   8.1255056  49.1866247  36.3397464  11.5463059  39.3580472  42.0001363
  12.0919019  40.0365558  42.0595332  11.4879935  39.2167932  41.1402944
  11.6178973  39.4372473  41.8813423   4.6637134  46.8469538  37.3869715
   4.7647497  46.0369892  37.6966843   4.0678879  46.7526484  36.7569394
   4.5909672  46.7134566  37.3395954  13.3228128  40.7865079  32.8735091
  13.2067653  41.5372765  33.3027229  14.1184014  40.5289032  33.1231178
  13.4232717  40.8599926  32.9739182   4.5037873  51.7647127  38.7884571
   5.1475329  52.2060291  39.1780730   4.8294129  50.9600553  38.7014830
   4.6469702  51.7112322  38.8330049   5.2058453  44.7759102  34.1604433
   5.5274294  45.3164309  33.5565741   5.8530550  44.2055873  34.2926723
   5.3484508  44.7718277  34.0911468   7.2560161  36.7775097  34.2438820
   7.9540326  36.9563224  34.7360283   7.5712494  36.2545436  33.6209209
   7.4055498  36.7268869  34.2240830   7.4448097  43.1645542  34.2318611
   7.8841732  42.5562642  34.6773384   7.2952759  42.7852915  33.4604076
   7.4869562  43.0184013  34.1837779   4.9119740  41.7589553  41.4337437
   5.5568742  41.2661997  41.1148385   5.1521517  41.9014340  42.2603515
   5.0430325  41.7066996  41.5086970   7.4505831  44.6044459  41.0844329
   7.7329074  43.8095865  40.8631085   8.1791991  45.0825047  41.1049390
   7.5995395  44.5579056  41.0547344   5.4287025  32.1467493  38.3260094
   5.0990355  32.5978637  37.6563793   4.7532027  32.0683657  38.8733101
   5.2797461  32.2018628  38.3083318  11.0457433  41.5172723  31.1849380
  10.9608728  42.3733690  31.3298949  11.5341816  41.2417047  31.8531540
  11.1046330  41.6030044  31.3051462  12.6363432  28.1353016  36.5709705
  12.3216873  28.8256495  37.0030127  12.1190374  28.0797798  35.8695206
  12.5127903  28.2287905  36.5306654  11.9775866  38.1357517  32.6847116
  11.4487338  38.3517151  33.3444422  12.5000886  38.8293656  32.6048085
  11.9764319  38.2700654  32.7702715  17.4323919  43.7103821  38.0580160
  16.6021622  43.9214465  38.2213577  17.3833172  42.8840876  37.7822444
  17.3030655  43.6193428  38.0417525   3.8675474  42.0320734  31.4854583
   3.2832689  42.5370765  31.8920447   3.4645569  41.8063121  30.7451175
   3.7214778  42.0728982  31.4359609   5.4933657  46.5407676  40.8928070
   4.9760598  46.1815091  40.2889378   6.1908048  46.0169850  40.9034136
   5.5199238  46.4105364  40.8058328   9.1497249  46.9902490  46.8544243
   9.2380595  46.8028630  47.7022453   9.5786961  46.3439919  46.4549089
   9.2259351  46.8665497  46.9215994   6.7167709  46.2733650  45.8361905
   6.1538543  45.8606260  46.3601566   7.4788732  46.1986555  46.2555048
   6.7462157  46.2011050  45.9754905   8.3252689  38.2786386  29.9623504
   8.5648692  38.4864370  29.1498847   8.6468530  37.4743895  30.0712449
   8.4089846  38.1900487  29.8584057   3.6342979  30.2079782  33.8083042
   4.3888947  30.5758099  33.5700092   3.4570513  30.5819336  34.5762222
   3.7197457  30.3177970  33.8867931   2.2763700  48.2631671  38.4398535
   2.9784279  47.7483660  38.4971291   2.1961183  48.5905822  39.2445410
   2.3687460  48.2345897  38.5671327  16.9277878  36.3574222  41.8530581
  16.0906299  36.4276409  42.0878176  16.8966108  36.3598717  40.9804884
  16.7996160  36.3684449  41.7590129   3.3242607  38.5007258  47.5678950
   3.4963110  38.3913152  48.4164231   3.8611964  39.1461663  47.3310142
   3.4287611  38.5799259  47.6584047   1.9900043  32.6150101  30.5061155
   1.8075617  32.8321981  29.6802148   2.8525656  32.7289113  30.5619769
   2.0904633  32.6639999  30.3915642   1.6014475  44.4538023  37.9484143
   2.4403375  44.6860956  37.9957905   1.6326245  43.5842334  37.8791178
   1.7296193  44.3594969  37.9448788   2.2267178  44.8738898  42.2497448
   2.7665403  44.7310029  42.9200821   1.5437125  45.2735649  42.6181475
   2.2059332  44.9118569  42.4031870   7.6699763  29.6176511  33.5410179
   8.3985923  29.4392466  33.0948335   7.7594656  30.4594591  33.7517357
   7.7906425  29.7160390  33.5063696  11.6508063  40.5529899  37.4442473
  12.4065578  40.9861413  37.4831382  11.7570388  39.9034668  38.0177109
  11.7778234  40.5207383  37.5340498  14.6888234  44.3803176  38.1944876
  14.2523466  44.3839918  38.9503847  14.3551150  45.0608675  37.7624453
  14.5750854  44.4815632  38.2425708   9.2617308  46.4211509  49.5188026
  10.0457725  46.5342357  49.8843768   9.0613903  45.5952646  49.7146712
   9.3483333  46.3158228  49.6022412  14.6085717  31.4217004  40.4374304
  15.2511626  31.4915108  41.0236219  14.8608738  30.7546227  39.9353846
  14.7407849  31.3343352  40.4501583   1.5362070  35.8924273  29.0183628
   0.8220248  35.6062453  29.4306061   2.0206039  36.2320899  29.6590016
   1.5021434  35.9005923  29.1739263   2.3802930  34.6317567  45.0498878
   1.6874727  34.1614547  45.2959609   2.9963257  34.4055872  45.6240585
   2.3687460  34.5284699  45.1708030   9.4187701  48.3321611  43.1654482
   8.6202947  48.0921111  43.4228350   9.8673713  48.3836004  43.9121529
   9.3662313  48.3044002  43.3139406   8.7109388  44.3954227  29.3945436
   9.1260537  44.0639251  28.7029932   7.8801318  44.1623129  29.2665573
   8.6497397  44.3125483  29.2736284  14.1097411  42.1149478  36.8276502
  14.3453001  42.2594677  36.0003352  14.2586975  42.8791886  37.2208015
  14.1663215  42.2488533  36.7640106   1.1043489  38.5982971  46.1925723
   1.8283461  38.5836002  46.6790618   1.2059625  39.3078326  45.6947691
   1.2261698  38.7007674  46.1904510  15.9387868  40.9551144  34.6646106
  16.2696085  41.4878784  34.0586200  16.5120956  41.0090032  35.3208057
  16.0721547  41.0420713  34.6723887   8.4788438  42.0782056  51.0574670
   7.6861419  42.3925568  51.2427290   8.5937365  42.2933524  50.2195455
   8.3783849  42.1565892  50.9613005  11.1519757  38.8016047  35.3469686
  11.2466612  39.5405341  35.8009311  10.5278601  38.3733522  35.7804250
  11.0728787  38.8477367  35.4777833   9.4072231  41.9802259  45.9959967
   9.9811093  41.3429504  46.1508531   9.3287035  41.9806342  45.1269624
   9.4805466  41.8867371  45.8906377  11.4042779  40.6464787  28.5806638
  11.3222941  40.7166974  29.4461625  12.0422499  41.2094531  28.3890378
  11.4862616  40.7403758  28.6796587   4.7635950  40.4125525  38.0481164
   4.5055194  39.5797259  38.0212463   4.8184432  40.6383138  37.2073664
   4.7335728  40.3223296  37.9201301   9.8437000  32.5153975  38.1485257
   9.1393327  32.0263161  38.3069176   9.8921974  32.5276450  37.2773701
   9.7467051  32.4443623  38.0424597   3.7370662  37.9663287  38.5346059
   3.1620253  38.1255455  39.1710020   3.3606338  37.3298696  38.0714509
   3.5973474  37.8961100  38.5600617   7.4043950  36.4386636  43.3938437
   7.0158383  36.0140854  42.7390628   6.7398649  36.6868786  43.9015464
   7.2490878  36.4125357  43.3726305  17.0467220  36.1961641  36.1686267
  16.7903784  35.3841583  35.9784150  17.8896534  36.2039208  35.9416455
  17.1333245  36.0773638  36.1071084  11.2270312  30.1361265  40.9062421
  11.6080824  29.4539436  41.2930296  10.4233596  29.8470867  40.7238086
  11.1646774  29.9928314  40.9366477   8.5082889  40.6685241  31.5915244
   9.3223528  40.9600134  31.4798016   8.4442030  40.0145103  31.0173537
   8.6185628  40.6150436  31.4904082  14.7292379  43.3511237  46.0044820
  14.4931016  42.5199302  45.8856880  15.3735608  43.2996844  46.5899664
  14.7887050  43.2208925  46.0730713   4.3790797  44.1406758  36.7187556
   5.0164744  43.9018506  37.2639350   4.8045869  44.3443917  35.9840717
   4.5366963  44.1357769  36.6904714   5.0193612  39.3609048  31.0562446
   5.4038765  39.1416755  31.8078991   4.7705232  40.1871994  31.1863522
   5.0395685  39.4507194  31.1863522   5.1862152  32.6415463  50.7725030
   4.8715593  33.4115026  50.5094593   4.8652085  32.0785719  50.1877257
   5.0921071  32.6725732  50.6466380  15.7528800  43.1355686  42.0673114
  15.4474617  43.8683743  42.4286430  15.0335015  42.7293615  41.7865900
  15.6016142  43.1837419  42.0786251   6.7612269  44.6179181  38.3981343
   6.8351277  44.4554353  39.2523192   7.5781775  44.8069371  38.1541824
   6.8928628  44.6215923  38.4879368   2.7394049  31.0305985  36.3871226
   1.8716475  31.1028584  36.4528835   3.0269254  31.8328064  36.5759201
   2.6533797  31.1600132  36.4245993  11.8626938  31.1783844  44.7182548
  12.6080530  30.9893655  44.3045973  11.4464243  31.7042082  44.1596404
  11.9111912  31.2285990  44.5747121   5.3016855  47.5813924  33.1294816
   5.5915153  47.1902905  32.4054043   6.0320335  47.7630629  33.5700091
   5.4523739  47.5507738  33.0877623   5.8911600  42.3831670  44.2147946
   5.3923293  43.0947438  44.2932835   6.7011824  42.7032337  44.1766109
   5.9367707  42.5358519  44.2204515   3.2422770  49.5581306  36.1954966
   3.0223066  49.2678661  36.9881633   3.0217292  48.8996262  35.6672878
   3.1770364  49.4181015  36.2343874   2.1539717  41.6454623  38.4610667
   1.8652966  41.0192094  38.9956395   3.0223065  41.5874910  38.5275348
   2.2399969  41.5442167  38.5501622  12.9417615  36.7889406  38.7792649
  12.5982381  36.0679742  39.1299899  13.0410658  36.5803258  37.9371007
  12.9059658  36.6513610  38.7064329   5.4090726  50.9310696  34.9785658
   6.0614784  50.3987139  35.2076684   4.7116335  50.5779349  35.3653532
   5.4021444  50.8000219  35.0697826   2.3571991  43.2849874  34.3853032
   3.1117959  43.6662913  34.5988495   1.7642603  43.7361018  34.8399729
   2.3808704  43.4078701  34.4835911  13.4030644  43.2515110  34.3216637
  13.9688677  43.9108320  34.2375180  12.7558548  43.5964809  34.7933039
  13.3909401  43.3997052  34.3789394   4.8178658  35.2412714  49.5110245
   4.0078434  35.5470494  49.4000087   5.2953345  35.9618297  49.6262829
   4.7682137  35.3927316  49.5117316   3.6770217  44.4558435  39.7593148
   3.1550971  44.5958727  40.4445012   4.0644238  43.6969100  39.9495265
   3.6573918  44.3643959  39.8894224   9.8737222  46.1953895  33.7453717
   9.6323898  45.4621755  33.3380781  10.0538555  46.7440752  33.0920050
   9.8644846  46.1676286  33.5883939   5.1036543  41.4862454  35.1574639
   4.9079326  42.0937189  34.5634942   5.3270889  40.7930398  34.6766313
   5.1071184  41.4739980  34.9990720   3.5015073  38.3717192  35.2755507
   4.2237725  38.5358350  34.8159313   3.0223066  39.0926857  35.1694847
   3.5378804  38.5015422  35.1921121  11.4608581  34.7080991  40.6552192
  10.6219681  34.7342270  40.4190455  11.5312948  35.3551727  41.2357539
  11.3476974  34.8077117  40.7061309   1.1522690  40.7775265  44.3809647
   1.6643787  41.0559518  43.7318407   0.8659032  41.5164559  44.7472460
   1.1857553  40.9277618  44.3399525   9.9077859  31.6066368  35.3879808
  10.6104212  31.4074116  34.9099766   9.6422048  30.8342311  35.6948651
   9.9724491  31.4629334  35.3625250  15.3366104  39.9148978  37.9413434
  15.2500079  40.0704404  38.7948213  14.8816584  40.5587053  37.5672839
  15.2569361  40.0324733  38.0120541   4.6706415  32.8701653  44.4410689
   4.4789612  32.8856788  45.2910112   5.5205011  33.0665328  44.4177343
   4.7682137  32.9016005  44.5633983   9.2091921  37.2359725  36.5638993
   8.9626635  37.1555476  37.3975782   9.5377044  36.4513193  36.3701521
   9.2213164  37.1085990  36.6586516  13.1039969  43.9443084  40.3525775
  12.9654329  44.6424130  40.8574517  12.3239967  43.7891741  39.9961956
  12.9683196  44.0243251  40.3752049  11.4418054  40.2439460  46.6048156
  11.4366093  39.3719276  46.6090583  12.1479048  40.4427629  46.1317612
  11.5463058  40.1443334  46.5355192   5.1688948  39.9716444  45.9761976
   5.3132324  40.5517652  45.3405086   5.5164596  40.3492740  46.6811831
   5.2416409  40.1137148  45.9860971   7.3408865  39.1706612  43.7587108
   6.5932179  39.3637626  43.3535386   7.4950390  38.3451832  43.5211229
   7.2531293  39.0771723  43.6632514   4.2416703  48.1619215  42.8423003
   4.3906267  47.6022131  42.1896408   5.0216705  48.2411217  43.2255522
   4.3790796  48.0904781  42.8019952  14.5993342  43.3021338  31.1142274
  14.2200151  42.5158476  31.1071563  13.9359588  43.8508195  30.9713918
  14.4451817  43.2666162  31.0923071   6.7670003  48.3333858  44.1207494
   6.6913675  47.6642669  44.6758282   6.6959863  49.0351646  44.6348160
   6.7450610  48.3378766  44.2784342   7.5810642  33.0657163  44.6482512
   8.0383256  33.7981137  44.7755304   7.6566971  32.6423628  45.4069768
   7.6601612  33.1114401  44.7783588  12.0537968  26.2447038  38.5176355
  12.1721536  26.7023501  37.7843657  11.8800144  25.4392299  38.2312572
  12.0457139  26.1940810  38.3677288   7.4240250  46.8534857  34.9531100
   8.1890141  46.5844501  34.6313764   7.3218340  46.3684868  35.6701163
   7.5221746  46.7424422  35.0110928   5.4593020  35.0559267  41.4924336
   4.6689095  34.8750727  41.8141672   5.8553643  34.2786219  41.4754630
   5.4009896  34.9146728  41.5376884   9.9458911  43.8847041  26.9331049
  10.7131896  43.9447166  26.5236901   9.4990220  43.3127482  26.4487368
   9.9932338  43.8083617  26.8008760  10.8436706  42.6901697  39.2183782
  10.1681708  42.4586929  39.7197169  10.8529082  42.0822880  38.5925887
  10.7455211  42.5660622  39.1999934   7.9730850  37.5319526  45.9747835
   7.9089992  38.3929482  45.8467971   8.1128038  37.2151519  45.1743386
   7.9846320  37.6119692  45.8376048  12.8453441  45.5466829  31.4493960
  12.9273278  46.3533815  31.1255411  13.3303183  45.5662788  32.1734733
  12.9290599  45.6687492  31.5080858   6.6549944  40.2251665  40.1164038
   6.2312193  40.4256164  39.3803056   6.4794799  39.3780513  40.2288337
   6.5660825  40.1300447  40.0237728   6.1561638  51.7402178  42.5785495
   6.6457568  51.0412967  42.3961159   5.5845870  51.4426048  43.1661552
   6.1446168  51.5928402  42.6386536   1.9432389  40.7203717  35.5492010
   2.0997008  40.6550519  36.4048002   2.2832982  41.4952269  35.3370690
   2.0165624  40.8252915  35.6446604   8.4811534  40.0961600  34.4185373
   9.0227079  39.5931981  34.8823994   8.7958093  40.0426795  33.6074859
   8.6075931  40.0141021  34.3669185  12.3528641  44.3064247  51.5312286
  13.1663507  44.0349396  51.6917418  12.1923608  44.0071787  50.7272481
  12.4498590  44.2219173  51.4357691   6.6497984  45.4878952  31.7025401
   6.7190804  44.6293490  31.8418402   7.4286439  45.7050833  31.3744426
   6.7750834  45.3931816  31.6742559   9.6300803  34.9897905  44.4707674
   9.8442773  34.3508819  43.9171028   9.0134702  35.4343728  44.0415536
   9.5706132  34.9608048  44.3258105  11.0405471  47.9116653  35.9161895
  10.6485263  47.6083368  35.1984761  11.1958543  48.7485743  35.7266848
  11.0059061  47.9900490  35.7818392  11.7939891  36.5986970  45.4090981
  10.9816573  36.2912860  45.4904154  12.2529826  36.1185970  45.9733693
  11.7420276  36.4823462  45.5045575  11.2045146  44.4766642  35.8567925
  10.8459801  44.6481285  36.6331958  10.7183857  44.9379847  35.2995924
  11.0803843  44.5705613  35.8893194   9.0215532  28.0997840  39.4595017
   8.1509090  28.0736561  39.4128326   9.2755873  27.9275032  38.6420862
   8.9309092  28.0707984  39.3315153   5.9933511  40.1565807  28.3968160
   6.2826036  40.9330690  28.6711734   6.0805310  39.6454539  29.0982659
   6.0487768  40.1957726  28.5410657   8.8893399  38.0047041  50.1919683
   9.3593030  38.6289158  50.5787557   8.9355279  37.3364017  50.7512898
   8.9661275  37.9981722  50.3319755   6.0464672  30.1104069  40.9168487
   5.5303161  29.4184260  41.0420066   5.4858601  30.7774846  40.8631086
   5.8871186  30.1067326  40.9274553   8.1156906  30.6497029  42.7461340
   7.7288659  30.6746060  43.5274869   7.6289843  30.0838707  42.2935856
   7.9869415  30.5692780  42.7949243  12.3649885  45.3670538  46.8035126
  13.0029606  44.8730733  46.4697582  11.7223977  45.2947938  46.2187353
  12.3644112  45.2829546  46.6677481  14.0906885  37.2159684  41.3701042
  13.6634493  37.1286032  40.6149141  13.4532938  37.3237459  41.9555886
  13.9336493  37.2192344  41.3446483   7.7814048  27.5364014  45.0371599
   8.4107166  28.0724314  44.7592670   7.9499910  27.4441373  45.8885165
   7.8991842  27.6025376  45.1220128   7.5827962  32.3235209  47.3098011
   8.4101392  32.0520358  47.3656626   7.6035808  33.1196051  47.6661829
   7.7080812  32.4014963  47.3713194  12.4204142  46.0590346  43.4440483
  13.2096520  45.7079411  43.5642564  12.5947740  46.8726734  43.1817117
  12.5624424  46.1276203  43.4228351   2.1597452  39.4699072  40.4968272
   1.3185459  39.3702946  40.7047166   2.3687460  40.2394552  40.8482592
   2.0662145  39.5691115  40.5795587  11.2737966  30.0699903  38.0056901
  11.4787559  30.0022211  38.8513898  10.9464390  30.8758724  37.9378079
  11.2553214  30.1785843  38.1216556   5.9714117  37.3980471  39.7465869
   5.6677255  36.8436459  40.3476277   5.2693538  37.5772681  39.2593903
   5.8230327  37.3425253  39.7635575   5.0280214  34.7080991  34.3110571
   5.3039949  33.9899903  33.8988139   5.6278884  35.3065911  34.1031677
   5.1573479  34.6901361  34.2191332   4.0332468  44.6130192  44.4537967
   3.9252823  44.6232254  45.3200025   4.2428250  45.4384972  44.2642921
   4.0482579  44.7371266  44.5542059  14.5271654  30.6231667  37.4859667
  13.9145967  31.1102069  37.8713399  14.6235829  29.9475158  38.0297318
  14.4509551  30.5949976  37.6238525   8.5290735  32.3794508  32.5857166
   8.9834481  32.5505068  33.3105011   9.0030780  31.7662619  32.1854942
   8.6659055  32.3145393  32.6330928   2.0506260  41.8642834  41.9159905
   1.4594193  42.5052332  41.8862920   2.8127284  42.2880451  41.8891204
   2.0754521  42.0218672  41.9075052   2.4466883  33.0244832  42.5827922
   2.9068364  33.0983761  43.3203046   2.4922990  33.8226086  42.2327744
   2.5217438  33.1538979  42.6400679   4.0950233  33.6911527  47.1499949
   3.7035798  33.0444874  47.5855727   4.2636095  34.2822962  47.7694205
   4.0621143  33.6825795  47.3062655  18.1696682  41.6948604  42.9137183
  18.2279805  42.1435252  43.6597159  17.5363149  42.1047417  42.4767263
  18.0847977  41.8222338  42.9589731  11.8095776  47.3152146  39.3491929
  11.6115465  47.8042960  38.6548140  11.1883487  47.5193387  39.9276062
  11.6883341  47.4168684  39.3315152   5.8703755  39.0837042  33.6902173
   6.6145800  39.4711319  33.9285123   6.0164451  38.2394468  33.8542661
   6.0014340  39.0167515  33.7496143   7.7883330  30.8787301  38.7234035
   6.9419375  31.0510109  38.5975385   7.7854463  30.0736645  39.0599863
   7.6630480  30.7848330  38.7545162   8.8581631  34.6562516  39.5896093
   8.3841585  34.1304278  40.1001404   9.2299766  34.1091989  39.0210954
   8.8431520  34.4978512  39.5811240  15.1218361  39.7164891  41.0002873
  14.8816584  38.8771307  41.0045300  15.6010368  39.7965058  41.7243647
  15.1570545  39.6046291  41.1077676  10.7865130  35.5499070  32.6521846
  10.2588149  35.6327814  31.9627555  11.2460838  36.2916942  32.6486491
  10.7766981  35.6719733  32.5496542  17.1223548  36.4966349  38.9532132
  16.8833318  36.4562183  38.1152917  17.2857449  37.3437501  39.0797853
  17.1113852  36.6158434  38.8485614  13.7269578  40.8816298  44.8837177
  14.4503777  40.4288824  44.7048197  13.4619541  41.1620964  44.1009505
  13.7950852  40.8567266  44.7415893   2.5956447  35.4776471  41.6190057
   1.9709517  35.4894863  41.0116009   2.2602042  35.9536647  42.2681297
   2.4541939  35.5494988  41.6246625   2.7798195  33.8201590  27.6762742
   2.4311000  34.4721315  28.1394291   2.2994641  33.8058703  26.9486613
   2.6568439  33.9144643  27.6373833  10.3402213  44.1202634  31.7831504
  11.0636412  44.5860747  31.6396077   9.9002804  44.1876244  31.0329101
  10.3817905  44.1986471  31.6516285   9.5088368  40.9800176  43.0332193
   8.8945361  40.4358226  43.3280828  10.0255653  40.4664413  42.5538009
   9.4944030  40.8236585  43.0056421   8.7484665  42.0504446  40.7676491
   8.3212273  41.4254165  40.3341927   8.7409609  41.7679368  41.5935498
   8.6843806  41.9157227  40.8256319   1.8647192  37.0869619  43.8364925
   2.0240679  36.3312943  44.2416647   1.6840086  37.6360559  44.4905663
   1.8612551  37.0563433  43.9927631   9.8067495  29.2530855  44.3915715
   9.3108056  29.4494529  43.7007281  10.5636557  29.6523523  44.2204516
   9.8454320  29.3408589  44.2635851   7.0770375  32.9273201  40.9819025
   7.1012862  32.3933313  40.2931805   7.3281848  32.4190510  41.6444616
   7.1180293  32.7734105  40.9783670   3.3571697  31.6544019  40.3624769
   3.3970068  32.1553226  41.0759477   2.5321362  31.7454413  40.0930693
   3.2411223  31.7425835  40.4275308   5.5401310  41.2204759  48.4645064
   4.6896940  41.3576473  48.6002709   5.7029437  40.4868537  48.9092766
   5.4385173  41.1318860  48.5500663   4.7786060  38.1704529  42.6598668
   3.9477990  38.3378347  42.4533917   4.7237577  37.7940480  43.4447554
   4.6475475  38.1394260  42.7447197   2.5869844  31.6613422  48.2955079
   3.2122547  31.1175555  48.5684511   2.1320323  31.1808339  47.7262870
   2.6118104  31.5102903  48.2516673   3.1522104  36.4460120  33.1888786
   3.2925065  36.9432585  33.8917428   3.6504637  35.7446415  33.3303000
   3.2463185  36.4162099  33.3140365   3.1822326  37.3127231  30.5181363
   3.8167406  37.9087656  30.4530825   3.2647937  37.0130689  31.3327233
   3.2878877  37.3568140  30.6284450  16.1604892  39.8442709  43.3867727
  16.7522733  40.4839959  43.4185925  16.5963887  39.1465745  43.6759794
  16.3123323  39.8361059  43.4348560   4.7601309  33.2441207  30.4926805
   5.0817150  32.7644289  29.8386067   5.0228253  34.0540853  30.3017617
   4.8467335  33.2931105  30.3682297   7.9898282  44.2660081  44.0125621
   7.4823373  44.8195928  44.4566252   7.6924928  44.3268371  43.1944396
   7.8703167  44.3566392  43.9574078  10.1560464  32.6313401  42.8550284
  10.5815536  32.1785927  42.2433810   9.5417457  32.0773471  43.1315072
  10.1289110  32.4827377  42.8055309  10.6006062  48.1823339  31.9429565
   9.8835372  48.0084201  31.4776802  11.2512800  47.9475911  31.4105051
  10.5907913  48.1219131  31.7958782   8.5954687  29.1028501  36.2640861
   7.9523005  28.9526147  36.8326000   8.2554094  28.8570846  35.4989966
   8.4499765  29.0440623  36.2343876  13.1854034  37.0587927  35.6870870
  12.5145224  37.6017630  35.5583935  13.8793784  37.5282783  35.4452564
  13.1882901  37.2086199  35.6326397   7.2340767  49.1984639  40.9182628
   7.0106422  48.4403469  41.2866654   6.7450611  49.2282661  40.1963068
   7.1284216  49.0906864  40.8659369  13.3482161  33.5143811  38.5961243
  13.7009771  33.0873534  39.2707042  12.4896963  33.4294655  38.7262319
  13.2731606  33.4388552  38.7156253   2.0465846  36.1451331  36.6544089
   1.3277835  36.5615463  36.9216953   2.4178208  36.7105569  36.1035728
   1.9957778  36.2900612  36.6126896  11.3465427  36.7779180  42.5446085
  11.3263354  36.5962475  43.3980864  11.3944628  37.6491198  42.5205669
  11.3500068  36.8795718  42.6669380   9.2911757  43.3666372  48.4694562
   9.2507612  42.7216049  47.8839718  10.1035075  43.3102989  48.7819974
   9.4054910  43.2625338  48.4291511   5.8819224  49.4185097  38.3719713
   5.4679623  48.7559228  37.9823554   6.5666599  49.5662956  37.8515407
   5.9217596  49.3425756  38.2376210   9.2484518  48.5775183  39.1243329
   8.8500802  48.6877453  38.3564149   8.6335738  48.7857249  39.7069889
   9.0983408  48.6248751  39.0974629   7.8212420  35.1849331  31.9917469
   7.2277260  35.5066327  31.4402036   7.8587698  34.3390426  31.7838575
   7.7386810  35.1073659  31.8800240  14.7806221  28.6362223  39.5245555
  14.2737086  27.9291362  39.4566733  15.5773655  28.3055412  39.6546632
  14.8233460  28.4835374  39.5344550  10.6970237  35.1428835  35.4219219
  10.4683930  35.1661537  34.5797577  10.9568313  34.3186302  35.5414230
  10.7016425  35.0244915  35.3144417   4.9789465  36.9963308  45.0244319
   4.4668369  36.3884491  45.3829351   4.8068962  37.7119901  45.4918295
   4.8779103  37.0126607  45.1460543   3.7515000  33.6805381  36.7173415
   4.2272366  34.0422461  36.0823596   3.2503599  34.3361849  36.9973558
   3.7480359  33.8299570  36.6650156  16.9826361  43.1527149  32.5086420
  17.3659967  43.9018506  32.7384517  16.1870474  43.3992969  32.2498409
  16.9220143  43.2996843  32.5043993   8.8558536  34.9187553  47.4646575
   9.4129966  34.6901362  46.8325040   8.5319601  35.6793218  47.1881787
   8.8904946  34.9971389  47.3303072   6.5741653  38.0055206  48.4298582
   7.3252980  38.3206883  48.7438136   6.7664230  37.8034377  47.6032504
   6.7133067  38.0222588  48.3541978   5.7941653  35.8246581  30.0846799
   6.1740618  35.8426210  29.2997914   5.0534249  36.2700570  29.9637646
   5.7410490  35.8928356  29.9510367  13.4226943  34.1328772  35.6722377
  13.4221170  33.9777429  36.5306654  13.2183123  34.9791759  35.6163763
  13.3926721  34.2349393  35.7910317  11.1467795  38.8126274  39.3258584
  11.6421461  38.0949269  39.2862605  10.3367571  38.5097072  39.2113071
  11.1011689  38.6623920  39.3032310   6.5926407  42.6624087  31.4755589
   5.7837730  42.3390761  31.4288898   7.1001316  41.9557310  31.4083837
   6.5476074  42.5105404  31.4585883  13.2119614  41.5629962  42.0135713
  13.6374686  41.0404384  41.4606138  12.8476534  42.1610799  41.4924336
  13.2206217  41.5740189  41.8544723   2.8473694  49.8594179  40.7733059
   3.1620253  50.6730568  40.7810840   3.2567107  49.4744398  41.4415218
   2.9541792  49.9222882  40.8737150   9.7998214  45.2764226  38.3436871
  10.2709392  45.9904489  38.5126856  10.1358392  44.6762976  38.8796740
   9.9193329  45.2935690  38.4469246  11.8875198  46.8865539  50.5228943
  11.9972164  46.0974100  50.8785690  12.2166095  46.7971476  49.7203281
  11.9527604  46.7571392  50.4571333   6.7167709  30.0491697  45.2994965
   6.8495614  29.2522690  45.6275941   7.1012861  30.5758100  45.8793241
   6.7924037  30.0091613  45.4338468  10.4372160  45.0682160  45.1064563
   9.8893106  44.4440044  44.8384628  10.8985189  45.2576432  44.3908643
  10.4239369  45.0041210  44.9614994   9.7900064  26.9722023  41.8976059
   8.9846027  26.8619752  42.2143897   9.6606799  27.0734478  41.0405924
   9.6520197  26.9705693  41.8184099  13.2466024  33.1367515  42.4915755
  12.6629013  33.6376721  42.0793323  13.5670318  32.6297071  41.8580079
  13.2079200  33.1359350  42.3374263   5.7860823  32.0508109  32.7674430
   6.6076518  32.2206422  32.5256125   5.3230474  32.2055370  32.0440728
   5.8391986  32.0989842  32.6246075   4.3756155  30.0450872  43.5472859
   4.9200568  29.7041998  44.1377201   4.4293091  30.9036333  43.6894144
   4.4645275  30.1206131  43.6554732  10.0030486  46.0733233  41.6373904
  10.8228860  45.9296199  41.8990200   9.7224564  46.6979432  42.1790342
  10.0827230  46.1443585  41.7561844  19.6743821  52.8173735  39.3569711
  18.8181717  52.9782234  39.4078828  19.7211475  51.9465799  39.3774772
  19.5542933  52.7124537  39.3675777  14.0584961  62.3536453  35.1206943
  13.3067861  61.9751992  34.8922988  14.5070973  62.3854887  34.3725753
  14.0134628  62.3022061  34.9764445  22.9837538  59.0860261  48.9630167
  23.6904305  58.5912292  49.0917102  23.1725473  59.5269343  48.2332825
  23.1165444  59.0778611  48.8739213  19.5109921  62.7761823  30.5492490
  19.1761290  63.4538744  30.1136712  20.0236791  62.3867134  29.9609361
  19.5375502  62.8186401  30.3979281  19.0514212  64.7276092  36.4903601
  19.4353592  65.2962990  35.9508377  18.9873354  64.0025602  36.0109417
  19.0987640  64.7051555  36.3397464  22.5195642  54.8765779  42.0001363
  23.0651603  55.5550866  42.0595332  22.4612519  54.7353240  41.1402944
  22.5911557  54.9557781  41.8813423  15.6369717  62.3654846  37.3869715
  15.7380080  61.5555199  37.6966843  15.0411463  62.2711792  36.7569394
  15.5642256  62.2319874  37.3395954  24.2960711  56.3050387  32.8735091
  24.1800237  57.0558073  33.3027229  25.0916598  56.0474340  33.1231178
  24.3965301  56.3785233  32.9739182  15.4770457  67.2832435  38.7884571
  16.1207912  67.7245599  39.1780730  15.8026712  66.4785861  38.7014830
  15.6202286  67.2297629  38.8330049   8.8334762  58.3875132  37.0122049
   8.5984946  57.5542784  36.9054318   8.9720402  58.6679798  36.1983250
   8.8190424  58.3058635  36.8764404  11.1324849  50.5560863  39.9106357
  10.5129881  49.9653510  39.7416371  11.0308713  51.1472298  39.2770680
  11.0262525  50.5564945  39.7911346  16.1791037  60.2944410  34.1604433
  16.5006878  60.8349617  33.5565741  16.8263133  59.7241181  34.2926723
  16.3217092  60.2903585  34.0911468  18.2292745  52.2960404  34.2438820
  18.9272909  52.4748532  34.7360283  18.5445077  51.7730744  33.6209209
  18.3788082  52.2454177  34.2240830  10.8593982  54.1013144  42.1549926
  10.7352679  54.6875590  42.7899744  11.5112267  53.6073340  42.4562201
  10.9367631  54.1151949  42.2935855  18.4180680  58.6830850  34.2318611
  18.8574316  58.0747950  34.6773384  18.2685343  58.3038223  33.4604076
  18.4602146  58.5369321  34.1837779  15.8852323  57.2774861  41.4337437
  16.5301326  56.7847304  41.1148385  16.1254100  57.4199648  42.2603515
  16.0162908  57.2252304  41.5086970  18.4238414  60.1229767  41.0844329
  18.7061657  59.3281173  40.8631085  19.1524575  60.6010355  41.1049390
  18.5727978  60.0764364  41.0547344  16.4019608  47.6652801  38.3260094
  16.0722938  48.1163945  37.6563793  15.7264610  47.5868964  38.8733101
  16.2530045  47.7203936  38.3083318  22.0190017  57.0358031  31.1849380
  21.9341312  57.8918997  31.3298949  22.5074400  56.7602355  31.8531540
  22.0778914  57.1215352  31.3051462  22.9508450  53.6542825  32.6847116
  22.4219921  53.8702458  33.3444422  23.4733470  54.3478963  32.6048085
  22.9496903  53.7885962  32.7702715  14.8408058  57.5506042  31.4854583
  14.2565273  58.0556073  31.8920447  14.4378153  57.3248429  30.7451175
  14.6947361  57.5914290  31.4359609  10.3952086  63.2660803  38.2878255
   9.9119665  63.9911293  38.2637839  11.2075405  63.5636933  38.3988413
  10.4442834  63.4163157  38.3005534  16.4666240  62.0592984  40.8928070
  15.9493182  61.7000399  40.2889378  17.1640632  61.5355158  40.9034136
  16.4931821  61.9290672  40.8058328  17.6900292  61.7918958  45.8361905
  17.1271127  61.3791567  46.3601566  18.4521316  61.7171863  46.2555048
  17.7194741  61.7196358  45.9754905  19.2985272  53.7971694  29.9623504
  19.5381276  54.0049678  29.1498847  19.6201113  52.9929203  30.0712449
  19.3822430  53.7085795  29.8584057  14.6075562  45.7265090  33.8083042
  15.3621530  46.0943407  33.5700092  14.4303097  46.1004644  34.5762222
  14.6930041  45.8363277  33.8867931  13.2496284  63.7816979  38.4398535
  13.9516863  63.2668968  38.4971291  13.1693767  64.1091130  39.2445410
  13.3420044  63.7531205  38.5671327  27.9010461  51.8759530  41.8530581
  27.0638882  51.9461717  42.0878176  27.8698692  51.8784025  40.9804884
  27.7728743  51.8869757  41.7590129  14.2975190  54.0192566  47.5678950
  14.4695694  53.9098460  48.4164231  14.8344548  54.6646971  47.3310142
  14.4020194  54.0984567  47.6584047  12.9632627  48.1335409  30.5061155
  12.7808200  48.3507289  29.6802148  13.8258240  48.2474421  30.5619769
  13.0637216  48.1825306  30.3915642  12.5747059  59.9723331  37.9484143
  13.4135958  60.2046264  37.9957905  12.6058828  59.1027642  37.8791178
  12.7028777  59.8780277  37.9448788  13.1999762  60.3924206  42.2497448
  13.7397987  60.2495337  42.9200821  12.5169708  60.7920957  42.6181475
  13.1791916  60.4303877  42.4031870  18.6432346  45.1361819  33.5410179
  19.3718507  44.9577774  33.0948335  18.7327239  45.9779899  33.7517357
  18.7639008  45.2345698  33.5063696  22.6240647  56.0715207  37.4442473
  23.3798162  56.5046721  37.4831382  22.7302971  55.4219976  38.0177109
  22.7510817  56.0392690  37.5340498  25.6620818  59.8988484  38.1944876
  25.2256050  59.9025226  38.9503847  25.3283733  60.5793983  37.7624453
  25.5483438  60.0000940  38.2425708  20.2349892  61.9396817  49.5188026
  21.0190308  62.0527664  49.8843768  20.0346486  61.1137954  49.7146712
  20.3215917  61.8343536  49.6022412   8.6036907  56.6124497  42.4031870
   8.3375322  55.7963613  42.5622860   8.6175471  56.6577652  41.5327385
   8.5661629  56.4981402  42.2985352  13.3535513  50.1502875  45.0498878
  12.6607310  49.6799855  45.2959609  13.9695841  49.9241180  45.6240585
  13.3420043  50.0470007  45.1708030  20.3920285  63.8506919  43.1654482
  19.5935531  63.6106419  43.4228350  20.8406296  63.9021312  43.9121529
  20.3394896  63.8229310  43.3139406  19.6841972  59.9139535  29.3945436
  20.0993120  59.5824559  28.7029932  18.8533902  59.6808437  29.2665573
  19.6229981  59.8310791  29.2736284   9.0130321  57.3983276  39.6843614
   8.8305894  57.3730162  38.8315906   9.7479990  57.8682214  39.7232523
   9.0944385  57.4644638  39.5641533  12.0776072  54.1168279  46.1925723
  12.8016045  54.1021310  46.6790618  12.1792209  54.8263634  45.6947691
  12.1994281  54.2192982  46.1904510  19.4521022  57.5967364  51.0574670
  18.6594003  57.9110875  51.2427290  19.5669949  57.8118832  50.2195455
  19.3516432  57.6751200  50.9613005  22.1252341  54.3201355  35.3469686
  22.2199195  55.0590649  35.8009311  21.5011184  53.8918830  35.7804250
  22.0461371  54.3662675  35.4777833  20.3804815  57.4987567  45.9959967
  20.9543676  56.8614812  46.1508531  20.3019618  57.4991650  45.1269624
  20.4538049  57.4052679  45.8906377   8.9801231  54.2776777  39.8342681
   9.5574734  54.1413228  40.4734926   8.2815293  53.8212561  40.0888265
   8.9622252  54.1899043  39.9664970  22.3775362  56.1650095  28.5806638
  22.2955525  56.2352282  29.4461625  23.0155083  56.7279838  28.3890378
  22.4595199  56.2589066  28.6796587  15.7368533  55.9310833  38.0481164
  15.4787778  55.0982567  38.0212463  15.7917016  56.1568446  37.2073664
  15.7068311  55.8408604  37.9201301  20.8169583  48.0339283  38.1485257
  20.1125910  47.5448469  38.3069176  20.8654558  48.0461758  37.2773701
  20.7199635  47.9628931  38.0424597  14.7103245  53.4848595  38.5346059
  14.1352837  53.6440763  39.1710020  14.3338922  52.8484004  38.0714509
  14.5706058  53.4146408  38.5600617  18.3776534  51.9571944  43.3938437
  17.9890967  51.5326162  42.7390628  17.7131232  52.2054094  43.9015464
  18.2223462  51.9310665  43.3726305   4.4560064  53.1288670  36.5490499
   4.5420316  52.7520538  37.3304029   5.0835862  52.7549115  36.0710458
   4.5616615  53.0174152  36.5935977  22.2002896  45.6546573  40.9062421
  22.5813407  44.9724744  41.2930296  21.3966180  45.3656175  40.7238086
  22.1379357  45.5113622  40.9366477  19.4815472  56.1870549  31.5915244
  20.2956111  56.4785442  31.4798016  19.4174614  55.5330411  31.0173537
  19.5918211  56.1335744  31.4904082  25.7024962  58.8696545  46.0044820
  25.4663600  58.0384610  45.8856880  26.3468191  58.8182152  46.5899664
  25.7619633  58.7394233  46.0730713  15.3523381  59.6592066  36.7187556
  15.9897327  59.4203814  37.2639350  15.7778452  59.8629225  35.9840717
  15.5099547  59.6543077  36.6904714  10.0436023  61.8980403  40.6021860
  10.0840168  62.1695254  39.7741640  10.6030547  62.4222311  41.0179648
  10.1319369  62.0156158  40.5413748  15.9926196  54.8794356  31.0562446
  16.3771348  54.6602063  31.8078991  15.7437816  55.7057301  31.1863522
  16.0128268  54.9692502  31.1863522  16.1594736  48.1600771  50.7725030
  15.8448177  48.9300334  50.5094593  15.8384669  47.5971027  50.1877257
  16.0653655  48.1911040  50.6466380  26.7261383  58.6540994  42.0673114
  26.4207200  59.3869051  42.4286430  26.0067599  58.2478923  41.7865900
  26.5748725  58.7022727  42.0786251  17.7344853  60.1364489  38.3981343
  17.8083861  59.9739661  39.2523192  18.5514359  60.3254679  38.1541824
  17.8661211  60.1401231  38.4879368  32.4263175  55.2933994  41.3941459
  32.3587675  55.3129954  40.5244045  32.4118838  56.1364322  41.6197129
  32.4141932  55.4207729  41.2993935  11.4950609  60.4822352  35.4275786
  10.6688727  60.7284089  35.3010065  11.5562600  60.4034433  36.2937844
  11.3824776  60.5067301  35.5364730  13.7126633  46.5491293  36.3871226
  12.8449058  46.6213892  36.4528835  14.0001837  47.3513372  36.5759201
  13.6266381  46.6785440  36.4245993  22.8359522  46.6969152  44.7182548
  23.5813114  46.5078963  44.3045973  22.4196826  47.2227390  44.1596404
  22.8844496  46.7471298  44.5747121  16.2749438  63.0999232  33.1294816
  16.5647737  62.7088213  32.4054043  17.0052919  63.2815937  33.5700091
  16.4256322  63.0693046  33.0877623  16.8644183  57.9016978  44.2147946
  16.3655877  58.6132746  44.2932835  17.6744408  58.2217645  44.1766109
  16.9100290  58.0543827  44.2204515  14.2155354  65.0766614  36.1954966
  13.9955649  64.7863969  36.9881633  13.9949876  64.4181569  35.6672878
  14.1502948  64.9366323  36.2343874  13.1272301  57.1639931  38.4610667
  12.8385550  56.5377402  38.9956395  13.9955649  57.1060218  38.5275348
  13.2132553  57.0627475  38.5501622  23.9150199  52.3074714  38.7792649
  23.5714965  51.5865050  39.1299899  24.0143241  52.0988565  37.9371007
  23.8792242  52.1698918  38.7064329  16.3823310  66.4496004  34.9785658
  17.0347368  65.9172447  35.2076684  15.6848918  66.0964657  35.3653532
  16.3754027  66.3185527  35.0697826  13.3304574  58.8035182  34.3853032
  14.0850542  59.1848221  34.5988495  12.7375187  59.2546326  34.8399729
  13.3541288  58.9264009  34.4835911  24.3763228  58.7700418  34.3216637
  24.9421261  59.4293628  34.2375180  23.7291131  59.1150116  34.7933039
  24.3641984  58.9182360  34.3789394  15.7911241  50.7598022  49.5110245
  14.9811017  51.0655802  49.4000087  16.2685928  51.4803605  49.6262829
  15.7414720  50.9112623  49.5117316  14.6502801  59.9743743  39.7593148
  14.1283554  60.1144035  40.4445012  15.0376821  59.2154408  39.9495265
  14.6306502  59.8829267  39.8894224  11.6393985  50.0249552  33.8288102
  11.3518781  49.6550822  33.0920050  12.3264453  50.4944407  33.5671807
  11.6982882  50.0396521  33.6803178  20.8469806  61.7139203  33.7453717
  20.6056482  60.9807063  33.3380781  21.0271139  62.2626060  33.0920050
  20.8377430  61.6861594  33.5883939  16.0769127  57.0047762  35.1574639
  15.8811909  57.6122497  34.5634942  16.3003472  56.3115706  34.6766313
  16.0803768  56.9925288  34.9990720  14.4747657  53.8902500  35.2755507
  15.1970309  54.0543658  34.8159313  13.9955649  54.6112165  35.1694847
  14.5111387  54.0200730  35.1921121  22.4341164  50.2266299  40.6552192
  21.5952265  50.2527578  40.4190455  22.5045531  50.8737035  41.2357539
  22.3209558  50.3262425  40.7061309  12.1255273  56.2960573  44.3809647
  12.6376370  56.5744826  43.7318407  11.8391616  57.0349867  44.7472460
  12.1590136  56.4462926  44.3399525  20.8810442  47.1251676  35.3879808
  21.5836795  46.9259424  34.9099766  20.6154631  46.3527618  35.6948651
  20.9457075  46.9814642  35.3625250   9.2122180  50.8030765  34.6773384
   9.3138316  51.6056926  35.0054359  10.0078066  50.6018100  34.3796464
   9.3450085  50.8916663  34.6808739  15.6438999  48.3886961  44.4410689
  15.4522196  48.4042096  45.2910112  16.4937595  48.5850636  44.4177343
  15.7414721  48.4201312  44.5633983  10.0285912  50.9177943  42.4194505
   9.8871404  50.0661883  42.5439013  10.3126475  50.9606603  41.5956711
  10.0493758  50.7977693  42.3162129  20.1824504  52.7545033  36.5638993
  19.9359218  52.6740784  37.3975782  20.5109627  51.9698501  36.3701521
  20.1945748  52.6271298  36.6586516  24.0772553  59.4628392  40.3525775
  23.9386912  60.1609438  40.8574517  23.2972551  59.3077049  39.9961956
  23.9415780  59.5428559  40.3752049  22.4150638  55.7624768  46.6048156
  22.4098677  54.8904584  46.6090583  23.1211632  55.9612937  46.1317612
  22.5195642  55.6628642  46.5355192  16.1421531  55.4901752  45.9761976
  16.2864907  56.0702960  45.3405086  16.4897180  55.8678048  46.6811831
  16.2148993  55.6322456  45.9860971  18.3141449  54.6891920  43.7587108
  17.5664763  54.8822934  43.3535386  18.4682974  53.8637139  43.5211229
  18.2263876  54.5957031  43.6632514  15.2149286  63.6804523  42.8423003
  15.3638850  63.1207439  42.1896408  15.9949288  63.7596525  43.2255522
  15.3523380  63.6090089  42.8019952  25.5725926  58.8206646  31.1142274
  25.1932734  58.0343784  31.1071563  24.9092171  59.3693503  30.9713918
  25.4184401  58.7851470  31.0923071  17.7402587  63.8519166  44.1207494
  17.6646258  63.1827977  44.6758282  17.6692446  64.5536954  44.6348160
  17.7183194  63.8564074  44.2784342  18.5543226  48.5842471  44.6482512
  19.0115840  49.3166445  44.7755304  18.6299555  48.1608936  45.4069768
  18.6334196  48.6299709  44.7783588  10.7976217  48.8308290  45.7371955
  10.2618406  48.2188649  46.0532723  10.8593982  49.4056426  46.3905622
  10.7271850  48.8255218  45.8807382  18.3972834  62.3720165  34.9531100
  19.1622725  62.1029809  34.6313764  18.2950924  61.8870175  35.6701163
  18.4954329  62.2609730  35.0110928  16.4325604  50.5744575  41.4924336
  15.6421678  50.3936035  41.8141672  16.8286226  49.7971527  41.4754630
  16.3742480  50.4332035  41.5376884  20.9191494  59.4032349  26.9331049
  21.6864480  59.4632474  26.5236901  20.4722803  58.8312790  26.4487368
  20.9664922  59.3268925  26.8008760  21.8169290  58.2087005  39.2183782
  21.1414292  57.9772237  39.7197169  21.8261666  57.6008188  38.5925887
  21.7187795  58.0845930  39.1999934  18.9463434  53.0504834  45.9747835
  18.8822575  53.9114790  45.8467971  19.0860622  52.7336827  45.1743386
  18.9578904  53.1305000  45.8376048  23.8186025  61.0652137  31.4493960
  23.9005862  61.8719123  31.1255411  24.3035767  61.0848096  32.1734733
  23.9023182  61.1872799  31.5080858  17.6282528  55.7436973  40.1164038
  17.2044777  55.9441472  39.3803056  17.4527383  54.8965821  40.2288337
  17.5393408  55.6485754  40.0237728  17.1294221  67.2587486  42.5785495
  17.6190152  66.5598275  42.3961159  16.5578454  66.9611356  43.1661552
  17.1178751  67.1113710  42.6386536  12.9164973  56.2389024  35.5492010
  13.0729592  56.1735827  36.4048002  13.2565566  57.0137577  35.3370690
  12.9898208  56.3438223  35.6446604  19.4544117  55.6146908  34.4185373
  19.9959663  55.1117289  34.8823994  19.7690676  55.5612103  33.6074859
  19.5808514  55.5326329  34.3669185  23.3261225  59.8249555  51.5312286
  24.1396090  59.5534704  51.6917418  23.1656191  59.5257095  50.7272481
  23.4231173  59.7404481  51.4357691  17.6230567  61.0064260  31.7025401
  17.6923387  60.1478798  31.8418402  18.4019022  61.2236140  31.3744426
  17.7483417  60.9117124  31.6742559  20.6033387  50.5083213  44.4707674
  20.8175356  49.8694127  43.9171028  19.9867286  50.9529036  44.0415536
  20.5438716  50.4793356  44.3258105  22.0138055  63.4301961  35.9161895
  21.6217846  63.1268676  35.1984761  22.1691127  64.2671051  35.7266848
  21.9791645  63.5085798  35.7818392   9.4899234  53.4223975  35.8652777
   9.8698199  53.8408520  35.2013045   8.9154599  54.0037431  36.1721621
   9.4610559  53.5701834  35.8129518  22.7672475  52.1172278  45.4090981
  21.9549157  51.8098168  45.4904154  23.2262409  51.6371278  45.9733693
  22.7152860  52.0008770  45.5045575  22.1777729  59.9951950  35.8567925
  21.8192384  60.1666593  36.6331958  21.6916440  60.4565155  35.2995924
  22.0536426  60.0890921  35.8893194  19.9948115  43.6183148  39.4595017
  19.1241673  43.5921869  39.4128326  20.2488457  43.4460340  38.6420862
  19.9041676  43.5893292  39.3315153  16.9666095  55.6751115  28.3968160
  17.2558620  56.4515998  28.6711734  17.0537894  55.1639847  29.0982659
  17.0220351  55.7143033  28.5410657  19.8625982  53.5232349  50.1919683
  20.3325613  54.1474466  50.5787557  19.9087862  52.8549325  50.7512898
  19.9393858  53.5167029  50.3319755  17.0197256  45.6289377  40.9168487
  16.5035745  44.9369568  41.0420066  16.4591185  46.2960154  40.8631086
  16.8603769  45.6252634  40.9274553  19.0889489  46.1682337  42.7461340
  18.7021243  46.1931368  43.5274869  18.6022427  45.6024015  42.2935856
  18.9601998  46.0878088  42.7949243  23.3382469  60.8855846  46.8035126
  23.9762189  60.3916041  46.4697582  22.6956560  60.8133246  46.2187353
  23.3376695  60.8014854  46.6677481  25.0639469  52.7344992  41.3701042
  24.6367077  52.6471340  40.6149141  24.4265522  52.8422767  41.9555886
  24.9069076  52.7377651  41.3446483  18.7546631  43.0549322  45.0371599
  19.3839749  43.5909622  44.7592670  18.9232494  42.9626681  45.8885165
  18.8724426  43.1210684  45.1220128  18.5560546  47.8420517  47.3098011
  19.3833975  47.5705666  47.3656626  18.5768392  48.6381359  47.6661829
  18.6813396  47.9200271  47.3713194  23.3936725  61.5775654  43.4440483
  24.1829104  61.2264719  43.5642564  23.5680323  62.3912042  43.1817117
  23.5357007  61.6461511  43.4228351  13.1330036  54.9884380  40.4968272
  12.2918042  54.8888254  40.7047166  13.3420044  55.7579860  40.8482592
  13.0394728  55.0876423  40.5795587  10.6105603  52.6103917  38.3253022
  10.2162301  52.6846928  37.5503132  10.0545720  52.9961863  38.8761384
  10.4708415  52.6785691  38.2920682  16.9446701  52.9165779  39.7465869
  16.6409838  52.3621767  40.3476277  16.2426121  53.0957989  39.2593903
  16.7962911  52.8610561  39.7635575  16.0012798  50.2266299  34.3110571
  16.2772532  49.5085211  33.8988139  16.6011467  50.8251219  34.1031677
  16.1306062  50.2086669  34.2191332  15.0065052  60.1315500  44.4537967
  14.8985407  60.1417562  45.3200025  15.2160833  60.9570280  44.2642921
  15.0215163  60.2556574  44.5542059  19.5023318  47.8979816  32.5857166
  19.9567065  48.0690376  33.3105011  19.9763364  47.2847927  32.1854942
  19.6391638  47.8330701  32.6330928  13.0238844  57.3828142  41.9159905
  12.4326777  58.0237640  41.8862920  13.7859867  57.8065759  41.8891204
  13.0487104  57.5403980  41.9075052  13.4199466  48.5430140  42.5827922
  13.8800948  48.6169069  43.3203046  13.4655573  49.3411394  42.2327744
  13.4950022  48.6724287  42.6400679  15.0682816  49.2096835  47.1499949
  14.6768381  48.5630182  47.5855727  15.2368679  49.8008270  47.7694205
  15.0353727  49.2011102  47.3062655  29.1429265  57.2133912  42.9137183
  29.2012389  57.6620560  43.6597159  28.5095733  57.6232724  42.4767263
  29.0580560  57.3407646  42.9589731  22.7828360  62.8337454  39.3491929
  22.5848049  63.3228268  38.6548140  22.1616071  63.0378695  39.9276062
  22.6615924  62.9353992  39.3315152  16.8436338  54.6022350  33.6902173
  17.5878383  54.9896627  33.9285123  16.9897034  53.7579776  33.8542661
  16.9746923  54.5352823  33.7496143  18.7615914  46.3972609  38.7234035
  17.9151959  46.5695417  38.5975385  18.7587046  45.5921953  39.0599863
  18.6363064  46.3033638  38.7545162  19.8314214  50.1747824  39.5896093
  19.3574168  49.6489586  40.1001404  20.2032350  49.6277297  39.0210954
  19.8164103  50.0163820  39.5811240  10.2087244  52.1719330  44.9579638
  11.0712857  52.0715040  44.8716968   9.8779027  51.5914040  44.3965211
  10.2872441  52.0710957  44.8625044  26.0950945  55.2350199  41.0002873
  25.8549168  54.3956615  41.0045300  26.5742952  55.3150366  41.7243647
  26.1303128  55.1231599  41.1077676  21.7597714  51.0684378  32.6521846
  21.2320732  51.1513122  31.9627555  22.2193422  51.8102250  32.6486491
  21.7499564  51.1905041  32.5496542  28.0956132  52.0151657  38.9532132
  27.8565902  51.9747491  38.1152917  28.2590033  52.8622809  39.0797853
  28.0846435  52.1343742  38.8485614  13.5689030  50.9961779  41.6190057
  12.9442100  51.0080171  41.0116009  13.2334625  51.4721955  42.2681297
  13.4274522  51.0680296  41.6246625  13.7530779  49.3386898  27.6762742
  13.4043583  49.9906623  28.1394291  13.2727225  49.3244011  26.9486613
  13.6301023  49.4329951  27.6373833  10.2814706  59.0562239  43.0593821
   9.7514630  58.3654678  43.1088796  10.5539799  59.0472425  42.2306529
  10.2439428  58.9529371  42.9441237  21.3134796  59.6387942  31.7831504
  22.0368995  60.1046055  31.6396077  20.8735387  59.7061551  31.0329101
  21.3550489  59.7171779  31.6516285  20.4820951  56.4985484  43.0332193
  19.8677944  55.9543534  43.3280828  20.9988236  55.9849721  42.5538009
  20.4676614  56.3421893  43.0056421  19.7217249  57.5689754  40.7676491
  19.2944857  56.9439473  40.3341927  19.7142193  57.2864676  41.5935498
  19.6576390  57.4342535  40.8256319  12.8379776  52.6054927  43.8364925
  12.9973262  51.8498251  44.2416647  12.6572669  53.1545867  44.4905663
  12.8345135  52.5748741  43.9927631  20.7800079  44.7716163  44.3915715
  20.2840640  44.9679837  43.7007281  21.5369141  45.1708831  44.2204516
  20.8186903  44.8593897  44.2635851  18.0502958  48.4458509  40.9819025
  18.0745445  47.9118621  40.2931805  18.3014432  47.9375817  41.6444616
  18.0912877  48.2919413  40.9783670   5.5610548  55.7290004  40.4162169
   5.4553997  55.6836848  39.5514253   4.8110768  56.0743784  40.6976454
   5.4346151  55.7730912  40.3299499  14.3304280  47.1729327  40.3624769
  14.3702652  47.6738533  41.0759477  13.5053945  47.2639721  40.0930693
  14.2143806  47.2611143  40.4275308  16.5133893  56.7390067  48.4645064
  15.6629524  56.8761781  48.6002709  16.6762021  56.0053845  48.9092766
  16.4117757  56.6504168  48.5500663  15.7518644  53.6889837  42.6598668
  14.9210574  53.8563655  42.4533917  15.6970161  53.3125788  43.4447554
  15.6208059  53.6579568  42.7447197  13.5602427  47.1798730  48.2955079
  14.1855130  46.6360862  48.5684511  13.1052907  46.6993647  47.7262870
  13.5850688  47.0288211  48.2516673  14.1254688  51.9645428  33.1888786
  14.2657649  52.4617893  33.8917428  14.6237220  51.2631723  33.3303000
  14.2195769  51.9347407  33.3140365  14.1554910  52.8312539  30.5181363
  14.7899990  53.4272964  30.4530825  14.2380521  52.5315997  31.3327233
  14.2611461  52.8753447  30.6284450  27.1337476  55.3628017  43.3867727
  27.7255316  56.0025267  43.4185925  27.5696470  54.6651053  43.6759794
  27.2855907  55.3546367  43.4348560  15.7333893  48.7626515  30.4926805
  16.0549734  48.2829597  29.8386067  15.9960837  49.5726161  30.3017617
  15.8199918  48.8116413  30.3682297  18.9630866  59.7845389  44.0125621
  18.4555957  60.3381236  44.4566252  18.6657512  59.8453679  43.1944396
  18.8435751  59.8751700  43.9574078  21.1293048  48.1498709  42.8550284
  21.5548119  47.6971235  42.2433810  20.5150041  47.5958779  43.1315072
  21.1021693  48.0012685  42.8055309  10.6607898  55.0280380  33.7870909
  11.1700127  55.6244888  34.1682215  11.1342170  54.7606354  33.1047329
  10.8051274  55.0766196  33.7425432  21.5738646  63.7008647  31.9429565
  20.8567956  63.5269509  31.4776802  22.2245384  63.4661219  31.4105051
  21.5640496  63.6404439  31.7958782  19.5687271  44.6213808  36.2640861
  18.9255589  44.4711455  36.8326000  19.2286678  44.3756154  35.4989966
  19.4232348  44.5625931  36.2343876  24.1586617  52.5773235  35.6870870
  23.4877807  53.1202938  35.5583935  24.8526367  53.0468091  35.4452564
  24.1615485  52.7271507  35.6326397  18.2073351  64.7169947  40.9182628
  17.9839005  63.9588777  41.2866654  17.7183194  64.7467969  40.1963068
  18.1016800  64.6092172  40.8659369  24.3214745  49.0329119  38.5961243
  24.6742355  48.6058842  39.2707042  23.4629546  48.9479962  38.7262319
  24.2464189  48.9573860  38.7156253  13.0198430  51.6636639  36.6544089
  12.3010419  52.0800771  36.9216953  13.3910792  52.2290877  36.1035728
  12.9690361  51.8085920  36.6126896  22.3198010  52.2964488  42.5446085
  22.2995938  52.1147783  43.3980864  22.3677211  53.1676506  42.5205669
  22.3232651  52.3981026  42.6669380  20.2644340  58.8851680  48.4694562
  20.2240195  58.2401356  47.8839718  21.0767659  58.8288297  48.7819974
  20.3787494  58.7810646  48.4291511  16.8551808  64.9370405  38.3719713
  16.4412207  64.2744536  37.9823554  17.5399182  65.0848264  37.8515407
  16.8950180  64.8611064  38.2376210  20.2217102  64.0960491  39.1243329
  19.8233385  64.2062761  38.3564149  19.6068322  64.3042557  39.7069889
  20.0715991  64.1434059  39.0974629  18.7945004  50.7034639  31.9917469
  18.2009843  51.0251635  31.4402036  18.8320282  49.8575734  31.7838575
  18.7119393  50.6258967  31.8800240  21.6702821  50.6614143  35.4219219
  21.4416514  50.6846844  34.5797577  21.9300897  49.8371610  35.5414230
  21.6749009  50.5430223  35.3144417  15.9522049  52.5148616  45.0244319
  15.4400952  51.9069799  45.3829351  15.7801545  53.2305209  45.4918295
  15.8511686  52.5311915  45.1460543  10.7987764  50.9586191  47.6746681
  10.6290354  51.6187566  47.1294888  10.3553714  51.1692753  48.3959170
  10.7087097  51.0872173  47.7008311  14.7247583  49.1990689  36.7173415
  15.2004949  49.5607769  36.0823596  14.2236183  49.8547157  36.9973558
  14.7212942  49.3484878  36.6650156  19.8291119  50.4372861  47.4646575
  20.3862550  50.2086670  46.8325040  19.5052184  51.1978526  47.1881787
  19.8637530  50.5156697  47.3303072   7.6989828  53.8633057  42.9335171
   7.1516548  53.1933702  43.0516039   8.4882206  53.4962905  42.9978638
   7.7342012  53.7098043  42.9603872  17.5474237  53.5240514  48.4298582
  18.2985564  53.8392191  48.7438136  17.7396813  53.3219685  47.6032504
  17.6865651  53.5407896  48.3541978  16.7674236  51.3431889  30.0846799
  17.1473201  51.3611518  29.2997914  16.0266832  51.7885878  29.9637646
  16.7143074  51.4113664  29.9510367   6.4576798  53.0753865  40.0881194
   6.2798559  52.6230474  40.8136110   6.1695820  53.8780026  40.2719672
   6.3889751  53.1276423  40.2224697  22.1200379  54.3311582  39.3258584
  22.6154044  53.6134577  39.2862605  21.3100155  54.0282380  39.2113071
  22.0744272  54.1809228  39.3032310  17.5658990  58.1809395  31.4755589
  16.7570313  57.8576069  31.4288898  18.0733899  57.4742617  31.4083837
  17.5208657  58.0290712  31.4585883   8.1949268  55.6081588  37.2002953
   7.3294787  55.5967279  37.0885724   8.2948084  55.4211811  38.0474092
   8.0823435  55.5787650  37.3091897  24.1852198  57.0815270  42.0135713
  24.6107269  56.5589691  41.4606138  23.8209118  57.6796107  41.4924336
  24.1938800  57.0925497  41.8544723  13.8206278  65.3779487  40.7733059
  14.1352836  66.1915876  40.7810840  14.2299691  64.9929706  41.4415218
  13.9274376  65.4408189  40.8737150  20.7730797  60.7949534  38.3436871
  21.2441975  61.5089796  38.5126856  21.1090976  60.1948284  38.8796740
  20.8925912  60.8120998  38.4469246  22.8607782  62.4050847  50.5228943
  22.9704747  61.6159408  50.8785690  23.1898678  62.3156783  49.7203281
  22.9260188  62.2756700  50.4571333  17.6900292  45.5677004  45.2994965
  17.8228198  44.7707998  45.6275941  18.0745445  46.0943407  45.8793241
  17.7656621  45.5276921  45.4338468  21.4104744  60.5867468  45.1064563
  20.8625689  59.9625352  44.8384628  21.8717772  60.7761740  44.3908643
  21.3971953  60.5226518  44.9614994  20.7632647  42.4907331  41.8976059
  19.9578611  42.3805060  42.2143897  20.6339383  42.5919786  41.0405924
  20.6252780  42.4891001  41.8184099  24.2198608  48.6552822  42.4915755
  23.6361597  49.1562029  42.0793323  24.5402902  48.1482379  41.8580079
  24.1811783  48.6544658  42.3374263  16.7593407  47.5693417  32.7674430
  17.5809101  47.7391730  32.5256125  16.2963058  47.7240678  32.0440728
  16.8124569  47.6175150  32.6246075  15.3488739  45.5636180  43.5472859
  15.8933152  45.2227306  44.1377201  15.4025675  46.4221641  43.6894144
  15.4377858  45.6391439  43.6554732  11.1619298  59.3252596  40.4211667
  11.7664155  59.2848430  39.7925488  10.9546610  60.1723748  40.4515723
  11.2208195  59.4440598  40.3327783  20.9763070  61.5918541  41.6373904
  21.7961444  61.4481507  41.8990200  20.6957147  62.2164740  42.1790342
  21.0559813  61.6628893  41.7561844   6.3970580  58.3087213  40.2910590
   6.2994858  57.4983485  40.6000647   7.1799450  58.2879006  39.9056858
   6.4986716  58.1854303  40.2797453  37.4476720  69.2483392  34.6016781
  37.4170725  70.1028029  34.7735050  38.0458069  68.9478685  35.1602924
  37.5313878  69.3299889  34.7091583  30.6476405  68.3359043  39.3569711
  29.7914301  68.4967542  39.4078828  30.6944059  67.4651107  39.3774772
  30.5275516  68.2309845  39.3675777  33.9570122  74.6045569  48.9630167
  34.6636889  74.1097600  49.0917102  34.1458057  75.0454651  48.2332825
  34.0898027  74.5963919  48.8739213  33.4928226  70.3951087  42.0001363
  34.0384186  71.0736174  42.0595332  33.4345102  70.2538548  41.1402944
  33.5644140  70.4743089  41.8813423  35.2693295  71.8235694  32.8735091
  35.1532821  72.5743381  33.3027229  36.0649181  71.5659648  33.1231178
  35.3697884  71.8970541  32.9739182  22.1057433  66.0746171  39.9106357
  21.4862464  65.4838818  39.7416371  22.0041296  66.6657606  39.2770680
  21.9995108  66.0750253  39.7911346  27.1523620  75.8129717  34.1604433
  27.4739461  76.3534925  33.5565741  27.7995717  75.2426489  34.2926723
  27.2949675  75.8088893  34.0911468  29.2025328  67.8145712  34.2438820
  29.9005493  67.9933840  34.7360283  29.5177661  67.2916052  33.6209209
  29.3520665  67.7639485  34.2240830  21.8326566  69.6198452  42.1549926
  21.7085263  70.2060898  42.7899744  22.4844850  69.1258648  42.4562201
  21.9100215  69.6337257  42.2935855  29.3913264  74.2016157  34.2318611
  29.8306899  73.5933258  34.6773384  29.2417927  73.8223531  33.4604076
  29.4334729  74.0554629  34.1837779  26.8584907  72.7960169  41.4337437
  27.5033909  72.3032612  41.1148385  27.0986684  72.9384956  42.2603515
  26.9895492  72.7437611  41.5086970  29.3970998  75.6415075  41.0844329
  29.6794241  74.8466481  40.8631085  30.1257158  76.1195663  41.1049390
  29.5460562  75.5949672  41.0547344  27.3752192  63.1838109  38.3260094
  27.0455522  63.6349253  37.6563793  26.6997194  63.1054272  38.8733101
  27.2262628  63.2389244  38.3083318  32.9922600  72.5543339  31.1849380
  32.9073895  73.4104305  31.3298949  33.4806983  72.2787663  31.8531540
  33.0511498  72.6400660  31.3051462  33.9241033  69.1728133  32.6847116
  33.3952505  69.3887766  33.3444422  34.4466053  69.8664271  32.6048085
  33.9229486  69.3071270  32.7702715  39.3789086  74.7474437  38.0580160
  38.5486789  74.9585081  38.2213577  39.3298339  73.9211492  37.7822444
  39.2495822  74.6564044  38.0417525  25.8140641  73.0691350  31.4854583
  25.2297856  73.5741381  31.8920447  25.4110736  72.8433737  30.7451175
  25.6679945  73.1099598  31.4359609  31.0962416  78.0273106  46.8544243
  31.1845762  77.8399246  47.7022453  31.5252128  77.3810535  46.4549089
  31.1724518  77.9036113  46.9215994  30.2717856  69.3157002  29.9623504
  30.5113859  69.5234986  29.1498847  30.5933697  68.5114510  30.0712449
  30.3555014  69.2271103  29.8584057  25.5808146  61.2450397  33.8083042
  26.3354114  61.6128715  33.5700092  25.4035681  61.6189952  34.5762222
  25.6662624  61.3548585  33.8867931  38.8743045  67.3944838  41.8530581
  38.0371466  67.4647025  42.0878176  38.8431276  67.3969333  40.9804884
  38.7461327  67.4055065  41.7590129  25.2707774  69.5377874  47.5678950
  25.4428277  69.4283768  48.4164231  25.8077131  70.1832279  47.3310142
  25.3752778  69.6169875  47.6584047  23.9365211  63.6520716  30.5061155
  23.7540784  63.8692597  29.6802148  24.7990824  63.7659729  30.5619769
  24.0369800  63.7010614  30.3915642  33.5973230  71.5900515  37.4442473
  34.3530745  72.0232029  37.4831382  33.7035555  70.9405284  38.0177109
  33.7243401  71.5577998  37.5340498  36.6353402  75.4173792  38.1944876
  36.1988633  75.4210534  38.9503847  36.3016317  76.0979291  37.7624453
  36.5216022  75.5186248  38.2425708  31.2082475  77.4582125  49.5188026
  31.9922892  77.5712972  49.8843768  31.0079070  76.6323262  49.7146712
  31.2948501  77.3528844  49.6022412  19.5769491  72.1309805  42.4031870
  19.3107906  71.3148921  42.5622860  19.5908055  72.1762960  41.5327385
  19.5394213  72.0166709  42.2985352  36.5550884  62.4587620  40.4374304
  37.1976793  62.5285724  41.0236219  36.8073905  61.7916842  39.9353846
  36.6873017  62.3713968  40.4501583  23.4827238  66.9294889  29.0183628
  22.7685415  66.6433069  29.4306061  23.9671206  67.2691515  29.6590016
  23.4486601  66.9376539  29.1739263  24.3268097  65.6688183  45.0498878
  23.6339894  65.1985163  45.2959609  24.9428424  65.4426487  45.6240585
  24.3152627  65.5655315  45.1708030  39.7697748  72.1354712  37.0864513
  40.4314182  71.5745380  36.9860421  39.1289160  71.6406742  37.4117204
  39.7726615  71.9791121  37.1196853  30.6574556  75.4324843  29.3945436
  31.0725704  75.1009867  28.7029932  29.8266485  75.1993745  29.2665573
  30.5962564  75.3496099  29.2736284  19.9862904  72.9168584  39.6843614
  19.8038478  72.8915470  38.8315906  20.7212573  73.3867522  39.7232523
  20.0676968  72.9829946  39.5641533  36.0562578  73.1520094  36.8276502
  36.2918168  73.2965293  36.0003352  36.2052142  73.9162502  37.2208015
  36.1128382  73.2859148  36.7640106  23.0508656  69.6353587  46.1925723
  23.7748628  69.6206618  46.6790618  23.1524792  70.3448942  45.6947691
  23.1726865  69.7378290  46.1904510  37.8853035  71.9921760  34.6646106
  38.2161252  72.5249400  34.0586200  38.4586123  72.0460648  35.3208057
  38.0186714  72.0791329  34.6723887  30.4253605  73.1152672  51.0574670
  29.6326586  73.4296183  51.2427290  30.5402533  73.3304140  50.2195455
  30.3249016  73.1936508  50.9613005  33.0984924  69.8386663  35.3469686
  33.1931779  70.5775957  35.8009311  32.4743768  69.4104138  35.7804250
  33.0193954  69.8847983  35.4777833  31.3537398  73.0172875  45.9959967
  31.9276260  72.3800120  46.1508531  31.2752202  73.0176958  45.1269624
  31.4270633  72.9237987  45.8906377  19.9533815  69.7962085  39.8342681
  20.5307317  69.6598536  40.4734926  19.2547876  69.3397869  40.0888265
  19.9354836  69.7084351  39.9664970  33.3507946  71.6835403  28.5806638
  33.2688108  71.7537590  29.4461625  33.9887666  72.2465146  28.3890378
  33.4327783  71.7774374  28.6796587  26.7101117  71.4496140  38.0481164
  26.4520361  70.6167875  38.0212463  26.7649600  71.6753753  37.2073664
  26.6800895  71.3593912  37.9201301  31.7902167  63.5524591  38.1485257
  31.0858494  63.0633777  38.3069176  31.8387141  63.5647066  37.2773701
  31.6932219  63.4814239  38.0424597  25.6835829  69.0033903  38.5346059
  25.1085420  69.1626071  39.1710020  25.3071505  68.3669312  38.0714509
  25.5438641  68.9331716  38.5600617  29.3509118  67.4757252  43.3938437
  28.9623550  67.0511470  42.7390628  28.6863816  67.7239402  43.9015464
  29.1956045  67.4495973  43.3726305  38.9932387  67.2332257  36.1686267
  38.7368952  66.4212198  35.9784150  39.8361701  67.2409824  35.9416455
  39.0798412  67.1144254  36.1071084  15.4292648  68.6473978  36.5490499
  15.5152900  68.2705846  37.3304029  16.0568445  68.2734423  36.0710458
  15.5349199  68.5359460  36.5935977  33.1735479  61.1731881  40.9062421
  33.5545991  60.4910052  41.2930296  32.3698763  60.8841483  40.7238086
  33.1111941  61.0298929  40.9366477  30.4548056  71.7055857  31.5915244
  31.2688695  71.9970750  31.4798016  30.3907197  71.0515719  31.0173537
  30.5650795  71.6521052  31.4904082  36.6757546  74.3881853  46.0044820
  36.4396183  73.5569918  45.8856880  37.3200775  74.3367460  46.5899664
  36.7352217  74.2579541  46.0730713  26.3255964  75.1777374  36.7187556
  26.9629911  74.9389122  37.2639350  26.7511036  75.3814533  35.9840717
  26.4832130  75.1728384  36.6904714  26.9658779  70.3979664  31.0562446
  27.3503932  70.1787371  31.8078991  26.7170399  71.2242609  31.1863522
  26.9860852  70.4877810  31.1863522  27.1327320  63.6786079  50.7725030
  26.8180761  64.4485642  50.5094593  26.8117252  63.1156335  50.1877257
  27.0386239  63.7096348  50.6466380  37.6993967  74.1726302  42.0673114
  37.3939784  74.9054359  42.4286430  36.9800182  73.7664231  41.7865900
  37.5481309  74.2208035  42.0786251  28.7077436  75.6549797  38.3981343
  28.7816444  75.4924969  39.2523192  29.5246942  75.8439986  38.1541824
  28.8393795  75.6586539  38.4879368  43.3995759  70.8119302  41.3941459
  43.3320259  70.8315261  40.5244045  43.3851421  71.6549630  41.6197129
  43.3874515  70.9393037  41.2993935  24.6859217  62.0676601  36.3871226
  23.8181642  62.1399200  36.4528835  24.9734421  62.8698680  36.5759201
  24.5998965  62.1970748  36.4245993  33.8092105  62.2154460  44.7182548
  34.5545697  62.0264270  44.3045973  33.3929410  62.7412698  44.1596404
  33.8577080  62.2656605  44.5747121  41.1854376  69.5863689  39.6688053
  41.7362298  68.9531758  39.9085145  41.1698492  70.1179081  40.3603557
  41.2639572  69.5712637  39.8066911  27.8376767  73.4202286  44.2147946
  27.3388461  74.1318054  44.2932835  28.6476991  73.7402952  44.1766109
  27.8832874  73.5729134  44.2204515  24.1004885  72.6825239  38.4610667
  23.8118133  72.0562710  38.9956395  24.9688233  72.6245526  38.5275348
  24.1865136  72.5812783  38.5501622  34.8882782  67.8260022  38.7792649
  34.5447548  67.1050357  39.1299899  34.9875825  67.6173873  37.9371007
  34.8524825  67.6884225  38.7064329  24.3037158  74.3220490  34.3853032
  25.0583126  74.7033529  34.5988495  23.7107771  74.7731634  34.8399729
  24.3273872  74.4449317  34.4835911  35.3495811  74.2885726  34.3216637
  35.9153844  74.9478936  34.2375180  34.7023715  74.6335424  34.7933039
  35.3374568  74.4367668  34.3789394  26.7643825  66.2783330  49.5110245
  25.9543601  66.5841110  49.4000087  27.2418512  66.9988913  49.6262829
  26.7147304  66.4297931  49.5117316  25.6235385  75.4929051  39.7593148
  25.1016138  75.6329343  40.4445012  26.0109405  74.7339716  39.9495265
  25.6039085  75.4014575  39.8894224  22.6126569  65.5434860  33.8288102
  22.3251364  65.1736130  33.0920050  23.2997037  66.0129715  33.5671807
  22.6715466  65.5581829  33.6803178  31.8202390  77.2324510  33.7453717
  31.5789065  76.4992371  33.3380781  32.0003722  77.7811367  33.0920050
  31.8110014  77.2046902  33.5883939  27.0501710  72.5233070  35.1574639
  26.8544493  73.1307805  34.5634942  27.2736056  71.8301014  34.6766313
  27.0536351  72.5110596  34.9990720  25.4480240  69.4087808  35.2755507
  26.1702892  69.5728966  34.8159313  24.9688233  70.1297473  35.1694847
  25.4843971  69.5386038  35.1921121  33.4073748  65.7451607  40.6552192
  32.5684848  65.7712886  40.4190455  33.4778115  66.3922342  41.2357539
  33.2942141  65.8447733  40.7061309  23.0987857  71.8145881  44.3809647
  23.6108954  72.0930134  43.7318407  22.8124199  72.5535175  44.7472460
  23.1322720  71.9648234  44.3399525  37.2831272  70.9519594  37.9413434
  37.1965246  71.1075020  38.7948213  36.8281752  71.5957669  37.5672839
  37.2034528  71.0695349  38.0120541  20.1854763  66.3216072  34.6773384
  20.2870900  67.1242234  35.0054359  20.9810650  66.1203408  34.3796464
  20.3182669  66.4101971  34.6808739  26.6171582  63.9072269  44.4410689
  26.4254779  63.9227404  45.2910112  27.4670178  64.1035943  44.4177343
  26.7147304  63.9386620  44.5633983  21.0018495  66.4363251  42.4194505
  20.8603987  65.5847191  42.5439013  21.2859059  66.4791911  41.5956711
  21.0226341  66.3163001  42.3162129  31.1557088  68.2730341  36.5638993
  30.9091802  68.1926092  37.3975782  31.4842211  67.4883809  36.3701521
  31.1678331  68.1456606  36.6586516  35.0505136  74.9813700  40.3525775
  34.9119496  75.6794746  40.8574517  34.2705134  74.8262357  39.9961956
  34.9148363  75.0613867  40.3752049  33.3883222  71.2810076  46.6048156
  33.3831260  70.4089892  46.6090583  34.0944215  71.4798245  46.1317612
  33.4928226  71.1813950  46.5355192  27.1154115  71.0087059  45.9761976
  27.2597491  71.5888268  45.3405086  27.4629763  71.3863356  46.6811831
  27.1881576  71.1507763  45.9860971  29.2874032  70.2077228  43.7587108
  28.5397346  70.4008242  43.3535386  29.4415558  69.3822447  43.5211229
  29.1996460  70.1142339  43.6632514  36.5458509  74.3391954  31.1142274
  36.1665318  73.5529092  31.1071563  35.8824755  74.8878811  30.9713918
  36.3916984  74.3036778  31.0923071  29.5275809  64.1027779  44.6482512
  29.9848423  64.8351753  44.7755304  29.6032138  63.6794244  45.4069768
  29.6066779  64.1485017  44.7783588  21.7708801  64.3493598  45.7371955
  21.2350990  63.7373956  46.0532723  21.8326565  64.9241734  46.3905622
  21.7004433  64.3440526  45.8807382  34.0003135  57.2817654  38.5176355
  34.1186703  57.7394117  37.7843657  33.8265311  56.4762915  38.2312572
  33.9922306  57.2311426  38.3677288  27.4058187  66.0929882  41.4924336
  26.6154262  65.9121343  41.8141672  27.8018810  65.3156835  41.4754630
  27.3475063  65.9517343  41.5376884  31.8924078  74.9217657  26.9331049
  32.6597063  74.9817782  26.5236901  31.4455387  74.3498098  26.4487368
  31.9397505  74.8454232  26.8008760  32.7901874  73.7272313  39.2183782
  32.1146875  73.4957545  39.7197169  32.7994250  73.1193496  38.5925887
  32.6920378  73.6031238  39.1999934  29.9196018  68.5690142  45.9747835
  29.8555159  69.4300098  45.8467971  30.0593205  68.2522135  45.1743386
  29.9311488  68.6490308  45.8376048  34.7918608  76.5837445  31.4493960
  34.8738446  77.3904431  31.1255411  35.2768350  76.6033404  32.1734733
  34.8755766  76.7058107  31.5080858  28.6015111  71.2622281  40.1164038
  28.1777361  71.4626780  39.3803056  28.4259967  70.4151129  40.2288337
  28.5125992  71.1671062  40.0237728  23.8897556  71.7574332  35.5492010
  24.0462176  71.6921135  36.4048002  24.2298149  72.5322885  35.3370690
  23.9630791  71.8623530  35.6446604  30.4276701  71.1332216  34.4185373
  30.9692246  70.6302597  34.8823994  30.7423260  71.0797411  33.6074859
  30.5541098  71.0511637  34.3669185  34.2993808  75.3434863  51.5312286
  35.1128674  75.0720012  51.6917418  34.1388775  75.0442403  50.7272481
  34.3963757  75.2589789  51.4357691  28.5963151  76.5249567  31.7025401
  28.6655971  75.6664106  31.8418402  29.3751606  76.7421448  31.3744426
  28.7216001  76.4302431  31.6742559  31.5765970  66.0268520  44.4707674
  31.7907940  65.3879435  43.9171028  30.9599870  66.4714344  44.0415536
  31.5171300  65.9978664  44.3258105  20.4631818  68.9409283  35.8652777
  20.8430783  69.3593828  35.2013045  19.8887183  69.5222739  36.1721621
  20.4343143  69.0887142  35.8129518  33.7405058  67.6357586  45.4090981
  32.9281740  67.3283476  45.4904154  34.1994993  67.1556586  45.9733693
  33.6885443  67.5194078  45.5045575  33.1510313  75.5137258  35.8567925
  32.7924968  75.6851900  36.6331958  32.6649024  75.9750463  35.2995924
  33.0269010  75.6076229  35.8893194  27.9398678  71.1936423  28.3968160
  28.2291203  71.9701306  28.6711734  28.0270477  70.6825154  29.0982659
  27.9952935  71.2328341  28.5410657  30.8358566  69.0417657  50.1919683
  31.3058197  69.6659773  50.5787557  30.8820446  68.3734633  50.7512898
  30.9126442  69.0352337  50.3319755  27.9929840  61.1474685  40.9168487
  27.4768328  60.4554876  41.0420066  27.4323768  61.8145462  40.8631086
  27.8336353  61.1437942  40.9274553  30.0622073  61.6867645  42.7461340
  29.6753826  61.7116676  43.5274869  29.5755010  61.1209323  42.2935856
  29.9334582  61.6063395  42.7949243  34.3115052  76.4041154  46.8035126
  34.9494773  75.9101349  46.4697582  33.6689144  76.3318554  46.2187353
  34.3109279  76.3200162  46.6677481  36.0372052  68.2530300  41.3701042
  35.6099661  68.1656648  40.6149141  35.3998105  68.3608075  41.9555886
  35.8801660  68.2562959  41.3446483  29.7279215  58.5734630  45.0371599
  30.3572333  59.1094930  44.7592670  29.8965077  58.4811989  45.8885165
  29.8457009  58.6395992  45.1220128  29.5293130  63.3605825  47.3098011
  30.3566559  63.0890974  47.3656626  29.5500976  64.1566666  47.6661829
  29.6545980  63.4385579  47.3713194  34.3669309  77.0960962  43.4440483
  35.1561687  76.7450027  43.5642564  34.5412907  77.9097350  43.1817117
  34.5089591  77.1646819  43.4228351  24.1062619  70.5069688  40.4968272
  23.2650626  70.4073562  40.7047166  24.3152627  71.2765168  40.8482592
  24.0127312  70.6061731  40.5795587  21.5838186  68.1289225  38.3253022
  21.1894884  68.2032236  37.5503132  21.0278303  68.5147171  38.8761384
  21.4440999  68.1970999  38.2920682  27.9179284  68.4351087  39.7465869
  27.6142422  67.8807075  40.3476277  27.2158705  68.6143297  39.2593903
  27.7695494  68.3795869  39.7635575  26.9745381  65.7451607  34.3110571
  27.2505116  65.0270519  33.8988139  27.5744051  66.3436526  34.1031677
  27.1038646  65.7271977  34.2191332  23.9971427  72.9013450  41.9159905
  23.4059361  73.5422948  41.8862920  24.7592451  73.3251067  41.8891204
  24.0219688  73.0589288  41.9075052  24.3932050  64.0615448  42.5827922
  24.8533532  64.1354377  43.3203046  24.4388157  64.8596702  42.2327744
  24.4682605  64.1909595  42.6400679  26.0415400  64.7282143  47.1499949
  25.6500965  64.0815490  47.5855727  26.2101263  65.3193578  47.7694205
  26.0086310  64.7196410  47.3062655  40.1161849  72.7319220  42.9137183
  40.1744973  73.1805868  43.6597159  39.4828316  73.1418032  42.4767263
  40.0313144  72.8592954  42.9589731  33.7560944  78.3522761  39.3491929
  33.5580632  78.8413576  38.6548140  33.1348655  78.5564003  39.9276062
  33.6348508  78.4539300  39.3315152  27.8168922  70.1207658  33.6902173
  28.5610967  70.5081935  33.9285123  27.9629618  69.2765084  33.8542661
  27.9479507  70.0538131  33.7496143  29.7348497  61.9157917  38.7234035
  28.8884542  62.0880725  38.5975385  29.7319630  61.1107261  39.0599863
  29.6095647  61.8218946  38.7545162  30.8046798  65.6933132  39.5896093
  30.3306752  65.1674894  40.1001404  31.1764934  65.1462604  39.0210954
  30.7896687  65.5349128  39.5811240  21.1819828  67.6904638  44.9579638
  22.0445441  67.5900348  44.8716968  20.8511611  67.1099348  44.3965211
  21.2605024  67.5896265  44.8625044  37.0683528  70.7535507  41.0002873
  36.8281751  69.9141922  41.0045300  37.5475535  70.8335674  41.7243647
  37.1035712  70.6416907  41.1077676  32.7330297  66.5869686  32.6521846
  32.2053316  66.6698430  31.9627555  33.1926006  67.3287558  32.6486491
  32.7232148  66.7090349  32.5496542  39.0688715  67.5336964  38.9532132
  38.8298485  67.4932799  38.1152917  39.2322617  68.3808117  39.0797853
  39.0579019  67.6529049  38.8485614  35.6734745  71.9186914  44.8837177
  36.3968944  71.4659440  44.7048197  35.4084708  72.1991579  44.1009505
  35.7416019  71.8937882  44.7415893  24.5421614  66.5147087  41.6190057
  23.9174684  66.5265479  41.0116009  24.2067209  66.9907262  42.2681297
  24.4007106  66.5865604  41.6246625  24.7263363  64.8572206  27.6762742
  24.3776167  65.5091931  28.1394291  24.2459808  64.8429319  26.9486613
  24.6033606  64.9515259  27.6373833  32.2867380  75.1573250  31.7831504
  33.0101579  75.6231363  31.6396077  31.8467971  75.2246859  31.0329101
  32.3283072  75.2357086  31.6516285  31.4553535  72.0170792  43.0332193
  30.8410528  71.4728842  43.3280828  31.9720820  71.5035028  42.5538009
  31.4409197  71.8607201  43.0056421  30.6949832  73.0875062  40.7676491
  30.2677440  72.4624781  40.3341927  30.6874777  72.8049984  41.5935498
  30.6308973  72.9527843  40.8256319  23.8112359  68.1240235  43.8364925
  23.9705846  67.3683559  44.2416647  23.6305253  68.6731175  44.4905663
  23.8077718  68.0934049  43.9927631  31.7532662  60.2901471  44.3915715
  31.2573223  60.4865145  43.7007281  32.5101724  60.6894139  44.2204516
  31.7919487  60.3779204  44.2635851  29.0235542  63.9643817  40.9819025
  29.0478029  63.4303929  40.2931805  29.2747015  63.4561125  41.6444616
  29.0645461  63.8104721  40.9783670  16.5343132  71.2475312  40.4162169
  16.4286581  71.2022156  39.5514253  15.7843352  71.5929092  40.6976454
  16.4078735  71.2916220  40.3299499  25.3036864  62.6914635  40.3624769
  25.3435236  63.1923841  41.0759477  24.4786529  62.7825029  40.0930693
  25.1876390  62.7796451  40.4275308  27.4866477  72.2575375  48.4645064
  26.6362107  72.3947089  48.6002709  27.6494605  71.5239153  48.9092766
  27.3850340  72.1689476  48.5500663  26.7251227  69.2075145  42.6598668
  25.8943157  69.3748963  42.4533917  26.6702745  68.8311095  43.4447554
  26.5940642  69.1764876  42.7447197  24.5335011  62.6984038  48.2955079
  25.1587714  62.1546170  48.5684511  24.0785491  62.2178955  47.7262870
  24.5583271  62.5473519  48.2516673  25.0987271  67.4830736  33.1888786
  25.2390232  67.9803200  33.8917428  25.5969804  66.7817031  33.3303000
  25.1928352  67.4532715  33.3140365  25.1287494  68.3497847  30.5181363
  25.7632573  68.9458272  30.4530825  25.2113104  68.0501305  31.3327233
  25.2344045  68.3938755  30.6284450  38.1070059  70.8813325  43.3867727
  38.6987900  71.5210575  43.4185925  38.5429054  70.1836361  43.6759794
  38.2588491  70.8731675  43.4348560  26.7066477  64.2811823  30.4926805
  27.0282318  63.8014905  29.8386067  26.9693420  65.0911469  30.3017617
  26.7932502  64.3301721  30.3682297  29.9363449  75.3030697  44.0125621
  29.4288540  75.8566544  44.4566252  29.6390095  75.3638987  43.1944396
  29.8168334  75.3937008  43.9574078  32.1025631  63.6684017  42.8550284
  32.5280703  63.2156543  42.2433810  31.4882625  63.1144087  43.1315072
  32.0754277  63.5197993  42.8055309  21.6340482  70.5465688  33.7870909
  22.1432711  71.1430196  34.1682215  22.1074754  70.2791662  33.1047329
  21.7783857  70.5951503  33.7425432  35.1319201  68.0958543  35.6870870
  34.4610391  68.6388245  35.5583935  35.8258951  68.5653399  35.4452564
  35.1348068  68.2456814  35.6326397  35.2947328  64.5514427  38.5961243
  35.6474938  64.1244150  39.2707042  34.4362130  64.4665270  38.7262319
  35.2196773  64.4759168  38.7156253  23.9931013  67.1821947  36.6544089
  23.2743002  67.5986079  36.9216953  24.3643376  67.7476185  36.1035728
  23.9422945  67.3271228  36.6126896  33.2930594  67.8149795  42.5446085
  33.2728521  67.6333091  43.3980864  33.3409795  68.6861814  42.5205669
  33.2965235  67.9166334  42.6669380  31.2376924  74.4036987  48.4694562
  31.1972779  73.7586664  47.8839718  32.0500242  74.3473605  48.7819974
  31.3520077  74.2995954  48.4291511  29.7677588  66.2219946  31.9917469
  29.1742427  66.5436943  31.4402036  29.8052865  65.3761042  31.7838575
  29.6851977  66.1444275  31.8800240  36.7271388  59.6732839  39.5245555
  36.2202253  58.9661978  39.4566733  37.5238822  59.3426028  39.6546632
  36.7698628  59.5205990  39.5344550  32.6435404  66.1799451  35.4219219
  32.4149097  66.2032152  34.5797577  32.9033480  65.3556918  35.5414230
  32.6481592  66.0615531  35.3144417  26.9254633  68.0333924  45.0244319
  26.4133536  67.4255107  45.3829351  26.7534129  68.7490517  45.4918295
  26.8244270  68.0497223  45.1460543  21.7720347  66.4771499  47.6746681
  21.6022938  67.1372874  47.1294888  21.3286297  66.6878061  48.3959170
  21.6819681  66.6057481  47.7008311  25.6980167  64.7175997  36.7173415
  26.1737533  65.0793077  36.0823596  25.1968766  65.3732465  36.9973558
  25.6945526  64.8670186  36.6650156  38.9291528  74.1897765  32.5086420
  39.3125134  74.9389121  32.7384517  38.1335642  74.4363585  32.2498409
  38.8685311  74.3367459  32.5043993  30.8023703  65.9558169  47.4646575
  31.3595133  65.7271978  46.8325040  30.4784768  66.7163834  47.1881787
  30.8370113  66.0342005  47.3303072  18.6722412  69.3818365  42.9335171
  18.1249131  68.7119010  43.0516039  19.4614790  69.0148213  42.9978638
  18.7074596  69.2283351  42.9603872  28.5206820  69.0425822  48.4298582
  29.2718147  69.3577499  48.7438136  28.7129397  68.8404993  47.6032504
  28.6598234  69.0593204  48.3541978  27.7406820  66.8617197  30.0846799
  28.1205785  66.8796826  29.2997914  26.9999416  67.3071186  29.9637646
  27.6875658  66.9298972  29.9510367  35.3692110  65.1699388  35.6722377
  35.3686337  65.0148045  36.5306654  35.1648290  66.0162375  35.6163763
  35.3391888  65.2720009  35.7910317  17.4309381  68.5939173  40.0881194
  17.2531142  68.1415782  40.8136110  17.1428403  69.3965334  40.2719672
  17.3622335  68.6461730  40.2224697  33.0932962  69.8496890  39.3258584
  33.5886628  69.1319885  39.2862605  32.2832738  69.5467688  39.2113071
  33.0476856  69.6994536  39.3032310  28.5391574  73.6994703  31.4755589
  27.7302897  73.3761377  31.4288898  29.0466483  72.9927925  31.4083837
  28.4941241  73.5476020  31.4585883  19.1681851  71.1266896  37.2002953
  18.3027371  71.1152587  37.0885724  19.2680667  70.9397119  38.0474092
  19.0556018  71.0972958  37.3091897  35.1584781  72.6000578  42.0135713
  35.5839853  72.0774999  41.4606138  34.7941701  73.1981415  41.4924336
  35.1671384  72.6110805  41.8544723  31.7463381  76.3134842  38.3436871
  32.2174559  77.0275104  38.5126856  32.0823559  75.7133592  38.8796740
  31.8658496  76.3306306  38.4469246  33.8340365  77.9236155  50.5228943
  33.9437331  77.1344716  50.8785690  34.1631262  77.8342091  49.7203281
  33.8992771  77.7942008  50.4571333  28.6632876  61.0862312  45.2994965
  28.7960781  60.2893306  45.6275941  29.0478028  61.6128715  45.8793241
  28.7389205  61.0462229  45.4338468  32.3837327  76.1052776  45.1064563
  31.8358273  75.4810660  44.8384628  32.8450356  76.2947048  44.3908643
  32.3704537  76.0411826  44.9614994  31.7365231  58.0092639  41.8976059
  30.9311195  57.8990368  42.2143897  31.6071966  58.1105094  41.0405924
  31.5985364  58.0076309  41.8184099  35.1931191  64.1738130  42.4915755
  34.6094180  64.6747337  42.0793323  35.5135485  63.6667687  41.8580079
  35.1544367  64.1729965  42.3374263  27.7325991  63.0878725  32.7674430
  28.5541685  63.2577038  32.5256125  27.2695641  63.2425986  32.0440728
  27.7857153  63.1360458  32.6246075  26.3221322  61.0821487  43.5472859
  26.8665735  60.7412614  44.1377201  26.3758258  61.9406949  43.6894144
  26.4110442  61.1576747  43.6554732  31.9495653  77.1103849  41.6373904
  32.7694027  76.9666815  41.8990200  31.6689731  77.7350048  42.1790342
  32.0292397  77.1814201  41.7561844  38.3484775  78.7023417  38.3260094
  38.0188105  79.1534561  37.6563793  37.6729777  78.6239580  38.8733101
  38.1995212  78.7574552  38.3083318  45.5561183  74.6908940  36.5709705
  45.2414624  75.3812419  37.0030127  45.0388125  74.6353722  35.8695206
  45.4325654  74.7843828  36.5306654  36.5540730  76.7635705  33.8083042
  37.3086698  77.1314022  33.5700092  36.3768264  77.1375260  34.5762222
  36.6395208  76.8733893  33.8867931  49.8475628  82.9130146  41.8530581
  49.0104049  82.9832333  42.0878176  49.8163859  82.9154641  40.9804884
  49.7193911  82.9240373  41.7590129  40.5897513  76.1732435  33.5410179
  41.3183674  75.9948390  33.0948335  40.6792406  77.0150515  33.7517357
  40.7104175  76.2716313  33.5063696  47.5283468  77.9772928  40.4374304
  48.1709376  78.0471032  41.0236219  47.7806489  77.3102150  39.9353846
  47.6605600  77.8899276  40.4501583  42.7634751  79.0709899  38.1485257
  42.0591077  78.5819085  38.3069176  42.8119725  79.0832373  37.2773701
  42.6664802  78.9999547  38.0424597  49.9664970  82.7517565  36.1686267
  49.7101535  81.9397506  35.9784150  50.8094284  82.7595132  35.9416455
  50.0530996  82.6329562  36.1071084  44.1468063  76.6917189  40.9062421
  44.5278574  76.0095360  41.2930296  43.3431347  76.4026791  40.7238086
  44.0844524  76.5484237  40.9366477  38.1059903  79.1971387  50.7725030
  37.7913344  79.9670950  50.5094593  37.7849836  78.6341643  50.1877257
  38.0118822  79.2281656  50.6466380  35.6591800  77.5861909  36.3871226
  34.7914226  77.6584508  36.4528835  35.9467004  78.3883988  36.5759201
  35.5731548  77.7156056  36.4245993  44.7824689  77.7339768  44.7182548
  45.5278281  77.5449578  44.3045973  44.3661993  78.2598006  44.1596404
  44.8309663  77.7841913  44.5747121  44.3806331  81.2636915  40.6552192
  43.5417432  81.2898194  40.4190455  44.4510699  81.9107650  41.2357539
  44.2674725  81.3633041  40.7061309  42.8275610  78.1622292  35.3879808
  43.5301962  77.9630040  34.9099766  42.5619798  77.3898234  35.6948651
  42.8922242  78.0185258  35.3625250  37.5904166  79.4257577  44.4410689
  37.3987363  79.4412712  45.2910112  38.4402762  79.6221251  44.4177343
  37.6879888  79.4571928  44.5633983  40.5008393  79.6213086  44.6482512
  40.9581007  80.3537061  44.7755304  40.5764722  79.1979552  45.4069768
  40.5799363  79.6670325  44.7783588  44.9735719  72.8002962  38.5176355
  45.0919287  73.2579425  37.7843657  44.7997895  71.9948223  38.2312572
  44.9654890  72.7496734  38.3677288  41.9413283  74.6553764  39.4595017
  41.0706841  74.6292485  39.4128326  42.1953624  74.4830956  38.6420862
  41.8506843  74.6263908  39.3315153  38.9662423  76.6659992  40.9168487
  38.4500912  75.9740184  41.0420066  38.4056352  77.3330770  40.8631086
  38.8068936  76.6623250  40.9274553  41.0354657  77.2052953  42.7461340
  40.6486410  77.2301984  43.5274869  40.5487594  76.6394631  42.2935856
  40.9067165  77.1248703  42.7949243  40.7011798  74.0919938  45.0371599
  41.3304916  74.6280238  44.7592670  40.8697661  73.9997297  45.8885165
  40.8189593  74.1581300  45.1220128  40.5025713  78.8791133  47.3098011
  41.3299142  78.6076282  47.3656626  40.5233559  79.6751974  47.6661829
  40.6278563  78.9570887  47.3713194  44.1935717  76.6255826  38.0056901
  44.3985310  76.5578134  38.8513898  43.8662141  77.4314648  37.9378079
  44.1750965  76.7341767  38.1216556  47.4469404  77.1787591  37.4859667
  46.8343718  77.6657993  37.8713399  47.5433579  76.5031082  38.0297318
  47.3707302  77.1505899  37.6238525  41.4488485  78.9350432  32.5857166
  41.9032232  79.1060992  33.3105011  41.9228531  78.3218543  32.1854942
  41.5856806  78.8701317  32.6330928  40.7081081  77.4343225  38.7234035
  39.8617126  77.6066033  38.5975385  40.7052213  76.6292569  39.0599863
  40.5828231  77.3404254  38.7545162  41.7779381  81.2118440  39.5896093
  41.3039336  80.6860202  40.1001404  42.1497517  80.6647912  39.0210954
  41.7629270  81.0534436  39.5811240  50.0421299  83.0522272  38.9532132
  49.8031069  83.0118107  38.1152917  50.2055200  83.8993424  39.0797853
  50.0311602  83.1714357  38.8485614  42.7265246  75.8086779  44.3915715
  42.2305807  76.0050453  43.7007281  43.4834308  76.2079447  44.2204516
  42.7652070  75.8964512  44.2635851  39.9968125  79.4829125  40.9819025
  40.0210613  78.9489237  40.2931805  40.2479599  78.9746433  41.6444616
  40.0378044  79.3290028  40.9783670  36.2769448  78.2099943  40.3624769
  36.3167819  78.7109149  41.0759477  35.4519112  78.3010336  40.0930693
  36.1608974  78.2981759  40.4275308  35.5067594  78.2169346  48.2955079
  36.1320298  77.6731478  48.5684511  35.0518074  77.7364263  47.7262870
  35.5315855  78.0658827  48.2516673  41.5152438  75.6584424  36.2640861
  40.8720756  75.5082071  36.8326000  41.1751845  75.4126770  35.4989966
  41.3697515  75.5996547  36.2343876  46.2679912  80.0699735  38.5961243
  46.6207522  79.6429458  39.2707042  45.4094713  79.9850578  38.7262319
  46.1929356  79.9944475  38.7156253  47.7003972  75.1918147  39.5245555
  47.1934837  74.4847286  39.4566733  48.4971406  74.8611335  39.6546632
  47.7431211  75.0391298  39.5344550  43.6167988  81.6984759  35.4219219
  43.3881681  81.7217460  34.5797577  43.8766064  80.8742226  35.5414230
  43.6214176  81.5800839  35.3144417  46.3424694  80.6884696  35.6722377
  46.3418920  80.5333353  36.5306654  46.1380874  81.5347683  35.6163763
  46.3124472  80.7905317  35.7910317  39.6365459  76.6047620  45.2994965
  39.7693365  75.8078614  45.6275941  40.0210612  77.1314023  45.8793241
  39.7121788  76.5647537  45.4338468  42.7097814  73.5277946  41.8976059
  41.9043778  73.4175676  42.2143897  42.5804550  73.6290402  41.0405924
  42.5717947  73.5261617  41.8184099  46.1663775  79.6923438  42.4915755
  45.5826764  80.1932645  42.0793323  46.4868069  79.1852995  41.8580079
  46.1276950  79.6915273  42.3374263  38.7058574  78.6064033  32.7674430
  39.5274268  78.7762346  32.5256125  38.2428225  78.7611294  32.0440728
  38.7589736  78.6545766  32.6246075  37.2953906  76.6006795  43.5472859
  37.8398319  76.2597922  44.1377201  37.3490842  77.4592257  43.6894144
  37.3843025  76.6762055  43.6554732  15.1962377  15.1490908  21.5356828
  15.1656381  16.0035544  21.7075097  15.7943726  14.8486200  22.0942971
  15.2799535  15.2307404  21.6431630   8.3962062  14.2366559  26.2909758
   7.5399957  14.3975057  26.3418875   8.4429716  13.3658623  26.3114819
   8.2761173  14.1317361  26.3015824   2.7803202  23.7729277  22.0546990
   2.0286101  23.3944815  21.8263035   3.2289213  23.8047710  21.3065800
   2.7352868  23.7214884  21.9104492  11.7055778  20.5053084  35.8970214
  12.4122546  20.0105115  36.0257149  11.8943714  20.9462166  35.1672872
  11.8383684  20.4971435  35.8079260   8.2328161  24.1954646  17.4832537
   7.8979530  24.8731568  17.0476759   8.7455032  23.8059957  16.8949408
   8.2593743  24.2379224  17.3319328   7.7732453  26.1468915  23.4243648
   8.1571832  26.7155813  22.8848423   7.7091594  25.4218425  22.9449464
   7.8205880  26.1244378  23.2737511  11.2413883  16.2958603  28.9341410
  11.7869843  16.9743689  28.9935379  11.1830759  16.1546064  28.0742991
  11.3129797  16.3750604  28.8153470   4.3587958  23.7847669  24.3209762
   4.4598321  22.9748023  24.6306890   3.7629703  23.6904615  23.6909441
   4.2860496  23.6512697  24.2736000  13.0178951  17.7243210  19.8075137
  12.9018477  18.4750896  20.2367275  13.8134838  17.4667163  20.0571224
  13.1183541  17.7978057  19.9079229   4.1988697  28.7025258  25.7224618
   4.8426153  29.1438422  26.1120776   4.5244953  27.8978684  25.6354877
   4.3420526  28.6490453  25.7670095   4.9009277  21.7137233  21.0944480
   5.2225118  22.2542440  20.4905788   5.5481374  21.1434004  21.2266770
   5.0435332  21.7096408  21.0251515   6.9510985  13.7153228  21.1778867
   7.6491150  13.8941355  21.6700330   7.2663318  13.1923567  20.5549256
   7.1006322  13.6647000  21.1580877   7.1398920  20.1023673  21.1658658
   7.5792556  19.4940773  21.6113431   6.9903583  19.7231046  20.3944123
   7.1820386  19.9562144  21.1177825   4.6070563  18.6967685  28.3677483
   5.2519566  18.2040128  28.0488432   4.8472341  18.8392471  29.1943562
   4.7381149  18.6445127  28.4427017   7.1456655  21.5422590  28.0184376
   7.4279898  20.7473996  27.7971132   7.8742815  22.0203178  28.0389437
   7.2946219  21.4957187  27.9887391  10.7408257  18.4550854  18.1189427
  10.6559552  19.3111821  18.2638996  11.2292640  18.1795178  18.7871586
  10.7997154  18.5408175  18.2391509  11.6726690  15.0735648  19.6187162
  11.1438162  15.2895282  20.2784469  12.1951710  15.7671787  19.5388132
  11.6715143  15.2078785  19.7042762  17.1274743  20.6481953  24.9920207
  16.2972446  20.8592596  25.1553623  17.0783995  19.8219007  24.7162490
  16.9981479  20.5571559  24.9757572   5.1884481  23.4785807  27.8268116
   4.6711422  23.1193222  27.2229424   5.8858872  22.9547981  27.8374182
   5.2150062  23.3483495  27.7398375   8.8448073  23.9280621  33.7884289
   8.9331419  23.7406761  34.6362500   9.2737785  23.2818050  33.3889136
   8.9210175  23.8043629  33.8556041   6.4118532  23.2111781  32.7701952
   5.8489367  22.7984391  33.2941613   7.1739556  23.1364687  33.1895095
   6.4412981  23.1389181  32.9094952   1.9714524  25.2009802  25.3738582
   2.6735103  24.6861791  25.4311338   1.8912007  25.5283953  26.1785457
   2.0638284  25.1724028  25.5011374  16.6228701  13.2952353  28.7870628
  15.7857123  13.3654540  29.0218223  16.5916932  13.2976848  27.9144930
  16.4946984  13.3062580  28.6930176   3.0193430  15.4385389  34.5018997
   3.1913934  15.3291284  35.3504278   3.5562788  16.0839794  34.2650189
   3.1238434  15.5177391  34.5924093   1.2965299  21.3916154  24.8824190
   2.1354199  21.6239087  24.9297951   1.3277069  20.5220465  24.8131225
   1.4247017  21.2973100  24.8788834   1.9218002  21.8117029  29.1837495
   2.4616227  21.6688160  29.8540868   1.2387949  22.2113780  29.5521521
   1.9010156  21.8496700  29.3371917  11.3458887  17.4908030  24.3782520
  12.1016402  17.9239544  24.4171428  11.4521212  16.8412800  24.9517156
  11.4729058  17.4585514  24.4680545  14.3839058  21.3181307  25.1284923
  13.9474290  21.3218050  25.8843894  14.0501974  21.9986806  24.6964500
  14.2701678  21.4193763  25.1765755   8.9568132  23.3589640  36.4528073
   9.7408549  23.4720488  36.8183815   8.7564727  22.5330777  36.6486759
   9.0434157  23.2536359  36.5362459  14.3036541   8.3595135  27.3714351
  14.9462450   8.4293240  27.9576266  14.5559562   7.6924358  26.8693892
  14.4358673   8.2721484  27.3841630   9.1138525  25.2699742  30.0994529
   8.3153771  25.0299242  30.3568397   9.5624537  25.3214135  30.8461576
   9.0613137  25.2422133  30.2479453  17.5183405  18.0362227  24.0204560
  18.1799839  17.4752895  23.9200468  16.8774817  17.5414258  24.3457251
  17.5212272  17.8798636  24.0536900   8.4060212  21.3332358  16.3285483
   8.8211361  21.0017382  15.6369979   7.5752142  21.1001261  16.2005620
   8.3448221  21.2503614  16.2076330  13.8048235  19.0527609  23.7616549
  14.0403824  19.1972808  22.9343399  13.9537799  19.8170017  24.1548062
  13.8614039  19.1866664  23.6980152   0.7994313  15.5361102  33.1265770
   1.5234285  15.5214133  33.6130664   0.9010449  16.2456458  32.6287738
   0.9212522  15.6385805  33.1244556  15.6338692  17.8929275  21.5986152
  15.9646909  18.4256915  20.9926247  16.2071780  17.9468163  22.2548103
  15.7672371  17.9798844  21.6063934   8.1739262  19.0160187  37.9914717
   7.3812243  19.3303699  38.1767336   8.2888189  19.2311655  37.1535501
   8.0734673  19.0944024  37.8953051  10.8470581  15.7394178  22.2809733
  10.9417436  16.4783472  22.7349358  10.2229425  15.3111654  22.7144297
  10.7679611  15.7855499  22.4117880   9.1023055  18.9180391  32.9300013
   9.6761917  18.2807635  33.0848577   9.0237859  18.9184473  32.0609671
   9.1756290  18.8245502  32.8246424   4.4586774  17.3503656  24.9821211
   4.2006018  16.5175391  24.9552510   4.5135256  17.5761269  24.1413711
   4.4286551  17.2601427  24.8541348   9.5387824   9.4532106  25.0825303
   8.8344150   8.9641292  25.2409223   9.5872798   9.4654581  24.2113748
   9.4417875   9.3821754  24.9764643   3.4321486  14.9041418  25.4686106
   2.8571077  15.0633587  26.1050067   3.0557162  14.2676827  25.0054556
   3.2924298  14.8339231  25.4940664   7.0994774  13.3764768  30.3278484
   6.7109207  12.9518985  29.6730675   6.4349473  13.6246917  30.8355511
   6.9441702  13.3503489  30.3066352  16.7418044  13.1339772  23.1026314
  16.4854608  12.3219714  22.9124197  17.5847357  13.1417339  22.8756501
  16.8284069  13.0151770  23.0411131  10.9221136   7.0739396  27.8402468
  11.3031648   6.3917567  28.2270342  10.1184420   6.7848998  27.6578133
  10.8597598   6.9306445  27.8706524   8.2033713  17.6063372  18.5255291
   9.0174351  17.8978265  18.4138062   8.1392854  16.9523234  17.9513584
   8.3136452  17.5528567  18.4244128  14.4243203  20.2889368  32.9384867
  14.1881840  19.4577433  32.8196927  15.0686432  20.2374975  33.5239711
  14.4837874  20.1587056  33.0070760   4.0741621  21.0784890  23.6527603
   4.7115568  20.8396637  24.1979396   4.4996692  21.2822048  22.9180764
   4.2317787  21.0735900  23.6244760  15.4479623  20.0733817  29.0013161
  15.1425440  20.8061874  29.3626477  14.7285839  19.6671746  28.7205947
  15.2966966  20.1215550  29.0126298   6.4563093  21.5557312  25.3321389
   6.5302101  21.3932484  26.1863239   7.2732599  21.7447502  25.0881871
   6.5879451  21.5594055  25.4219415  21.1481416  16.7126818  28.3281505
  21.0805916  16.7322777  27.4584092  21.1337078  17.5557145  28.5537176
  21.1360172  16.8400552  28.2333982  11.5577762   8.1161975  31.6522595
  12.3031354   7.9271786  31.2386020  11.1415067   8.6420213  31.0936451
  11.6062736   8.1664121  31.5087168   4.9967679  24.5192055  20.0634863
   5.2865977  24.1281037  19.3394089   5.7271159  24.7008760  20.5040138
   5.1474563  24.4885869  20.0217670  18.9340033  15.4871204  26.6028100
  19.4847954  14.8539273  26.8425192  18.9184148  16.0186597  27.2943604
  19.0125229  15.4720152  26.7406958   5.5862424  19.3209801  31.1487993
   5.0874117  20.0325569  31.2272882   6.3962648  19.6410468  31.1106156
   5.6318530  19.4736650  31.1544562   2.9373594  26.4959438  23.1295012
   2.7173890  26.2056792  23.9221679   2.7168116  25.8374393  22.6012925
   2.8721188  26.3559146  23.1683921   1.8490541  18.5832754  25.3950714
   1.5603790  17.9570225  25.9296441   2.7173889  18.5253042  25.4615395
   1.9350793  18.4820298  25.4841669  12.6368439  13.7267538  25.7132696
  12.2933205  13.0057873  26.0639946  12.7361482  13.5181389  24.8711054
  12.6010482  13.5891741  25.6404376   5.1041550  27.8688828  21.9125705
   5.7565608  27.3365270  22.1416731   4.4067159  27.5157480  22.2993579
   5.0972268  27.7378351  22.0037873   2.0522815  20.2228005  21.3193079
   2.8068783  20.6041044  21.5328542   1.4593427  20.6739149  21.7739776
   2.0759528  20.3456833  21.4175958  13.0981468  20.1893242  21.2556684
  13.6639501  20.8486452  21.1715227  12.4509372  20.5342940  21.7273086
  13.0860225  20.3375183  21.3129441   4.5129482  12.1790846  36.4450292
   3.7029257  12.4848625  36.3340134   4.9904168  12.8996428  36.5602876
   4.4632961  12.3305447  36.4457363   3.3721041  21.3936567  26.6933195
   2.8501795  21.5336858  27.3785059   3.7595062  20.6347231  26.8835312
   3.3524742  21.3022090  26.8234271   9.5688046  23.1332026  20.6793763
   9.3274722  22.3999886  20.2720828   9.7489379  23.6818883  20.0260097
   9.5595670  23.1054417  20.5223986   4.7987367  18.4240586  22.0914686
   4.6030150  19.0315320  21.4974989   5.0221713  17.7308530  21.6106360
   4.8022008  18.4118111  21.9330766   3.1965897  15.3095324  22.2095554
   3.9188549  15.4736482  21.7499360   2.7173890  16.0304988  22.1034894
   3.2329628  15.4393553  22.1261168  11.1559405  11.6459122  27.5892239
  10.3170505  11.6720401  27.3530502  11.2263772  12.2929858  28.1697586
  11.0427798  11.7455248  27.6401356   9.6028683   8.5444499  22.3219855
  10.3055036   8.3452248  21.8439813   9.3372872   7.7720442  22.6288698
   9.6675315   8.4007465  22.2965296  15.0316928  16.8527109  24.8753481
  14.9450903  17.0082535  25.7288259  14.5767408  17.4965185  24.5012886
  14.9520185  16.9702864  24.9460587   4.3657239   9.8079785  31.3750735
   4.1740436   9.8234919  32.2250159   5.2155835  10.0043459  31.3517390
   4.4632961   9.8394136  31.4974030   8.9042744  14.1737856  23.4979040
   8.6577459  14.0933607  24.3315829   9.2327868  13.3891324  23.3041568
   8.9163988  14.0464122  23.5926563  11.1368878  17.1817591  33.5388203
  11.1316917  16.3097407  33.5430630  11.8429872  17.3805760  33.0657659
  11.2413882  17.0821465  33.4695238   4.8639772  16.9094575  32.9102023
   5.0083147  17.4895783  32.2745133   5.2115420  17.2870871  33.6151878
   4.9367233  17.0515279  32.9201018   7.0359689  16.1084743  30.6927155
   6.2883003  16.3015758  30.2875433   7.1901214  15.2829963  30.4551276
   6.9482117  16.0149855  30.5972561   3.9367527  25.0997347  29.7763050
   4.0857090  24.5400262  29.1236455   4.7167529  25.1789348  30.1595569
   4.0741620  25.0282912  29.7359999  14.2944166  20.2399469  18.0482321
  13.9150975  19.4536607  18.0411610  13.6310412  20.7886326  17.9053965
  14.1402641  20.2044293  18.0263118   6.4620827  25.2711989  31.0547541
   6.3864498  24.6020800  31.6098329   6.3910686  25.9729778  31.5688207
   6.4401434  25.2756897  31.2124389   7.2761466  10.0035294  31.5822559
   7.7334080  10.7359268  31.7095351   7.3517795   9.5801759  32.3409814
   7.3552436  10.0492532  31.7123635   7.1191074  23.7912988  21.8871147
   7.8840965  23.5222632  21.5653811   7.0169164  23.3062999  22.6041210
   7.2172570  23.6802553  21.9450974   5.1543844  11.9937398  28.4264383
   4.3639919  11.8128858  28.7481718   5.5504467  11.2164350  28.4094677
   5.0960720  11.8524859  28.4716931  10.5387530  19.6279828  26.1523829
   9.8632532  19.3965060  26.6537216  10.5479906  19.0201011  25.5265934
  10.4406035  19.5038753  26.1339981   7.6681674  14.4697657  32.9087882
   7.6040816  15.3307613  32.7808018   7.8078862  14.1529650  32.1083433
   7.6797144  14.5497824  32.7716094  12.5404265  22.4844960  18.3834006
  12.6224102  23.2911947  18.0595457  13.0254007  22.5040920  19.1074780
  12.6241423  22.6065623  18.4420905   6.3500768  17.1629796  27.0504084
   5.9263017  17.3634295  26.3143103   6.1745623  16.3158644  27.1628384
   6.2611649  17.0678578  26.9577775   5.8512462  28.6780309  29.5125542
   6.3408392  27.9791098  29.3301206   5.2796694  28.3804179  30.1001599
   5.8396992  28.5306533  29.5726582   1.6383213  17.6581848  22.4832057
   1.7947832  17.5928650  23.3388049   1.9783806  18.4330400  22.2710737
   1.7116448  17.7631046  22.5786651   8.1762358  17.0339731  21.3525420
   8.7177903  16.5310112  21.8164041   8.4908917  16.9804926  20.5414905
   8.3026755  16.9519152  21.3009232  12.0479465  21.2442379  38.4652332
  12.8614330  20.9727527  38.6257465  11.8874432  20.9449919  37.6612528
  12.1449414  21.1597305  38.3697738   6.3448807  22.4257083  18.6365448
   6.4141628  21.5671621  18.7758449   7.1237263  22.6428964  18.3084473
   6.4701658  22.3309947  18.6082605   9.3251627  11.9276036  31.4047721
   9.5393597  11.2886950  30.8511075   8.7085526  12.3721860  30.9755582
   9.2656956  11.8986179  31.2598152  10.7356295  24.8494784  22.8501941
  10.3436087  24.5461499  22.1324808  10.8909367  25.6863874  22.6606895
  10.7009885  24.9278621  22.7158439  11.4890715  13.5365101  32.3431028
  10.6767397  13.2290991  32.4244200  11.9480650  13.0564101  32.9073740
  11.4371100  13.4201593  32.4385622  10.8995970  21.4144773  22.7907972
  10.5410625  21.5859416  23.5672004  10.4134681  21.8757979  22.2335971
  10.7754667  21.5083744  22.8233241   8.5844223  14.9425172  37.1259730
   9.0543854  15.5667289  37.5127604   8.6306103  14.2742148  37.6852945
   8.6612099  14.9359853  37.2659801  12.0600709  22.3048669  33.7375173
  12.6980430  21.8108865  33.4037629  11.4174801  22.2326069  33.1527400
  12.0594936  22.2207677  33.6017528  13.7857709  14.1537815  28.3041089
  13.3585317  14.0664163  27.5489188  13.1483762  14.2615590  28.8895933
  13.6287317  14.1570475  28.2786530   7.2778786   9.2613340  34.2438058
   8.1052216   8.9898489  34.2996672   7.2986632  10.0574182  34.6001876
   7.4031636   9.3393094  34.3053241  12.1154966  22.9968477  30.3780530
  12.9047344  22.6457542  30.4982611  12.2898564  23.8104866  30.1157163
  12.2575247  23.0654334  30.3568398   1.8548276  16.4077203  27.4308319
   1.0136283  16.3081077  27.6387212   2.0638284  17.1772683  27.7822639
   1.7612969  16.5069246  27.5135633  10.9688790   7.0078034  24.9396948
  11.1738383   6.9400342  25.7853945  10.6415214   7.8136855  24.8718125
  10.9504038   7.1163974  25.0556603   5.6664941  14.3358602  26.6805916
   5.3628079  13.7814590  27.2816324   4.9644362  14.5150812  26.1933950
   5.5181151  14.2803384  26.6975622   3.7283292  21.5508323  31.3878014
   3.6203647  21.5610385  32.2540072   3.9379074  22.3763103  31.1982968
   3.7433403  21.6749398  31.4882105  14.2222478   7.5609798  24.4199714
  13.6096791   8.0480200  24.8053445  14.3186653   6.8853289  24.9637365
  14.1460375   7.5328107  24.5578572   1.7457084  18.8020965  28.8499951
   1.1545017  19.4430463  28.8202966   2.5078108  19.2258582  28.8231251
   1.7705345  18.9596804  28.8415099  17.8647506  18.6326735  29.8477230
  17.9230629  19.0813384  30.5937206  17.2313973  19.0425548  29.4107310
  17.7798801  18.7600470  29.8929778  11.5046600  24.2530277  26.2831976
  11.3066289  24.7421091  25.5888187  10.8834311  24.4571518  26.8616109
  11.3834165  24.3546815  26.2655199   5.5654579  16.0215174  20.6242220
   6.3096624  16.4089450  20.8625170   5.7115275  15.1772599  20.7882708
   5.6965164  15.9545646  20.6836190   8.5532455  11.5940647  26.5236139
   8.0792409  11.0682409  27.0341450   8.9250590  11.0470120  25.9551001
   8.5382343  11.4356644  26.5151287  14.8169185  16.6543023  27.9342920
  14.5767408  15.8149438  27.9385346  15.2961192  16.7343189  28.6583693
  14.8521369  16.5424422  28.0417722  16.8174372  13.4344480  25.8872179
  16.5784142  13.3940314  25.0492964  16.9808273  14.2815632  26.0137900
  16.8064676  13.5536565  25.7825661  13.4220402  17.8194429  31.8177224
  14.1454601  17.3666956  31.6388244  13.1570365  18.0999095  31.0349552
  13.4901676  17.7945398  31.6755940   2.2907271  12.4154603  28.5530103
   1.6660341  12.4272995  27.9456056   1.9552866  12.8914778  29.2021344
   2.1492762  12.4873120  28.5586672  10.0353037  21.0580765  18.7171550
  10.7587236  21.5238878  18.5736124   9.5953628  21.1254375  17.9669147
  10.0768729  21.1364602  18.5856332   9.2039192  17.9178307  29.9672239
   8.5896185  17.3736358  30.2620875   9.7206477  17.4042544  29.4878055
   9.1894854  17.7614716  29.9396468   8.4435489  18.9882577  27.7016538
   8.0163097  18.3632296  27.2681973   8.4360433  18.7057499  28.5275545
   8.3794630  18.8535358  27.7596365   1.5598016  14.0247750  30.7704972
   1.7191503  13.2691075  31.1756694   1.3790910  14.5738690  31.4245710
   1.5563375  13.9941564  30.9267678   9.5018319   6.1908986  31.3255761
   9.0058880   6.3872660  30.6347328  10.2587381   6.5901654  31.1544563
   9.5405144   6.2786720  31.1975898   6.7721199   9.8651332  27.9159072
   6.7963686   9.3311444  27.2271852   7.0232672   9.3568641  28.5784663
   6.8131117   9.7112236  27.9123717   5.2352134  18.1582890  35.3985111
   4.3847764  18.2954604  35.5342756   5.3980261  17.4246668  35.8432813
   5.1335997  18.0696991  35.4840710   4.4736884  15.1082660  29.5938715
   3.6428814  15.2756478  29.3873963   4.4188401  14.7318611  30.3787601
   4.3426299  15.0772391  29.6787243  15.8555716  16.7820840  30.3207774
  16.4473556  17.4218091  30.3525972  16.2914711  16.0843877  30.6099841
  16.0074147  16.7739190  30.3688607   7.6849106  21.2038212  30.9465668
   7.1774197  21.7574059  31.3906298   7.3875752  21.2646502  30.1284442
   7.5653991  21.2944524  30.8914125   9.8511288   9.5691532  29.7890331
  10.2766360   9.1164058  29.1773857   9.2368281   9.0151603  30.0655118
   9.8239934   9.4205508  29.7395356  10.2956886  25.1201470  18.8769611
   9.5786196  24.9462332  18.4116849  10.9463624  24.8854042  18.3445097
  10.2858737  25.0597263  18.7298829  12.8804858  13.9966059  22.6210916
  12.2096047  14.5395761  22.4923982  13.5744608  14.4660914  22.3792611
  12.8833725  14.1464330  22.5666444   6.9291591  26.1362771  27.8522675
   6.7057246  25.3781600  28.2206701   6.4401435  26.1660792  27.1303114
   6.8235040  26.0284995  27.7999416  13.0432985  10.4521942  25.5301290
  13.3960595  10.0251665  26.2047088  12.1847787  10.3672786  25.6602366
  12.9682430  10.3766683  25.6496300   1.7416670  13.0829462  23.5884136
   1.0228659  13.4993594  23.8557000   2.1129032  13.6483701  23.0375774
   1.6908602  13.2278743  23.5466943  11.0416251  13.7157311  29.4786132
  11.0214178  13.5340606  30.3320911  11.0895452  14.5869329  29.4545716
  11.0450892  13.8173849  29.6009427   8.9862581  20.3044503  35.4034608
   8.9458436  19.6594180  34.8179764   9.7985899  20.2481120  35.7160021
   9.1005734  20.2003470  35.3631558   5.5770048  26.3563229  25.3059759
   5.1630447  25.6937359  24.9163601   6.2617423  26.5041087  24.7855454
   5.6168420  26.2803887  25.1716257   8.9435342  25.5153314  26.0583376
   8.5451626  25.6255584  25.2904196   8.3286562  25.7235380  26.6409936
   8.7934232  25.5626882  26.0314675  14.4757045   5.5740354  26.4585602
  13.9687910   4.8669494  26.3906780  15.2724479   5.2433543  26.5886679
  14.5184284   5.4213505  26.4684597  10.3921061  12.0806966  22.3559266
  10.1634754  12.1039668  21.5137624  10.6519137  11.2564433  22.4754276
  10.3967249  11.9623046  22.2484464   4.6740289  13.9341439  31.9584366
   4.1619193  13.3262622  32.3169398   4.5019786  14.6498032  32.4258342
   4.5729926  13.9504739  32.0800590   3.4465823  10.6183513  23.6513462
   3.9223190  10.9800592  23.0163643   2.9454423  11.2739980  23.9313604
   3.4431182  10.7677701  23.5990203  16.6777185  20.0905281  19.4426467
  17.0610791  20.8396637  19.6724564  15.8821298  20.3371100  19.1838456
  16.6170967  20.2374974  19.4384040   8.5509360  11.8565684  34.3986622
   9.1080790  11.6279493  33.7665087   8.2270425  12.6171350  34.1221834
   8.5855770  11.9349521  34.2643119   6.2692477  14.9433337  35.3638629
   7.0203804  15.2585014  35.6778183   6.4615054  14.7412508  34.5372551
   6.4083891  14.9600719  35.2882025  13.1177767  11.0706904  22.6062424
  13.1171994  10.9155560  23.4646701  12.9133947  11.9169891  22.5503810
  13.0877545  11.1727524  22.7250364  10.8418619  15.7504405  26.2598631
  11.3372285  15.0327400  26.2202651  10.0318395  15.4475203  26.1453118
  10.7962513  15.6002052  26.2372357   6.2877231  19.6002219  18.4095636
   5.4788553  19.2768892  18.3628945   6.7952140  18.8935441  18.3423884
   6.2426898  19.4483535  18.3925930  12.9070438  18.5008093  28.9475760
  13.3325510  17.9782515  28.3946185  12.5427358  19.0988930  28.4264383
  12.9157041  18.5118320  28.7884770   2.5424518  26.7972310  27.7073105
   2.8571077  27.6108699  27.7150887   2.9517931  26.4122529  28.3755265
   2.6492616  26.8601013  27.8077197   9.4949038  22.2142357  25.2776917
   9.9660216  22.9282620  25.4466903   9.8309216  21.6141107  25.8136787
   9.6144153  22.2313821  25.3809293  11.5826022  23.8243671  37.4568989
  11.6922988  23.0352231  37.8125737  11.9116919  23.7349607  36.6543328
  11.6478428  23.6949523  37.3911380  10.1322984  22.0060291  32.0404610
   9.5843930  21.3818175  31.7724675  10.5936013  22.1954563  31.3248689
  10.1190193  21.9419341  31.8955041  12.9416848  10.0745646  29.4255802
  12.3579837  10.5754852  29.0133370  13.2621142   9.5675202  28.7920126
  12.9030024  10.0737481  29.2714309   9.6981310  23.0111364  28.5713951
  10.5179684  22.8674330  28.8330246   9.4175388  23.6357563  29.1130389
   9.7778054  23.0821716  28.6901891  26.1694961  30.6676216  21.5356828
  26.1388965  31.5220852  21.7075097  26.7676309  30.3671508  22.0942971
  26.2532118  30.7492712  21.6431630  19.3694645  29.7551867  26.2909758
  18.5132541  29.9160365  26.3418875  19.4162299  28.8843931  26.3114819
  19.2493757  29.6502669  26.3015824  13.7535785  39.2914585  22.0546990
  13.0018685  38.9130123  21.8263035  14.2021797  39.3233018  21.3065800
  13.7085452  39.2400192  21.9104492  19.2060745  39.7139954  17.4832537
  18.8712113  40.3916876  17.0476759  19.7187615  39.3245265  16.8949408
  19.2326326  39.7564532  17.3319328  18.7465036  41.6654223  23.4243648
  19.1304416  42.2341121  22.8848423  18.6824178  40.9403733  22.9449464
  18.7938464  41.6429686  23.2737511  15.3320541  39.3032977  24.3209762
  15.4330904  38.4933331  24.6306890  14.7362287  39.2089923  23.6909441
  15.2593080  39.1698005  24.2736000  23.9911535  33.2428518  19.8075137
  23.8751061  33.9936204  20.2367275  24.7867422  32.9852471  20.0571224
  24.0916125  33.3163365  19.9079229  15.1721281  44.2210566  25.7224618
  15.8158736  44.6623730  26.1120776  15.4977536  43.4163992  25.6354877
  15.3153110  44.1675761  25.7670095   8.5285586  35.3253263  23.9462096
   8.2935770  34.4920916  23.8394364   8.6671226  35.6057929  23.1323297
   8.5141248  35.2436767  23.8104451  10.8275673  27.4938994  26.8446403
  10.2080705  26.9031641  26.6756418  10.7259537  28.0850429  26.2110727
  10.7213349  27.4943076  26.7251393  15.8741861  37.2322541  21.0944480
  16.1957702  37.7727748  20.4905788  16.5213957  36.6619312  21.2266770
  16.0167916  37.2281716  21.0251515  17.9243569  29.2338536  21.1778867
  18.6223733  29.4126663  21.6700330  18.2395901  28.7108875  20.5549256
  18.0738906  29.1832308  21.1580877  10.5544806  31.0391276  29.0889972
  10.4303503  31.6253721  29.7239791  11.2063091  30.5451471  29.3902247
  10.6318455  31.0530080  29.2275902  18.1131504  35.6208981  21.1658658
  18.5525140  35.0126081  21.6113431  17.9636167  35.2416354  20.3944123
  18.1552970  35.4747452  21.1177825  15.5803147  34.2152993  28.3677483
  16.2252150  33.7225436  28.0488432  15.8204924  34.3577779  29.1943562
  15.7113732  34.1630435  28.4427017  18.1189238  37.0607898  28.0184376
  18.4012481  36.2659304  27.7971132  18.8475399  37.5388486  28.0389437
  18.2678802  37.0142495  27.9887391  16.0970432  24.6030932  25.2600141
  15.7673762  25.0542076  24.5903840  15.4215434  24.5247096  25.8073148
  15.9480869  24.6582068  25.2423364  21.7140841  33.9736162  18.1189427
  21.6292136  34.8297129  18.2638996  22.2025224  33.6980486  18.7871586
  21.7729738  34.0593483  18.2391509  23.3046840  20.5916455  23.5049752
  22.9900281  21.2819934  23.9370174  22.7873782  20.5361237  22.8035252
  23.1811310  20.6851344  23.4646701  22.6459274  30.5920956  19.6187162
  22.1170745  30.8080590  20.2784469  23.1684294  31.2857095  19.5388132
  22.6447727  30.7264093  19.7042762  14.5358882  34.4884173  18.4194630
  13.9516097  34.9934204  18.8260494  14.1328977  34.2626560  17.6791222
  14.3898185  34.5292421  18.3699656  10.0902910  40.2038934  25.2218302
   9.6070488  40.9289424  25.1977885  10.9026229  40.5015064  25.3328460
  10.1393658  40.3541288  25.2345581  16.1617064  38.9971115  27.8268116
  15.6444006  38.6378530  27.2229424  16.8591456  38.4733289  27.8374182
  16.1882645  38.8668803  27.7398375  18.9936096  30.7349825  16.8963551
  19.2332100  30.9427809  16.0838894  19.3151937  29.9307334  17.0052495
  19.0773254  30.6463926  16.7924104  14.3026386  22.6643221  20.7423089
  15.0572354  23.0321538  20.5040139  14.1253921  23.0382775  21.5102268
  14.3880865  22.7741409  20.8207977  12.9447108  40.7195110  25.3738582
  13.6467687  40.2047099  25.4311338  12.8644591  41.0469261  26.1785457
  13.0370868  40.6909336  25.5011374  13.9926014  30.9570697  34.5018997
  14.1646518  30.8476592  35.3504278  14.5295372  31.6025102  34.2650189
  14.0971018  31.0362699  34.5924093  12.6583451  25.0713540  17.4401202
  12.4759024  25.2885421  16.6142195  13.5209064  25.1852552  17.4959816
  12.7588040  25.1203438  17.3255689  12.2697883  36.9101462  24.8824190
  13.1086782  37.1424395  24.9297951  12.3009652  36.0405773  24.8131225
  12.3979601  36.8158408  24.8788834  12.8950586  37.3302337  29.1837495
  13.4348811  37.1873468  29.8540868  12.2120532  37.7299088  29.5521521
  12.8742740  37.3682008  29.3371917  18.3383170  22.0739950  20.4750226
  19.0669331  21.8955905  20.0288382  18.4278063  22.9158030  20.6857404
  18.4589832  22.1723829  20.4403743   8.2987731  33.5502628  29.3371917
   8.0326146  32.7341745  29.4962907   8.3126295  33.5955783  28.4667432
   8.2612453  33.4359533  29.2325399  12.2045478  28.3487712  15.9523675
  11.4903655  28.0625892  16.3646107  12.6889447  28.6884338  16.5930062
  12.1704841  28.3569362  16.1079310  13.0486337  27.0881006  31.9838924
  12.3558134  26.6177986  32.2299656  13.6646665  26.8619311  32.5580632
  13.0370867  26.9848138  32.1048077  19.3792796  36.8517666  16.3285483
  19.7943944  36.5202690  15.6369979  18.5484726  36.6186569  16.2005620
  19.3180805  36.7688922  16.2076330   8.7081145  34.3361407  26.6183661
   8.5256718  34.3108293  25.7655953   9.4430814  34.8060345  26.6572570
   8.7895209  34.4022770  26.4981580  24.7780819  34.5712917  23.7616549
  25.0136408  34.7158116  22.9343399  24.9270383  35.3355325  24.1548062
  24.8346622  34.7051972  23.6980152  11.7726896  31.0546410  33.1265770
  12.4966869  31.0399441  33.6130664  11.8743033  31.7641765  32.6287738
  11.8945105  31.1571113  33.1244556  26.6071276  33.4114583  21.5986152
  26.9379493  33.9442223  20.9926247  27.1804364  33.4653471  22.2548103
  26.7404955  33.4984152  21.6063934  19.1471846  34.5345495  37.9914717
  18.3544827  34.8489007  38.1767336  19.2620773  34.7496963  37.1535501
  19.0467256  34.6129332  37.8953051  21.8203165  31.2579486  22.2809733
  21.9150019  31.9968780  22.7349358  21.1962008  30.8296961  22.7144297
  21.7412195  31.3040807  22.4117880   8.6752055  31.2154908  26.7682728
   9.2525558  31.0791359  27.4074973   7.9766117  30.7590692  27.0228312
   8.6573076  31.1277174  26.9005017  22.0726186  33.1028226  15.5146685
  21.9906349  33.1730413  16.3801672  22.7105907  33.6657970  15.3230425
  22.1546023  33.1967197  15.6136634  15.4319357  32.8688964  24.9821211
  15.1738601  32.0360699  24.9552510  15.4867840  33.0946577  24.1413711
  15.4019135  32.7786735  24.8541348  20.5120407  24.9717414  25.0825303
  19.8076734  24.4826600  25.2409223  20.5605382  24.9839889  24.2113748
  20.4150459  24.9007062  24.9764643  14.4054069  30.4226726  25.4686106
  13.8303661  30.5818895  26.1050067  14.0289746  29.7862135  25.0054556
  14.2656882  30.3524539  25.4940664  18.0727358  28.8950075  30.3278484
  17.6841791  28.4704293  29.6730675  17.4082056  29.1432225  30.8355511
  17.9174286  28.8688797  30.3066352   4.1510888  30.0666801  23.4830546
   4.2371140  29.6898669  24.2644076   4.7786686  29.6927247  23.0050504
   4.2567439  29.9552283  23.5276024  19.1766296  33.1248680  18.5255291
  19.9906935  33.4163573  18.4138062  19.1125437  32.4708542  17.9513584
  19.2869035  33.0713875  18.4244128  15.0474204  36.5970197  23.6527603
  15.6848151  36.3581945  24.1979396  15.4729276  36.8007356  22.9180764
  15.2050371  36.5921208  23.6244760   9.7386847  38.8358534  27.5361907
   9.7790992  39.1073385  26.7081686  10.2981371  39.3600442  27.9519695
   9.8270193  38.9534289  27.4753795  15.6877020  31.8172487  17.9902492
  16.0722172  31.5980194  18.7419038  15.4388640  32.6435433  18.1203569
  15.7079092  31.9070634  18.1203569  15.8545560  25.0978902  37.7065077
  15.5399001  25.8678465  37.4434639  15.5335492  24.5349158  37.1217304
  15.7604479  25.1289171  37.5806427  17.4295676  37.0742620  25.3321389
  17.5034685  36.9117792  26.1863239  18.2465183  37.2632810  25.0881871
  17.5612035  37.0779362  25.4219415  11.1901433  37.4200483  22.3615833
  10.3639551  37.6662220  22.2350112  11.2513424  37.3412564  23.2277891
  11.0775600  37.4445432  22.4704777  13.4077457  23.4869424  23.3211273
  12.5399882  23.5592023  23.3868882  13.6952661  24.2891503  23.5099248
  13.3217205  23.6163571  23.3586040  15.9700262  40.0377363  20.0634863
  16.2598561  39.6466344  19.3394089  16.7003743  40.2194068  20.5040138
  16.1207146  40.0071177  20.0217670  16.5595007  34.8395109  31.1487993
  16.0606701  35.5510877  31.2272882  17.3695232  35.1595776  31.1106156
  16.6051114  34.9921958  31.1544562  13.9106178  42.0144746  23.1295012
  13.6906473  41.7242100  23.9221679  13.6900700  41.3559701  22.6012925
  13.8453772  41.8744454  23.1683921  12.8223125  34.1018062  25.3950714
  12.5336374  33.4755533  25.9296441  13.6906473  34.0438350  25.4615395
  12.9083377  34.0005606  25.4841669  16.0774133  43.3874136  21.9125705
  16.7298191  42.8550578  22.1416731  15.3799742  43.0342788  22.2993579
  16.0704851  43.2563659  22.0037873  13.0255398  35.7413313  21.3193079
  13.7801366  36.1226352  21.5328542  12.4326011  36.1924457  21.7739776
  13.0492112  35.8642141  21.4175958  24.0714052  35.7078550  21.2556684
  24.6372084  36.3671759  21.1715227  23.4241955  36.0528248  21.7273086
  24.0592808  35.8560491  21.3129441  15.4862065  27.6976154  36.4450292
  14.6761841  28.0033933  36.3340134  15.9636752  28.4181736  36.5602876
  15.4365544  27.8490755  36.4457363  14.3453625  36.9121874  26.6933195
  13.8234378  37.0522166  27.3785059  14.7327645  36.1532539  26.8835312
  14.3257326  36.8207398  26.8234271  11.3344809  26.9627683  20.7628149
  11.0469605  26.5928954  20.0260097  12.0215277  27.4322539  20.5011854
  11.3933706  26.9774653  20.6143225  20.5420630  38.6517334  20.6793763
  20.3007306  37.9185194  20.2720828  20.7221963  39.2004191  20.0260097
  20.5328254  38.6239725  20.5223986  15.7719951  33.9425894  22.0914686
  15.5762733  34.5500628  21.4974989  15.9954296  33.2493838  21.6106360
  15.7754592  33.9303419  21.9330766  14.1698481  30.8280631  22.2095554
  14.8921132  30.9921790  21.7499360  13.6906473  31.5490296  22.1034894
  14.2062211  30.9578861  22.1261168  11.8206097  33.2338704  31.3149694
  12.3327194  33.5122957  30.6658454  11.5342440  33.9727998  31.6812507
  11.8540960  33.3841058  31.2739572  20.5761266  24.0629807  22.3219855
  21.2787619  23.8637556  21.8439813  20.3105455  23.2905750  22.6288698
  20.6407899  23.9192773  22.2965296   8.9073004  27.7408896  21.6113430
   9.0089140  28.5435057  21.9394406   9.7028890  27.5396232  21.3136511
   9.0400909  27.8294794  21.6148786  15.3389823  25.3265092  31.3750735
  15.1473020  25.3420227  32.2250159  16.1888419  25.5228767  31.3517390
  15.4365545  25.3579444  31.4974030   9.7236736  27.8556074  29.3534552
   9.5822227  27.0040015  29.4779060  10.0077299  27.8984735  28.5296758
   9.7444582  27.7355824  29.2502176  19.8775328  29.6923164  23.4979040
  19.6310042  29.6118915  24.3315829  20.2060451  28.9076632  23.3041568
  19.8896572  29.5649429  23.5926563  15.8372355  32.4279883  32.9102023
  15.9815731  33.0081091  32.2745133  16.1848004  32.8056179  33.6151878
  15.9099817  32.5700587  32.9201018  18.0092273  31.6270051  30.6927155
  17.2615587  31.8201065  30.2875433  18.1633798  30.8015271  30.4551276
  17.9214700  31.5335162  30.5972561  14.9100110  40.6182655  29.7763050
  15.0589674  40.0585570  29.1236455  15.6900112  40.6974656  30.1595569
  15.0474204  40.5468220  29.7359999  25.2676750  35.7584777  18.0482321
  24.8883558  34.9721915  18.0411610  24.6042995  36.3071634  17.9053965
  25.1135224  35.7229601  18.0263118  18.2494050  25.5220602  31.5822559
  18.7066664  26.2544576  31.7095351  18.3250378  25.0987067  32.3409814
  18.3285020  25.5677840  31.7123635  10.4927041  25.7686422  32.6712002
   9.9569230  25.1566780  32.9872770  10.5544806  26.3434558  33.3245669
  10.4222674  25.7633349  32.8147429  22.7221376  18.7010477  25.4516402
  22.8404944  19.1586940  24.7183704  22.5483551  17.8955738  25.1652619
  22.7140547  18.6504249  25.3017335  18.0923658  39.3098296  21.8871147
  18.8573549  39.0407940  21.5653811  17.9901748  38.8248307  22.6041210
  18.1905153  39.1987861  21.9450974  16.1276428  27.5122706  28.4264383
  15.3372502  27.3314166  28.7481718  16.5237050  26.7349658  28.4094677
  16.0693304  27.3710167  28.4716931  20.6142318  36.3410480  13.8671096
  21.3815303  36.4010605  13.4576948  20.1673627  35.7690921  13.3827415
  20.6615746  36.2647056  13.7348807  21.5120114  35.1465136  26.1523829
  20.8365116  34.9150368  26.6537216  21.5212490  34.5386319  25.5265934
  21.4138618  35.0224061  26.1339981  18.6414258  29.9882965  32.9087882
  18.5773399  30.8492921  32.7808018  18.7811446  29.6714958  32.1083433
  18.6529728  30.0683131  32.7716094  23.5136848  38.0030268  18.3834006
  23.5956686  38.8097254  18.0595457  23.9986591  38.0226227  19.1074780
  23.5974006  38.1250931  18.4420905  17.3233352  32.6815104  27.0504084
  16.8995601  32.8819603  26.3143103  17.1478207  31.8343952  27.1628384
  17.2344232  32.5863886  26.9577775  16.8245045  44.1965617  29.5125542
  17.3140976  43.4976406  29.3301206  16.2529278  43.8989487  30.1001599
  16.8129575  44.0491841  29.5726582  12.6115797  33.1767156  22.4832057
  12.7680416  33.1113958  23.3388049  12.9516390  33.9515708  22.2710737
  12.6849032  33.2816354  22.5786651  19.1494941  32.5525039  21.3525420
  19.6910487  32.0495420  21.8164041  19.4641500  32.4990234  20.5414905
  19.2759338  32.4704460  21.3009232  17.3181391  37.9442391  18.6365448
  17.3874211  37.0856929  18.7758449  18.0969846  38.1614272  18.3084473
  17.4434241  37.8495255  18.6082605  21.7088879  40.3680092  22.8501941
  21.3168670  40.0646807  22.1324808  21.8641951  41.2049182  22.6606895
  21.6742468  40.4463929  22.7158439   9.1850058  30.3602106  22.7992824
   9.5649023  30.7786651  22.1353091   8.6105423  30.9415562  23.1061667
   9.1561383  30.5079965  22.7469565  21.8728553  36.9330081  22.7907972
  21.5143208  37.1044724  23.5672004  21.3867264  37.3943287  22.2335971
  21.7487250  37.0269052  22.8233241  19.6898939  20.5561279  26.3935063
  18.8192497  20.5300000  26.3468373  19.9439281  20.3838472  25.5760909
  19.5992499  20.5271423  26.2655200  16.6616919  32.6129246  15.3308206
  16.9509444  33.3894129  15.6051781  16.7488718  32.1017978  16.0322706
  16.7171175  32.6521165  15.4750704  19.5576806  30.4610480  37.1259730
  20.0276437  31.0852597  37.5127604  19.6038686  29.7927456  37.6852945
  19.6344682  30.4545161  37.2659801  16.7148080  22.5667508  27.8508534
  16.1986568  21.8747699  27.9760113  16.1542009  23.2338285  27.7971133
  16.5554593  22.5630765  27.8614600  18.7840313  23.1060468  29.6801386
  18.3972066  23.1309499  30.4614916  18.2973251  22.5402146  29.2275903
  18.6552822  23.0256219  29.7289290  18.4497455  19.9927453  31.9711646
  19.0790573  20.5287753  31.6932717  18.6183318  19.9004812  32.8225212
  18.5675250  20.0588816  32.0560174  18.2511370  24.7798648  34.2438058
  19.0784799  24.5083797  34.2996672  18.2719216  25.5759490  34.6001876
  18.3764220  24.8578402  34.3053241  12.8280860  31.9262511  27.4308319
  11.9868866  31.8266385  27.6387212  13.0370868  32.6957991  27.7822639
  12.7345552  32.0254554  27.5135633  10.3056427  29.5482048  25.2593069
   9.9113124  29.6225060  24.4843179   9.7496544  29.9339994  25.8101431
  10.1659239  29.6163822  25.2260729  21.9421374  22.5263342  24.9396948
  22.1470967  22.4585650  25.7853945  21.6147798  23.3322163  24.8718125
  21.9236621  22.6349282  25.0556603  16.6397525  29.8543910  26.6805916
  16.3360662  29.2999898  27.2816324  15.9376945  30.0336120  26.1933950
  16.4913734  29.7988692  26.6975622  15.6963622  27.1644430  21.2450618
  15.9723356  26.4463342  20.8328185  16.2962291  27.7629350  21.0371724
  15.8256886  27.1464801  21.1531379  14.7015876  37.0693631  31.3878014
  14.5936231  37.0795693  32.2540072  14.9111657  37.8948411  31.1982968
  14.7165987  37.1934706  31.4882105  25.1955061  23.0795106  24.4199714
  24.5829375  23.5665508  24.8053445  25.2919236  22.4038597  24.9637365
  25.1192959  23.0513415  24.5578572  19.1974142  24.8357947  19.5197213
  19.6517889  25.0068508  20.2445057  19.6714188  24.2226058  19.1194989
  19.3342462  24.7708832  19.5670974  12.7189668  34.3206273  28.8499951
  12.1277601  34.9615771  28.8202966  13.4810691  34.7443890  28.8231251
  12.7437928  34.4782112  28.8415099  13.1150290  25.4808271  29.5167969
  13.5751772  25.5547200  30.2543093  13.1606397  26.2789525  29.1667790
  13.1900846  25.6102418  29.5740725  14.7633640  26.1474966  34.0839996
  14.3719205  25.5008313  34.5195774  14.9319503  26.7386401  34.7034251
  14.7304551  26.1389234  34.2402702  22.4779184  39.7715585  26.2831976
  22.2798873  40.2606399  25.5888187  21.8566895  39.9756826  26.8616109
  22.3566748  39.8732123  26.2655199  16.5387162  31.5400482  20.6242220
  17.2829207  31.9274758  20.8625170  16.6847858  30.6957907  20.7882708
  16.6697747  31.4730954  20.6836190  18.4566738  23.3350740  25.6574082
  17.6102783  23.5073548  25.5315431  18.4537870  22.5300084  25.9939910
  18.3313888  23.2411769  25.6885209  19.5265038  27.1125955  26.5236139
  19.0524992  26.5867717  27.0341450  19.8983174  26.5655428  25.9551001
  19.5114927  26.9541951  26.5151287   9.9038068  29.1097462  31.8919685
  10.7663681  29.0093171  31.8057015   9.5729851  28.5292171  31.3305257
   9.9823265  29.0089088  31.7965091  21.4548538  28.0062509  19.5861893
  20.9271556  28.0891253  18.8967602  21.9144246  28.7480381  19.5826538
  21.4450388  28.1283172  19.4836588  13.2639854  27.9339911  28.5530103
  12.6392924  27.9458303  27.9456056  12.9285449  28.4100086  29.2021344
  13.1225346  28.0058428  28.5586672  13.4481603  26.2765029  14.6102788
  13.0994407  26.9284754  15.0734338  12.9678049  26.2622142  13.8826660
  13.3251847  26.3708083  14.5713880   9.9765530  35.9940371  29.9933868
   9.4465454  35.3032810  30.0428842  10.2490623  35.9850556  29.1646576
   9.9390252  35.8907502  29.8781284  21.0085620  36.5766073  18.7171550
  21.7319819  37.0424186  18.5736124  20.5686211  36.6439683  17.9669147
  21.0501312  36.6549910  18.5856332  19.4168072  34.5067885  27.7016538
  18.9895681  33.8817604  27.2681973  19.4093017  34.2242807  28.5275545
  19.3527214  34.3720666  27.7596365  12.5330600  29.5433058  30.7704972
  12.6924086  28.7876383  31.1756694  12.3523493  30.0923998  31.4245710
  12.5295959  29.5126872  30.9267678  20.4750903  21.7094294  31.3255761
  19.9791464  21.9057968  30.6347328  21.2319965  22.1086962  31.1544563
  20.5137727  21.7972028  31.1975898  17.7453782  25.3836640  27.9159072
  17.7696269  24.8496752  27.2271852  17.9965256  24.8753949  28.5784663
  17.7863701  25.2297544  27.9123717   5.2561372  32.6668135  27.3502216
   5.1504821  32.6214979  26.4854300   4.5061592  33.0121915  27.6316501
   5.1296975  32.7109043  27.2639546  14.0255104  24.1107458  27.2964816
  14.0653476  24.6116665  28.0099524  13.2004769  24.2017852  27.0270739
  13.9094630  24.1989274  27.3615354  16.2084717  33.6768198  35.3985111
  15.3580348  33.8139912  35.5342756  16.3712845  32.9431976  35.8432813
  16.1068581  33.5882299  35.4840710  15.4469468  30.6267968  29.5938715
  14.6161397  30.7941786  29.3873963  15.3920985  30.2503919  30.3787601
  15.3158883  30.5957699  29.6787243  13.2553251  24.1176861  35.2295126
  13.8805954  23.5738994  35.5024558  12.8003731  23.6371778  34.6602916
  13.2801512  23.9666342  35.1856720  13.8205512  28.9023559  20.1228833
  13.9608473  29.3996024  20.8257474  14.3188044  28.2009854  20.2643047
  13.9146593  28.8725538  20.2480412  13.8505734  29.7690670  17.4521410
  14.4850813  30.3651096  17.3870872  13.9331345  29.4694128  18.2667280
  13.9562285  29.8131579  17.5624496  15.4284717  25.7004646  17.4266852
  15.7500558  25.2207728  16.7726114  15.6911661  26.5104292  17.2357663
  15.5150742  25.7494544  17.3022344  18.6581690  36.7223520  30.9465668
  18.1506781  37.2759367  31.3906298  18.3608336  36.7831810  30.1284442
  18.5386575  36.8129831  30.8914125  10.3558722  31.9658511  20.7210956
  10.8650951  32.5623019  21.1022261  10.8292994  31.6984485  20.0387375
  10.5002098  32.0144327  20.6765479  21.2689470  40.6386778  18.8769611
  20.5518780  40.4647640  18.4116849  21.9196208  40.4039350  18.3445097
  21.2591320  40.5782570  18.7298829  19.2638095  21.5591940  23.1980908
  18.6206413  21.4089586  23.7666046  18.9237502  21.3134285  22.4330012
  19.1183172  21.5004062  23.1683923  17.9024175  41.6548078  27.8522675
  17.6789829  40.8966908  28.2206701  17.4134018  41.6846100  27.1303114
  17.7967624  41.5470303  27.7999416  24.0165569  25.9707250  25.5301290
  24.3693179  25.5436973  26.2047088  23.1580370  25.8858094  25.6602366
  23.9415013  25.8951991  25.6496300  12.7149254  28.6014770  23.5884136
  11.9961243  29.0178902  23.8557000  13.0861616  29.1669009  23.0375774
  12.6641185  28.7464051  23.5466943  16.5502632  41.8748537  25.3059759
  16.1363030  41.2122667  24.9163601  17.2350006  42.0226395  24.7855454
  16.5901004  41.7989195  25.1716257  19.9167926  41.0338622  26.0583376
  19.5184209  41.1440892  25.2904196  19.3019146  41.2420688  26.6409936
  19.7666815  41.0812190  26.0314675  25.4489629  21.0925662  26.4585602
  24.9420493  20.3854802  26.3906780  26.2457062  20.7618851  26.5886679
  25.4916868  20.9398813  26.4684597  21.3653645  27.5992274  22.3559266
  21.1367338  27.6224976  21.5137624  21.6251721  26.7749741  22.4754276
  21.3699833  27.4808354  22.2484464  15.6472873  29.4526747  31.9584366
  15.1351776  28.8447930  32.3169398  15.4752369  30.1683340  32.4258342
  15.5462510  29.4690047  32.0800590  10.4938588  27.8964323  34.6086728
  10.3241178  28.5565697  34.0634935  10.0504538  28.1070884  35.3299217
  10.4037921  28.0250305  34.6348357  14.4198407  26.1368821  23.6513462
  14.8955773  26.4985900  23.0163643  13.9187007  26.7925288  23.9313604
  14.4163766  26.2863009  23.5990203  27.6509769  35.6090589  19.4426467
  28.0343374  36.3581945  19.6724564  26.8553882  35.8556408  19.1838456
  27.5903551  35.7560282  19.4384040  19.5241943  27.3750992  34.3986622
  20.0813374  27.1464801  33.7665087  19.2003008  28.1356658  34.1221834
  19.5588354  27.4534829  34.2643119   7.3940652  30.8011188  29.8675218
   6.8467372  30.1311834  29.9856086   8.1833030  30.4341036  29.9318685
   7.4292836  30.6476175  29.8943918  17.2425061  30.4618645  35.3638629
  17.9936388  30.7770322  35.6778183  17.4347637  30.2597816  34.5372551
  17.3816475  30.4786027  35.2882025  16.4625060  28.2810020  17.0186846
  16.8424025  28.2989649  16.2337960  15.7217656  28.7264009  16.8977693
  16.4093898  28.3491795  16.8850414  24.0910351  26.5892211  22.6062424
  24.0904577  26.4340868  23.4646701  23.8866531  27.4355199  22.5503810
  24.0610129  26.6912832  22.7250364   6.1527622  30.0131996  27.0221241
   5.9749383  29.5608605  27.7476156   5.8646644  30.8158157  27.2059718
   6.0840575  30.0654554  27.1564744  17.2609814  35.1187527  18.4095636
  16.4521137  34.7954200  18.3628945  17.7684723  34.4120749  18.3423884
  17.2159481  34.9668843  18.3925930   7.8900092  32.5459720  24.1343000
   7.0245611  32.5345410  24.0225771   7.9898907  32.3589943  24.9814139
   7.7774259  32.5165781  24.2431944  13.5157101  42.3157618  27.7073105
  13.8303660  43.1294007  27.7150887  13.9250515  41.9307837  28.3755265
  13.6225199  42.3786321  27.8077197  20.4681621  37.7327665  25.2776917
  20.9392799  38.4467928  25.4466903  20.8041800  37.1326415  25.8136787
  20.5876736  37.7499129  25.3809293  17.3851116  22.5055136  32.2335012
  17.5179022  21.7086129  32.5615988  17.7696269  23.0321539  32.8133288
  17.4607445  22.4655052  32.3678515  20.4583471  19.4285462  28.8316105
  19.6529435  19.3183191  29.1483944  20.3290207  19.5297917  27.9745971
  20.3203604  19.4269132  28.7524146  16.4544231  24.5071548  19.7014477
  17.2759925  24.6769861  19.4596172  15.9913882  24.6618809  18.9780775
  16.5075393  24.5553281  19.5586121  15.0439563  22.5014311  30.4812906
  15.5883976  22.1605438  31.0717248  15.0976499  23.3599772  30.6234190
  15.1328682  22.5769570  30.5894779  10.8570122  36.2630727  27.3551714
  11.4614979  36.2226561  26.7265535  10.6497434  37.1101879  27.3855770
  10.9159019  36.3818729  27.2667830   6.0921404  35.2465344  27.2250637
   5.9945682  34.4361616  27.5340694   6.8750274  35.2257138  26.8396905
   6.1937540  35.1232434  27.2137500  37.1427544  46.1861524  21.5356828
  37.1121548  47.0406160  21.7075097  37.7408893  45.8856816  22.0942971
  37.2264702  46.2678020  21.6431630  30.3427229  45.2737175  26.2909758
  29.4865124  45.4345673  26.3418875  30.3894883  44.4029239  26.3114819
  30.2226340  45.1687976  26.3015824  24.7268369  54.8099892  22.0546990
  23.9751268  54.4315431  21.8263035  25.1754380  54.8418326  21.3065800
  24.6818035  54.7585500  21.9104492  30.1793329  55.2325262  17.4832537
  29.8444697  55.9102184  17.0476759  30.6920199  54.8430573  16.8949408
  30.2058910  55.2749840  17.3319328  29.7197620  57.1839531  23.4243648
  30.1036999  57.7526429  22.8848423  29.6556761  56.4589041  22.9449464
  29.7671047  57.1614994  23.2737511  33.1879050  47.3329219  28.9341410
  33.7335010  48.0114305  28.9935379  33.1295926  47.1916679  28.0742991
  33.2594964  47.4121220  28.8153470  26.3053125  54.8218285  24.3209762
  26.4063488  54.0118639  24.6306890  25.7094870  54.7275231  23.6909441
  26.2325664  54.6883313  24.2736000  34.9644119  48.7613826  19.8075137
  34.8483645  49.5121512  20.2367275  35.7600005  48.5037779  20.0571224
  35.0648708  48.8348673  19.9079229  26.1453864  59.7395874  25.7224618
  26.7891320  60.1809038  26.1120776  26.4710120  58.9349300  25.6354877
  26.2885693  59.6861069  25.7670095  19.5018169  50.8438571  23.9462096
  19.2668354  50.0106224  23.8394364  19.6403810  51.1243237  23.1323297
  19.4873832  50.7622075  23.8104451  21.8008257  43.0124302  26.8446403
  21.1813288  42.4216949  26.6756418  21.6992120  43.6035737  26.2110727
  21.6945932  43.0128384  26.7251393  26.8474444  52.7507849  21.0944480
  27.1690285  53.2913056  20.4905788  27.4946541  52.1804620  21.2266770
  26.9900499  52.7467024  21.0251515  28.8976152  44.7523844  21.1778867
  29.5956317  44.9311971  21.6700330  29.2128485  44.2294183  20.5549256
  29.0471489  44.7017616  21.1580877  21.5277390  46.5576584  29.0889972
  21.4036086  47.1439029  29.7239791  22.1795674  46.0636779  29.3902247
  21.6051039  46.5715388  29.2275902  29.0864088  51.1394289  21.1658658
  29.5257723  50.5311389  21.6113431  28.9368750  50.7601662  20.3944123
  29.1285553  50.9932760  21.1177825  26.5535731  49.7338300  28.3677483
  27.1984733  49.2410744  28.0488432  26.7937508  49.8763087  29.1943562
  26.6846316  49.6815743  28.4427017  29.0921822  52.5793206  28.0184376
  29.3745065  51.7844612  27.7971132  29.8207982  53.0573794  28.0389437
  29.2411386  52.5327803  27.9887391  27.0703016  40.1216240  25.2600141
  26.7406346  40.5727384  24.5903840  26.3948018  40.0432404  25.8073148
  26.9213452  40.1767375  25.2423364  32.6873424  49.4921470  18.1189427
  32.6024719  50.3482437  18.2638996  33.1757807  49.2165794  18.7871586
  32.7462321  49.5778791  18.2391509  33.6191857  46.1106264  19.6187162
  33.0903329  46.3265898  20.2784469  34.1416877  46.8042403  19.5388132
  33.6180310  46.2449401  19.7042762  25.5091465  50.0069481  18.4194630
  24.9248680  50.5119512  18.8260494  25.1061560  49.7811868  17.6791222
  25.3630769  50.0477729  18.3699656  21.0635494  55.7224242  25.2218302
  20.5803072  56.4474732  25.1977885  21.8758812  56.0200372  25.3328460
  21.1126242  55.8726596  25.2345581  27.1349648  54.5156423  27.8268116
  26.6176590  54.1563838  27.2229424  27.8324039  53.9918597  27.8374182
  27.1615229  54.3854111  27.7398375  29.9668680  46.2535133  16.8963551
  30.2064683  46.4613117  16.0838894  30.2884521  45.4492642  17.0052495
  30.0505838  46.1649234  16.7924104  25.2758970  38.1828529  20.7423089
  26.0304938  38.5506846  20.5040139  25.0986504  38.5568083  21.5102268
  25.3613448  38.2926717  20.8207977  23.9179691  56.2380418  25.3738582
  24.6200270  55.7232407  25.4311338  23.8377174  56.5654569  26.1785457
  24.0103452  56.2094644  25.5011374  23.6316035  40.5898848  17.4401202
  23.4491608  40.8070728  16.6142195  24.4941648  40.7037860  17.4959816
  23.7320624  40.6388746  17.3255689  23.2430467  52.4286770  24.8824190
  24.0819366  52.6609703  24.9297951  23.2742236  51.5591081  24.8131225
  23.3712184  52.3343716  24.8788834  23.8683170  52.8487645  29.1837495
  24.4081394  52.7058776  29.8540868  23.1853116  53.2484396  29.5521521
  23.8475323  52.8867316  29.3371917  29.3115754  37.5925258  20.4750226
  30.0401914  37.4141213  20.0288382  29.4010647  38.4343338  20.6857404
  29.4322416  37.6909137  20.4403743  19.2720315  49.0687936  29.3371917
  19.0058730  48.2527053  29.4962907  19.2858879  49.1141091  28.4667432
  19.2345037  48.9544841  29.2325399  23.1778062  43.8673020  15.9523675
  22.4636239  43.5811200  16.3646107  23.6622030  44.2069646  16.5930062
  23.1437425  43.8754670  16.1079310  30.3525379  52.3702974  16.3285483
  30.7676528  52.0387998  15.6369979  29.5217309  52.1371877  16.2005620
  30.2913388  52.2874230  16.2076330  19.6813728  49.8546715  26.6183661
  19.4989301  49.8293601  25.7655953  20.4163397  50.3245653  26.6572570
  19.7627792  49.9208078  26.4981580  22.7459480  46.5731718  33.1265770
  23.4699452  46.5584749  33.6130664  22.8475616  47.2827073  32.6287738
  22.8677689  46.6756421  33.1244556  32.7935748  46.7764794  22.2809733
  32.8882603  47.5154088  22.7349358  32.1694592  46.3482269  22.7144297
  32.7144778  46.8226114  22.4117880  19.6484639  46.7340216  26.7682728
  20.2258141  46.5976667  27.4074973  18.9498700  46.2776000  27.0228312
  19.6305660  46.6462482  26.9005017  33.0458770  48.6213534  15.5146685
  32.9638932  48.6915721  16.3801672  33.6838490  49.1843278  15.3230425
  33.1278607  48.7152505  15.6136634  26.4051941  48.3874272  24.9821211
  26.1471185  47.5546006  24.9552510  26.4600424  48.6131885  24.1413711
  26.3751719  48.2972043  24.8541348  31.4852991  40.4902722  25.0825303
  30.7809318  40.0011908  25.2409223  31.5337965  40.5025197  24.2113748
  31.3883042  40.4192370  24.9764643  25.3786653  45.9412034  25.4686106
  24.8036244  46.1004202  26.1050067  25.0022329  45.3047443  25.0054556
  25.2389465  45.8709847  25.4940664  29.0459942  44.4135383  30.3278484
  28.6574374  43.9889601  29.6730675  28.3814640  44.6617533  30.8355511
  28.8906869  44.3874104  30.3066352  38.6883211  44.1710388  23.1026314
  38.4319776  43.3590330  22.9124197  39.5312525  44.1787955  22.8756501
  38.7749236  44.0522386  23.0411131  15.1243472  45.5852109  23.4830546
  15.2103724  45.2083977  24.2644076  15.7519269  45.2112554  23.0050504
  15.2300023  45.4737591  23.5276024  32.8686303  38.1110012  27.8402468
  33.2496815  37.4288183  28.2270342  32.0649587  37.8219614  27.6578133
  32.8062765  37.9677061  27.8706524  26.0206788  52.1155505  23.6527603
  26.6580735  51.8767253  24.1979396  26.4461860  52.3192664  22.9180764
  26.1782954  52.1106516  23.6244760  20.7119430  54.3543842  27.5361907
  20.7523576  54.6258693  26.7081686  21.2713955  54.8785750  27.9519695
  20.8002776  54.4719597  27.4753795  26.6609603  47.3357795  17.9902492
  27.0454756  47.1165502  18.7419038  26.4121223  48.1620741  18.1203569
  26.6811676  47.4255941  18.1203569  28.4028260  52.5927928  25.3321389
  28.4767268  52.4303100  26.1863239  29.2197766  52.7818118  25.0881871
  28.5344619  52.5964670  25.4219415  22.1634017  52.9385791  22.3615833
  21.3372134  53.1847528  22.2350112  22.2246008  52.8597872  23.2277891
  22.0508184  52.9630740  22.4704777  24.3810040  39.0054732  23.3211273
  23.5132466  39.0777331  23.3868882  24.6685245  39.8076811  23.5099248
  24.2949789  39.1348879  23.3586040  26.9432846  55.5562671  20.0634863
  27.2331144  55.1651652  19.3394089  27.6736327  55.7379376  20.5040138
  27.0939730  55.5256485  20.0217670  24.8838761  57.5330054  23.1295012
  24.6639057  57.2427408  23.9221679  24.6633283  56.8745009  22.6012925
  24.8186356  57.3929762  23.1683921  23.7955709  49.6203370  25.3950714
  23.5068957  48.9940841  25.9296441  24.6639057  49.5623657  25.4615395
  23.8815960  49.5190914  25.4841669  27.0506717  58.9059443  21.9125705
  27.7030775  58.3735886  22.1416731  26.3532326  58.5528096  22.2993579
  27.0437435  58.7748966  22.0037873  23.9987982  51.2598621  21.3193079
  24.7533950  51.6411660  21.5328542  23.4058595  51.7109765  21.7739776
  24.0224695  51.3827448  21.4175958  35.0446635  51.2263857  21.2556684
  35.6104668  51.8857067  21.1715227  34.3974539  51.5713556  21.7273086
  35.0325392  51.3745799  21.3129441  25.3186209  52.4307182  26.6933195
  24.7966962  52.5707474  27.3785059  25.7060229  51.6717847  26.8835312
  25.2989909  52.3392706  26.8234271  22.3077393  42.4812991  20.7628149
  22.0202188  42.1114262  20.0260097  22.9947861  42.9507846  20.5011854
  22.3666290  42.4959961  20.6143225  31.5153213  54.1702642  20.6793763
  31.2739889  53.4370502  20.2720828  31.6954546  54.7189499  20.0260097
  31.5060837  54.1425033  20.5223986  26.7452534  49.4611201  22.0914686
  26.5495317  50.0685936  21.4974989  26.9686880  48.7679145  21.6106360
  26.7487175  49.4488727  21.9330766  25.1431064  46.3465939  22.2095554
  25.8653716  46.5107097  21.7499360  24.6639057  47.0675604  22.1034894
  25.1794795  46.4764169  22.1261168  33.1024572  42.6829738  27.5892239
  32.2635672  42.7091017  27.3530502  33.1728939  43.3300474  28.1697586
  32.9892965  42.7825864  27.6401356  22.7938681  48.7524012  31.3149694
  23.3059778  49.0308265  30.6658454  22.5075023  49.4913306  31.6812507
  22.8273544  48.9026365  31.2739572  31.5493850  39.5815115  22.3219855
  32.2520203  39.3822863  21.8439813  31.2838039  38.8091058  22.6288698
  31.6140482  39.4378081  22.2965296  19.8805587  43.2594204  21.6113430
  19.9821724  44.0620365  21.9394406  20.6761474  43.0581540  21.3136511
  20.0133493  43.3480102  21.6148786  30.8507912  45.2108472  23.4979040
  30.6042626  45.1304223  24.3315829  31.1793035  44.4261940  23.3041568
  30.8629155  45.0834737  23.5926563  34.7455960  51.9191831  27.2865821
  34.6070320  52.6172877  27.7914564  33.9655958  51.7640488  26.9302003
  34.6099187  51.9991998  27.3092096  25.8832694  56.1367962  29.7763050
  26.0322258  55.5770878  29.1236455  26.6632696  56.2159964  30.1595569
  26.0206787  56.0653528  29.7359999  36.2409333  51.2770085  18.0482321
  35.8616142  50.4907223  18.0411610  35.5775579  51.8256942  17.9053965
  36.0867808  51.2414909  18.0263118  28.4085995  56.3082605  31.0547541
  28.3329666  55.6391416  31.6098329  28.3375854  57.0100393  31.5688207
  28.3866601  56.3127513  31.2124389  29.0656241  54.8283604  21.8871147
  29.8306133  54.5593248  21.5653811  28.9634331  54.3433615  22.6041210
  29.1637737  54.7173169  21.9450974  27.1009011  43.0308014  28.4264383
  26.3105086  42.8499474  28.7481718  27.4969634  42.2534966  28.4094677
  27.0425887  42.8895475  28.4716931  31.5874902  51.8595788  13.8671096
  32.3547887  51.9195913  13.4576948  31.1406211  51.2876229  13.3827415
  31.6348329  51.7832364  13.7348807  32.4852697  50.6650444  26.1523829
  31.8097699  50.4335676  26.6537216  32.4945074  50.0571627  25.5265934
  32.3871202  50.5409369  26.1339981  34.4869432  53.5215576  18.3834006
  34.5689269  54.3282562  18.0595457  34.9719174  53.5411535  19.1074780
  34.5706590  53.6436239  18.4420905  28.2965935  48.2000412  27.0504084
  27.8728184  48.4004911  26.3143103  28.1210791  47.3529260  27.1628384
  28.2076816  48.1049194  26.9577775  27.7977629  59.7150925  29.5125542
  28.2873559  59.0161714  29.3301206  27.2261861  59.4174795  30.1001599
  27.7862159  59.5677149  29.5726582  23.5848380  48.6952464  22.4832057
  23.7412999  48.6299266  23.3388049  23.9248973  49.4701016  22.2710737
  23.6581615  48.8001662  22.5786651  30.1227525  48.0710347  21.3525420
  30.6643070  47.5680728  21.8164041  30.4374084  48.0175542  20.5414905
  30.2491922  47.9889768  21.3009232  28.2913975  53.4627699  18.6365448
  28.3606795  52.6042237  18.7758449  29.0702430  53.6799580  18.3084473
  28.4166825  53.3680563  18.6082605  32.6821462  55.8865400  22.8501941
  32.2901254  55.5832115  22.1324808  32.8374534  56.7234490  22.6606895
  32.6475052  55.9649237  22.7158439  20.1582642  45.8787414  22.7992824
  20.5381607  46.2971959  22.1353091  19.5838007  46.4600870  23.1061667
  20.1293967  46.0265273  22.7469565  32.8461137  52.4515389  22.7907972
  32.4875792  52.6230032  23.5672004  32.3599848  52.9128594  22.2335971
  32.7219834  52.5454360  22.8233241  27.6349502  48.1314554  15.3308206
  27.9242027  48.9079437  15.6051781  27.7221301  47.6203286  16.0322706
  27.6903759  48.1706473  15.4750704  23.8013443  47.4447819  27.4308319
  22.9601450  47.3451693  27.6387212  24.0103451  48.2143299  27.7822639
  23.7078136  47.5439862  27.5135633  21.2789010  45.0667356  25.2593069
  20.8845708  45.1410368  24.4843179  20.7229127  45.4525302  25.8101431
  21.1391823  45.1349130  25.2260729  27.6130108  45.3729218  26.6805916
  27.3093246  44.8185206  27.2816324  26.9109529  45.5521428  26.1933950
  27.4646318  45.3174000  26.6975622  26.6696205  42.6829738  21.2450618
  26.9455940  41.9648650  20.8328185  27.2694875  43.2814658  21.0371724
  26.7989470  42.6650108  21.1531379  25.6748459  52.5878939  31.3878014
  25.5668814  52.5981001  32.2540072  25.8844241  53.4133719  31.1982968
  25.6898570  52.7120013  31.4882105  36.1687645  38.5980414  24.4199714
  35.5561958  39.0850816  24.8053445  36.2651820  37.9223905  24.9637365
  36.0925542  38.5698723  24.5578572  30.1706726  40.3543255  19.5197213
  30.6250472  40.5253816  20.2445057  30.6446772  39.7411366  19.1194989
  30.3075046  40.2894140  19.5670974  23.6922251  49.8391581  28.8499951
  23.1010184  50.4801079  28.8202966  24.4543275  50.2629198  28.8231251
  23.7170512  49.9967419  28.8415099  24.0882874  40.9993579  29.5167969
  24.5484356  41.0732508  30.2543093  24.1338981  41.7974833  29.1667790
  24.1633429  41.1287726  29.5740725  27.5119746  47.0585789  20.6242220
  28.2561791  47.4460066  20.8625170  27.6580442  46.2143215  20.7882708
  27.6430331  46.9916262  20.6836190  30.4997622  42.6311263  26.5236139
  30.0257576  42.1053025  27.0341450  30.8715757  42.0840736  25.9551001
  30.4847511  42.4727259  26.5151287  32.4281121  43.5247817  19.5861893
  31.9004140  43.6076561  18.8967602  32.8876829  44.2665689  19.5826538
  32.4182972  43.6468480  19.4836588  24.2372438  43.4525219  28.5530103
  23.6125508  43.4643610  27.9456056  23.9018033  43.9285394  29.2021344
  24.0957930  43.5243735  28.5586672  24.4214186  41.7950337  14.6102788
  24.0726991  42.4470062  15.0734338  23.9410632  41.7807450  13.8826660
  24.2984430  41.8893391  14.5713880  20.9498113  51.5125679  29.9933868
  20.4198038  50.8218118  30.0428842  21.2223207  51.5035864  29.1646576
  20.9122836  51.4092810  29.8781284  31.9818204  52.0951381  18.7171550
  32.7052403  52.5609494  18.5736124  31.5418795  52.1624991  17.9669147
  32.0233896  52.1735218  18.5856332  31.1504359  48.9548923  29.9672239
  30.5361352  48.4106973  30.2620875  31.6671644  48.4413160  29.4878055
  31.1360021  48.7985332  29.9396468  30.3900656  50.0253193  27.7016538
  29.9628264  49.4002912  27.2681973  30.3825600  49.7428115  28.5275545
  30.3259797  49.8905974  27.7596365  23.5063183  45.0618366  30.7704972
  23.6656670  44.3061690  31.1756694  23.3256077  45.6109306  31.4245710
  23.5028542  45.0312180  30.9267678  28.7186366  40.9021948  27.9159072
  28.7428853  40.3682060  27.2271852  28.9697839  40.3939257  28.5784663
  28.7596284  40.7482852  27.9123717  16.2293956  48.1853443  27.3502216
  16.1237405  48.1400287  26.4854300  15.4794176  48.5307223  27.6316501
  16.1029558  48.2294351  27.2639546  24.9987688  39.6292766  27.2964816
  25.0386060  40.1301973  28.0099524  24.1737353  39.7203160  27.0270739
  24.8827214  39.7174582  27.3615354  26.4202051  46.1453276  29.5938715
  25.5893981  46.3127094  29.3873963  26.3653569  45.7689227  30.3787601
  26.2891466  46.1143007  29.6787243  24.7938095  44.4208867  20.1228833
  24.9341056  44.9181332  20.8257474  25.2920628  43.7195162  20.2643047
  24.8879176  44.3910846  20.2480412  24.8238318  45.2875978  17.4521410
  25.4583397  45.8836403  17.3870872  24.9063928  44.9879436  18.2667280
  24.9294869  45.3316887  17.5624496  26.4017300  41.2189954  17.4266852
  26.7233142  40.7393036  16.7726114  26.6644244  42.0289600  17.2357663
  26.4883326  41.2679852  17.3022344  21.3291305  47.4843819  20.7210956
  21.8383535  48.0808327  21.1022261  21.8025578  47.2169793  20.0387375
  21.4734681  47.5329635  20.6765479  32.2422054  56.1572086  18.8769611
  31.5251363  55.9832948  18.4116849  32.8928791  55.9224658  18.3445097
  32.2323904  56.0967878  18.7298829  34.8270025  45.0336674  22.6210916
  34.1561215  45.5766377  22.4923982  35.5209775  45.5031530  22.3792611
  34.8298892  45.1834946  22.5666444  28.8756758  57.1733386  27.8522675
  28.6522413  56.4152216  28.2206701  28.3866602  57.2031408  27.1303114
  28.7700208  57.0655611  27.7999416  34.9898152  41.4892558  25.5301290
  35.3425762  41.0622281  26.2047088  34.1312954  41.4043402  25.6602366
  34.9147597  41.4137299  25.6496300  23.6881837  44.1200078  23.5884136
  22.9693826  44.5364210  23.8557000  24.0594199  44.6854317  23.0375774
  23.6373769  44.2649359  23.5466943  27.5235215  57.3933845  25.3059759
  27.1095614  56.7307975  24.9163601  28.2082590  57.5411703  24.7855454
  27.5633587  57.3174503  25.1716257  30.8900510  56.5523930  26.0583376
  30.4916793  56.6626200  25.2904196  30.2751729  56.7605996  26.6409936
  30.7399399  56.5997498  26.0314675  29.4628412  43.1598078  18.9257516
  28.8693251  43.4815074  18.3742083  29.5003689  42.3139173  18.7178622
  29.3802801  43.0822406  18.8140287  32.3386228  43.1177582  22.3559266
  32.1099921  43.1410284  21.5137624  32.5984304  42.2935049  22.4754276
  32.3432416  42.9993662  22.2484464  25.3930991  41.6554128  23.6513462
  25.8688357  42.0171208  23.0163643  24.8919590  42.3110596  23.9313604
  25.3896350  41.8048317  23.5990203  18.3673236  46.3196496  29.8675218
  17.8199955  45.6497142  29.9856086  19.1565614  45.9526344  29.9318685
  18.4025419  46.1661482  29.8943918  27.4357644  43.7995328  17.0186846
  27.8156609  43.8174957  16.2337960  26.6950240  44.2449317  16.8977693
  27.3826482  43.8677103  16.8850414  35.0642934  42.1077519  22.6062424
  35.0637161  41.9526176  23.4646701  34.8599114  42.9540506  22.5503810
  35.0342712  42.2098140  22.7250364  17.1260205  45.5317304  27.0221241
  16.9481966  45.0793913  27.7476156  16.8379227  46.3343465  27.2059718
  17.0573158  45.5839862  27.1564744  28.2342398  50.6372834  18.4095636
  27.4253721  50.3139508  18.3628945  28.7417307  49.9306057  18.3423884
  28.1892065  50.4854151  18.3925930  18.8632675  48.0645028  24.1343000
  17.9978195  48.0530718  24.0225771  18.9631491  47.8775250  24.9814139
  18.7506842  48.0351089  24.2431944  24.4889685  57.8342926  27.7073105
  24.8036244  58.6479315  27.7150887  24.8983098  57.4493145  28.3755265
  24.5957783  57.8971629  27.8077197  31.4414205  53.2512973  25.2776917
  31.9125383  53.9653236  25.4466903  31.7774383  52.6511723  25.8136787
  31.5609320  53.2684437  25.3809293  27.4276815  40.0256856  19.7014477
  28.2492509  40.1955169  19.4596172  26.9646465  40.1804117  18.9780775
  27.4807977  40.0738589  19.5586121  21.8302705  51.7816035  27.3551714
  22.4347563  51.7411869  26.7265535  21.6230018  52.6287187  27.3855770
  21.8891602  51.9004037  27.2667830  17.0653987  50.7650652  27.2250637
  16.9678265  49.9546924  27.5340694  17.8482857  50.7442446  26.8396905
  17.1670124  50.6417742  27.2137500  35.7000952  70.3285200  22.0546990
  34.9483852  69.9500739  21.8263035  36.1486964  70.3603634  21.3065800
  35.6550619  70.2770808  21.9104492  44.6253529  67.0609008  35.8970214
  45.3320296  66.5661039  36.0257149  44.8141465  67.5018090  35.1672872
  44.7581435  67.0527359  35.8079260  41.1525912  70.7510570  17.4832537
  40.8177281  71.4287492  17.0476759  41.6652783  70.3615881  16.8949408
  41.1791493  70.7935148  17.3319328  40.6930203  72.7024839  23.4243648
  41.0769583  73.2711737  22.8848423  40.6289345  71.9774349  22.9449464
  40.7403631  72.6800302  23.2737511  44.1611634  62.8514526  28.9341410
  44.7067594  63.5299613  28.9935379  44.1028510  62.7101987  28.0742991
  44.2327548  62.9306528  28.8153470  37.2785708  70.3403593  24.3209762
  37.3796071  69.5303947  24.6306890  36.6827454  70.2460539  23.6909441
  37.2058247  70.2068621  24.2736000  45.9376702  64.2799134  19.8075137
  45.8216228  65.0306820  20.2367275  46.7332589  64.0223087  20.0571224
  46.0381292  64.3533980  19.9079229  37.1186448  75.2581182  25.7224618
  37.7623904  75.6994346  26.1120776  37.4442704  74.4534608  25.6354877
  37.2618277  75.2046376  25.7670095  30.4750753  66.3623879  23.9462096
  30.2400937  65.5291532  23.8394364  30.6136393  66.6428545  23.1323297
  30.4606415  66.2807383  23.8104451  37.8207028  68.2693157  21.0944480
  38.1422869  68.8098364  20.4905788  38.4679124  67.6989928  21.2266770
  37.9633083  68.2652332  21.0251515  39.8708736  60.2709152  21.1778867
  40.5688901  60.4497279  21.6700330  40.1861068  59.7479491  20.5549256
  40.0204073  60.2202924  21.1580877  40.0596671  66.6579597  21.1658658
  40.4990307  66.0496697  21.6113431  39.9101334  66.2786970  20.3944123
  40.1018137  66.5118068  21.1177825  40.0654406  68.0978514  28.0184376
  40.3477648  67.3029920  27.7971132  40.7940566  68.5759102  28.0389437
  40.2143969  68.0513111  27.9887391  43.6606008  65.0106778  18.1189427
  43.5757303  65.8667744  18.2638996  44.1490391  64.7351102  18.7871586
  43.7194905  65.0964099  18.2391509  44.5924441  61.6291572  19.6187162
  44.0635912  61.8451206  20.2784469  45.1149461  62.3227710  19.5388132
  44.5912894  61.7634709  19.7042762  36.4824049  65.5254789  18.4194630
  35.8981264  66.0304820  18.8260494  36.0794144  65.2997176  17.6791222
  36.3363353  65.5663037  18.3699656  32.0368077  71.2409550  25.2218302
  31.5535656  71.9660040  25.1977885  32.8491396  71.5385680  25.3328460
  32.0858825  71.3911904  25.2345581  38.1082231  70.0341731  27.8268116
  37.5909173  69.6749146  27.2229424  38.8056623  69.5103905  27.8374182
  38.1347813  69.9039419  27.7398375  41.7645823  70.4836545  33.7884289
  41.8529169  70.2962685  34.6362500  42.1935536  69.8373974  33.3889136
  41.8407926  70.3599552  33.8556041  39.3316283  69.7667705  32.7701952
  38.7687118  69.3540314  33.2941613  40.0937307  69.6920610  33.1895095
  39.3610732  69.6945105  32.9094952  40.9401263  61.7720441  16.8963551
  41.1797267  61.9798425  16.0838894  41.2617104  60.9677950  17.0052495
  41.0238421  61.6834542  16.7924104  36.2491553  53.7013837  20.7423089
  37.0037521  54.0692154  20.5040139  36.0719088  54.0753391  21.5102268
  36.3346032  53.8112024  20.8207977  34.8912275  71.7565726  25.3738582
  35.5932854  71.2417715  25.4311338  34.8109758  72.0839877  26.1785457
  34.9836035  71.7279952  25.5011374  34.6048618  56.1084156  17.4401202
  34.4224191  56.3256036  16.6142195  35.4674231  56.2223168  17.4959816
  34.7053208  56.1574054  17.3255689  34.2163050  67.9472078  24.8824190
  35.0551949  68.1795011  24.9297951  34.2474819  67.0776389  24.8131225
  34.3444768  67.8529024  24.8788834  34.8415753  68.3672953  29.1837495
  35.3813978  68.2244084  29.8540868  34.1585699  68.7669704  29.5521521
  34.8207907  68.4052624  29.3371917  44.2656638  64.0463954  24.3782520
  45.0214153  64.4795468  24.4171428  44.3718962  63.3968723  24.9517156
  44.3926809  64.0141437  24.4680545  47.3036809  67.8737231  25.1284923
  46.8672041  67.8773973  25.8843894  46.9699725  68.5542730  24.6964500
  47.1899429  67.9749687  25.1765755  41.8765883  69.9145564  36.4528073
  42.6606299  70.0276411  36.8183815  41.6762477  69.0886701  36.6486759
  41.9631908  69.8092283  36.5362459  34.1510645  59.3858328  15.9523675
  33.4368822  59.0996508  16.3646107  34.6354614  59.7254954  16.5930062
  34.1170008  59.3939978  16.1079310  42.0336276  71.8255666  30.0994529
  41.2351522  71.5855166  30.3568397  42.4822288  71.8770059  30.8461576
  41.9810887  71.7978057  30.2479453  41.3257963  67.8888282  16.3285483
  41.7409112  67.5573306  15.6369979  40.4949893  67.6557184  16.2005620
  41.2645972  67.8059538  16.2076330  30.6546312  65.3732023  26.6183661
  30.4721885  65.3478909  25.7655953  31.3895981  65.8430961  26.6572570
  30.7360376  65.4393385  26.4981580  46.7245986  65.6083533  23.7616549
  46.9601575  65.7528732  22.9343399  46.8735550  66.3725941  24.1548062
  46.7811789  65.7422588  23.6980152  48.5536443  64.4485199  21.5986152
  48.8844660  64.9812839  20.9926247  49.1269531  64.5024087  22.2548103
  48.6870122  64.5354768  21.6063934  41.0937013  65.5716111  37.9914717
  40.3009994  65.8859623  38.1767336  41.2085940  65.7867579  37.1535501
  40.9932423  65.6499947  37.8953051  43.7668332  62.2950102  22.2809733
  43.8615186  63.0339396  22.7349358  43.1427175  61.8667577  22.7144297
  43.6877362  62.3411422  22.4117880  42.0220806  65.4736314  32.9300013
  42.5959667  64.8363559  33.0848577  41.9435609  65.4740397  32.0609671
  42.0954041  65.3801426  32.8246424  44.0191353  64.1398842  15.5146685
  43.9371516  64.2101029  16.3801672  44.6571074  64.7028586  15.3230425
  44.1011191  64.2337813  15.6136634  37.3784524  63.9059580  24.9821211
  37.1203769  63.0731314  24.9552510  37.4333007  64.1317193  24.1413711
  37.3484302  63.8157351  24.8541348  36.3519236  61.4597342  25.4686106
  35.7768828  61.6189510  26.1050067  35.9754913  60.8232751  25.0054556
  36.2122049  61.3895155  25.4940664  26.0976055  61.1037417  23.4830546
  26.1836307  60.7269285  24.2644076  26.7251853  60.7297862  23.0050504
  26.2032606  60.9922899  23.5276024  41.1231463  64.1619296  18.5255291
  41.9372102  64.4534189  18.4138062  41.0590605  63.5079158  17.9513584
  41.2334202  64.1084491  18.4244128  47.3440954  66.8445292  32.9384867
  47.1079591  66.0133357  32.8196927  47.9884182  66.7930899  33.5239711
  47.4035624  66.7142980  33.0070760  36.9939372  67.6340813  23.6527603
  37.6313319  67.3952561  24.1979396  37.4194443  67.8377972  22.9180764
  37.1515538  67.6291824  23.6244760  31.6852014  69.8729150  27.5361907
  31.7256159  70.1444001  26.7081686  32.2446538  70.3971058  27.9519695
  31.7735360  69.9904905  27.4753795  37.6342187  62.8543103  17.9902492
  38.0187339  62.6350810  18.7419038  37.3853807  63.6806049  18.1203569
  37.6544259  62.9441249  18.1203569  39.3760844  68.1113236  25.3321389
  39.4499852  67.9488408  26.1863239  40.1930350  68.3003426  25.0881871
  39.5077202  68.1149978  25.4219415  33.1366600  68.4571099  22.3615833
  32.3104718  68.7032836  22.2350112  33.1978591  68.3783180  23.2277891
  33.0240767  68.4816048  22.4704777  37.9165429  71.0747979  20.0634863
  38.2063728  70.6836960  19.3394089  38.6468910  71.2564684  20.5040138
  38.0672313  71.0441793  20.0217670  38.5060174  65.8765725  31.1487993
  38.0071868  66.5881493  31.2272882  39.3160399  66.1966392  31.1106156
  38.5516281  66.0292574  31.1544562  35.8571345  73.0515361  23.1295012
  35.6371640  72.7612716  23.9221679  35.6365867  72.3930316  22.6012925
  35.7918939  72.9115070  23.1683921  34.7688292  65.1388678  25.3950714
  34.4801541  64.5126149  25.9296441  35.6371640  65.0808965  25.4615395
  34.8548544  65.0376222  25.4841669  38.0239301  74.4244751  21.9125705
  38.6763359  73.8921194  22.1416731  37.3264909  74.0713404  22.2993579
  38.0170019  74.2934274  22.0037873  34.9720565  66.7783929  21.3193079
  35.7266533  67.1596968  21.5328542  34.3791178  67.2295073  21.7739776
  34.9957279  66.9012756  21.4175958  46.0179219  66.7449165  21.2556684
  46.5837252  67.4042375  21.1715227  45.3707122  67.0898864  21.7273086
  46.0057975  66.8931107  21.3129441  36.2918792  67.9492490  26.6933195
  35.7699546  68.0892782  27.3785059  36.6792812  67.1903155  26.8835312
  36.2722493  67.8578014  26.8234271  33.2809976  57.9998299  20.7628149
  32.9934772  57.6299570  20.0260097  33.9680444  58.4693154  20.5011854
  33.3398873  58.0145268  20.6143225  42.4885797  69.6887950  20.6793763
  42.2472473  68.9555810  20.2720828  42.6687130  70.2374807  20.0260097
  42.4793421  69.6610341  20.5223986  37.7185118  64.9796509  22.0914686
  37.5227900  65.5871244  21.4974989  37.9419463  64.2864453  21.6106360
  37.7219759  64.9674035  21.9330766  36.1163648  61.8651247  22.2095554
  36.8386300  62.0292405  21.7499360  35.6371640  62.5860912  22.1034894
  36.1527378  61.9949477  22.1261168  30.8538171  58.7779512  21.6113430
  30.9554307  59.5805673  21.9394406  31.6494057  58.5766847  21.3136511
  30.9866076  58.8665410  21.6148786  45.7188544  67.4377139  27.2865821
  45.5802903  68.1358185  27.7914564  44.9388542  67.2825796  26.9302003
  45.5831771  67.5177306  27.3092096  44.0566629  63.7373515  33.5388203
  44.0514668  62.8653331  33.5430630  44.7627623  63.9361684  33.0657659
  44.1611633  63.6377389  33.4695238  36.8565277  71.6553270  29.7763050
  37.0054841  71.0956186  29.1236455  37.6365280  71.7345272  30.1595569
  36.9939371  71.5838836  29.7359999  47.2141917  66.7955393  18.0482321
  46.8348726  66.0092531  18.0411610  46.5508162  67.3442250  17.9053965
  47.0600392  66.7600217  18.0263118  39.3818578  71.8267913  31.0547541
  39.3062249  71.1576724  31.6098329  39.3108437  72.5285701  31.5688207
  39.3599185  71.8312821  31.2124389  40.0388825  70.3468912  21.8871147
  40.8038716  70.0778556  21.5653811  39.9366915  69.8618922  22.6041210
  40.1370320  70.2358477  21.9450974  42.5607486  67.3781096  13.8671096
  43.3280471  67.4381221  13.4576948  42.1138794  66.8061537  13.3827415
  42.6080913  67.3017672  13.7348807  43.4585281  66.1835752  26.1523829
  42.7830283  65.9520984  26.6537216  43.4677657  65.5756935  25.5265934
  43.3603786  66.0594677  26.1339981  45.4602016  69.0400884  18.3834006
  45.5421853  69.8467870  18.0595457  45.9451758  69.0596843  19.1074780
  45.5439174  69.1621547  18.4420905  39.2698519  63.7185720  27.0504084
  38.8460768  63.9190219  26.3143103  39.0943374  62.8714568  27.1628384
  39.1809400  63.6234502  26.9577775  38.7710212  75.2336233  29.5125542
  39.2606143  74.5347022  29.3301206  38.1994445  74.9360103  30.1001599
  38.7594742  75.0862457  29.5726582  34.5580964  64.2137771  22.4832057
  34.7145583  64.1484574  23.3388049  34.8981557  64.9886324  22.2710737
  34.6314199  64.3186970  22.5786651  41.0960108  63.5895655  21.3525420
  41.6375654  63.0866036  21.8164041  41.4106668  63.5360850  20.5414905
  41.2224506  63.5075076  21.3009232  44.9677216  67.7998302  38.4652332
  45.7812081  67.5283451  38.6257465  44.8072182  67.5005842  37.6612528
  45.0647164  67.7153228  38.3697738  39.2646558  68.9813007  18.6365448
  39.3339379  68.1227545  18.7758449  40.0435013  69.1984887  18.3084473
  39.3899408  68.8865871  18.6082605  43.6554046  71.4050708  22.8501941
  43.2633838  71.1017423  22.1324808  43.8107118  72.2419798  22.6606895
  43.6207636  71.4834545  22.7158439  31.1315225  61.3972722  22.7992824
  31.5114190  61.8157267  22.1353091  30.5570590  61.9786178  23.1061667
  31.1026550  61.5450581  22.7469565  43.8193721  67.9700697  22.7907972
  43.4608375  68.1415340  23.5672004  43.3332431  68.4313902  22.2335971
  43.6952417  68.0639668  22.8233241  38.6082086  63.6499862  15.3308206
  38.8974611  64.4264745  15.6051781  38.6953885  63.1388594  16.0322706
  38.6636342  63.6891780  15.4750704  44.9798460  68.8604593  33.7375173
  45.6178180  68.3664788  33.4037629  44.3372551  68.7881993  33.1527400
  44.9792686  68.7763601  33.6017528  45.0352717  69.5524401  30.3780530
  45.8245095  69.2013466  30.4982611  45.2096314  70.3660789  30.1157163
  45.1772998  69.6210258  30.3568398  32.2521594  60.5852664  25.2593069
  31.8578292  60.6595675  24.4843179  31.6961711  60.9710610  25.8101431
  32.1124406  60.6534438  25.2260729  37.6428789  58.2015046  21.2450618
  37.9188523  57.4833958  20.8328185  38.2427458  58.7999966  21.0371724
  37.7722054  58.1835416  21.1531379  36.6481043  68.1064247  31.3878014
  36.5401398  68.1166309  32.2540072  36.8576824  68.9319027  31.1982968
  36.6631154  68.2305321  31.4882105  44.4244351  70.8086201  26.2831976
  44.2264040  71.2977015  25.5888187  43.8032062  71.0127442  26.8616109
  44.3031915  70.9102739  26.2655199  38.4852329  62.5771097  20.6242220
  39.2294374  62.9645374  20.8625170  38.6313026  61.7328523  20.7882708
  38.6162914  62.5101570  20.6836190  46.3418153  64.3750353  31.8177224
  47.0652352  63.9222879  31.6388244  46.0768115  64.6555019  31.0349552
  46.4099426  64.3501321  31.6755940  35.3946770  57.3135645  14.6102788
  35.0459574  57.9655370  15.0734338  34.9143216  57.2992758  13.8826660
  35.2717014  57.4078698  14.5713880  42.9550787  67.6136689  18.7171550
  43.6784986  68.0794802  18.5736124  42.5151378  67.6810298  17.9669147
  42.9966480  67.6920526  18.5856332  42.1236942  64.4734231  29.9672239
  41.5093936  63.9292281  30.2620875  42.6404227  63.9598468  29.4878055
  42.1092605  64.3170640  29.9396468  41.3633240  65.5438501  27.7016538
  40.9360848  64.9188220  27.2681973  41.3558184  65.2613423  28.5275545
  41.2992381  65.4091282  27.7596365  27.2026539  63.7038751  27.3502216
  27.0969988  63.6585595  26.4854300  26.4526759  64.0492531  27.6316501
  27.0762142  63.7479659  27.2639546  38.1549884  64.7138814  35.3985111
  37.3045515  64.8510528  35.5342756  38.3178012  63.9802592  35.8432813
  38.0533748  64.6252915  35.4840710  35.7670679  59.9394175  20.1228833
  35.9073640  60.4366640  20.8257474  36.2653212  59.2380470  20.2643047
  35.8611760  59.9096154  20.2480412  35.7970901  60.8061286  17.4521410
  36.4315981  61.4021711  17.3870872  35.8796512  60.5064744  18.2667280
  35.9027452  60.8502195  17.5624496  37.3749884  56.7375262  17.4266852
  37.6965725  56.2578344  16.7726114  37.6376828  57.5474908  17.2357663
  37.4615909  56.7865160  17.3022344  40.6046857  67.7594136  30.9465668
  40.0971948  68.3129983  31.3906298  40.3073503  67.8202426  30.1284442
  40.4851742  67.8500447  30.8914125  32.3023889  63.0029127  20.7210956
  32.8116118  63.5993635  21.1022261  32.7758161  62.7355101  20.0387375
  32.4467265  63.0514943  20.6765479  43.2154637  71.6757394  18.8769611
  42.4983947  71.5018256  18.4116849  43.8661375  71.4409966  18.3445097
  43.2056488  71.6153186  18.7298829  39.8489342  72.6918694  27.8522675
  39.6254996  71.9337524  28.2206701  39.3599185  72.7216716  27.1303114
  39.7432791  72.5840919  27.7999416  34.6614421  59.6385386  23.5884136
  33.9426410  60.0549518  23.8557000  35.0326783  60.2039624  23.0375774
  34.6106353  59.7834667  23.5466943  41.9060331  66.8600427  35.4034608
  41.8656186  66.2150104  34.8179764  42.7183650  66.8037044  35.7160021
  42.0203485  66.7559393  35.3631558  38.4967799  72.9119152  25.3059759
  38.0828198  72.2493283  24.9163601  39.1815173  73.0597011  24.7855454
  38.5366171  72.8359811  25.1716257  41.8633093  72.0709238  26.0583376
  41.4649376  72.1811508  25.2904196  41.2484313  72.2791304  26.6409936
  41.7131982  72.1182806  26.0314675  40.4360995  58.6783386  18.9257516
  39.8425834  59.0000382  18.3742083  40.4736273  57.8324481  18.7178622
  40.3535384  58.6007714  18.8140287  49.5974936  66.6461204  19.4426467
  49.9808542  67.3952561  19.6724564  48.8019049  66.8927024  19.1838456
  49.5368718  66.7930898  19.4384040  29.3405819  61.8381804  29.8675218
  28.7932539  61.1682450  29.9856086  30.1298198  61.4711652  29.9318685
  29.3758003  61.6846790  29.8943918  38.4090227  59.3180636  17.0186846
  38.7889192  59.3360265  16.2337960  37.6682823  59.7634625  16.8977693
  38.3559065  59.3862411  16.8850414  28.0992789  61.0502612  27.0221241
  27.9214550  60.5979221  27.7476156  27.8111811  61.8528773  27.2059718
  28.0305742  61.1025170  27.1564744  43.7616370  62.3060329  26.2598631
  44.2570035  61.5883324  26.2202651  42.9516146  62.0031127  26.1453118
  43.7160263  62.1557975  26.2372357  39.2074981  66.1558142  18.4095636
  38.3986304  65.8324816  18.3628945  39.7149890  65.4491364  18.3423884
  39.1624648  66.0039459  18.3925930  29.8365259  63.5830336  24.1343000
  28.9710778  63.5716026  24.0225771  29.9364075  63.3960558  24.9814139
  29.7239426  63.5536397  24.2431944  35.4622269  73.3528234  27.7073105
  35.7768828  74.1664623  27.7150887  35.8715682  72.9678453  28.3755265
  35.5690367  73.4156937  27.8077197  42.4146788  68.7698281  25.2776917
  42.8857966  69.4838544  25.4466903  42.7506967  68.1697031  25.8136787
  42.5341903  68.7869745  25.3809293  44.5023773  70.3799594  37.4568989
  44.6120738  69.5908155  37.8125737  44.8314669  70.2905530  36.6543328
  44.5676179  70.2505447  37.3911380  43.0520735  68.5616215  32.0404610
  42.5041681  67.9374099  31.7724675  43.5133763  68.7510487  31.3248689
  43.0387944  68.4975265  31.8955041  38.4009398  55.5442164  19.7014477
  39.2225092  55.7140477  19.4596172  37.9379049  55.6989425  18.9780775
  38.4540560  55.5923897  19.5586121  32.8035289  67.3001343  27.3551714
  33.4080146  67.2597177  26.7265535  32.5962601  68.1472495  27.3855770
  32.8624186  67.4189345  27.2667830  42.6179061  69.5667288  28.5713951
  43.4377435  69.4230254  28.8330246  42.3373139  70.1913487  29.1130389
  42.6975804  69.6377640  28.6901891  28.0386571  66.2835960  27.2250637
  27.9410849  65.4732232  27.5340694  28.8215441  66.2627753  26.8396905
  28.1402708  66.1603050  27.2137500  52.2892396  76.3107790  26.2909758
  51.4330292  76.4716289  26.3418875  52.3360050  75.4399854  26.3114819
  52.1691508  76.2058592  26.3015824  55.5986113  82.5794316  35.8970214
  56.3052880  82.0846347  36.0257149  55.7874048  83.0203398  35.1672872
  55.7314018  82.5712666  35.8079260  55.1344217  78.3699834  28.9341410
  55.6800177  79.0484921  28.9935379  55.0761093  78.2287295  28.0742991
  55.2060131  78.4491836  28.8153470  43.7473424  74.0494918  26.8446403
  43.1278455  73.4587565  26.6756418  43.6457287  74.6406353  26.2110727
  43.6411099  74.0499000  26.7251393  50.8441319  75.7894459  21.1778867
  51.5421484  75.9682587  21.6700330  51.1593652  75.2664799  20.5549256
  50.9936657  75.7388232  21.1580877  43.4742557  77.5947199  29.0889972
  43.3501254  78.1809645  29.7239791  44.1260841  77.1007395  29.3902247
  43.5516206  77.6086004  29.2275902  48.5000898  80.7708916  28.3677483
  49.1449900  80.2781359  28.0488432  48.7402675  80.9133703  29.1943562
  48.6311483  80.7186359  28.4427017  51.0386989  83.6163822  28.0184376
  51.3210232  82.8215228  27.7971132  51.7673150  84.0944410  28.0389437
  51.1876553  83.5698419  27.9887391  49.0168183  71.1586856  25.2600141
  48.6871513  71.6098000  24.5903840  48.3413185  71.0803019  25.8073148
  48.8678619  71.2137991  25.2423364  56.2244591  67.1472379  23.5049752
  55.9098032  67.8375858  23.9370174  55.7071532  67.0917161  22.8035252
  56.1009061  67.2407268  23.4646701  47.2224137  69.2199145  20.7423089
  47.9770105  69.5877462  20.5040139  47.0451672  69.5938699  21.5102268
  47.3078615  69.3297332  20.8207977  60.5159036  75.3693585  28.7870628
  59.6787457  75.4395772  29.0218223  60.4847267  75.3718080  27.9144930
  60.3877318  75.3803812  28.6930176  46.9123765  77.5126621  34.5018997
  47.0844269  77.4032515  35.3504278  47.4493122  78.1581026  34.2650189
  47.0168769  77.5918622  34.5924093  45.5781202  71.6269463  17.4401202
  45.3956775  71.8441344  16.6142195  46.4406815  71.7408476  17.4959816
  45.6785791  71.6759361  17.3255689  51.2580921  68.6295874  20.4750226
  51.9867081  68.4511829  20.0288382  51.3475814  69.4713954  20.6857404
  51.3787583  68.7279753  20.4403743  55.2389222  79.5649262  24.3782520
  55.9946737  79.9980776  24.4171428  55.3451546  78.9154031  24.9517156
  55.3659392  79.5326745  24.4680545  41.2185482  80.1058552  29.3371917
  40.9523897  79.2897668  29.4962907  41.2324046  80.1511707  28.4667432
  41.1810204  79.9915457  29.2325399  58.1966876  70.4336367  27.3714351
  58.8392784  70.5034471  27.9576266  58.4489896  69.7665590  26.8693892
  58.3289008  70.3462715  27.3841630  45.1243229  74.9043636  15.9523675
  44.4101406  74.6181816  16.3646107  45.6087197  75.2440262  16.5930062
  45.0902592  74.9125286  16.1079310  45.9684088  73.6436930  31.9838924
  45.2755885  73.1733910  32.2299656  46.5844415  73.4175235  32.5580632
  45.9568618  73.5404062  32.1048077  41.6278895  80.8917331  26.6183661
  41.4454469  80.8664217  25.7655953  42.3628564  81.3616269  26.6572570
  41.7092959  80.9578693  26.4981580  44.6924647  77.6102334  33.1265770
  45.4164619  77.5955365  33.6130664  44.7940784  78.3197689  32.6287738
  44.8142856  77.7127037  33.1244556  52.0669596  81.0901419  37.9914717
  51.2742577  81.4044930  38.1767336  52.1818524  81.3052887  37.1535501
  51.9665007  81.1685255  37.8953051  54.7400915  77.8135410  22.2809733
  54.8347770  78.5524704  22.7349358  54.1159759  77.3852885  22.7144297
  54.6609946  77.8596730  22.4117880  52.9953389  80.9921622  32.9300013
  53.5692251  80.3548867  33.0848577  52.9168193  80.9925705  32.0609671
  53.0686624  80.8986734  32.8246424  41.5949806  77.7710832  26.7682728
  42.1723308  77.6347283  27.4074973  40.8963867  77.3146616  27.0228312
  41.5770827  77.6833098  26.9005017  48.3517108  79.4244887  24.9821211
  48.0936352  78.5916622  24.9552510  48.4065591  79.6502500  24.1413711
  48.3216886  79.3342659  24.8541348  53.4318158  71.5273338  25.0825303
  52.7274485  71.0382524  25.2409223  53.4803132  71.5395813  24.2113748
  53.3348210  71.4562986  24.9764643  47.3251820  76.9782650  25.4686106
  46.7501411  77.1374818  26.1050067  46.9487496  76.3418059  25.0054556
  47.1854632  76.9080463  25.4940664  50.9925109  75.4505999  30.3278484
  50.6039541  75.0260217  29.6730675  50.3279807  75.6988149  30.8355511
  50.8372036  75.4244720  30.3066352  60.6348378  75.2081004  23.1026314
  60.3784943  74.3960945  22.9124197  61.4777692  75.2158571  22.8756501
  60.7214403  75.0893001  23.0411131  37.0708639  76.6222725  23.4830546
  37.1568891  76.2454593  24.2644076  37.6984436  76.2483170  23.0050504
  37.1765190  76.5108207  23.5276024  54.8151470  69.1480628  27.8402468
  55.1961982  68.4658799  28.2270342  54.0114755  68.8590230  27.6578133
  54.7527932  69.0047676  27.8706524  47.9671955  83.1526121  23.6527603
  48.6045902  82.9137869  24.1979396  48.3927027  83.3563280  22.9180764
  48.1248121  83.1477131  23.6244760  48.6074770  78.3728411  17.9902492
  48.9919923  78.1536118  18.7419038  48.3586391  79.1991356  18.1203569
  48.6276843  78.4626557  18.1203569  48.7743311  71.6534826  37.7065077
  48.4596752  72.4234389  37.4434639  48.4533243  71.0905082  37.1217304
  48.6802230  71.6845095  37.5806427  50.3493427  83.6298544  25.3321389
  50.4232435  83.4673716  26.1863239  51.1662934  83.8188733  25.0881871
  50.4809786  83.6335286  25.4219415  46.3275208  70.0425348  23.3211273
  45.4597633  70.1147947  23.3868882  46.6150412  70.8447427  23.5099248
  46.2414956  70.1719495  23.3586040  55.4508096  70.1903207  31.6522595
  56.1961688  70.0013017  31.2386020  55.0345401  70.7161445  31.0936451
  55.4993071  70.2405352  31.5087168  62.8270367  77.5612436  26.6028100
  63.3778289  76.9280505  26.8425192  62.8114483  78.0927828  27.2943604
  62.9055564  77.5461384  26.7406958  49.4792758  81.3951033  31.1487993
  48.9804452  82.1066801  31.2272882  50.2892982  81.7151699  31.1106156
  49.5248865  81.5477881  31.1544562  45.7420876  80.6573986  25.3950714
  45.4534124  80.0311457  25.9296441  46.6104224  80.5994273  25.4615395
  45.8281128  80.5561530  25.4841669  56.5298773  75.8008769  25.7132696
  56.1863539  75.0799104  26.0639946  56.6291816  75.5922620  24.8711054
  56.4940816  75.6632973  25.6404376  45.9453149  82.2969237  21.3193079
  46.6999117  82.6782276  21.5328542  45.3523762  82.7480381  21.7739776
  45.9689863  82.4198064  21.4175958  48.4059816  74.2532077  36.4450292
  47.5959592  74.5589857  36.3340134  48.8834503  74.9737660  36.5602876
  48.3563295  74.4046678  36.4457363  44.2542560  73.5183607  20.7628149
  43.9667355  73.1484877  20.0260097  44.9413028  73.9878462  20.5011854
  44.3131457  73.5330576  20.6143225  48.6917701  80.4981817  22.0914686
  48.4960484  81.1056552  21.4974989  48.9152047  79.8049761  21.6106360
  48.6952342  80.4859343  21.9330766  47.0896231  77.3836555  22.2095554
  47.8118883  77.5477713  21.7499360  46.6104224  78.1046220  22.1034894
  47.1259962  77.5134785  22.1261168  55.0489739  73.7200354  27.5892239
  54.2100839  73.7461633  27.3530502  55.1194106  74.3671089  28.1697586
  54.9358132  73.8196480  27.6401356  44.7403848  79.7894628  31.3149694
  45.2524945  80.0678881  30.6658454  44.4540191  80.5283922  31.6812507
  44.7738711  79.9396981  31.2739572  53.4959017  70.6185731  22.3219855
  54.1985370  70.4193479  21.8439813  53.2303206  69.8461673  22.6288698
  53.5605649  70.4748697  22.2965296  58.9247263  78.9268341  24.8753481
  58.8381237  79.0823767  25.7288259  58.4697743  79.5706416  24.5012886
  58.8450519  79.0444096  24.9460587  41.8270754  74.2964819  21.6113430
  41.9286891  75.0990981  21.9394406  42.6226641  74.0952155  21.3136511
  41.9598660  74.3850718  21.6148786  48.2587573  71.8821016  31.3750735
  48.0670770  71.8976151  32.2250159  49.1086169  72.0784691  31.3517390
  48.3563295  71.9135367  31.4974030  42.6434486  74.4111998  29.3534552
  42.5019978  73.5595938  29.4779060  42.9275050  74.4540658  28.5296758
  42.6642332  74.2911748  29.2502176  52.7973079  76.2479088  23.4979040
  52.5507793  76.1674839  24.3315829  53.1258202  75.4632556  23.3041568
  52.8094322  76.1205353  23.5926563  55.0299213  79.2558823  33.5388203
  55.0247251  78.3838639  33.5430630  55.7360207  79.4546992  33.0657659
  55.1344217  79.1562697  33.4695238  48.7570106  78.9835806  32.9102023
  48.9013482  79.5637015  32.2745133  49.1045755  79.3612103  33.6151878
  48.8297567  79.1256511  32.9201018  50.9290023  78.1825975  30.6927155
  50.1813337  78.3756989  30.2875433  51.0831549  77.3571194  30.4551276
  50.8412451  78.0891086  30.5972561  51.1691800  72.0776526  31.5822559
  51.6264415  72.8100500  31.7095351  51.2448129  71.6542991  32.3409814
  51.2482770  72.1233764  31.7123635  43.4124792  72.3242345  32.6712002
  42.8766981  71.7122703  32.9872770  43.4742556  72.8990481  33.3245669
  43.3420424  72.3189273  32.8147429  55.6419126  65.2566401  25.4516402
  55.7602694  65.7142864  24.7183704  55.4681302  64.4511662  25.1652619
  55.6338297  65.2060173  25.3017335  49.0474178  74.0678630  28.4264383
  48.2570253  73.8870090  28.7481718  49.4434801  73.2905582  28.4094677
  48.9891055  73.9266090  28.4716931  54.4317865  81.7021060  26.1523829
  53.7562866  81.4706292  26.6537216  54.4410241  81.0942243  25.5265934
  54.3336369  81.5779985  26.1339981  51.5612009  76.5438889  32.9087882
  51.4971150  77.4048845  32.7808018  51.7009196  76.2270882  32.1083433
  51.5727479  76.6239055  32.7716094  50.2431103  79.2371028  27.0504084
  49.8193352  79.4375527  26.3143103  50.0675958  78.3899876  27.1628384
  50.1541983  79.1419809  26.9577775  45.5313547  79.7323079  22.4832057
  45.6878167  79.6669882  23.3388049  45.8714141  80.5071632  22.2710737
  45.6046782  79.8372278  22.5786651  52.0692692  79.1080963  21.3525420
  52.6108238  78.6051344  21.8164041  52.3839251  79.0546158  20.5414905
  52.1957089  79.0260384  21.3009232  53.2181961  74.0017267  31.4047721
  53.4323931  73.3628182  30.8511075  52.6015861  74.4463091  30.9755582
  53.1587291  73.9727411  31.2598152  42.1047809  76.9158030  22.7992824
  42.4846774  77.3342575  22.1353091  41.5303174  77.4971486  23.1061667
  42.0759134  77.0635889  22.7469565  55.3821049  75.6106333  32.3431028
  54.5697731  75.3032223  32.4244200  55.8410984  75.1305333  32.9073740
  55.3301434  75.4942825  32.4385622  52.4774557  77.0166404  37.1259730
  52.9474188  77.6408521  37.5127604  52.5236437  76.3483380  37.6852945
  52.5542433  77.0101084  37.2659801  49.6345831  69.1223432  27.8508534
  49.1184319  68.4303623  27.9760113  49.0739759  69.7894209  27.7971133
  49.4752344  69.1186689  27.8614600  51.7038064  69.6616392  29.6801386
  51.3169817  69.6865423  30.4614916  51.2171001  69.0958070  29.2275903
  51.5750573  69.5812142  29.7289290  57.6788044  76.2279047  28.3041089
  57.2515652  76.1405395  27.5489188  57.0414097  76.3356822  28.8895933
  57.5217651  76.2311706  28.2786530  51.1709121  71.3354572  34.2438058
  51.9982550  71.0639721  34.2996672  51.1916967  72.1315414  34.6001876
  51.2961971  71.4134326  34.3053241  45.7478611  78.4818435  27.4308319
  44.9066617  78.3822309  27.6387212  45.9568618  79.2513915  27.7822639
  45.6543303  78.5810478  27.5135633  43.2254177  76.1037972  25.2593069
  42.8310875  76.1780983  24.4843179  42.6694294  76.4895918  25.8101431
  43.0856990  76.1719746  25.2260729  54.8619124  69.0819266  24.9396948
  55.0668718  69.0141573  25.7853945  54.5345548  69.8878087  24.8718125
  54.8434372  69.1905206  25.0556603  49.5595275  76.4099834  26.6805916
  49.2558413  75.8555822  27.2816324  48.8574696  76.5892044  26.1933950
  49.4111485  76.3544616  26.6975622  48.6161372  73.7200354  21.2450618
  48.8921107  73.0019266  20.8328185  49.2160042  74.3185274  21.0371724
  48.7454637  73.7020724  21.1531379  58.1152812  69.6351030  24.4199714
  57.5027126  70.1221432  24.8053445  58.2116987  68.9594521  24.9637365
  58.0390710  69.6069339  24.5578572  52.1171893  71.3913871  19.5197213
  52.5715640  71.5624431  20.2445057  52.5911939  70.7781982  19.1194989
  52.2540213  71.3264756  19.5670974  45.6387418  80.8762197  28.8499951
  45.0475352  81.5171695  28.8202966  46.4008442  81.2999814  28.8231251
  45.6635679  81.0338035  28.8415099  46.0348041  72.0364195  29.5167969
  46.4949523  72.1103124  30.2543093  46.0804148  72.8345449  29.1667790
  46.1098597  72.1658342  29.5740725  47.6831391  72.7030890  34.0839996
  47.2916956  72.0564237  34.5195774  47.8517254  73.2942325  34.7034251
  47.6502301  72.6945157  34.2402702  49.4584913  78.0956405  20.6242220
  50.2026958  78.4830682  20.8625170  49.6045609  77.2513831  20.7882708
  49.5895498  78.0286878  20.6836190  51.3764488  69.8906664  25.6574082
  50.5300533  70.0629472  25.5315431  51.3735621  69.0856008  25.9939910
  51.2511638  69.7967693  25.6885209  52.4462789  73.6681879  26.5236139
  51.9722743  73.1423641  27.0341450  52.8180925  73.1211351  25.9551001
  52.4312678  73.5097875  26.5151287  42.8235819  75.6653385  31.8919685
  43.6861432  75.5649095  31.8057015  42.4927602  75.0848095  31.3305257
  42.9021015  75.5645012  31.7965091  58.7099519  78.7284254  27.9342920
  58.4697742  77.8890669  27.9385346  59.1891527  78.8084421  28.6583693
  58.7451703  78.6165654  28.0417722  54.3746288  74.5618433  19.5861893
  53.8469307  74.6447177  18.8967602  54.8341997  75.3036305  19.5826538
  54.3648139  74.6839096  19.4836588  60.7104706  75.5085712  25.8872179
  60.4714476  75.4681546  25.0492964  60.8738608  76.3556864  26.0137900
  60.6995010  75.6277797  25.7825661  57.3150737  79.8935661  31.8177224
  58.0384935  79.4408187  31.6388244  57.0500699  80.1740326  31.0349552
  57.3832010  79.8686629  31.6755940  46.1837605  74.4895834  28.5530103
  45.5590675  74.5014226  27.9456056  45.8483200  74.9656009  29.2021344
  46.0423097  74.5614351  28.5586672  46.3679354  72.8320953  14.6102788
  46.0192158  73.4840678  15.0734338  45.8875799  72.8178066  13.8826660
  46.2449598  72.9264006  14.5713880  53.0969526  79.9919539  29.9672239
  52.4826519  79.4477589  30.2620875  53.6136811  79.4783776  29.4878055
  53.0825188  79.8355948  29.9396468  52.3365823  81.0623809  27.7016538
  51.9093431  80.4373528  27.2681973  52.3290768  80.7798731  28.5275545
  52.2724964  80.9276590  27.7596365  45.4528350  76.0988982  30.7704972
  45.6121837  75.3432306  31.1756694  45.2721244  76.6479922  31.4245710
  45.4493709  76.0682796  30.9267678  53.3948653  68.2650218  31.3255761
  52.8989215  68.4613892  30.6347328  54.1517715  68.6642886  31.1544563
  53.4335478  68.3527952  31.1975898  50.6651533  71.9392564  27.9159072
  50.6894020  71.4052676  27.2271852  50.9163007  71.4309872  28.5784663
  50.7061452  71.7853468  27.9123717  38.1759123  79.2224059  27.3502216
  38.0702572  79.1770903  26.4854300  37.4259343  79.5677839  27.6316501
  38.0494726  79.2664967  27.2639546  46.9452855  70.6663382  27.2964816
  46.9851227  71.1672588  28.0099524  46.1202520  70.7573776  27.0270739
  46.8292381  70.7545198  27.3615354  49.1282468  80.2324122  35.3985111
  48.2778099  80.3695836  35.5342756  49.2910596  79.4987900  35.8432813
  49.0266332  80.1438223  35.4840710  48.3667219  77.1823892  29.5938715
  47.5359148  77.3497710  29.3873963  48.3118736  76.8059842  30.3787601
  48.2356633  77.1513623  29.6787243  46.1751002  70.6732785  35.2295126
  46.8003705  70.1294917  35.5024558  45.7201482  70.1927702  34.6602916
  46.1999262  70.5222266  35.1856720  46.7403262  75.4579483  20.1228833
  46.8806223  75.9551947  20.8257474  47.2385795  74.7565778  20.2643047
  46.8344343  75.4281462  20.2480412  46.7703485  76.3246594  17.4521410
  47.4048564  76.9207019  17.3870872  46.8529096  76.0250052  18.2667280
  46.8760036  76.3687502  17.5624496  59.7486051  78.8562072  30.3207774
  60.3403891  79.4959322  30.3525972  60.1845045  78.1585108  30.6099841
  59.9004482  78.8480422  30.3688607  48.3482468  72.2560570  17.4266852
  48.6698309  71.7763652  16.7726114  48.6109411  73.0660216  17.2357663
  48.4348493  72.3050468  17.3022344  51.5779440  83.2779444  30.9465668
  51.0704531  83.8315291  31.3906298  51.2806087  83.3387734  30.1284442
  51.4584325  83.3685755  30.8914125  53.7441623  71.6432764  29.7890331
  54.1696694  71.1905290  29.1773857  53.1298616  71.0892834  30.0655118
  53.7170268  71.4946740  29.7395356  43.2756473  78.5214435  20.7210956
  43.7848702  79.1178943  21.1022261  43.7490745  78.2540409  20.0387375
  43.4199848  78.5700250  20.6765479  52.1835845  68.1147863  23.1980908
  51.5404163  67.9645510  23.7666046  51.8435252  67.8690209  22.4330012
  52.0380923  68.0559986  23.1683923  56.7735192  76.0707290  22.6210916
  56.1026382  76.6136993  22.4923982  57.4674942  76.5402146  22.3792611
  56.7764059  76.2205561  22.5666444  56.9363319  72.5263174  25.5301290
  57.2890929  72.0992897  26.2047088  56.0778121  72.4414017  25.6602366
  56.8612764  72.4507915  25.6496300  45.6347004  75.1570694  23.5884136
  44.9158993  75.5734826  23.8557000  46.0059367  75.7224932  23.0375774
  45.5838936  75.3019975  23.5466943  54.9346585  75.7898542  29.4786132
  54.9144512  75.6081838  30.3320911  54.9825786  76.6610561  29.4545716
  54.9381226  75.8915081  29.6009427  52.8792915  82.3785734  35.4034608
  52.8388770  81.7335411  34.8179764  53.6916233  82.3222352  35.7160021
  52.9936069  82.2744701  35.3631558  51.4093579  74.1968693  18.9257516
  50.8158418  74.5185690  18.3742083  51.4468856  73.3509789  18.7178622
  51.3267968  74.1193022  18.8140287  58.3687379  67.6481586  26.4585602
  57.8618244  66.9410725  26.3906780  59.1654813  67.3174775  26.5886679
  58.4114619  67.4954737  26.4684597  54.2851395  74.1548198  22.3559266
  54.0565088  74.1780899  21.5137624  54.5449472  73.3305665  22.4754276
  54.2897583  74.0364278  22.2484464  48.5670624  76.0082671  31.9584366
  48.0549527  75.4003854  32.3169398  48.3950120  76.7239264  32.4258342
  48.4660261  76.0245970  32.0800590  43.4136338  74.4520246  34.6086728
  43.2438929  75.1121621  34.0634935  42.9702288  74.6626808  35.3299217
  43.3235672  74.5806228  34.6348357  47.3396158  72.6924744  23.6513462
  47.8153524  73.0541824  23.0163643  46.8384757  73.3481212  23.9313604
  47.3361517  72.8418933  23.5990203  52.4439694  73.9306916  34.3986622
  53.0011124  73.7020725  33.7665087  52.1200759  74.6912581  34.1221834
  52.4786104  74.0090752  34.2643119  40.3138403  77.3567112  29.8675218
  39.7665122  76.6867757  29.9856086  41.1030781  76.9896960  29.9318685
  40.3490587  77.2032098  29.8943918  50.1622811  77.0174569  35.3638629
  50.9134138  77.3326246  35.6778183  50.3545388  76.8153740  34.5372551
  50.3014226  77.0341951  35.2882025  49.3822811  74.8365944  17.0186846
  49.7621776  74.8545573  16.2337960  48.6415407  75.2819933  16.8977693
  49.3291649  74.9047719  16.8850414  57.0108101  73.1448135  22.6062424
  57.0102328  72.9896792  23.4646701  56.8064282  73.9911122  22.5503810
  56.9807879  73.2468756  22.7250364  39.0725372  76.5687920  27.0221241
  38.8947134  76.1164529  27.7476156  38.7844395  77.3714081  27.2059718
  39.0038326  76.6210478  27.1564744  54.7348954  77.8245637  26.2598631
  55.2302619  77.1068632  26.2202651  53.9248729  77.5216435  26.1453118
  54.6892847  77.6743283  26.2372357  40.8097842  79.1015643  24.1343000
  39.9443362  79.0901334  24.0225771  40.9096658  78.9145866  24.9814139
  40.6972009  79.0721705  24.2431944  56.8000772  80.5749325  28.9475760
  57.2255844  80.0523746  28.3946185  56.4357692  81.1730162  28.4264383
  56.8087375  80.5859552  28.7884770  53.3879372  84.2883589  25.2776917
  53.8590550  85.0023851  25.4466903  53.7239550  83.6882339  25.8136787
  53.5074487  84.3055053  25.3809293  50.3048867  69.0611059  32.2335012
  50.4376772  68.2642053  32.5615988  50.6894020  69.5877462  32.8133288
  50.3805196  69.0210976  32.3678515  54.0253318  84.0801523  32.0404610
  53.4774264  83.4559407  31.7724675  54.4866347  84.2695795  31.3248689
  54.0120528  84.0160573  31.8955041  56.8347183  72.1486877  29.4255802
  56.2510171  72.6496084  29.0133370  57.1551477  71.6416434  28.7920126
  56.7960358  72.1478712  29.2714309  49.3741982  71.0627472  19.7014477
  50.1957676  71.2325785  19.4596172  48.9111633  71.2174733  18.9780775
  49.4273144  71.1109205  19.5586121  47.9637314  69.0570234  30.4812906
  48.5081727  68.7161361  31.0717248  48.0174249  69.9155696  30.6234190
  48.0526433  69.1325494  30.5894779  22.3739186  12.9616523  22.8310261
  23.0805953  12.4668554  22.9597195  22.5627121  13.4025605  22.1012919
  22.5067091  12.9534874  22.7419306  19.5131480  16.3844060  20.7224336
  19.6014826  16.1970200  21.5702546  19.9421193  15.7381490  20.3229183
  19.5893583  16.2607068  20.7896088  17.0801940  15.6675220  19.7041998
  16.5172775  15.2547830  20.2281660  17.8422963  15.5928126  20.1235142
  17.1096389  15.5952621  19.8434999  13.6876838   7.8948828  21.4359044
  13.8597342   7.7854723  22.2844325  14.2246196   8.5403234  21.1990236
  13.7921842   7.9740830  21.5264140  19.6251539  15.8153079  23.3868120
  20.4091956  15.9283927  23.7523862  19.4248134  14.9894216  23.5826806
  19.7117565  15.7099798  23.4702506  19.7821933  17.7263181  17.0334575
  18.9837179  17.4862681  17.2908444  20.2307944  17.7777574  17.7801623
  19.7296544  17.6985572  17.1819500  18.8422670  11.4723626  24.9254764
  18.0495650  11.7867138  25.1107383  18.9571597  11.6875094  24.0875548
  18.7418080  11.5507463  24.8293098  19.7706463  11.3743830  19.8640060
  20.3445324  10.7371074  20.0188624  19.6921266  11.3747912  18.9949718
  19.8439697  11.2808941  19.7586471  25.0926610  12.7452807  19.8724913
  24.8565248  11.9140872  19.7536974  25.7369839  12.6938415  20.4579758
  25.1521281  12.6150495  19.9410807  26.1163031  12.5297256  15.9353208
  25.8108848  13.2625313  16.2966524  25.3969247  12.1235186  15.6545994
  25.9650373  12.5778989  15.9466345  31.8164823   9.1690257  15.2621552
  31.7489323   9.1886216  14.3924139  31.8020486  10.0120584  15.4877223
  31.8043580   9.2963991  15.1674029  16.2545831  11.7773240  18.0828040
  15.7557525  12.4889008  18.1612928  17.0646056  12.0973907  18.0446202
  16.3001938  11.9300089  18.0884609  15.1812889   4.6354285  23.3790338
  14.3712665   4.9412064  23.2680181  15.6587576   5.3559867  23.4942922
  15.1316368   4.7868886  23.3797409  21.8052286   9.6381030  20.4728250
  21.8000324   8.7660847  20.4770676  22.5113280   9.8369199  19.9997706
  21.9097290   9.5384904  20.4035285  15.5323179   9.3658014  19.8442070
  15.6766555   9.9459222  19.2085180  15.8798828   9.7434311  20.5491925
  15.6050641   9.5078718  19.8541065  14.6050934  17.5560786  16.7103097
  14.7540498  16.9963702  16.0576501  15.3850936  17.6352787  17.0935616
  14.7425028  17.4846351  16.6700046  17.1304235  17.7275429  17.9887588
  17.0547906  17.0584239  18.5438376  17.0594094  18.4293217  18.5028254
  17.1084842  17.7320336  18.1464436  16.5195869  21.1343748  16.4465589
  17.0091799  20.4354538  16.2641253  15.9480101  20.8367618  17.0341646
  16.5080399  20.9869972  16.5066629  22.7162873  13.7005818  25.3992379
  23.5297738  13.4290967  25.5597512  22.5557839  13.4013358  24.5952575
  22.8132821  13.6160744  25.3037785  22.1574123   5.9928540  19.2771075
  21.3450804   5.6854430  19.3584247  22.6164057   5.5127540  19.8413787
  22.1054507   5.8765032  19.3725669  19.2527630   7.3988612  24.0599777
  19.7227261   8.0230728  24.4467651  19.2989510   6.7305587  24.6192992
  19.3295506   7.3923292  24.1999848  22.7284117  14.7612108  20.6715220
  23.3663837  14.2672304  20.3377676  22.0858208  14.6889508  20.0867447
  22.7278343  14.6771116  20.5357575  22.7838373  15.4531916  17.3120576
  23.5730751  15.1020981  17.4322658  22.9581971  16.2668305  17.0497210
  22.9258655  15.5217773  17.2908444  14.3966700  14.0071762  18.3218061
  14.2887055  14.0173824  19.1880119  14.6062481  14.8326542  18.1323014
  14.4116811  14.1312837  18.4222152  28.5330913  11.0890174  16.7817276
  28.5914037  11.5376823  17.5277253  27.8997381  11.4988987  16.3447356
  28.4482208  11.2163909  16.8269825  22.1730008  16.7093716  13.2172023
  21.9749696  17.1984530  12.5228234  21.5517719  16.9134957  13.7956156
  22.0517572  16.8110254  13.1995246  24.0903810  10.2757868  18.7517271
  24.8138009   9.8230395  18.5728291  23.8253772  10.5562534  17.9689599
  24.1585083  10.2508837  18.6095986  15.9035541  10.6146329  22.3325158
  15.0531172  10.7518043  22.4682803  16.0663669   9.8810107  22.7772859
  15.8019405  10.5260430  22.4180757  26.5239124   9.2384279  17.2547821
  27.1156964   9.8781530  17.2866019  26.9598118   8.5407316  17.5439888
  26.6757555   9.2302629  17.3028653  18.3532514  13.6601651  17.8805715
  17.8457605  14.2137498  18.3246345  18.0559160  13.7209941  17.0624489
  18.2337399  13.7507963  17.8254171  17.5974999  18.5926210  14.7862722
  17.3740653  17.8345039  15.1546748  17.1084842  18.6224231  14.0643161
  17.4918448  18.4848434  14.7339463  19.6545988  12.7607942  22.3374655
  19.6141843  12.1157619  21.7519811  20.4669306  12.7044559  22.6500067
  19.7689142  12.6566909  22.2971604  19.2192767   4.3129123  21.3326668
  19.7764197   4.0842933  20.7005134  18.8953832   5.0734789  21.0561881
  19.2539177   4.3912960  21.1983166  16.9375885   7.3996776  22.2978676
  17.6887212   7.7148453  22.6118230  17.1298461   7.1975947  21.4712597
  17.0767299   7.4164158  22.2222071  23.5753846  10.9571532  15.8815807
  24.0008917  10.4345954  15.3286232  23.2110765  11.5552369  15.3604430
  23.5840448  10.9681759  15.7224816  13.2107925  19.2535749  14.6413152
  13.5254484  20.0672138  14.6490934  13.6201339  18.8685968  15.3095311
  13.3176023  19.3164452  14.7417244  22.2509430  16.2807110  24.3909036
  22.3606395  15.4915670  24.7465783  22.5800326  16.1913046  23.5883374
  22.3161835  16.1512963  24.3251427  20.8006391  14.4623730  18.9744657
  20.2527337  13.8381614  18.7064722  21.2619420  14.6518002  18.2588736
  20.7873601  14.3982781  18.8295088  20.3664718  15.4674803  15.5053998
  21.1863091  15.3237769  15.7670293  20.0858795  16.0921002  16.0470436
  20.4461461  15.5385155  15.6241937  36.8378368  23.1239655   8.4696874
  36.8072372  23.9784291   8.6415144  37.4359717  22.8234947   9.0283018
  36.9215526  23.2056151   8.5771677  30.0378053  22.2115306  13.2249805
  29.1815948  22.3723804  13.2758922  30.0845707  21.3407370  13.2454866
  29.9177164  22.1066108  13.2355871  24.4219193  31.7478024   8.9887036
  23.6702092  31.3693562   8.7603081  24.8705204  31.7796457   8.2405847
  24.3768859  31.6963631   8.8444539  29.8744152  32.1703393   4.4172583
  29.5395521  32.8480315   3.9816806  30.3871023  31.7808704   3.8289455
  29.9009734  32.2127971   4.2659375  29.4148444  34.1217662  10.3583695
  29.7987823  34.6904560   9.8188470  29.3507585  33.3967172   9.8789511
  29.4621871  34.0993125  10.2077558  32.8829874  24.2707350  15.8681456
  33.4285834  24.9492436  15.9275426  32.8246750  24.1294811  15.0083038
  32.9545788  24.3499351  15.7493517  26.0003949  31.7596416  11.2549809
  26.1014312  30.9496770  11.5646937  25.4045694  31.6653362  10.6249487
  25.9276487  31.6261444  11.2076047  34.6594943  25.6991957   6.7415184
  34.5434468  26.4499643   7.1707322  35.4550829  25.4415910   6.9911271
  34.7599532  25.7726804   6.8419276  25.8404688  36.6774005  12.6564665
  26.4842144  37.1187169  13.0460823  26.1660944  35.8727431  12.5694924
  25.9836517  36.6239200  12.7010142  19.1968993  27.7816702  10.8802143
  18.9619178  26.9484355  10.7734411  19.3354634  28.0621368  10.0663343
  19.1824656  27.7000206  10.7444497  21.4959081  19.9502433  13.7786450
  20.8764112  19.3595080  13.6096465  21.3942944  20.5413868  13.1450773
  21.3896756  19.9506515  13.6591440  26.5425268  29.6885980   8.0284527
  26.8641109  30.2291187   7.4245835  27.1897365  29.1182751   8.1606816
  26.6851323  29.6845155   7.9591562  28.5926976  21.6901975   8.1118913
  29.2907141  21.8690102   8.6040377  28.9079309  21.1672314   7.4889303
  28.7422313  21.6395747   8.0920923  21.2228214  23.4954715  16.0230019
  21.0986910  24.0817160  16.6579838  21.8746498  23.0014910  16.3242294
  21.3001863  23.5093519  16.1615948  28.7814912  28.0772420   8.0998705
  29.2208547  27.4689520   8.5453478  28.6319574  27.6979793   7.3284170
  28.8236377  27.9310891   8.0517872  26.2486555  26.6716432  15.3017530
  26.8935557  26.1788875  14.9828479  26.4888332  26.8141218  16.1283609
  26.3797140  26.6193874  15.3767063  28.7872646  29.5171337  14.9524423
  29.0695889  28.7222743  14.7311179  29.5158806  29.9951925  14.9729484
  28.9362210  29.4705934  14.9227438  26.7653840  17.0594371  12.1940188
  26.4357170  17.5105515  11.5243887  26.0898842  16.9810535  12.7413194
  26.6164276  17.1145507  12.1763411  32.3824248  26.4299601   5.0529474
  32.2975543  27.2860568   5.1979043  32.8708631  26.1543925   5.7211633
  32.4413145  26.5156922   5.1731556  33.9730248  13.0479894  10.4389799
  33.6583689  13.7383373  10.8710221  33.4557189  12.9924677   9.7375299
  33.8494718  13.1414783  10.3986748  33.3142681  23.0484395   6.5527209
  32.7854153  23.2644029   7.2124515  33.8367701  23.7420534   6.4728178
  33.3131134  23.1827532   6.6382808  38.7690734  28.6230700  11.9260254
  37.9388437  28.8341343  12.0893670  38.7199987  27.7967754  11.6502537
  38.6397470  28.5320306  11.9097619  20.7586318  32.6602373  12.1558349
  20.2753896  33.3852863  12.1317932  21.5709636  32.9578503  12.2668506
  20.8077065  32.8104727  12.1685628  26.8300472  31.4534554  14.7608163
  26.3127413  31.0941969  14.1569471  27.5274863  30.9296728  14.7714229
  26.8566053  31.3232242  14.6738422  28.0534524  31.1860528  19.7041998
  27.4905358  30.7733138  20.2281660  28.8155547  31.1113434  20.1235142
  28.0828972  31.1137928  19.8434999  23.6130515  33.1758549  12.3078628
  24.3151094  32.6610538  12.3651385  23.5327998  33.5032700  13.1125504
  23.7054275  33.1472775  12.4351421  38.2644693  21.2701100  15.7210675
  37.4273114  21.3403287  15.9558269  38.2332923  21.2725595  14.8484977
  38.1362975  21.2811327  15.6270223  24.6609422  23.4134136  21.4359044
  24.8329925  23.3040031  22.2844325  25.1978779  24.0588541  21.1990236
  24.7654426  23.4926138  21.5264140  22.9381290  29.3664901  11.8164237
  23.7770190  29.5987834  11.8637998  22.9693060  28.4969212  11.7471272
  23.0663008  29.2721848  11.8128881  23.5633993  29.7865776  16.1177542
  24.1032218  29.6436907  16.7880914  22.8803940  30.1862527  16.4861568
  23.5426147  29.8245447  16.2711964  32.9874878  25.4656777  11.3122566
  33.7432393  25.8988291  11.3511475  33.0937203  24.8161547  11.8857202
  33.1145049  25.4334261  11.4020592  36.0255049  29.2930054  12.0624969
  35.5890281  29.2966797  12.8183941  35.6917965  29.9735553  11.6304547
  35.9117669  29.3942510  12.1105802  18.9671139  26.0066067  16.2711964
  18.7009554  25.1905184  16.4302954  18.9809703  26.0519223  15.4007479
  18.9295861  25.8922972  16.1665446  35.9452532  16.3343882  14.3054397
  36.5878441  16.4041987  14.8916313  36.1975553  15.6673105  13.8033939
  36.0774664  16.2470231  14.3181677  23.7169745  19.5444445  18.9178971
  23.0241542  19.0741425  19.1639703  24.3330072  19.3182750  19.4920678
  23.7054275  19.4411577  19.0388124  30.7554516  33.2448489  17.0334575
  29.9569762  33.0047989  17.2908444  31.2040528  33.2962882  17.7801623
  30.7029128  33.2170880  17.1819500  39.1599396  26.0110974  10.9544607
  39.8215830  25.4501642  10.8540515  38.5190808  25.5163005  11.2797298
  39.1628263  25.8547383  10.9876947  30.0476203  29.3081105   3.2625530
  30.4627352  28.9766129   2.5710026  29.2168133  29.0750008   3.1345667
  29.9864212  29.2252361   3.1416377  19.3764552  26.7924846  13.5523708
  19.1940125  26.7671732  12.6996000  20.1114221  27.2623784  13.5912617
  19.4578616  26.8586209  13.4321626  35.4464226  27.0276356  10.6956595
  35.6819816  27.1721555   9.8683446  35.5953790  27.7918764  11.0888109
  35.5030030  27.1615411  10.6320199  22.4410304  23.5109849  20.0605816
  23.1650276  23.4962880  20.5470711  22.5426440  24.2205205  19.5627785
  22.5628513  23.6134553  20.0584603  37.2754683  25.8678022   8.5326199
  37.6062900  26.4005663   7.9266294  37.8487771  25.9216910   9.1888150
  37.4088362  25.9547591   8.5403981  32.4886572  23.7142925   9.2149779
  32.5833427  24.4532219   9.6689405  31.8645416  23.2860401   9.6484344
  32.4095602  23.7604246   9.3457927  30.7439046  26.8929138  19.8640060
  31.3177908  26.2556382  20.0188624  30.6653850  26.8933220  18.9949718
  30.8172281  26.7994249  19.7586471  19.3435463  23.6718347  13.7022774
  19.9208965  23.5354798  14.3415020  18.6449524  23.2154131  13.9568359
  19.3256484  23.5840613  13.8345064  26.1002765  25.3252403  11.9161258
  25.8422009  24.4924138  11.8892557  26.1551248  25.5510016  11.0753758
  26.0702543  25.2350174  11.7881394  31.1803815  17.4280853  12.0165350
  30.4760142  16.9390039  12.1749269  31.2288789  17.4403328  11.1453795
  31.0833866  17.3570501  11.9104690  25.0737477  22.8790165  12.4026152
  24.4987068  23.0382334  13.0390113  24.6973153  22.2425574  11.9394603
  24.9340289  22.8087978  12.4280711  28.7410765  21.3513515  17.2618531
  28.3525198  20.9267732  16.6070722  28.0765464  21.5995664  17.7695557
  28.5857693  21.3252236  17.2406399  38.3834035  21.1088519  10.0366361
  38.1270599  20.2968461   9.8464244  39.2263349  21.1166086   9.8096548
  38.4700060  20.9900517   9.9751178  32.5637127  15.0488143  14.7742515
  32.9447639  14.3666314  15.1610389  31.7600411  14.7597745  14.5918180
  32.5013589  14.9055192  14.8046571  36.0659194  28.2638115  19.8724913
  35.8297831  27.4326180  19.7536974  36.7102423  28.2123722  20.4579758
  36.1253865  28.1335803  19.9410807  25.7157612  29.0533637  10.5867650
  26.3531559  28.8145384  11.1319443  26.1412684  29.2570796   9.8520810
  25.8733778  29.0484647  10.5584807  20.4070254  31.2921973  14.4701954
  20.4474400  31.5636824  13.6421733  20.9664778  31.8163881  14.8859742
  20.4953600  31.4097728  14.4093842  26.5228967  17.5542342  24.6405124
  26.2082409  18.3241904  24.3774686  26.2018900  16.9912598  24.0557350
  26.4287887  17.5852610  24.5146473  37.0895615  28.0482564  15.9353208
  36.7841432  28.7810621  16.2966524  36.3701830  27.6420494  15.6545994
  36.9382957  28.0964297  15.9466345  28.0979084  29.5306059  12.2661436
  28.1718092  29.3681231  13.1203286  28.9148590  29.7196249  12.0221918
  28.2295443  29.5342802  12.3559462  42.7897407  24.6875565  15.2621552
  42.7221907  24.7071524  14.3924139  42.7753069  25.5305892  15.4877223
  42.7776163  24.8149299  15.1674029  21.8584841  29.8763922   9.2955880
  21.0322958  30.1225659   9.1690158  21.9196832  29.7976003  10.1617938
  21.7459008  29.9008871   9.4044824  33.1993753  16.0910722  18.5862642
  33.9447345  15.9020533  18.1726067  32.7831058  16.6168960  18.0276498
  33.2478727  16.1412868  18.4427215  26.6383670  32.4940802   6.9974910
  26.9281968  32.1029784   6.2734136  27.3687151  32.6757507   7.4380185
  26.7890554  32.4634616   6.9557717  40.5756024  23.4619951  13.5368147
  41.1263946  22.8288020  13.7765239  40.5600139  23.9935344  14.2283651
  40.6541220  23.4468899  13.6747005  27.2278415  27.2958548  18.0828040
  26.7290109  28.0074316  18.1612928  28.0378639  27.6159215  18.0446202
  27.2734522  27.4485397  18.0884609  24.5789585  34.4708185  10.0635059
  24.3589881  34.1805539  10.8561726  24.3584107  33.8123140   9.5352972
  24.5137179  34.3307893  10.1023968  23.4906532  26.5581501  12.3290761
  23.2019781  25.9318972  12.8636488  24.3589881  26.5001789  12.3955441
  23.5766784  26.4569045  12.4181715  34.2784430  21.7016285  12.6472743
  33.9349196  20.9806620  12.9979992  34.3777473  21.4930136  11.8051101
  34.2426473  21.5640488  12.5744423  26.7457541  35.8437575   8.8465752
  27.3981599  35.3114017   9.0756778  26.0483150  35.4906227   9.2333626
  26.7388259  35.7127098   8.9377919  23.6938806  28.1976752   8.2533126
  24.4484774  28.5789791   8.4668589  23.1009419  28.6487896   8.7079822
  23.7175519  28.3205580   8.3516004  34.7397459  28.1641989   8.1896731
  35.3055492  28.8235199   8.1055274  34.0925363  28.5091687   8.6613133
  34.7276216  28.3123930   8.2469487  26.1545473  20.1539593  23.3790338
  25.3445249  20.4597372  23.2680181  26.6320160  20.8745175  23.4942922
  26.1048952  20.3054194  23.3797409  25.0137032  29.3685314  13.6273241
  24.4917786  29.5085605  14.3125106  25.4011053  28.6095978  13.8175359
  24.9940733  29.2770837  13.7574318  31.2104037  31.1080773   7.6133810
  30.9690713  30.3748634   7.2060875  31.3905370  31.6567630   6.9600143
  31.2011661  31.0803164   7.4564033  26.4403358  26.3989333   9.0254732
  26.2446141  27.0064067   8.4315035  26.6637704  25.7057277   8.5446406
  26.4437999  26.3866858   8.8670813  24.8381888  23.2844071   9.1435601
  25.5604540  23.4485229   8.6839407  24.3589881  24.0053735   9.0374941
  24.8745619  23.4142300   9.0601215  32.7975396  19.6207869  14.5232286
  31.9586496  19.6469148  14.2870549  32.8679763  20.2678605  15.1037632
  32.6843789  19.7203995  14.5741403  22.4889505  25.6902143  18.2489741
  23.0010602  25.9686396  17.5998500  22.2025847  26.4291437  18.6152554
  22.5224368  25.8404497  18.2079619  31.2444674  16.5193246   9.2559902
  31.9471027  16.3200995   8.7779860  30.9788863  15.7469189   9.5628745
  31.3091306  16.3756212   9.2305343  36.6732919  24.8275856  11.8093527
  36.5866894  24.9831282  12.6628306  36.2183399  25.4713932  11.4352933
  36.5936176  24.9451611  11.8800634  26.0073230  17.7828532  18.3090782
  25.8156427  17.7983666  19.1590206  26.8571826  17.9792206  18.2857437
  26.1048952  17.8142883  18.4314077  20.3920143  20.3119513  16.2874599
  20.2505635  19.4603454  16.4119107  20.6760707  20.3548174  15.4636805
  20.4127989  20.1919263  16.1842223  30.5458736  22.1486603  10.4319087
  30.2993450  22.0682354  11.2655876  30.8743859  21.3640071  10.2381614
  30.5579979  22.0212869  10.5266610  34.4406784  28.8569963  14.2205868
  34.3021144  29.5551008  14.7254611  33.6606782  28.7018619  13.8642050
  34.3050011  28.9370129  14.2432142  26.5055763  24.8843322  19.8442070
  26.6499139  25.4644530  19.2085180  26.8531411  25.2619619  20.5491925
  26.5783224  25.0264026  19.8541065  28.6775680  24.0833490  17.6267202
  27.9298994  24.2764505  17.2215480  28.8317205  23.2578710  17.3891323
  28.5898108  23.9898602  17.5312607  25.5783518  33.0746094  16.7103097
  25.7273082  32.5149010  16.0576501  26.3583520  33.1538095  17.0935616
  25.7157611  33.0031659  16.6700046  35.9360157  28.2148216   4.9822367
  35.5566966  27.4285354   4.9751657  35.2726403  28.7635073   4.8394012
  35.7818632  28.1793040   4.9603164  28.1036818  33.2460737  17.9887588
  28.0280490  32.5769547  18.5438376  28.0326678  33.9478525  18.5028254
  28.0817425  33.2505644  18.1464436  28.9177457  17.9784041  18.5162605
  29.3750071  18.7108015  18.6435398  28.9933786  17.5550506  19.2749861
  28.9968427  18.0241279  18.6463682  21.1610448  18.2249861  19.6052049
  20.6252638  17.6130219  19.9212816  21.2228213  18.7997997  20.2585716
  21.0906081  18.2196788  19.7487476  33.3904783  11.1573916  12.3856448
  33.5088351  11.6150379  11.6523751  33.2166959  10.3519177  12.0992666
  33.3823954  11.1067688  12.2357382  28.7607065  31.7661735   8.8211194
  29.5256956  31.4971379   8.4993858  28.6585155  31.2811746   9.5381256
  28.8588561  31.6551300   8.8791021  26.7959835  19.9686145  15.3604429
  26.0055910  19.7877605  15.6821765  27.1920458  19.1913097  15.3434724
  26.7376711  19.8273606  15.4056978  32.1803521  27.6028575  13.0863875
  31.5048523  27.3713807  13.5877262  32.1895898  26.9949758  12.4605980
  32.0822026  27.4787500  13.0680028  29.3097665  22.4446404  19.8427928
  29.2456807  23.3056360  19.7148065  29.4494853  22.1278397  19.0423480
  29.3213135  22.5246571  19.7056141  34.1820256  30.4593707   5.3174053
  34.2640093  31.2660694   4.9935504  34.6669998  30.4789667   6.0414827
  34.2657414  30.5814370   5.3760952  27.9916759  25.1378543  13.9844131
  27.5679008  25.3383042  13.2483150  27.8161614  24.2907391  14.0968431
  27.9027640  25.0427325  13.8917821  27.4928453  36.6529056  16.4465589
  27.9824383  35.9539846  16.2641253  26.9212685  36.3552926  17.0341646
  27.4812983  36.5055280  16.5066629  23.2799204  25.6330595   9.4172104
  23.4363823  25.5677398  10.2728096  23.6199797  26.4079147   9.2050783
  23.3532439  25.7379793   9.5126698  29.8178349  25.0088478   8.2865467
  30.3593894  24.5058859   8.7504088  30.1324908  24.9553673   7.4754952
  29.9442746  24.9267899   8.2349279  27.9864799  30.4005830   5.5705495
  28.0557619  29.5420368   5.7098495  28.7653254  30.6177711   5.2424520
  28.1117649  30.3058694   5.5422652  30.9667618  19.9024783  18.3387767
  31.1809588  19.2635697  17.7851121  30.3501517  20.3470607  17.9095629
  30.9072947  19.8734927  18.1938199  32.3772286  32.8243531   9.7841988
  31.9852078  32.5210246   9.0664854  32.5325358  33.6612621   9.5946942
  32.3425876  32.9027368   9.6498485  33.1306706  21.5113848  19.2771075
  32.3183388  21.2039738  19.3584247  33.5896641  21.0312848  19.8413787
  33.0787091  21.3950340  19.3725669  32.5411961  29.3893520   9.7248019
  32.1826616  29.5608163  10.5012051  32.0550672  29.8506726   9.1676017
  32.4170658  29.4832491   9.7573288  30.3582347  13.0124718  13.3275110
  29.4875905  12.9863440  13.2808420  30.6122688  12.8401911  12.5100956
  30.2675907  12.9834862  13.1995247  30.2260214  22.9173919  24.0599777
  30.6959845  23.5416036  24.4467651  30.2722094  22.2490895  24.6192992
  30.3028090  22.9108600  24.1999848  27.3831487  15.0230947  14.7848581
  26.8669976  14.3311138  14.9100160  26.8225416  15.6901724  14.7311179
  27.2238001  15.0194205  14.7954647  29.4523721  15.5623907  16.6141433
  29.0655474  15.5872938  17.3954963  28.9656658  14.9965586  16.1615950
  29.3236230  15.4819658  16.6629337  35.4273700  22.1286562  15.2381135
  35.0001308  22.0412910  14.4829235  34.7899753  22.2364337  15.8235979
  35.2703308  22.1319222  15.2126577  29.1180863  12.4490892  18.9051693
  29.7473981  12.9851192  18.6272763  29.2866725  12.3568251  19.7565259
  29.2358657  12.5152255  18.9900221  28.9194777  17.2362087  21.1778105
  29.7468207  16.9647236  21.2336719  28.9402624  18.0322929  21.5341923
  29.0447628  17.3141841  21.2393288  33.7570957  30.9717224  17.3120576
  34.5463335  30.6206289  17.4322658  33.9314555  31.7853613  17.0497210
  33.8991239  31.0403081  17.2908444  23.4964267  24.3825950  14.3648365
  22.6552274  24.2829824  14.5727259  23.7054275  25.1521430  14.7162686
  23.4028960  24.4817993  14.4475680  20.9739834  22.0045487  12.1933116
  20.5796532  22.0788499  11.4183226  20.4179951  22.3903433  12.7441478
  20.8342647  22.0727262  12.1600776  32.6104781  14.9826781  11.8736995
  32.8154374  14.9149089  12.7193992  32.2831205  15.7885602  11.8058172
  32.5920029  15.0912721  11.9896650  27.3080932  22.3107349  13.6145963
  27.0044070  21.7563337  14.2156371  26.6060353  22.4899559  13.1273997
  27.1597142  22.2552131  13.6315668  25.3699283  29.5257070  18.3218061
  25.2619638  29.5359132  19.1880119  25.5795065  30.3511850  18.1323014
  25.3849394  29.6498145  18.4222152  35.8638469  15.5358545  11.3539760
  35.2512782  16.0228947  11.7393492  35.9602644  14.8602036  11.8977412
  35.7876366  15.5076854  11.4918619  23.3873075  26.7769712  15.7839998
  22.7961008  27.4179210  15.7543013  24.1494099  27.2007330  15.7571298
  23.4121336  26.9345551  15.7755145  23.7833698  17.9371710  16.4508016
  24.2435180  18.0110639  17.1883140  23.8289805  18.7352964  16.1007837
  23.8584253  18.0665857  16.5080772  25.4317048  18.6038405  21.0180043
  25.0402613  17.9571752  21.4535821  25.6002910  19.1949840  21.6374298
  25.3987958  18.5952673  21.1742749  39.5063497  26.6075482  16.7817276
  39.5646620  27.0562131  17.5277253  38.8729964  27.0174295  16.3447356
  39.4214792  26.7349217  16.8269825  33.1462591  32.2279024  13.2172023
  32.9482280  32.7169838  12.5228234  32.5250302  32.4320265  13.7956156
  33.0250156  32.3295562  13.1995246  27.2070570  23.9963921   7.5582267
  27.9512615  24.3838197   7.7965217  27.3531266  23.1521346   7.7222755
  27.3381155  23.9294393   7.6176237  29.1250145  15.7914180  12.5914128
  28.2786190  15.9636987  12.4655478  29.1221278  14.9863523  12.9279957
  28.9997295  15.6975209  12.6225255  30.1948446  19.5689394  13.4576186
  29.7208400  19.0431156  13.9681497  30.5666581  19.0218867  12.8891048
  30.1798335  19.4105391  13.4491333  20.5721476  21.5660901  18.8259732
  21.4347089  21.4656610  18.7397062  20.2413259  20.9855610  18.2645304
  20.6506672  21.4652527  18.7305138  36.4585176  24.6291770  14.8682967
  36.2183399  23.7898185  14.8725393  36.9377183  24.7091936  15.5923740
  36.4937360  24.5173169  14.9757769  38.4590363  21.4093227  12.8212226
  38.2200133  21.3689061  11.9833011  38.6224264  22.2564379  12.9477947
  38.4480667  21.5285312  12.7165708  35.0636393  25.7943176  18.7517271
  35.7870592  25.3415703  18.5728291  34.7986356  26.0747842  17.9689599
  35.1317667  25.7694145  18.6095986  23.9323262  20.3903350  15.4870150
  23.3076332  20.4021742  14.8796103  23.5968857  20.8663525  16.1361390
  23.7908754  20.4621867  15.4926719  20.6448937  28.4503810  16.9273915
  20.1148862  27.7596249  16.9768889  20.9174031  28.4413995  16.0986623
  20.6073660  28.3470942  16.8121330  31.6769028  29.0329512   5.6511597
  32.4003227  29.4987625   5.5076170  31.2369619  29.1003122   4.9009194
  31.7184720  29.1113349   5.5196379  30.8455183  25.8927054  16.9012286
  30.2312176  25.3485105  17.1960921  31.3622468  25.3791291  16.4218102
  30.8310845  25.7363463  16.8736515  30.0851480  26.9631324  14.6356585
  29.6579088  26.3381043  14.2022020  30.0776424  26.6806246  15.4615592
  30.0210621  26.8284105  14.6936412  23.2014007  21.9996497  17.7045019
  23.3607494  21.2439822  18.1096741  23.0206901  22.5487437  18.3585756
  23.1979366  21.9690311  17.8607725  31.1434310  14.1657733  18.2595808
  30.6474871  14.3621407  17.5687375  31.9003372  14.5650401  18.0884610
  31.1821135  14.2535467  18.1315945  28.4137190  17.8400079  14.8499119
  28.4379677  17.3060191  14.1611899  28.6648663  17.3317388  15.5124709
  28.4547108  17.6860983  14.8463763  15.9244780  25.1231574  14.2842263
  15.8188229  25.0778418  13.4194347  15.1744999  25.4685354  14.5656548
  15.7980382  25.1672482  14.1979593  24.6938512  16.5670897  14.2304863
  24.7336884  17.0680104  14.9439570  23.8688177  16.6581291  13.9610786
  24.5778038  16.6552714  14.2955401  26.8768125  26.1331637  22.3325158
  26.0263755  26.2703351  22.4682803  27.0396253  25.3995415  22.7772859
  26.7751988  26.0445738  22.4180757  26.1152875  23.0831407  16.5278762
  25.2844805  23.2505225  16.3214010  26.0604392  22.7067358  17.3127647
  25.9842290  23.0521138  16.6127290  23.9236659  16.5740300  22.1635173
  24.5489362  16.0302433  22.4364605  23.4687138  16.0935218  21.5942963
  23.9484919  16.4229781  22.1196767  37.4971707  24.7569587  17.2547821
  38.0889548  25.3966838  17.2866019  37.9330702  24.0592624  17.5439888
  37.6490139  24.7487937  17.3028653  29.3265097  29.1786959  17.8805715
  28.8190188  29.7322806  18.3246345  29.0291743  29.2395249  17.0624489
  29.2069982  29.2693271  17.8254171  31.4927279  17.5440279  16.7230378
  31.9182351  17.0912805  16.1113904  30.8784272  16.9900350  16.9995165
  31.4655925  17.3954255  16.6735403  31.9372877  33.0950217   5.8109658
  31.2202187  32.9211079   5.3456896  32.5879615  32.8602789   5.2785144
  31.9274728  33.0346010   5.6638876  34.5220849  21.9714806   9.5550963
  33.8512039  22.5144508   9.4264029  35.2160599  22.4409661   9.3132658
  34.5249716  22.1213077   9.5006491  28.5707582  34.1111518  14.7862722
  28.3473237  33.3530347  15.1546748  28.0817426  34.1409539  14.0643161
  28.4651031  34.0033742  14.7339463  34.6848976  18.4270689  12.4641336
  35.0376586  18.0000412  13.1387135  33.8263778  18.3421533  12.5942413
  34.6098421  18.3515430  12.5836347  23.3832661  21.0578209  10.5224183
  22.6644650  21.4742341  10.7897047  23.7545023  21.6232448   9.9715821
  23.3324593  21.2027490  10.4806990  32.6832242  21.6906058  16.4126179
  32.6630169  21.5089353  17.2660958  32.7311443  22.5618076  16.3885762
  32.6866883  21.7922596  16.5349473  30.6278572  28.2793250  22.3374655
  30.5874427  27.6342927  21.7519811  31.4401890  28.2229867  22.6500067
  30.7421725  28.1752217  22.2971604  27.2186039  34.3311976  12.2399806
  26.8046438  33.6686106  11.8503648  27.9033414  34.4789834  11.7195500
  27.2584411  34.2552634  12.1056303  30.5851333  33.4902061  12.9923423
  30.1867617  33.6004331  12.2244243  29.9702553  33.6984127  13.5749983
  30.4350223  33.5375629  12.9654722  36.1173036  13.5489101  13.3925649
  35.6103901  12.8418241  13.3246826  36.9140470  13.2182290  13.5226726
  36.1600275  13.3962252  13.4024644  32.0337052  20.0555713   9.2899313
  31.8050745  20.0788415   8.4477671  32.2935128  19.2313180   9.4094323
  32.0383240  19.9371793   9.1824510  26.3156281  21.9090186  18.8924413
  25.8035184  21.3011369  19.2509444  26.1435777  22.6246779  19.3598389
  26.2145918  21.9253486  19.0140637  21.1621995  20.3527762  21.5426775
  20.9924586  21.0129136  20.9974981  20.7187945  20.5634323  22.2639264
  21.0721329  20.4813744  21.5688404  25.0881815  18.5932260  10.5853508
  25.5639181  18.9549339   9.9503690  24.5870414  19.2488727  10.8653651
  25.0847174  18.7426448  10.5330249  38.3193176  28.0654028   6.3766513
  38.7026782  28.8145384   6.6064610  37.5237289  28.3119847   6.1178502
  38.2586958  28.2123722   6.3724087  30.1925351  19.8314431  21.3326668
  30.7496781  19.6028241  20.7005134  29.8686416  20.5920097  21.0561881
  30.2271761  19.9098268  21.1983166  18.0624060  23.2574627  16.8015265
  17.5150779  22.5875273  16.9196133  18.8516438  22.8904475  16.8658732
  18.0976243  23.1039614  16.8283965  27.9108468  22.9182084  22.2978676
  28.6619795  23.2333761  22.6118230  28.1031045  22.7161255  21.4712597
  28.0499882  22.9349466  22.2222071  34.7593758  19.0455651   9.5402471
  34.7587985  18.8904307  10.3986747  34.5549938  19.8918638   9.4843857
  34.7293536  19.1476271   9.6590410  16.8211029  22.4695435  13.9561288
  16.6432790  22.0172044  14.6816203  16.5330051  23.2721596  14.1399765
  16.7523982  22.5217993  14.0904790  32.4834610  23.7253152  13.1938678
  32.9788276  23.0076147  13.1542698  31.6734386  23.4223950  13.0793165
  32.4378504  23.5750799  13.1712404  27.9293222  27.5750966   5.3435682
  27.1204545  27.2517639   5.2968992  28.4368131  26.8684188   5.2763931
  27.8842889  27.4232282   5.3265977  18.5583499  25.0023159  11.0683047
  17.6929019  24.9908849  10.9565818  18.6582315  24.8153382  11.9154186
  18.4457666  24.9729220  11.1771991  34.5486429  26.4756840  15.8815807
  34.9741501  25.9531262  15.3286232  34.1843349  27.0737677  15.3604430
  34.5573032  26.4867067  15.7224816  24.1840509  34.7721057  14.6413152
  24.4987068  35.5857446  14.6490934  24.5933922  34.3871276  15.3095311
  24.2908607  34.8349760  14.7417244  31.1365029  30.1891104  12.2116964
  31.6076207  30.9031367  12.3806949  31.4725207  29.5889854  12.7476834
  31.2560144  30.2062568  12.3149340  28.0534524  14.9618575  19.1675059
  28.1862429  14.1649568  19.4956034  28.4379676  15.4884978  19.7473335
  28.1290852  14.9218491  19.3018562  31.7738975  29.9809038  18.9744657
  31.2259921  29.3566922  18.7064722  32.2352004  30.1703310  18.2588736
  31.7606184  29.9168088  18.8295088  31.1266879  11.8848901  15.7656152
  30.3212842  11.7746631  16.0823991  30.9973614  11.9861357  14.9086018
  30.9887012  11.8832571  15.6864193  34.5832839  18.0494393  16.3595849
  33.9995828  18.5503599  15.9473416  34.9037133  17.5423949  15.7260172
  34.5446015  18.0486228  16.2054356  25.7122970  14.9577750  17.4152953
  26.2567383  14.6168877  18.0057294  25.7659906  15.8163211  17.5574237
  25.8012090  15.0333009  17.5234826  21.5253529  28.7194166  14.2891761
  22.1298387  28.6790000  13.6605581  21.3180842  29.5665318  14.3195816
  21.5842426  28.8382168  14.2007877  31.3397301  30.9860111  15.5053998
  32.1595675  30.8423077  15.7670293  31.0591379  31.6106310  16.0470436
  31.4194045  31.0570463  15.6241937  16.7604811  27.7028783  14.1590684
  16.6629089  26.8925055  14.4680740  17.5433681  27.6820577  13.7736952
  16.8620948  27.5795874  14.1477547  47.8110952  38.6424963   8.4696874
  47.7804956  39.4969599   8.6415144  48.4092300  38.3420255   9.0283018
  47.8948110  38.7241459   8.5771677  41.0110636  37.7300614  13.2249805
  40.1548532  37.8909112  13.2758922  41.0578290  36.8592678  13.2454866
  40.8909748  37.6251416  13.2355871  35.3951776  47.2663332   8.9887036
  34.6434676  46.8878870   8.7603081  35.8437788  47.2981765   8.2405847
  35.3501443  47.2148939   8.8444539  40.8476736  47.6888701   4.4172583
  40.5128105  48.3665623   3.9816806  41.3603607  47.2994012   3.8289455
  40.8742317  47.7313279   4.2659375  40.3881027  49.6402970  10.3583695
  40.7720407  50.2089868   9.8188470  40.3240169  48.9152480   9.8789511
  40.4354455  49.6178433  10.2077558  43.8562458  39.7892658  15.8681456
  44.4018418  40.4677744  15.9275426  43.7979334  39.6480119  15.0083038
  43.9278372  39.8684659  15.7493517  36.9736532  47.2781724  11.2549809
  37.0746895  46.4682078  11.5646937  36.3778278  47.1838670  10.6249487
  36.9009071  47.1446752  11.2076047  45.6327526  41.2177265   6.7415184
  45.5167052  41.9684951   7.1707322  46.4283413  40.9601218   6.9911271
  45.7332116  41.2912112   6.8419276  36.8137272  52.1959313  12.6564665
  37.4574727  52.6372477  13.0460823  37.1393528  51.3912739  12.5694924
  36.9569101  52.1424508  12.7010142  30.1701577  43.3002010  10.8802143
  29.9351761  42.4669663  10.7734411  30.3087217  43.5806676  10.0663343
  30.1557239  43.2185514  10.7444497  32.4691664  35.4687741  13.7786450
  31.8496696  34.8780388  13.6096465  32.3675528  36.0599176  13.1450773
  32.3629340  35.4691823  13.6591440  37.5157852  45.2071288   8.0284527
  37.8373693  45.7476495   7.4245835  38.1629948  44.6368059   8.1606816
  37.6583907  45.2030463   7.9591562  39.5659560  37.2087283   8.1118913
  40.2639724  37.3875410   8.6040377  39.8811892  36.6857622   7.4889303
  39.7154897  37.1581055   8.0920923  32.1960797  39.0140023  16.0230019
  32.0719494  39.6002468  16.6579838  32.8479082  38.5200218  16.3242294
  32.2734446  39.0278827  16.1615948  39.7547495  43.5957728   8.0998705
  40.1941131  42.9874828   8.5453478  39.6052158  43.2165101   7.3284170
  39.7968961  43.4496199   8.0517872  37.2219138  42.1901740  15.3017530
  37.8668141  41.6974183  14.9828479  37.4620915  42.3326526  16.1283609
  37.3529723  42.1379182  15.3767063  39.7605229  45.0356645  14.9524423
  40.0428472  44.2408051  14.7311179  40.4891390  45.5137233  14.9729484
  39.9094793  44.9891242  14.9227438  37.7386423  32.5779679  12.1940188
  37.4089753  33.0290823  11.5243887  37.0631425  32.4995843  12.7413194
  37.5896860  32.6330815  12.1763411  43.3556832  41.9484909   5.0529474
  43.2708127  42.8045876   5.1979043  43.8441215  41.6729233   5.7211633
  43.4145729  42.0342230   5.1731556  44.9462831  28.5665202  10.4389799
  44.6316272  29.2568681  10.8710221  44.4289773  28.5109985   9.7375299
  44.8227302  28.6600091  10.3986748  44.2875265  38.5669703   6.5527209
  43.7586736  38.7829337   7.2124515  44.8100285  39.2605842   6.4728178
  44.2863718  38.7012840   6.6382808  49.7423318  44.1416008  11.9260254
  48.9121021  44.3526651  12.0893670  49.6932570  43.3153062  11.6502537
  49.6130053  44.0505614  11.9097619  36.1774873  42.4632920   5.3534677
  35.5932088  42.9682951   5.7600541  35.7744968  42.2375307   4.6131269
  36.0314177  42.5041168   5.3039702  31.7318901  48.1787681  12.1558349
  31.2486480  48.9038171  12.1317932  32.5442220  48.4763811  12.2668506
  31.7809649  48.3290035  12.1685628  37.8033055  46.9719862  14.7608163
  37.2859997  46.6127277  14.1569471  38.5007447  46.4482036  14.7714229
  37.8298637  46.8417550  14.6738422  39.0267107  46.7045836  19.7041998
  38.4637942  46.2918446  20.2281660  39.7888131  46.6298741  20.1235142
  39.0561556  46.6323236  19.8434999  40.6352087  38.7098572   3.8303598
  40.8748091  38.9176556   3.0178941  40.9567928  37.9056081   3.9392542
  40.7189245  38.6212673   3.7264151  35.9442377  30.6391968   7.6763136
  36.6988345  31.0070285   7.4380186  35.7669912  31.0131522   8.4442315
  36.0296856  30.7490156   7.7548024  34.5863099  48.6943857  12.3078628
  35.2883678  48.1795846  12.3651385  34.5060582  49.0218008  13.1125504
  34.6786859  48.6658083  12.4351421  49.2377276  36.7886408  15.7210675
  48.4005697  36.8588595  15.9558269  49.2065507  36.7910903  14.8484977
  49.1095559  36.7996635  15.6270223  35.6342005  38.9319444  21.4359044
  35.8062509  38.8225339  22.2844325  36.1711363  39.5773849  21.1990236
  35.7387009  39.0111446  21.5264140  34.2999442  33.0462287   4.3741249
  34.1175015  33.2634168   3.5482241  35.1625055  33.1601299   4.4299863
  34.4004032  33.0952185   4.2595736  33.9113874  44.8850209  11.8164237
  34.7502773  45.1173142  11.8637998  33.9425643  44.0154520  11.7471272
  34.0395592  44.7907155  11.8128881  34.5366577  45.3051084  16.1177542
  35.0764802  45.1622215  16.7880914  33.8536523  45.7047835  16.4861568
  34.5158731  45.3430755  16.2711964  39.9799161  30.0488697   7.4090272
  40.7085322  29.8704652   6.9628429  40.0694054  30.8906777   7.6197451
  40.1005823  30.1472576   7.3743790  43.9607462  40.9842085  11.3122566
  44.7164977  41.4173599  11.3511475  44.0669786  40.3346855  11.8857202
  44.0877633  40.9519569  11.4020592  46.9987633  44.8115362  12.0624969
  46.5622865  44.8152104  12.8183941  46.6650549  45.4920861  11.6304547
  46.8850253  44.9127818  12.1105802  29.9403722  41.5251375  16.2711964
  29.6742137  40.7090492  16.4302954  29.9542286  41.5704531  15.4007479
  29.9028444  41.4108280  16.1665446  46.9185116  31.8529190  14.3054397
  47.5611024  31.9227294  14.8916313  47.1708137  31.1858413  13.8033939
  47.0507248  31.7655539  14.3181677  33.8461469  36.3236459   2.8863722
  33.1319646  36.0374639   3.2986154  34.3305438  36.6633085   3.5270109
  33.8120832  36.3318109   3.0419357  34.6902328  35.0629753  18.9178971
  33.9974125  34.5926733  19.1639703  35.3062656  34.8368058  19.4920678
  34.6786858  34.9596885  19.0388124  41.7287100  48.7633797  17.0334575
  40.9302346  48.5233297  17.2908444  42.1773111  48.8148190  17.7801623
  41.6761711  48.7356188  17.1819500  50.1331979  41.5296282  10.9544607
  50.7948413  40.9686950  10.8540515  49.4923391  41.0348313  11.2797298
  50.1360847  41.3732691  10.9876947  41.0208787  44.8266413   3.2625530
  41.4359935  44.4951437   2.5710026  40.1900717  44.5935316   3.1345667
  40.9596796  44.7437669   3.1416377  30.3497136  42.3110154  13.5523708
  30.1672709  42.2857040  12.6996000  31.0846805  42.7809092  13.5912617
  30.4311200  42.3771517  13.4321626  46.4196810  42.5461664  10.6956595
  46.6552399  42.6906863   9.8683446  46.5686374  43.3104072  11.0888109
  46.4762613  42.6800719  10.6320199  33.4142887  39.0295157  20.0605816
  34.1382860  39.0148188  20.5470711  33.5159024  39.7390512  19.5627785
  33.5361096  39.1319860  20.0584603  48.2487267  41.3863330   8.5326199
  48.5795484  41.9190970   7.9266294  48.8220355  41.4402218   9.1888150
  48.3820946  41.4732899   8.5403981  43.4619156  39.2328233   9.2149779
  43.5566010  39.9717527   9.6689405  42.8377999  38.8045708   9.6484344
  43.3828186  39.2789554   9.3457927  41.7171630  42.4114446  19.8640060
  42.2910491  41.7741690  20.0188624  41.6386433  42.4118528  18.9949718
  41.7904865  42.3179557  19.7586471  30.3168046  39.1903655  13.7022774
  30.8941549  39.0540106  14.3415020  29.6182108  38.7339439  13.9568359
  30.2989067  39.1025921  13.8345064  43.7142177  41.0776973   2.4486731
  43.6322340  41.1479160   3.3141718  44.3521898  41.6406717   2.2570472
  43.7962014  41.1715944   2.5476681  37.0735348  40.8437711  11.9161258
  36.8154593  40.0109446  11.8892557  37.1283831  41.0695324  11.0753758
  37.0435126  40.7535482  11.7881394  42.1536398  32.9466161  12.0165350
  41.4492725  32.4575347  12.1749269  42.2021373  32.9588636  11.1453795
  42.0566450  32.8755809  11.9104690  36.0470060  38.3975473  12.4026152
  35.4719652  38.5567642  13.0390113  35.6705737  37.7610882  11.9394603
  35.9072873  38.3273286  12.4280711  39.7143349  36.8698822  17.2618531
  39.3257782  36.4453040  16.6070722  39.0498047  37.1180972  17.7695557
  39.5590277  36.8437544  17.2406399  49.3566618  36.6273827  10.0366361
  49.1003183  35.8153769   9.8464244  50.1995932  36.6351394   9.8096548
  49.4432644  36.5085825   9.9751178  25.7926879  38.0415548  10.4170593
  25.8787131  37.6647416  11.1984123  26.4202677  37.6675994   9.9390551
  25.8983430  37.9301030  10.4616070  43.5369711  30.5673451  14.7742515
  43.9180222  29.8851622  15.1610389  42.7332995  30.2783053  14.5918180
  43.4746172  30.4240500  14.8046571  40.8182287  41.0997427   5.4595338
  41.6322926  41.3912320   5.3478109  40.7541429  40.4457289   4.8853631
  40.9285026  41.0462622   5.3584175  47.0391777  43.7823423  19.8724913
  46.8030415  42.9511488  19.7536974  47.6835006  43.7309030  20.4579758
  47.0986448  43.6521111  19.9410807  36.6890196  44.5718945  10.5867650
  37.3264143  44.3330692  11.1319443  37.1145267  44.7756103   9.8520810
  36.8466362  44.5669955  10.5584807  31.3802838  46.8107281  14.4701954
  31.4206983  47.0822132  13.6421733  31.9397362  47.3349189  14.8859742
  31.4686184  46.9283036  14.4093842  37.3293011  39.7921234   4.9242539
  37.7138163  39.5728941   5.6759084  37.0804631  40.6184180   5.0543616
  37.3495083  39.8819381   5.0543616  48.0628198  43.5667872  15.9353208
  47.7574015  44.2995929  16.2966524  47.3434414  43.1605801  15.6545994
  47.9115540  43.6149605  15.9466345  39.0711668  45.0491367  12.2661436
  39.1450676  44.8866539  13.1203286  39.8881174  45.2381557  12.0221918
  39.2028026  45.0528110  12.3559462  53.7629990  40.2060873  15.2621552
  53.6954491  40.2256832  14.3924139  53.7485653  41.0491200  15.4877223
  53.7508747  40.3334607  15.1674029  32.8317424  45.3949230   9.2955880
  32.0055542  45.6410967   9.1690158  32.8929415  45.3161311  10.1617938
  32.7191591  45.4194179   9.4044824  35.0493448  31.4618171  10.2551320
  34.1815873  31.5340770  10.3208929  35.3368652  32.2640250  10.4439295
  34.9633196  31.5912318  10.2926086  44.1726337  31.6096030  18.5862642
  44.9179929  31.4205841  18.1726067  43.7563641  32.1354268  18.0276498
  44.2211311  31.6598176  18.4427215  37.6116253  48.0126110   6.9974910
  37.9014552  47.6215092   6.2734136  38.3419734  48.1942815   7.4380185
  37.7623137  47.9819924   6.9557717  51.5488608  38.9805259  13.5368147
  52.0996529  38.3473328  13.7765239  51.5332723  39.5120652  14.2283651
  51.6273804  38.9654207  13.6747005  38.2010998  42.8143856  18.0828040
  37.7022692  43.5259624  18.1612928  39.0111223  43.1344523  18.0446202
  38.2467105  42.9670705  18.0884609  35.5522169  49.9893493  10.0635059
  35.3322464  49.6990847  10.8561726  35.3316691  49.3308448   9.5352972
  35.4869763  49.8493201  10.1023968  34.4639116  42.0766809  12.3290761
  34.1752365  41.4504280  12.8636488  35.3322464  42.0187097  12.3955441
  34.5499368  41.9754353  12.4181715  45.2517014  37.2201593  12.6472743
  44.9081780  36.4991928  12.9979992  45.3510056  37.0115444  11.8051101
  45.2159057  37.0825796  12.5744423  37.7190125  51.3622883   8.8465752
  38.3714183  50.8299325   9.0756778  37.0215733  51.0091535   9.2333626
  37.7120843  51.2312406   8.9377919  34.6671389  43.7162060   8.2533126
  35.4217357  44.0975099   8.4668589  34.0742002  44.1673204   8.7079822
  34.6908103  43.8390888   8.3516004  45.7130043  43.6827297   8.1896731
  46.2788076  44.3420506   8.1055274  45.0657946  44.0276995   8.6613133
  45.7008799  43.8309238   8.2469487  37.1278056  35.6724901  23.3790338
  36.3177832  35.9782680  23.2680181  37.6052743  36.3930483  23.4942922
  37.0781535  35.8239502  23.3797409  35.9869616  44.8870622  13.6273241
  35.4650370  45.0270913  14.3125106  36.3743636  44.1281286  13.8175359
  35.9673317  44.7956145  13.7574318  32.9760800  34.9376430   7.6968196
  32.6885596  34.5677701   6.9600143  33.6631268  35.4071286   7.4351901
  33.0349697  34.9523400   7.5483272  42.1836621  46.6266081   7.6133810
  41.9423297  45.8933941   7.2060875  42.3637954  47.1752938   6.9600143
  42.1744245  46.5988472   7.4564033  37.4135942  41.9174641   9.0254732
  37.2178724  42.5249375   8.4315035  37.6370287  41.2242585   8.5446406
  37.4170583  41.9052166   8.8670813  35.8114472  38.8029378   9.1435601
  36.5337124  38.9670537   8.6839407  35.3322464  39.5239043   9.0374941
  35.8478202  38.9327608   9.0601215  43.7707979  35.1393177  14.5232286
  42.9319080  35.1654456  14.2870549  43.8412347  35.7863913  15.1037632
  43.6576373  35.2389303  14.5741403  33.4622088  41.2087451  18.2489741
  33.9743185  41.4871704  17.5998500  33.1758431  41.9476745  18.6152554
  33.4956951  41.3589805  18.2079619  42.2177257  32.0378554   9.2559902
  42.9203610  31.8386303   8.7779860  41.9521446  31.2654497   9.5628745
  42.2823890  31.8941520   9.2305343  47.6465503  40.3461164  11.8093527
  47.5599478  40.5016590  12.6628306  47.1915983  40.9899240  11.4352933
  47.5668760  40.4636919  11.8800634  30.5488995  35.7157643   8.5453477
  30.6505131  36.5183804   8.8734453  31.3444881  35.5144979   8.2476558
  30.6816900  35.8043542   8.5488832  36.9805814  33.3013839  18.3090782
  36.7889011  33.3168974  19.1590206  37.8304410  33.4977514  18.2857437
  37.0781536  33.3328191  18.4314077  31.3652727  35.8304821  16.2874599
  31.2238219  34.9788762  16.4119107  31.6493290  35.8733482  15.4636805
  31.3860573  35.7104571  16.1842223  41.5191319  37.6671911  10.4319087
  41.2726033  37.5867662  11.2655876  41.8476442  36.8825379  10.2381614
  41.5312563  37.5398176  10.5266610  45.4139368  44.3755270  14.2205868
  45.2753727  45.0736316  14.7254611  44.6339366  44.2203927  13.8642050
  45.2782595  44.4555437  14.2432142  43.7517453  40.6751646  20.4728250
  43.7465492  39.8031462  20.4770676  44.4578447  40.8739815  19.9997706
  43.8562457  40.5755520  20.4035285  37.4788346  40.4028630  19.8442070
  37.6231722  40.9829838  19.2085180  37.8263995  40.7804926  20.5491925
  37.5515808  40.5449334  19.8541065  39.6508264  39.6018798  17.6267202
  38.9031578  39.7949812  17.2215480  39.8049789  38.7764018  17.3891323
  39.5630691  39.5083910  17.5312607  36.5516101  48.5931402  16.7103097
  36.7005665  48.0334317  16.0576501  37.3316103  48.6723403  17.0935616
  36.6890195  48.5216967  16.6700046  46.9092741  43.7333524   4.9822367
  46.5299550  42.9470662   4.9751657  46.2458986  44.2820381   4.8394012
  46.7551216  43.6978348   4.9603164  39.0769402  48.7646044  17.9887588
  39.0013073  48.0954855  18.5438376  39.0059261  49.4663833  18.5028254
  39.0550009  48.7690952  18.1464436  39.8910041  33.4969349  18.5162605
  40.3482655  34.2293323  18.6435398  39.9666370  33.0735814  19.2749861
  39.9701011  33.5426587  18.6463682  32.1343032  33.7435169  19.6052049
  31.5985221  33.1315527  19.9212816  32.1960797  34.3183305  20.2585716
  32.0638665  33.7382096  19.7487476  44.3637367  26.6759224  12.3856448
  44.4820935  27.1335687  11.6523751  44.1899542  25.8704485  12.0992666
  44.3556538  26.6252996  12.2357382  39.7339649  47.2847043   8.8211194
  40.4989540  47.0156687   8.4993858  39.6317739  46.7997054   9.5381256
  39.8321144  47.1736608   8.8791021  37.7692419  35.4871453  15.3604429
  36.9788493  35.3062913  15.6821765  38.1653042  34.7098405  15.3434724
  37.7109295  35.3458914  15.4056978  42.2558309  44.3159227   0.8011143
  43.0231295  44.3759352   0.3916995  41.8089618  43.7439669   0.3167462
  42.3031737  44.2395803   0.6688853  43.1536105  43.1213883  13.0863875
  42.4781107  42.8899115  13.5877262  43.1628481  42.5135066  12.4605980
  43.0554610  42.9972808  13.0680028  40.2830249  37.9631712  19.8427928
  40.2189390  38.8241668  19.7148065  40.4227437  37.6463705  19.0423480
  40.2945719  38.0431879  19.7056141  45.1552840  45.9779015   5.3174053
  45.2372677  46.7846001   4.9935504  45.6402582  45.9974975   6.0414827
  45.2389997  46.0999678   5.3760952  38.9649343  40.6563851  13.9844131
  38.5411592  40.8568350  13.2483150  38.7894198  39.8092699  14.0968431
  38.8760223  40.5612633  13.8917821  34.2531788  41.1515903   9.4172104
  34.4096407  41.0862705  10.2728096  34.5932381  41.9264455   9.2050783
  34.3265023  41.2565101   9.5126698  40.7910932  40.5273786   8.2865467
  41.3326478  40.0244167   8.7504088  41.1057491  40.4738981   7.4754952
  40.9175330  40.4453207   8.2349279  38.9597382  45.9191138   5.5705495
  39.0290202  45.0605676   5.7098495  39.7385837  46.1363019   5.2424520
  39.0850232  45.8244002   5.5422652  41.9400202  35.4210091  18.3387767
  42.1542171  34.7821005  17.7851121  41.3234101  35.8655915  17.9095629
  41.8805531  35.3920234  18.1938199  43.3504870  48.3428839   9.7841988
  42.9584661  48.0395554   9.0664854  43.5057942  49.1797929   9.5946942
  43.3158460  48.4212676   9.6498485  30.8266049  38.3350853   9.7332871
  31.2065014  38.7535398   9.0693138  30.2521414  38.9164309  10.0401714
  30.7977374  38.4828712   9.6809612  44.1039290  37.0299156  19.2771075
  43.2915972  36.7225046  19.3584247  44.5629224  36.5498156  19.8413787
  44.0519675  36.9135648  19.3725669  43.5144544  44.9078828   9.7248019
  43.1559199  45.0793471  10.5012051  43.0283255  45.3692034   9.1676017
  43.3903241  45.0017799   9.7573288  41.3314930  28.5310026  13.3275110
  40.4608488  28.5048748  13.2808420  41.5855272  28.3587219  12.5100956
  41.2408491  28.5020170  13.1995247  38.3032910  40.5877993   2.2648253
  38.5925435  41.3642876   2.5391828  38.3904709  40.0766725   2.9662753
  38.3587166  40.6269912   2.4090751  38.3564071  30.5416255  14.7848581
  37.8402560  29.8496446  14.9100160  37.7958000  31.2087032  14.7311179
  38.1970584  30.5379512  14.7954647  40.4256304  31.0809215  16.6141433
  40.0388058  31.1058246  17.3954963  39.9389242  30.5150894  16.1615950
  40.2968813  31.0004966  16.6629337  46.4006284  37.6471870  15.2381135
  45.9733892  37.5598218  14.4829235  45.7632337  37.7549645  15.8235979
  46.2435891  37.6504530  15.2126577  40.0913446  27.9676200  18.9051693
  40.7206564  28.5036500  18.6272763  40.2599309  27.8753559  19.7565259
  40.2091241  28.0337563  18.9900221  39.8927361  32.7547395  21.1778105
  40.7200790  32.4832544  21.2336719  39.9135207  33.5508237  21.5341923
  40.0180211  32.8327149  21.2393288  44.7303540  46.4902532  17.3120576
  45.5195919  46.1391597  17.4322658  44.9047138  47.3038921  17.0497210
  44.8723822  46.5588389  17.2908444  34.4696851  39.9011258  14.3648365
  33.6284857  39.8015132  14.5727259  34.6786859  40.6706738  14.7162686
  34.3761543  40.0003301  14.4475680  31.9472418  37.5230795  12.1933116
  31.5529116  37.5973807  11.4183226  31.3912535  37.9088741  12.7441478
  31.8075230  37.5912569  12.1600776  43.5837365  30.5012089  11.8736995
  43.7886958  30.4334397  12.7193992  43.2563789  31.3070910  11.8058172
  43.5652613  30.6098029  11.9896650  38.2813516  37.8292657  13.6145963
  37.9776653  37.2748645  14.2156371  37.5792937  38.0084867  13.1273997
  38.1329726  37.7737439  13.6315668  37.3379613  35.1393177   8.1790665
  37.6139347  34.4212089   7.7668232  37.9378282  35.7378097   7.9711771
  37.4672877  35.1213548   8.0871426  36.3431867  45.0442378  18.3218061
  36.2352222  45.0544440  19.1880119  36.5527648  45.8697158  18.1323014
  36.3581978  45.1683453  18.4222152  46.8371052  31.0543853  11.3539760
  46.2245366  31.5414255  11.7393492  46.9335227  30.3787344  11.8977412
  46.7608950  31.0262162  11.4918619  40.8390133  32.8106694   6.4537260
  41.2933880  32.9817255   7.1785104  41.3130179  32.1974805   6.0535035
  40.9758453  32.7457579   6.5011021  34.3605659  42.2955020  15.7839998
  33.7693592  42.9364518  15.7543013  35.1226682  42.7192637  15.7571298
  34.3853919  42.4530859  15.7755145  34.7566282  33.4557018  16.4508016
  35.2167763  33.5295947  17.1883140  34.8022388  34.2538272  16.1007837
  34.8316837  33.5851165  16.5080772  36.4049631  34.1223713  21.0180043
  36.0135196  33.4757060  21.4535821  36.5735494  34.7135148  21.6374298
  36.3720542  34.1137981  21.1742749  50.4796080  42.1260790  16.7817276
  50.5379204  42.5747439  17.5277253  49.8462548  42.5359603  16.3447356
  50.3947375  42.2534525  16.8269825  44.1195175  47.7464332  13.2172023
  43.9214864  48.2355146  12.5228234  43.4982886  47.9505573  13.7956156
  43.9982739  47.8480870  13.1995246  38.1803153  39.5149229   7.5582267
  38.9245198  39.9023505   7.7965217  38.3263849  38.6706654   7.7222755
  38.3113738  39.4479701   7.6176237  40.0982729  31.3099487  12.5914128
  39.2518774  31.4822295  12.4655478  40.0953861  30.5048831  12.9279957
  39.9729879  31.2160516  12.6225255  41.1681029  35.0874702  13.4576186
  40.6940983  34.5616464  13.9681497  41.5399165  34.5404175  12.8891048
  41.1530918  34.9290699  13.4491333  31.5454059  37.0846209  18.8259732
  32.4079672  36.9841918  18.7397062  31.2145842  36.5040918  18.2645304
  31.6239256  36.9837835  18.7305138  47.4317760  40.1477078  14.8682967
  47.1915983  39.3083493  14.8725393  47.9109767  40.2277244  15.5923740
  47.4669943  40.0358477  14.9757769  43.0964529  35.9811256   6.5201940
  42.5687547  36.0640000   5.8307649  43.5560237  36.7229128   6.5166585
  43.0866379  36.1031919   6.4176635  49.4322947  36.9278535  12.8212226
  49.1932717  36.8874369  11.9833011  49.5956848  37.7749687  12.9477947
  49.4213250  37.0470620  12.7165708  46.0368977  41.3128484  18.7517271
  46.7603176  40.8601010  18.5728291  45.7718939  41.5933150  17.9689599
  46.1050250  41.2879453  18.6095986  34.9055845  35.9088658  15.4870150
  34.2808915  35.9207050  14.8796103  34.5701440  36.3848833  16.1361390
  34.7641337  35.9807175  15.4926719  35.0897594  34.2513776   1.5442835
  34.7410398  34.9033501   2.0074385  34.6094040  34.2370889   0.8166706
  34.9667838  34.3456830   1.5053927  31.6181521  43.9689118  16.9273915
  31.0881445  43.2781557  16.9768889  31.8906614  43.9599303  16.0986623
  31.5806243  43.8656250  16.8121330  42.6501611  44.5514820   5.6511597
  43.3735810  45.0172933   5.5076170  42.2102202  44.6188430   4.9009194
  42.6917304  44.6298657   5.5196379  41.8187766  41.4112362  16.9012286
  41.2044760  40.8670413  17.1960921  42.3355051  40.8976599  16.4218102
  41.8043429  41.2548771  16.8736515  41.0584064  42.4816632  14.6356585
  40.6311672  41.8566351  14.2022020  41.0509008  42.1991554  15.4615592
  40.9943205  42.3469413  14.6936412  34.1746591  37.5181805  17.7045019
  34.3340077  36.7625130  18.1096741  33.9939484  38.0672745  18.3585756
  34.1711950  37.4875619  17.8607725  42.1166894  29.6843041  18.2595808
  41.6207455  29.8806715  17.5687375  42.8735956  30.0835709  18.0884610
  42.1553718  29.7720775  18.1315945  39.3869773  33.3585387  14.8499119
  39.4112260  32.8245499  14.1611899  39.6381247  32.8502696  15.5124709
  39.4279692  33.2046291  14.8463763  26.8977363  40.6416882  14.2842263
  26.7920812  40.5963726  13.4194347  26.1477583  40.9870662  14.5656548
  26.7712966  40.6857790  14.1979593  35.6671095  32.0856205  14.2304863
  35.7069467  32.5865412  14.9439570  34.8420760  32.1766599  13.9610786
  35.5510621  32.1738021  14.2955401  37.8500708  41.6516945  22.3325158
  36.9996339  41.7888659  22.4682803  38.0128836  40.9180723  22.7772859
  37.7484572  41.5631046  22.4180757  37.0885459  38.6016715  16.5278762
  36.2577389  38.7690533  16.3214010  37.0336976  38.2252666  17.3127647
  36.9574874  38.5706446  16.6127290  35.4621503  36.8772306   7.0568880
  35.6024464  37.3744771   7.7597521  35.9604036  36.1758601   7.1983093
  35.5562584  36.8474285   7.1820459  35.4921725  37.7439418   4.3861457
  36.1266805  38.3399843   4.3210918  35.5747336  37.4442875   5.2007327
  35.5978276  37.7880326   4.4964543  48.4704291  40.2754895  17.2547821
  49.0622131  40.9152146  17.2866019  48.9063285  39.5777932  17.5439888
  48.6222722  40.2673245  17.3028653  37.0700708  33.6753393   4.3606899
  37.3916549  33.1956475   3.7066161  37.3327652  34.4853039   4.1697710
  37.1566733  33.7243291   4.2362391  40.2997681  44.6972267  17.8805715
  39.7922772  45.2508114  18.3246345  40.0024327  44.7580557  17.0624489
  40.1802566  44.7878578  17.8254171  42.4659863  33.0625587  16.7230378
  42.8914934  32.6098113  16.1113904  41.8516856  32.5085658  16.9995165
  42.4388508  32.9139563  16.6735403  31.9974713  39.9407258   7.6551003
  32.5066942  40.5371766   8.0362308  32.4708985  39.6733232   6.9727422
  32.1418089  39.9893074   7.6105525  42.9105461  48.6135525   5.8109658
  42.1934771  48.4396387   5.3456896  43.5612199  48.3788097   5.2785144
  42.9007312  48.5531317   5.6638876  40.9054086  29.5340687  10.1320955
  40.2622404  29.3838333  10.7006093  40.5653493  29.2883032   9.3670059
  40.7599163  29.4752809  10.1023970  45.4953432  37.4900114   9.5550963
  44.8244622  38.0329816   9.4264029  46.1893183  37.9594969   9.3132658
  45.4982300  37.6398385   9.5006491  39.5440166  49.6296826  14.7862722
  39.3205820  48.8715655  15.1546748  39.0550009  49.6594847  14.0643161
  39.4383615  49.5219050  14.7339463  45.6581560  33.9455997  12.4641336
  46.0109170  33.5185720  13.1387135  44.7996361  33.8606841  12.5942413
  45.5831004  33.8700738  12.5836347  34.3565245  36.5763517  10.5224183
  33.6377234  36.9927649  10.7897047  34.7277607  37.1417756   9.9715821
  34.3057176  36.7212798  10.4806990  43.6564826  37.2091366  16.4126179
  43.6362753  37.0274661  17.2660958  43.7044026  38.0803384  16.3885762
  43.6599467  37.3107904  16.5349473  41.6011155  43.7978558  22.3374655
  41.5607010  43.1528235  21.7519811  42.4134474  43.7415175  22.6500067
  41.7154309  43.6937525  22.2971604  38.1918623  49.8497284  12.2399806
  37.7779022  49.1871414  11.8503648  38.8765997  49.9975142  11.7195500
  38.2316995  49.7737942  12.1056303  41.5583917  49.0087369  12.9923423
  41.1600200  49.1189639  12.2244243  40.9435137  49.2169435  13.5749983
  41.4082806  49.0560937  12.9654722  40.1311819  35.6161517   5.8597562
  39.5376658  35.9378513   5.3082130  40.1687097  34.7702612   5.6518669
  40.0486208  35.5385845   5.7480334  47.0905620  29.0674409  13.3925649
  46.5836484  28.3603549  13.3246826  47.8873054  28.7367598  13.5226726
  47.1332859  28.9147560  13.4024644  43.0069636  35.5741021   9.2899313
  42.7783329  35.5973723   8.4477671  43.2667712  34.7498488   9.4094323
  43.0115824  35.4557101   9.1824510  37.2888864  37.4275494  18.8924413
  36.7767767  36.8196677  19.2509444  37.1168360  38.1432087  19.3598389
  37.1878501  37.4438794  19.0140637  36.0614398  34.1117568  10.5853508
  36.5371764  34.4734647   9.9503690  35.5602998  34.7674035  10.8653651
  36.0579757  34.2611756  10.5330249  49.2925760  43.5839336   6.3766513
  49.6759366  44.3330692   6.6064610  48.4969873  43.8305155   6.1178502
  49.2319542  43.7309029   6.3724087  41.1657934  35.3499739  21.3326668
  41.7229365  35.1213548  20.7005134  40.8418999  36.1105405  21.0561881
  41.2004345  35.4283576  21.1983166  29.0356643  38.7759935  16.8015265
  28.4883363  38.1060581  16.9196133  29.8249021  38.4089783  16.8658732
  29.0708827  38.6224922  16.8283965  38.8841052  38.4367392  22.2978676
  39.6352379  38.7519069  22.6118230  39.0763628  38.2346563  21.4712597
  39.0232466  38.4534774  22.2222071  38.1041051  36.2558767   3.9526892
  38.4840016  36.2738397   3.1678007  37.3633647  36.7012756   3.8317740
  38.0509889  36.3240542   3.8190461  45.7326342  34.5640959   9.5402471
  45.7320568  34.4089615  10.3986747  45.5282522  35.4103946   9.4843857
  45.7026120  34.6661579   9.6590410  27.7943613  37.9880743  13.9561288
  27.6165374  37.5357352  14.6816203  27.5062635  38.7906904  14.1399765
  27.7256566  38.0403301  14.0904790  43.4567194  39.2438460  13.1938678
  43.9520859  38.5261455  13.1542698  42.6466970  38.9409258  13.0793165
  43.4111087  39.0936107  13.1712404  38.9025805  43.0936274   5.3435682
  38.0937128  42.7702947   5.2968992  39.4100714  42.3869496   5.2763931
  38.8575472  42.9417590   5.3265977  29.5316083  40.5208467  11.0683047
  28.6661602  40.5094157  10.9565818  29.6314899  40.3338690  11.9154186
  29.4190250  40.4914528  11.1771991  45.5219013  41.9942148  15.8815807
  45.9474084  41.4716570  15.3286232  45.1575933  42.5922985  15.3604430
  45.5305615  42.0052375  15.7224816  35.1573093  50.2906365  14.6413152
  35.4719652  51.1042754  14.6490934  35.5666506  49.9056584  15.3095311
  35.2641191  50.3535068  14.7417244  42.1097612  45.7076412  12.2116964
  42.5808790  46.4216675  12.3806949  42.4457791  45.1075162  12.7476834
  42.2292727  45.7247876  12.3149340  39.0267107  30.4803883  19.1675059
  39.1595013  29.6834876  19.4956034  39.4112260  31.0070286  19.7473335
  39.1023436  30.4403799  19.3018562  42.7471559  45.4994346  18.9744657
  42.1992505  44.8752230  18.7064722  43.2084587  45.6888618  18.2588736
  42.7338768  45.4353396  18.8295088  42.0999462  27.4034209  15.7656152
  41.2945426  27.2931938  16.0823991  41.9706198  27.5046664  14.9086018
  41.9619595  27.4017879  15.6864193  45.5565423  33.5679701  16.3595849
  44.9728412  34.0688907  15.9473416  45.8769717  33.0609257  15.7260172
  45.5178598  33.5671536  16.2054356  38.0960222  32.4820296   6.6354524
  38.9175916  32.6518608   6.3936219  37.6329873  32.6367556   5.9120821
  38.1491384  32.5302028   6.4926168  36.6855554  30.4763058  17.4152953
  37.2299967  30.1354185  18.0057294  36.7392490  31.3348519  17.5574237
  36.7744673  30.5518317  17.5234826  32.4986113  44.2379474  14.2891761
  33.1030970  44.1975308  13.6605581  32.2913425  45.0850626  14.3195816
  32.5575010  44.3567476  14.2007877  42.3129885  46.5045419  15.5053998
  43.1328259  46.3608385  15.7670293  42.0323962  47.1291618  16.0470436
  42.3926628  46.5755771  15.6241937  27.7337395  43.2214091  14.1590684
  27.6361673  42.4110363  14.4680740  28.5166265  43.2005885  13.7736952
  27.8353531  43.0981181  14.1477547  58.7843535  54.1610271   8.4696874
  58.7537540  55.0154907   8.6415144  59.3824884  53.8605563   9.0283018
  58.8680693  54.2426767   8.5771677  51.9843220  53.2485922  13.2249805
  51.1281116  53.4094420  13.2758922  52.0310874  52.3777986  13.2454866
  51.8642332  53.1436724  13.2355871  46.3684360  62.7848640   8.9887036
  45.6167259  62.4064178   8.7603081  46.8170371  62.8167073   8.2405847
  46.3234027  62.7334247   8.8444539  55.2936937  59.5172447  22.8310261
  56.0003704  59.0224478  22.9597195  55.4824872  59.9581529  22.1012919
  55.4264842  59.5090798  22.7419306  54.8295041  55.3077966  15.8681456
  55.3751001  55.9863052  15.9275426  54.7711917  55.1665426  15.0083038
  54.9010955  55.3869967  15.7493517  47.9469116  62.7967032  11.2549809
  48.0479479  61.9867386  11.5646937  47.3510861  62.7023978  10.6249487
  47.8741655  62.6632060  11.2076047  47.7869856  67.7144621  12.6564665
  48.4307311  68.1557785  13.0460823  48.1126111  66.9098047  12.5694924
  47.9301684  67.6609816  12.7010142  41.1434160  58.8187318  10.8802143
  40.9084345  57.9854971  10.7734411  41.2819801  59.0991984  10.0663343
  41.1289823  58.7370822  10.7444497  43.4424248  50.9873049  13.7786450
  42.8229279  50.3965696  13.6096465  43.3408111  51.5784484  13.1450773
  43.3361923  50.9877131  13.6591440  50.5392143  52.7272591   8.1118913
  51.2372308  52.9060718   8.6040377  50.8544476  52.2042930   7.4889303
  50.6887481  52.6766363   8.0920923  43.1693381  54.5325331  16.0230019
  43.0452078  55.1187776  16.6579838  43.8211665  54.0385526  16.3242294
  43.2467030  54.5464135  16.1615948  50.7280079  59.1143036   8.0998705
  51.1673714  58.5060136   8.5453478  50.5784742  58.7350409   7.3284170
  50.7701544  58.9681507   8.0517872  48.1951722  57.7087047  15.3017530
  48.8400724  57.2159491  14.9828479  48.4353499  57.8511834  16.1283609
  48.3262307  57.6564490  15.3767063  50.7337813  60.5541953  14.9524423
  51.0161056  59.7593359  14.7311179  51.4623973  61.0322541  14.9729484
  50.8827377  60.5076550  14.9227438  48.7119007  48.0964987  12.1940188
  48.3822337  48.5476131  11.5243887  48.0364009  48.0181151  12.7413194
  48.5629443  48.1516122  12.1763411  55.9195415  44.0850510  10.4389799
  55.6048856  44.7753989  10.8710221  55.4022356  44.0295292   9.7375299
  55.7959885  44.1785399  10.3986748  60.7155901  59.6601316  11.9260254
  59.8853605  59.8711959  12.0893670  60.6665154  58.8338370  11.6502537
  60.5862637  59.5690922  11.9097619  42.7051485  63.6972989  12.1558349
  42.2219063  64.4223479  12.1317932  43.5174803  63.9949119  12.2668506
  42.7542233  63.8475343  12.1685628  48.7765639  62.4905170  14.7608163
  48.2592581  62.1312585  14.1569471  49.4740030  61.9667344  14.7714229
  48.8031220  62.3602858  14.6738422  52.4329231  62.9399984  20.7224336
  52.5212577  62.7526124  21.5702546  52.8618943  62.2937413  20.3229183
  52.5091333  62.8162991  20.7896088  49.9999691  62.2231144  19.7041998
  49.4370526  61.8103754  20.2281660  50.7620714  62.1484049  20.1235142
  50.0294139  62.1508544  19.8434999  46.9174961  46.1577276   7.6763136
  47.6720929  46.5255593   7.4380186  46.7402496  46.5316830   8.4442315
  47.0029439  46.2675464   7.7548024  45.5595682  64.2129165  12.3078628
  46.2616261  63.6981154  12.3651385  45.4793165  64.5403316  13.1125504
  45.6519443  64.1843391  12.4351421  60.2109860  52.3071716  15.7210675
  59.3738281  52.3773903  15.9558269  60.1798091  52.3096211  14.8484977
  60.0828142  52.3181943  15.6270223  45.2732026  48.5647595   4.3741249
  45.0907599  48.7819476   3.5482241  46.1357639  48.6786607   4.4299863
  45.3736615  48.6137493   4.2595736  44.8846458  60.4035517  11.8164237
  45.7235357  60.6358450  11.8637998  44.9158227  59.5339828  11.7471272
  45.0128175  60.3092463  11.8128881  45.5099161  60.8236392  16.1177542
  46.0497386  60.6807523  16.7880914  44.8269107  61.2233143  16.4861568
  45.4891314  60.8616063  16.2711964  50.9531745  45.5674005   7.4090272
  51.6817905  45.3889960   6.9628429  51.0426638  46.4092085   7.6197451
  51.0738407  45.6657884   7.3743790  54.9340046  56.5027393  11.3122566
  55.6897561  56.9358907  11.3511475  55.0402370  55.8532162  11.8857202
  55.0610216  56.4704877  11.4020592  57.9720217  60.3300670  12.0624969
  57.5355448  60.3337412  12.8183941  57.6383132  61.0106169  11.6304547
  57.8582837  60.4313126  12.1105802  40.9136306  57.0436683  16.2711964
  40.6474721  56.2275800  16.4302954  40.9274870  57.0889838  15.4007479
  40.8761028  56.9293588  16.1665446  57.8917700  47.3714498  14.3054397
  58.5343608  47.4412602  14.8916313  58.1440720  46.7043721  13.8033939
  58.0239832  47.2840846  14.3181677  44.8194053  51.8421767   2.8863722
  44.1052230  51.5559947   3.2986154  45.3038021  52.1818393   3.5270109
  44.7853416  51.8503417   3.0419357  52.7019684  64.2819105  17.0334575
  51.9034929  64.0418605  17.2908444  53.1505695  64.3333498  17.7801623
  52.6494295  64.2541496  17.1819500  61.1064563  57.0481590  10.9544607
  61.7680997  56.4872258  10.8540515  60.4655975  56.5533621  11.2797298
  61.1093430  56.8917999  10.9876947  41.3229719  57.8295462  13.5523708
  41.1405293  57.8042348  12.6996000  42.0579388  58.2994400  13.5912617
  41.4043783  57.8956825  13.4321626  57.3929394  58.0646972  10.6956595
  57.6284983  58.2092171   9.8683446  57.5418957  58.8289380  11.0888109
  57.4495197  58.1986027  10.6320199  54.4351739  54.7513541   9.2149779
  54.5298594  55.4902835   9.6689405  53.8110583  54.3231016   9.6484344
  54.3560769  54.7974862   9.3457927  52.6904213  57.9299754  19.8640060
  53.2643075  57.2926998  20.0188624  52.6119017  57.9303836  18.9949718
  52.7637448  57.8364865  19.7586471  41.2900630  54.7088963  13.7022774
  41.8674132  54.5725414  14.3415020  40.5914691  54.2524747  13.9568359
  41.2721651  54.6211229  13.8345064  48.0467932  56.3623019  11.9161258
  47.7887176  55.5294754  11.8892557  48.1016415  56.5880632  11.0753758
  48.0167710  56.2720790  11.7881394  53.1268982  48.4651469  12.0165350
  52.4225309  47.9760655  12.1749269  53.1753956  48.4773944  11.1453795
  53.0299034  48.3941117  11.9104690  47.0202644  53.9160781  12.4026152
  46.4452235  54.0752949  13.0390113  46.6438320  53.2796190  11.9394603
  46.8805456  53.8458594  12.4280711  50.6875933  52.3884130  17.2618531
  50.2990365  51.9638348  16.6070722  50.0230631  52.6366280  17.7695557
  50.5322860  52.3622852  17.2406399  60.3299202  52.1459135  10.0366361
  60.0735767  51.3339077   9.8464244  61.1728516  52.1536702   9.8096548
  60.4165227  52.0271133   9.9751178  36.7659463  53.5600856  10.4170593
  36.8519715  53.1832724  11.1984123  37.3935260  53.1861302   9.9390551
  36.8716014  53.4486338  10.4616070  54.5102294  46.0858759  14.7742515
  54.8912806  45.4036930  15.1610389  53.7065578  45.7968361  14.5918180
  54.4478756  45.9425808  14.8046571  58.0124361  59.3008731  19.8724913
  57.7762998  58.4696796  19.7536974  58.6567590  59.2494338  20.4579758
  58.0719032  59.1706419  19.9410807  47.6622779  60.0904252  10.5867650
  48.2996726  59.8516000  11.1319443  48.0877851  60.2941411   9.8520810
  47.8198945  60.0855263  10.5584807  42.3535422  62.3292589  14.4701954
  42.3939567  62.6007440  13.6421733  42.9129946  62.8534497  14.8859742
  42.4418767  62.4468344  14.4093842  48.3025594  55.3106542   4.9242539
  48.6870747  55.0914249   5.6759084  48.0537215  56.1369488   5.0543616
  48.3227667  55.4004688   5.0543616  59.0360782  59.0853180  15.9353208
  58.7306599  59.8181237  16.2966524  58.3166997  58.6791109  15.6545994
  58.8848124  59.1334913  15.9466345  50.0444251  60.5676675  12.2661436
  50.1183259  60.4051847  13.1203286  50.8613757  60.7566865  12.0221918
  50.1760610  60.5713417  12.3559462  64.7362574  55.7246181  15.2621552
  64.6687074  55.7442140  14.3924139  64.7218236  56.5676508  15.4877223
  64.7241330  55.8519915  15.1674029  43.8050008  60.9134538   9.2955880
  42.9788125  61.1596275   9.1690158  43.8661999  60.8346619  10.1617938
  43.6924175  60.9379487   9.4044824  46.0226032  46.9803479  10.2551320
  45.1548457  47.0526078  10.3208929  46.3101236  47.7825558  10.4439295
  45.9365780  47.1097626  10.2926086  55.1458920  47.1281338  18.5862642
  55.8912512  46.9391149  18.1726067  54.7296225  47.6539576  18.0276498
  55.1943895  47.1783484  18.4427215  62.5221191  54.4990567  13.5368147
  63.0729113  53.8658636  13.7765239  62.5065307  55.0305960  14.2283651
  62.6006388  54.4839515  13.6747005  49.1743582  58.3329164  18.0828040
  48.6755276  59.0444932  18.1612928  49.9843806  58.6529831  18.0446202
  49.2199689  58.4856013  18.0884609  46.5254752  65.5078801  10.0635059
  46.3055048  65.2176155  10.8561726  46.3049274  64.8493756   9.5352972
  46.4602347  65.3678509  10.1023968  45.4371700  57.5952117  12.3290761
  45.1484948  56.9689588  12.8636488  46.3055048  57.5372404  12.3955441
  45.5231952  57.4939661  12.4181715  56.2249597  52.7386900  12.6472743
  55.8814363  52.0177236  12.9979992  56.3242640  52.5300752  11.8051101
  56.1891640  52.6011104  12.5744423  45.6403973  59.2347368   8.2533126
  46.3949941  59.6160407   8.4668589  45.0474586  59.6858512   8.7079822
  45.6640687  59.3576195   8.3516004  46.9602200  60.4055929  13.6273241
  46.4382953  60.5456221  14.3125106  47.3476220  59.6466594  13.8175359
  46.9405901  60.3141453  13.7574318  43.9493384  50.4561738   7.6968196
  43.6618179  50.0863009   6.9600143  44.6363852  50.9256594   7.4351901
  44.0082281  50.4708708   7.5483272  48.3868525  57.4359948   9.0254732
  48.1911308  58.0434683   8.4315035  48.6102871  56.7427892   8.5446406
  48.3903166  57.4237474   8.8670813  46.7847055  54.3214686   9.1435601
  47.5069707  54.4855845   8.6839407  46.3055048  55.0424351   9.0374941
  46.8210786  54.4512916   9.0601215  54.7440563  50.6578485  14.5232286
  53.9051663  50.6839764  14.2870549  54.8144930  51.3049221  15.1037632
  54.6308956  50.7574611  14.5741403  53.1909841  47.5563862   9.2559902
  53.8936194  47.3571611   8.7779860  52.9254030  46.7839805   9.5628745
  53.2556473  47.4126828   9.2305343  58.6198087  55.8646472  11.8093527
  58.5332061  56.0201898  12.6628306  58.1648567  56.5084548  11.4352933
  58.5401343  55.9822227  11.8800634  41.5221578  51.2342951   8.5453477
  41.6237715  52.0369112   8.8734453  42.3177465  51.0330287   8.2476558
  41.6549484  51.3228849   8.5488832  42.3385310  51.3490129  16.2874599
  42.1970802  50.4974070  16.4119107  42.6225874  51.3918790  15.4636805
  42.3593156  51.2289879  16.1842223  52.4923903  53.1857219  10.4319087
  52.2458617  53.1052970  11.2655876  52.8209026  52.4010687  10.2381614
  52.5045146  53.0583484  10.5266610  56.3871952  59.8940578  14.2205868
  56.2486311  60.5921624  14.7254611  55.6071949  59.7389235  13.8642050
  56.2515178  59.9740745  14.2432142  54.7250037  56.1936954  20.4728250
  54.7198075  55.3216770  20.4770676  55.4311030  56.3925123  19.9997706
  54.8295041  56.0940828  20.4035285  50.6240847  55.1204106  17.6267202
  49.8764161  55.3135120  17.2215480  50.7782373  54.2949326  17.3891323
  50.5363275  55.0269217  17.5312607  47.5248685  64.1116709  16.7103097
  47.6738249  63.5519625  16.0576501  48.3048687  64.1908711  17.0935616
  47.6622779  64.0402275  16.6700046  50.0501986  64.2831352  17.9887588
  49.9745657  63.6140163  18.5438376  49.9791845  64.9849141  18.5028254
  50.0282592  64.2876260  18.1464436  50.8642624  49.0154657  18.5162605
  51.3215238  49.7478631  18.6435398  50.9398953  48.5921122  19.2749861
  50.9433594  49.0611895  18.6463682  55.3369950  42.1944532  12.3856448
  55.4553518  42.6520995  11.6523751  55.1632126  41.3889793  12.0992666
  55.3289121  42.1438304  12.2357382  48.7425002  51.0056761  15.3604429
  47.9521077  50.8248221  15.6821765  49.1385625  50.2283713  15.3434724
  48.6841878  50.8644222  15.4056978  54.1268689  58.6399191  13.0863875
  53.4513690  58.4084423  13.5877262  54.1361065  58.0320374  12.4605980
  54.0287193  58.5158116  13.0680028  51.2562833  53.4817020  19.8427928
  51.1921974  54.3426976  19.7148065  51.3960020  53.1649013  19.0423480
  51.2678303  53.5617186  19.7056141  49.9381926  56.1749159  13.9844131
  49.5144176  56.3753658  13.2483150  49.7626782  55.3278007  14.0968431
  49.8492807  56.0797941  13.8917821  49.4393620  67.6899672  16.4465589
  49.9289550  66.9910461  16.2641253  48.8677852  67.3923542  17.0341646
  49.4278150  67.5425896  16.5066629  45.2264371  56.6701211   9.4172104
  45.3828991  56.6048013  10.2728096  45.5664965  57.4449763   9.2050783
  45.2997606  56.7750409   9.5126698  51.7643516  56.0459094   8.2865467
  52.3059061  55.5429475   8.7504088  52.0790075  55.9924289   7.4754952
  51.8907913  55.9638515   8.2349279  55.6360623  60.2561742  25.3992379
  56.4495489  59.9846890  25.5597512  55.4755590  59.9569281  24.5952575
  55.7330572  60.1716668  25.3037785  52.9132785  50.9395399  18.3387767
  53.1274755  50.3006313  17.7851121  52.2966685  51.3841223  17.9095629
  52.8538115  50.9105542  18.1938199  41.7998633  53.8536161   9.7332871
  42.1797598  54.2720706   9.0693138  41.2253998  54.4349617  10.0401714
  41.7709958  54.0014020   9.6809612  55.0771873  52.5484464  19.2771075
  54.2648555  52.2410354  19.3584247  55.5361808  52.0683464  19.8413787
  55.0252258  52.4320956  19.3725669  52.3047514  44.0495334  13.3275110
  51.4341072  44.0234055  13.2808420  52.5587855  43.8772527  12.5100956
  52.2141074  44.0205478  13.1995247  49.3296655  46.0601563  14.7848581
  48.8135143  45.3681754  14.9100160  48.7690583  46.7272340  14.7311179
  49.1703168  46.0564820  14.7954647  51.3988888  46.5994523  16.6141433
  51.0120641  46.6243554  17.3954963  50.9121825  46.0336201  16.1615950
  51.2701397  46.5190274  16.6629337  55.6481867  61.3168032  20.6715220
  56.2861588  60.8228227  20.3377676  55.0055959  61.2445432  20.0867447
  55.6476094  61.2327040  20.5357575  57.3738868  53.1657178  15.2381135
  56.9466476  53.0783526  14.4829235  56.7364920  53.2734953  15.8235979
  57.2168475  53.1689838  15.2126577  51.0646030  43.4861508  18.9051693
  51.6939148  44.0221808  18.6272763  51.2331892  43.3938867  19.7565259
  51.1823824  43.5522871  18.9900221  55.7036124  62.0087840  17.3120576
  56.4928502  61.6576905  17.4322658  55.8779722  62.8224228  17.0497210
  55.8456406  62.0773697  17.2908444  45.4429434  55.4196566  14.3648365
  44.6017441  55.3200440  14.5727259  45.6519442  56.1892046  14.7162686
  45.3494127  55.5188609  14.4475680  42.9205001  53.0416103  12.1933116
  42.5261699  53.1159115  11.4183226  42.3645118  53.4274049  12.7441478
  42.7807814  53.1097877  12.1600776  54.5569948  46.0197397  11.8736995
  54.7619542  45.9519705  12.7193992  54.2296372  46.8256218  11.8058172
  54.5385196  46.1283337  11.9896650  49.2546099  53.3477965  13.6145963
  48.9509237  52.7933953  14.2156371  48.5525520  53.5270175  13.1273997
  49.1062309  53.2922747  13.6315668  48.3112196  50.6578485   8.1790665
  48.5871931  49.9397397   7.7668232  48.9110866  51.2563405   7.9711771
  48.4405461  50.6398856   8.0871426  47.3164450  60.5627686  18.3218061
  47.2084805  60.5729748  19.1880119  47.5260232  61.3882466  18.1323014
  47.3314561  60.6868760  18.4222152  57.8103636  46.5729161  11.3539760
  57.1977950  47.0599563  11.7393492  57.9067811  45.8972652  11.8977412
  57.7341534  46.5447470  11.4918619  51.8122717  48.3292002   6.4537260
  52.2666463  48.5002563   7.1785104  52.2862763  47.7160113   6.0535035
  51.9491037  48.2642887   6.5011021  45.3338242  57.8140328  15.7839998
  44.7426176  58.4549826  15.7543013  46.0959266  58.2377945  15.7571298
  45.3586503  57.9716167  15.7755145  45.7298865  48.9742326  16.4508016
  46.1900347  49.0481255  17.1883140  45.7754972  49.7723580  16.1007837
  45.8049420  49.1036473  16.5080772  61.4528664  57.6446098  16.7817276
  61.5111788  58.0932747  17.5277253  60.8195131  58.0544911  16.3447356
  61.3679959  57.7719832  16.8269825  55.0927759  63.2649640  13.2172023
  54.8947447  63.7540454  12.5228234  54.4715470  63.4690881  13.7956156
  54.9715323  63.3666178  13.1995246  49.1535737  55.0334537   7.5582267
  49.8977782  55.4208813   7.7965217  49.2996433  54.1891962   7.7222755
  49.2846322  54.9665009   7.6176237  51.0715312  46.8284795  12.5914128
  50.2251357  47.0007603  12.4655478  51.0686445  46.0234139  12.9279957
  50.9462462  46.7345824  12.6225255  52.1413613  50.6060010  13.4576186
  51.6673567  50.0801772  13.9681497  52.5131749  50.0589483  12.8891048
  52.1263502  50.4476006  13.4491333  58.4050343  55.6662385  14.8682967
  58.1648566  54.8268801  14.8725393  58.8842351  55.7462552  15.5923740
  58.4402527  55.5543785  14.9757769  54.0697112  51.4996564   6.5201940
  53.5420131  51.5825308   5.8307649  54.5292821  52.2414436   6.5166585
  54.0598963  51.6217227   6.4176635  60.4055530  52.4463843  12.8212226
  60.1665300  52.4059677  11.9833011  60.5689432  53.2934995  12.9477947
  60.3945834  52.5655928  12.7165708  57.0101560  56.8313792  18.7517271
  57.7335759  56.3786318  18.5728291  56.7451523  57.1118458  17.9689599
  57.0782834  56.8064761  18.6095986  45.8788429  51.4273966  15.4870150
  45.2541499  51.4392358  14.8796103  45.5434024  51.9034141  16.1361390
  45.7373921  51.4992483  15.4926719  46.0630178  49.7699084   1.5442835
  45.7142982  50.4218809   2.0074385  45.5826623  49.7556197   0.8166706
  45.9400421  49.8642138   1.5053927  42.5914104  59.4874426  16.9273915
  42.0614029  58.7966865  16.9768889  42.8639198  59.4784611  16.0986623
  42.5538827  59.3841557  16.8121330  52.7920350  56.9297670  16.9012286
  52.1777343  56.3855721  17.1960921  53.3087635  56.4161907  16.4218102
  52.7776012  56.7734079  16.8736515  52.0316647  58.0001940  14.6356585
  51.6044255  57.3751659  14.2022020  52.0241592  57.7176862  15.4615592
  51.9675788  57.8654721  14.6936412  45.1479174  53.0367113  17.7045019
  45.3072661  52.2810437  18.1096741  44.9672068  53.5858053  18.3585756
  45.1444533  53.0060927  17.8607725  53.0899477  45.2028349  18.2595808
  52.5940039  45.3992023  17.5687375  53.8468539  45.6021017  18.0884610
  53.1286302  45.2906083  18.1315945  50.3602357  48.8770695  14.8499119
  50.3844844  48.3430807  14.1611899  50.6113830  48.3688004  15.5124709
  50.4012276  48.7231599  14.8463763  37.8709947  56.1602190  14.2842263
  37.7653396  56.1149034  13.4194347  37.1210167  56.5055970  14.5656548
  37.7445550  56.2043098  14.1979593  46.6403679  47.6041513  14.2304863
  46.6802051  48.1050720  14.9439570  45.8153344  47.6951907  13.9610786
  46.5243205  47.6923329  14.2955401  48.0618042  54.1202023  16.5278762
  47.2309972  54.2875841  16.3214010  48.0069560  53.7437974  17.3127647
  47.9307457  54.0891754  16.6127290  46.4354086  52.3957614   7.0568880
  46.5757047  52.8930079   7.7597521  46.9336619  51.6943909   7.1983093
  46.5295167  52.3659593   7.1820459  46.4654309  53.2624725   4.3861457
  47.0999388  53.8585150   4.3210918  46.5479919  52.9628183   5.2007327
  46.5710860  53.3065634   4.4964543  59.4436874  55.7940203  17.2547821
  60.0354715  56.4337454  17.2866019  59.8795869  55.0963240  17.5439888
  59.5955306  55.7858553  17.3028653  48.0433292  49.1938701   4.3606899
  48.3649133  48.7141783   3.7066161  48.3060235  50.0038347   4.1697710
  48.1299317  49.2428599   4.2362391  51.2730264  60.2157575  17.8805715
  50.7655355  60.7693422  18.3246345  50.9756911  60.2765865  17.0624489
  51.1535149  60.3063886  17.8254171  53.4392447  48.5810895  16.7230378
  53.8647518  48.1283421  16.1113904  52.8249440  48.0270966  16.9995165
  53.4121092  48.4324871  16.6735403  42.9707297  55.4592566   7.6551003
  43.4799526  56.0557074   8.0362308  43.4441569  55.1918540   6.9727422
  43.1150672  55.5078382   7.6105525  51.8786669  45.0525995  10.1320955
  51.2354987  44.9023641  10.7006093  51.5386076  44.8068340   9.3670059
  51.7331747  44.9938117  10.1023970  56.4686016  53.0085421   9.5550963
  55.7977206  53.5515124   9.4264029  57.1625766  53.4780277   9.3132658
  56.4714883  53.1583693   9.5006491  50.5172750  65.1482133  14.7862722
  50.2938404  64.3900963  15.1546748  50.0282593  65.1780155  14.0643161
  50.4116199  65.0404358  14.7339463  56.6314143  49.4641305  12.4641336
  56.9841753  49.0371028  13.1387135  55.7728945  49.3792149  12.5942413
  56.5563588  49.3886046  12.5836347  45.3297828  52.0948825  10.5224183
  44.6109817  52.5112957  10.7897047  45.7010191  52.6603064   9.9715821
  45.2789760  52.2398106  10.4806990  54.6297409  52.7276674  16.4126179
  54.6095336  52.5459969  17.2660958  54.6776610  53.5988692  16.3885762
  54.6332050  52.8293212  16.5349473  52.5743739  59.3163866  22.3374655
  52.5339594  58.6713543  21.7519811  53.3867057  59.2600483  22.6500067
  52.6886892  59.2122833  22.2971604  49.1651207  65.3682592  12.2399806
  48.7511605  64.7056722  11.8503648  49.8498581  65.5160450  11.7195500
  49.2049578  65.2923250  12.1056303  52.5316501  64.5272677  12.9923423
  52.1332784  64.6374947  12.2244243  51.9167720  64.7354743  13.5749983
  52.3815390  64.5746245  12.9654722  51.1044403  51.1346825   5.8597562
  50.5109242  51.4563821   5.3082130  51.1419680  50.2887920   5.6518669
  51.0218792  51.0571153   5.7480334  58.0638203  44.5859717  13.3925649
  57.5569068  43.8788856  13.3246826  58.8605637  44.2552906  13.5226726
  58.1065443  44.4332868  13.4024644  53.9802219  51.0926329   9.2899313
  53.7515912  51.1159031   8.4477671  54.2400295  50.2683796   9.4094323
  53.9848407  50.9742409   9.1824510  47.0346982  49.6302875  10.5853508
  47.5104348  49.9919955   9.9503690  46.5335581  50.2859343  10.8653651
  47.0312341  49.7797064  10.5330249  52.1390518  50.8685047  21.3326668
  52.6961948  50.6398856  20.7005134  51.8151583  51.6290712  21.0561881
  52.1736928  50.9468884  21.1983166  49.0773635  51.7744075   3.9526892
  49.4572600  51.7923704   3.1678007  48.3366231  52.2198064   3.8317740
  49.0242473  51.8425850   3.8190461  56.7058925  50.0826266   9.5402471
  56.7053152  49.9274923  10.3986747  56.5015105  50.9289254   9.4843857
  56.6758703  50.1846887   9.6590410  38.7676196  53.5066051  13.9561288
  38.5897957  53.0542660  14.6816203  38.4795219  54.3092212  14.1399765
  38.6989150  53.5588609  14.0904790  54.4299777  54.7623768  13.1938678
  54.9253443  54.0446763  13.1542698  53.6199553  54.4594566  13.0793165
  54.3843671  54.6121415  13.1712404  40.5048666  56.0393775  11.0683047
  39.6394186  56.0279465  10.9565818  40.6047482  55.8523998  11.9154186
  40.3922833  56.0099836  11.1771991  56.4951596  57.5127456  15.8815807
  56.9206668  56.9901878  15.3286232  56.1308516  58.1108293  15.3604430
  56.5038199  57.5237683  15.7224816  46.1305676  65.8091673  14.6413152
  46.4452235  66.6228062  14.6490934  46.5399089  65.4241892  15.3095311
  46.2373774  65.8720376  14.7417244  53.0830196  61.2261720  12.2116964
  53.5541374  61.9401983  12.3806949  53.4190374  60.6260470  12.7476834
  53.2025311  61.2433184  12.3149340  55.1707180  62.8363033  24.3909036
  55.2804146  62.0471594  24.7465783  55.4998077  62.7468970  23.5883374
  55.2359586  62.7068886  24.3251427  53.7204142  61.0179654  18.9744657
  53.1725088  60.3937538  18.7064722  54.1817171  61.2073926  18.2588736
  53.7071352  60.9538704  18.8295088  53.0732046  42.9219517  15.7656152
  52.2678010  42.8117246  16.0823991  52.9438781  43.0231972  14.9086018
  52.9352179  42.9203187  15.6864193  56.5298006  49.0865009  16.3595849
  55.9460995  49.5874215  15.9473416  56.8502301  48.5794565  15.7260172
  56.4911182  49.0856844  16.2054356  49.0692806  48.0005603   6.6354524
  49.8908500  48.1703916   6.3936219  48.6062457  48.1552864   5.9120821
  49.1223968  48.0487336   6.4926168  47.6588138  45.9948366  17.4152953
  48.2032550  45.6539492  18.0057294  47.7125073  46.8533827  17.5574237
  47.7477257  46.0703625  17.5234826  43.4718696  59.7564782  14.2891761
  44.0763554  59.7160616  13.6605581  43.2646009  60.6035934  14.3195816
  43.5307594  59.8752784  14.2007877  53.2862468  62.0230727  15.5053998
  54.1060842  61.8793693  15.7670293  53.0056546  62.6476926  16.0470436
  53.3659212  62.0941079  15.6241937  38.7069979  58.7399399  14.1590684
  38.6094257  57.9295671  14.4680740  39.4898848  58.7191193  13.7736952
  38.8086115  58.6166489  14.1477547  54.1425964  70.0510638  16.0230019
  54.0184661  70.6373084  16.6579838  54.7944249  69.5570834  16.3242294
  54.2199614  70.0649443  16.1615948  57.5807172  69.9690060  21.4359044
  57.7527676  69.8595954  22.2844325  58.1176530  70.6144465  21.1990236
  57.6852176  70.0482061  21.5264140  56.6367496  66.1000369  18.9178971
  55.9439292  65.6297349  19.1639703  57.2527823  65.8738674  19.4920678
  56.6252026  65.9967501  19.0388124  55.3608055  70.0665773  20.0605816
  56.0848027  70.0518804  20.5470711  55.4624191  70.7761128  19.5627785
  55.4826264  70.1690476  20.0584603  62.7353004  73.5464858  24.9254764
  61.9425985  73.8608370  25.1107383  62.8501931  73.7616326  24.0875548
  62.6348415  73.6248694  24.8293098  61.6608516  67.9069438  17.2618531
  61.2722949  67.4823656  16.6070722  60.9963215  68.1551588  17.7695557
  61.5055444  67.8808159  17.2406399  59.4426718  64.1098265  24.6405124
  59.1280159  64.8797828  24.3774686  59.1216651  63.5468521  24.0557350
  59.3485637  64.1408534  24.5146473  66.1191504  62.6466646  18.5862642
  66.8645096  62.4576457  18.1726067  65.7028808  63.1724884  18.0276498
  66.1676478  62.6968792  18.4427215  59.0743224  66.7095516  23.3790338
  58.2642999  67.0153296  23.2680181  59.5517910  67.4301099  23.4942922
  59.0246702  66.8610118  23.3797409  55.4087255  72.2458067  18.2489741
  55.9208352  72.5242320  17.5998500  55.1223598  72.9847361  18.6152554
  55.4422119  72.3960420  18.2079619  58.9270981  64.3384455  18.3090782
  58.7354178  64.3539590  19.1590206  59.7769577  64.5348130  18.2857437
  59.0246703  64.3698807  18.4314077  53.3117894  66.8675437  16.2874599
  53.1703386  66.0159377  16.4119107  53.5958457  66.9104097  15.4636805
  53.3325740  66.7475187  16.1842223  59.4253514  71.4399246  19.8442070
  59.5696889  72.0200454  19.2085180  59.7729162  71.8175542  20.5491925
  59.4980975  71.5819950  19.8541065  61.8375208  64.5339965  18.5162605
  62.2947822  65.2663939  18.6435398  61.9131537  64.1106430  19.2749861
  61.9166178  64.5797203  18.6463682  54.0808199  64.7805784  19.6052049
  53.5450389  64.1686143  19.9212816  54.1425964  65.3553920  20.2585716
  54.0103832  64.7752712  19.7487476  59.7157586  66.5242069  15.3604429
  58.9253661  66.3433529  15.6821765  60.1118209  65.7469021  15.3434724
  59.6574462  66.3829530  15.4056978  62.2295416  69.0002328  19.8427928
  62.1654557  69.8612284  19.7148065  62.3692604  68.6834321  19.0423480
  62.2410886  69.0802494  19.7056141  63.8865369  66.4580707  18.3387767
  64.1007339  65.8191621  17.7851121  63.2699268  66.9026530  17.9095629
  63.8270698  66.4290850  18.1938199  66.0504457  68.0669772  19.2771075
  65.2381139  67.7595662  19.3584247  66.5094392  67.5868772  19.8413787
  65.9984842  67.9506264  19.3725669  63.1457964  69.4729843  24.0599777
  63.6157596  70.0971960  24.4467651  63.1919845  68.8046819  24.6192992
  63.2225840  69.4664524  24.1999848  60.3029238  61.5786871  14.7848581
  59.7867727  60.8867062  14.9100160  59.7423167  62.2457648  14.7311179
  60.1435751  61.5750128  14.7954647  62.3721472  62.1179831  16.6141433
  61.9853225  62.1428862  17.3954963  61.8854409  61.5521509  16.1615950
  62.2433980  62.0375582  16.6629337  62.0378613  59.0046816  18.9051693
  62.6671731  59.5407116  18.6272763  62.2064476  58.9124175  19.7565259
  62.1556408  59.0708178  18.9900221  61.8392528  63.7918011  21.1778105
  62.6665958  63.5203160  21.2336719  61.8600374  64.5878853  21.5341923
  61.9645378  63.8697765  21.2393288  56.7031449  64.4927634  16.4508016
  57.1632930  64.5666563  17.1883140  56.7487555  65.2908888  16.1007837
  56.7782004  64.6221781  16.5080772  58.3514798  65.1594329  21.0180043
  57.9600364  64.5127676  21.4535821  58.5200661  65.7505764  21.6374298
  58.3185709  65.1508597  21.1742749  53.4919226  68.1216824  18.8259732
  54.3544840  68.0212534  18.7397062  53.1611009  67.5411534  18.2645304
  53.5704423  68.0208451  18.7305138  56.8521012  66.9459273  15.4870150
  56.2274083  66.9577665  14.8796103  56.5166607  67.4219449  16.1361390
  56.7106504  67.0177790  15.4926719  56.1211758  68.5552421  17.7045019
  56.2805245  67.7995745  18.1096741  55.9404651  69.1043361  18.3585756
  56.1177117  68.5246235  17.8607725  64.0632061  60.7213657  18.2595808
  63.5672622  60.9177331  17.5687375  64.8201123  61.1206325  18.0884610
  64.1018886  60.8091391  18.1315945  57.6136263  63.1226821  14.2304863
  57.6534634  63.6236028  14.9439570  56.7885927  63.2137215  13.9610786
  57.4975789  63.2108637  14.2955401  59.7965876  72.6887561  22.3325158
  58.9461506  72.8259275  22.4682803  59.9594003  71.9551339  22.7772859
  59.6949739  72.6001662  22.4180757  56.8434409  63.1296224  22.1635173
  57.4687113  62.5858357  22.4364605  56.3884889  62.6491141  21.5942963
  56.8682670  62.9785705  22.1196767  64.4125030  64.0996203  16.7230378
  64.8380102  63.6468729  16.1113904  63.7982023  63.5456273  16.9995165
  64.3853675  63.9510179  16.6735403  63.5476323  74.8349174  22.3374655
  63.5072177  74.1898851  21.7519811  64.3599641  74.7785791  22.6500067
  63.6619476  74.7308140  22.2971604  59.2354031  68.4646110  18.8924413
  58.7232934  67.8567293  19.2509444  59.0633527  69.1802703  19.3598389
  59.1343668  68.4809409  19.0140637  54.0819746  66.9083685  21.5426775
  53.9122336  67.5685060  20.9974981  53.6385696  67.1190247  22.2639264
  53.9919080  67.0369668  21.5688404  63.1123102  66.3870355  21.3326668
  63.6694532  66.1584164  20.7005134  62.7884167  67.1476020  21.0561881
  63.1469512  66.4654191  21.1983166  50.9821810  69.8130551  16.8015265
  50.4348530  69.1431197  16.9196133  51.7714189  69.4460399  16.8658732
  51.0173994  69.6595537  16.8283965  60.8306219  69.4738008  22.2978676
  61.5817546  69.7889685  22.6118230  61.0228795  69.2717179  21.4712597
  60.9697633  69.4905390  22.2222071  49.7408780  69.0251359  13.9561288
  49.5630541  68.5727968  14.6816203  49.4527802  69.8277520  14.1399765
  49.6721733  69.0773917  14.0904790  60.9732274  61.5174499  19.1675059
  61.1060180  60.7205492  19.4956034  61.3577427  62.0440902  19.7473335
  61.0488603  61.4774415  19.3018562  64.0464629  58.4404825  15.7656152
  63.2410593  58.3302554  16.0823991  63.9171365  58.5417280  14.9086018
  63.9084762  58.4388495  15.6864193  58.6320721  61.5133674  17.4152953
  59.1765134  61.1724800  18.0057294  58.6857657  62.3719135  17.5574237
  58.7209840  61.5888933  17.5234826  44.0155177  20.9365271   9.7650308
  44.7221944  20.4417301   9.8937242  44.2043112  21.3774352   9.0352966
  44.1483083  20.9283621   9.6759353  36.5088096  29.1337444  -0.4095288
  37.1525551  29.5750608  -0.0199130  36.8344351  28.3290870  -0.4965030
  36.6519925  29.0802639  -0.3649811  41.1547471  24.3592807   7.6564383
  41.2430817  24.1718947   8.5042593  41.5837184  23.7130237   7.2569230
  41.2309574  24.2355815   7.7236134  38.7217931  23.6423967   6.6382045
  38.1588766  23.2296577   7.1621706  39.4838955  23.5676873   7.0575188
  38.7512380  23.5701368   6.7775046  35.3292829  15.8697575   8.3699090
  35.5013333  15.7603470   9.2184372  35.8662187  16.5151981   8.1330283
  35.4337833  15.9489577   8.4604187  41.2667531  23.7901826  10.3208167
  42.0507947  23.9032674  10.6863909  41.0664125  22.9642963  10.5166852
  41.3533556  23.6848545  10.4042553  41.4237924  25.7011928   3.9674622
  40.6253170  25.4611428   4.2248491  41.8723935  25.7526321   4.7141670
  41.3712535  25.6734319   4.1159546  40.4838661  19.4472373  11.8594810
  39.6911642  19.7615885  12.0447430  40.5987588  19.6623841  11.0215595
  40.3834071  19.5256210  11.7633145  41.4122454  19.3492577   6.7980107
  41.9861315  18.7119821   6.9528671  41.3337257  19.3496659   5.9289765
  41.4855688  19.2557688   6.6926518  46.7342601  20.7201554   6.8064960
  46.4981239  19.8889619   6.6877021  47.3785830  20.6687162   7.3919804
  46.7937272  20.5899242   6.8750854  37.1912375  10.0105781  11.5745170
  36.8765816  10.7805343  11.3114733  36.8702308   9.4476037  10.9897397
  37.0971294  10.0416049  11.4486520  47.7579022  20.5046003   2.8693255
  47.4524839  21.2374060   3.2306570  47.0385238  20.0983933   2.5886041
  47.6066364  20.5527736   2.8806392  53.4580814  17.1439004   2.1961599
  53.3905314  17.1634963   1.3264186  53.4436477  17.9869331   2.4217270
  53.4459571  17.2712738   2.1014076  37.8961822  19.7521987   5.0168087
  37.3973516  20.4637755   5.0952975  38.7062047  20.0722654   4.9786249
  37.9417929  19.9048836   5.0224655  36.8228880  12.6103032  10.3130385
  36.0128656  12.9160811  10.2020227  37.3003567  13.3308614  10.4282969
  36.7732359  12.7617633  10.3137456  45.1090192  21.3133402   1.1545915
  44.9704551  22.0114447   1.6594657  44.3290190  21.1582058   0.7982097
  44.9733419  21.3933568   1.1772189  43.4468277  17.6129777   7.4068297
  43.4416316  16.7409594   7.4110723  44.1529271  17.8117946   6.9337752
  43.5513281  17.5133651   7.3375332  37.1739170  17.3406761   6.7782117
  37.3182546  17.9207969   6.1425227  37.5214819  17.7183058   7.4831971
  37.2466632  17.4827465   6.7881112  36.2466925  25.5309533   3.6443144
  36.3956489  24.9712449   2.9916548  37.0266927  25.6101534   4.0275662
  36.3841019  25.4595098   3.6040093  38.7720226  25.7024176   4.9227635
  38.6963897  25.0332986   5.4778423  38.7010085  26.4041964   5.4368301
  38.7500833  25.7069083   5.0804483  38.1611860  29.1092495   3.3805635
  38.6507791  28.4103285   3.1981300  37.5896093  28.8116365   3.9681693
  38.1496390  28.9618719   3.4406676  44.3578864  21.6754565  12.3332426
  45.1713729  21.4039714  12.4937558  44.1973830  21.3762105  11.5292622
  44.4548812  21.5909491  12.2377832  43.7990114  13.9677287   6.2111121
  42.9866795  13.6603177   6.2924294  44.2580048  13.4876287   6.7753834
  43.7470499  13.8513779   6.3065715  40.8943621  15.3737359  10.9939824
  41.3643252  15.9979475  11.3807698  40.9405501  14.7054334  11.5533038
  40.9711497  15.3672039  11.1339895  44.3700108  22.7360855   7.6055267
  45.0079828  22.2421051   7.2717723  43.7274199  22.6638256   7.0207493
  44.3694334  22.6519864   7.4697621  44.4254364  23.4280663   4.2460623
  45.2146743  23.0769728   4.3662705  44.5997962  24.2417052   3.9837257
  44.5674646  23.4966520   4.2248491  36.0382691  21.9820509   5.2558107
  35.9303046  21.9922571   6.1220165  36.2478472  22.8075289   5.0663061
  36.0532802  22.1061584   5.3562199  50.1746904  19.0638921   3.7157323
  50.2330028  19.5125570   4.4617300  49.5413372  19.4737734   3.2787403
  50.0898199  19.1912656   3.7609872  43.8145999  24.6842463   0.1512069
  43.6165688  25.1733277  -0.5431719  43.1933710  24.8883704   0.7296203
  43.6933563  24.7859001   0.1335293  45.7319801  18.2506615   5.6857318
  46.4554000  17.7979142   5.5068338  45.4669763  18.5311281   4.9029646
  45.8001074  18.2257584   5.5436033  41.5138590  18.3490493   3.8352333
  40.8995583  17.8048544   4.1300968  42.0305875  17.8354730   3.3558149
  41.4994253  18.1926903   3.8076561  37.5451532  18.5895076   9.2665204
  36.6947163  18.7266791   9.4022849  37.7079660  17.8558855   9.7112906
  37.4435396  18.5009177   9.3520804  48.1655115  17.2133026   4.1887868
  48.7572955  17.8530277   4.2206066  48.6014109  16.5156063   4.4779934
  48.3173546  17.2051376   4.2368700  39.9948505  21.6350398   4.8145762
  39.4873596  22.1886245   5.2586392  39.6975151  21.6958688   3.9964536
  39.8753390  21.7256710   4.7594218  39.2390990  26.5674957   1.7202768
  39.0156644  25.8093786   2.0886795  38.7500833  26.5972978   0.9983208
  39.1334439  26.4597181   1.6679509  41.2961979  20.7356689   9.2714702
  41.2557834  20.0906366   8.6859858  42.1085298  20.6793306   9.5840114
  41.4105133  20.6315656   9.2311651  41.2534741  25.9465500  -0.0736530
  40.8551024  26.0567770  -0.8415710  40.6385961  26.1547566   0.5090029
  41.1033630  25.9939068  -0.1005231  40.8608758  12.2877870   8.2666715
  41.4180189  12.0591680   7.6345181  40.5369823  13.0483536   7.9901928
  40.8955169  12.3661707   8.1323212  38.5791876  15.3745523   9.2318722
  39.3303203  15.6897200   9.5458277  38.7714452  15.1724694   8.4052644
  38.7183290  15.3912905   9.1562118  45.2169837  18.9320279   2.8155853
  45.6424908  18.4094701   2.2626279  44.8526757  19.5301116   2.2944476
  45.2256439  18.9430506   2.6564863  34.8523917  27.2284496   1.5753199
  35.1670475  28.0420885   1.5830981  35.2617330  26.8434715   2.2435358
  34.9592014  27.2913199   1.6757291  43.8925421  24.2555857  11.3249083
  44.0022386  23.4664417  11.6805830  44.2216317  24.1661793  10.5223421
  43.9577827  24.1261710  11.2591474  42.4422382  22.4372477   5.9084704
  41.8943328  21.8130361   5.6404769  42.9035411  22.6266749   5.1928783
  42.4289592  22.3731528   5.7635135  42.0080709  23.4423550   2.4394045
  42.8279083  23.2986516   2.7010340  41.7274786  24.0669749   2.9810483
  42.0877452  23.5133902   2.5581984  51.6794044  30.1864053   0.1589852
  50.8231940  30.3472551   0.2098968  51.7261698  29.3156117   0.1794913
  51.5593155  30.0814855   0.1695918  46.0635184  39.7226771  -4.0772917
  45.3118083  39.3442309  -4.3056872  46.5121195  39.7545204  -4.8254107
  46.0184851  39.6712378  -4.2215415  54.9887761  36.4550578   9.7650308
  55.6954528  35.9602609   9.8937242  55.1775696  36.8959660   9.0352966
  55.1215666  36.4468929   9.6759353  54.5245865  32.2456097   2.8021503
  55.0701825  32.9241183   2.8615473  54.4662741  32.1043558   1.9423085
  54.5961779  32.3248098   2.6833564  47.6419940  39.7345163  -1.8110144
  47.7430303  38.9245517  -1.5013017  47.0461685  39.6402109  -2.4410466
  47.5692479  39.6010191  -1.8583906  47.4820679  44.6522752  -0.4095288
  48.1258135  45.0935916  -0.0199130  47.8076935  43.8476178  -0.4965030
  47.6252508  44.5987947  -0.3649811  40.8384984  35.7565449  -2.1857811
  40.6035169  34.9233102  -2.2925542  40.9770625  36.0370115  -2.9996610
  40.8240647  35.6748953  -2.3215456  43.1375072  27.9251180   0.7126497
  42.5180103  27.3343827   0.5436512  43.0358935  28.5162615   0.0790820
  43.0312747  27.9255263   0.5931487  50.2342967  29.6650722  -4.9541040
  50.9323132  29.8438849  -4.4619577  50.5495300  29.1421061  -5.5770651
  50.3838304  29.6144494  -4.9739030  42.8644205  31.4703462   2.9570066
  42.7402902  32.0565907   3.5919885  43.5162489  30.9763657   3.2582341
  42.9417854  31.4842266   3.0955995  50.4230903  36.0521167  -4.9661248
  50.8624538  35.4438267  -4.5206476  50.2735566  35.6728540  -5.7375783
  50.4652368  35.9059638  -5.0142081  47.8902546  34.6465179   2.2357577
  48.5351548  34.1537622   1.9168526  48.1304323  34.7889965   3.0623655
  48.0213131  34.5942621   2.3107110  50.4288637  37.4920084   1.8864470
  50.7111880  36.6971490   1.6651225  51.1574797  37.9700672   1.9069531
  50.5778201  37.4454681   1.8567485  48.4069831  25.0343118  -0.8719765
  48.0773161  25.4854262  -1.5416067  47.7314833  24.9559282  -0.3246759
  48.2580267  25.0894254  -0.8896542  60.4106725  36.5979447  -1.1399700
  59.5804428  36.8090090  -0.9766283  60.3615978  35.7716501  -1.4157416
  60.2813461  36.5069053  -1.1562334  42.4002309  40.6351120  -0.9101605
  41.9169887  41.3601610  -0.9342021  43.2125627  40.9327250  -0.7991447
  42.4493057  40.7853474  -0.8974325  48.4716463  39.4283301   1.6948210
  47.9543405  39.0690716   1.0909518  49.1690854  38.9045475   1.7054276
  48.4982044  39.2980989   1.6078469  52.1280055  39.8778115   7.6564383
  52.2163401  39.6904255   8.5042593  52.5569767  39.2315545   7.2569230
  52.2042157  39.7541123   7.7236134  49.6950515  39.1609275   6.6382045
  49.1321349  38.7481885   7.1621706  50.4571538  39.0862181   7.0575188
  49.7244963  39.0886675   6.7775046  45.2546506  41.1507296  -0.7581325
  45.9567085  40.6359285  -0.7008568  45.1743989  41.4781447   0.0465550
  45.3470267  41.1221522  -0.6308532  59.9060684  29.2449847   2.6550722
  59.0689105  29.3152034   2.8898316  59.8748915  29.2474342   1.7825024
  59.7778966  29.2560074   2.5610270  46.3025413  31.3882883   8.3699090
  46.4745916  31.2788778   9.2184372  46.8394770  32.0337288   8.1330283
  46.4070417  31.4674885   8.4604187  44.5797282  37.3413648  -1.2495717
  45.4186181  37.5736581  -1.2021955  44.6109051  36.4717960  -1.3188681
  44.7078999  37.2470595  -1.2531072  45.2049985  37.7614523   3.0517589
  45.7448210  37.6185654   3.7220961  44.5219931  38.1611274   3.4201615
  45.1842138  37.7994194   3.2052011  54.6290869  33.4405524  -1.7537387
  55.3848384  33.8737038  -1.7148478  54.7353194  32.7910294  -1.1802751
  54.7561040  33.4083008  -1.6639361  57.6671041  37.2678801  -1.0034984
  57.2306272  37.2715544  -0.2476012  57.3333956  37.9484300  -1.4355406
  57.5533661  37.3691257  -0.9554151  52.2400114  39.3087134  10.3208167
  53.0240531  39.4217982  10.6863909  52.0396709  38.4828271  10.5166852
  52.3266140  39.2033853  10.4042553  40.6087130  33.9814814   3.2052010
  40.3425545  33.1653931   3.3643001  40.6225694  34.0267970   2.3347526
  40.5711852  33.8671719   3.1005492  57.5868523  24.3092629   1.2394444
  58.2294432  24.3790734   1.8256359  57.8391544  23.6421852   0.7373986
  57.7190656  24.2218978   1.2521723  45.3585736  27.5193192   5.8519018
  44.6657533  27.0490172   6.0979750  45.9746063  27.2931497   6.4260725
  45.3470266  27.4160324   5.9728171  52.3970507  41.2197236   3.9674622
  51.5985753  40.9796736   4.2248491  52.8456519  41.2711629   4.7141670
  52.3445119  41.1919627   4.1159546  60.8015387  33.9859721  -2.1115347
  61.4631821  33.4250390  -2.2119438  60.1606799  33.4911752  -1.7862655
  60.8044254  33.8296130  -2.0783006  41.0180543  34.7673593   0.4863755
  40.8356117  34.7420480  -0.3663953  41.7530212  35.2372531   0.5252663
  41.0994607  34.8334956   0.3661673  57.0880217  35.0025103  -2.3703358
  57.3235807  35.1470302  -3.1976507  57.2369781  35.7667511  -1.9771844
  57.1446021  35.1364158  -2.4339754  44.0826295  31.4858596   6.9945863
  44.8066267  31.4711627   7.4810758  44.1842431  32.1953952   6.4967832
  44.2044504  31.5883300   6.9924650  51.4571244  34.9657681  11.8594810
  50.6644225  35.2801193  12.0447430  51.5720171  35.1809149  11.0215595
  51.3566655  35.0441518  11.7633145  54.1302563  31.6891672  -3.8510174
  54.2249418  32.4280966  -3.3970548  53.5061407  31.2609148  -3.4175609
  54.0511593  31.7352993  -3.7202026  52.3855037  34.8677885   6.7980107
  52.9593899  34.2305129   6.9528671  52.3069841  34.8681967   5.9289765
  52.4588272  34.7742996   6.6926518  40.9851454  31.6467094   0.6362821
  41.5624956  31.5103545   1.2755067  40.2865515  31.1902878   0.8908406
  40.9672475  31.5589360   0.7685111  47.7418756  33.3001150  -1.1498696
  47.4838000  32.4672885  -1.1767396  47.7967239  33.5258763  -1.9906195
  47.7118534  33.2098921  -1.2778559  52.8219806  25.4029601  -1.0494603
  52.1176133  24.9138786  -0.8910684  52.8704780  25.4152075  -1.9206158
  52.7249858  25.3319248  -1.1555263  46.7153468  30.8538912  -0.6633801
  46.1403059  31.0131081  -0.0269840  46.3389144  30.2174321  -1.1265350
  46.5756280  30.7836725  -0.6379242  50.3826757  29.3262262   4.1958578
  49.9941189  28.9016479   3.5410769  49.7181455  29.5744411   4.7035604
  50.2273684  29.3000983   4.1746446  54.2053118  23.0236890   1.7082562
  54.5863630  22.3415061   2.0950436  53.4016402  22.7346492   1.5258226
  54.1429580  22.8803939   1.7386618  57.7075185  36.2386862   6.8064960
  57.4713822  35.4074927   6.6877021  58.3518414  36.1872470   7.3919804
  57.7669856  36.1084550   6.8750854  47.3573603  37.0282384  -2.4792303
  47.9947550  36.7894131  -1.9340510  47.7828675  37.2319543  -3.2139143
  47.5149769  37.0233394  -2.5075146  42.0486245  39.2670720   1.4042000
  42.0890391  39.5385571   0.5761780  42.6080770  39.7912628   1.8199788
  42.1369591  39.3846475   1.3433889  48.1644959  25.5291089  11.5745170
  47.8498400  26.2990651  11.3114733  47.8434891  24.9661345  10.9897397
  48.0703878  25.5601357  11.4486520  58.7311606  36.0231311   2.8693255
  58.4257423  36.7559368   3.2306570  58.0117821  35.6169241   2.5886041
  58.5798948  36.0713044   2.8806392  49.7395075  37.5054806  -0.7998517
  49.8134083  37.3429978   0.0543333  50.5564581  37.6944996  -1.0438035
  49.8711434  37.5091549  -0.7100491  64.4313398  32.6624312   2.1961599
  64.3637898  32.6820271   1.3264186  64.4169060  33.5054639   2.4217270
  64.4192154  32.7898046   2.1014076  43.5000832  37.8512669  -3.7704074
  42.6738949  38.0974406  -3.8969795  43.5612823  37.7724750  -2.9042015
  43.3874999  37.8757618  -3.6615129  54.8409744  24.0659469   5.5202688
  55.5863336  23.8769280   5.1066114  54.4247049  24.5917707   4.9616545
  54.8894718  24.1161615   5.3767262  62.2172015  31.4368698   0.4708193
  62.7679937  30.8036767   0.7105285  62.2016130  31.9684091   1.1623698
  62.2957211  31.4217646   0.6087052  48.8694406  35.2707295   5.0168087
  48.3706100  35.9823063   5.0952975  49.6794630  35.5907962   4.9786249
  48.9150513  35.4234144   5.0224655  46.2205576  42.4456932  -3.0024894
  46.0005872  42.1554286  -2.2098227  46.0000098  41.7871887  -3.5306982
  46.1553171  42.3056640  -2.9635985  45.1322524  34.5330248  -0.7369192
  44.8435772  33.9067719  -0.2023465  46.0005872  34.4750536  -0.6704512
  45.2182775  34.4317792  -0.6478238  55.9200421  29.6765032  -0.4187210
  55.5765187  28.9555367  -0.0679961  56.0193464  29.4678883  -1.2608852
  55.8842464  29.5389235  -0.4915530  45.3354797  36.1725499  -4.8126827
  46.0900765  36.5538538  -4.5991365  44.7425410  36.6236643  -4.3580131
  45.3591511  36.2954327  -4.7143949  47.7961464  28.1288340  10.3130385
  46.9861240  28.4346119  10.2020227  48.2736151  28.8493922  10.4282969
  47.7464943  28.2802941  10.3137456  46.6553024  37.3434061   0.5613288
  46.1333777  37.4834352   1.2465153  47.0427044  36.5844725   0.7515406
  46.6356724  37.2519584   0.6914365  48.0819349  34.3738080  -4.0405221
  47.8862132  34.9812814  -4.6344918  48.3053695  33.6806024  -4.5213547
  48.0853990  34.3615605  -4.1989140  46.4797879  31.2592818  -3.9224352
  47.2020531  31.4233976  -4.3820546  46.0005872  31.9802482  -4.0285013
  46.5161610  31.3891047  -4.0058738  54.4391387  27.5956616   1.4572333
  53.6002487  27.6217895   1.2210596  54.5095754  28.2427352   2.0377679
  54.3259780  27.6952742   1.5081449  44.1305496  33.6650890   5.1829787
  44.6426593  33.9435143   4.5338547  43.8441838  34.4040184   5.5492600
  44.1640359  33.8153244   5.1419665  58.3148911  32.8024603  -1.2566426
  58.2282885  32.9580029  -0.4031647  57.8599390  33.4462679  -1.6307021
  58.2352167  32.9200358  -1.1859319  47.6489221  25.7577279   5.2430829
  47.4572418  25.7732413   6.0930253  48.4987817  25.9540953   5.2197484
  47.7464943  25.7891630   5.3654124  42.0336134  28.2868260   3.2214645
  41.8921626  27.4352201   3.3459153  42.3176698  28.3296921   2.3976852
  42.0543980  28.1668010   3.1182270  52.1874727  30.1235350  -2.6340866
  51.9409441  30.0431101  -1.8004077  52.5159850  29.3388818  -2.8278339
  52.1995970  29.9961616  -2.5393343  56.0822775  36.8318710   1.1545915
  55.9437135  37.5299755   1.6594657  55.3022773  36.6767366   0.7982097
  55.9466002  36.9118876   1.1772189  54.4200861  33.1315085   7.4068297
  54.4148899  32.2594901   7.4110723  55.1261854  33.3303254   6.9337752
  54.5245865  33.0318959   7.3375332  48.1471754  32.8592069   6.7782117
  48.2915130  33.4393277   6.1425227  48.4947402  33.2368366   7.4831971
  48.2199215  33.0012773   6.7881112  50.3191671  32.0582237   4.5607248
  49.5714985  32.2513252   4.1555527  50.4733196  31.2327457   4.3231370
  50.2314099  31.9647349   4.4652654  47.2199509  41.0494841   3.6443144
  47.3689073  40.4897757   2.9916548  47.9999511  41.1286842   4.0275662
  47.3573603  40.9780406   3.6040093  49.7452810  41.2209484   4.9227635
  49.6696481  40.5518294   5.4778423  49.6742669  41.9227272   5.4368301
  49.7233416  41.2254391   5.0804483  50.5593448  25.9532788   5.4502652
  51.0166062  26.6856762   5.5775444  50.6349777  25.5299253   6.2089908
  50.6384418  25.9990026   5.5803729  42.8026440  26.1998608   6.5392096
  42.2668629  25.5878966   6.8552863  42.8644204  26.7746744   7.1925762
  42.7322072  26.1945535   6.6827523  48.4375826  27.9434892   2.2944476
  47.6471901  27.7626352   2.6161812  48.8336449  27.1661844   2.2774771
  48.3792702  27.8022353   2.3397025  53.8219513  35.5777322   0.0203922
  53.1464514  35.3462554   0.5217309  53.8311889  34.9698505  -0.6053973
  53.7238017  35.4536247   0.0020074  50.9513656  30.4195151   6.7767975
  50.8872798  31.2805107   6.6488112  51.0910844  30.1027144   5.9763526
  50.9629127  30.4995318   6.6396188  49.6332750  33.1127290   0.9184178
  49.2094999  33.3131789   0.1823196  49.4577606  32.2656138   1.0308478
  49.5443631  33.0176072   0.8257868  49.1344444  44.6277803   3.3805635
  49.6240374  43.9288593   3.1981300  48.5628676  44.3301673   3.9681693
  49.1228974  44.4804027   3.4406676  44.9215195  33.6079342  -3.6487849
  45.0779815  33.5426145  -2.7931857  45.2615788  34.3827894  -3.8609170
  44.9948430  33.7128540  -3.5533255  51.4594340  32.9837225  -4.7794486
  52.0009885  32.4807606  -4.3155866  51.7740899  32.9302420  -5.5905001
  51.5858737  32.9016646  -4.8310674  55.3311447  37.1939873  12.3332426
  56.1446313  36.9225022  12.4937558  55.1706414  36.8947413  11.5292622
  55.4281396  37.1094799  12.2377832  52.6083609  27.8773530   5.2727814
  52.8225579  27.2384444   4.7191168  51.9917509  28.3219354   4.8435676
  52.5488939  27.8483674   5.1278245  41.4949457  30.7914292  -3.3327082
  41.8748422  31.2098837  -3.9966815  40.9204822  31.3727748  -3.0258239
  41.4660782  30.9392151  -3.3850341  54.7722697  29.4862595   6.2111121
  53.9599379  29.1788485   6.2924294  55.2312632  29.0061595   6.7753834
  54.7203082  29.3699087   6.3065715  51.9998338  20.9873466   0.2615157
  51.1291896  20.9612187   0.2148467  52.2538679  20.8150658  -0.5558997
  51.9091898  20.9583609   0.1335294  51.8676205  30.8922666  10.9939824
  52.3375836  31.5164783  11.3807698  51.9138085  30.2239642  11.5533038
  51.9444081  30.8857347  11.1339895  49.0247478  22.9979694   1.7188627
  48.5085967  22.3059885   1.8440206  48.4641407  23.6650471   1.6651226
  48.8653992  22.9942952   1.7294693  51.0939712  23.5372654   3.5481480
  50.7071465  23.5621685   4.3295010  50.6072649  22.9714333   3.0955997
  50.9652221  23.4568405   3.5969384  55.3432691  38.2546163   7.6055267
  55.9812412  37.7606359   7.2717723  54.7006783  38.1823563   7.0207493
  55.3426918  38.1705171   7.4697621  57.0689691  30.1035309   2.1721182
  56.6417300  30.0161658   1.4169282  56.4315744  30.2113084   2.7576026
  56.9119299  30.1067969   2.1466624  50.7596854  20.4239639   5.8391740
  51.3889972  20.9599940   5.5612810  50.9282716  20.3316998   6.6905306
  50.8774648  20.4901002   5.9240268  55.3986948  38.9465971   4.2460623
  56.1879326  38.5955036   4.3662705  55.5730546  39.7602360   3.9837257
  55.5407230  39.0151828   4.2248491  45.1380258  32.3574697   1.2988412
  44.2968265  32.2578571   1.5067306  45.3470266  33.1270177   1.6502733
  45.0444951  32.4566740   1.3815727  42.6155825  29.9794234  -0.8726837
  42.2212523  30.0537246  -1.6476728  42.0595942  30.3652180  -0.3218475
  42.4758638  30.0476009  -0.9059177  54.2520772  22.9575528  -1.1922958
  54.4570366  22.8897836  -0.3465961  53.9247196  23.7634349  -1.2601781
  54.2336020  23.0661468  -1.0763303  48.9496923  30.2856096   0.5486010
  48.6460061  29.7312084   1.1496417  48.2476344  30.4648306   0.0614044
  48.8013133  30.2300879   0.5655715  47.0115274  37.5005817   5.2558107
  46.9035629  37.5107879   6.1220165  47.2211056  38.3260597   5.0663061
  47.0265385  37.6246892   5.3562199  45.0289066  34.7518459   2.7180045
  44.4377000  35.3927957   2.6883060  45.7910090  35.1756077   2.6911345
  45.0537327  34.9094298   2.7095192  45.4249689  25.9120457   3.3848063
  45.8851171  25.9859386   4.1223186  45.4705796  26.7101711   3.0347884
  45.5000244  26.0414604   3.4420819  47.0733039  26.5787152   7.9520090
  46.6818604  25.9320499   8.3875868  47.2418902  27.1698587   8.5714345
  47.0403949  26.5701420   8.1082796  61.1479488  34.5824229   3.7157323
  61.2062612  35.0310878   4.4617300  60.5145955  34.9923042   3.2787403
  61.0630783  34.7097964   3.7609872  54.7878583  40.2027771   0.1512069
  54.5898271  40.6918585  -0.5431719  54.1666294  40.4069012   0.7296203
  54.6666147  40.3044309   0.1335293  50.7666136  23.7662927  -0.4745825
  49.9202181  23.9385734  -0.6004475  50.7637269  22.9612270  -0.1379997
  50.6413286  23.6723956  -0.4434698  51.8364437  27.5438141   0.3916233
  51.3624391  27.0179903   0.9021544  52.2082573  26.9967614  -0.1768905
  51.8214326  27.3854138   0.3831380  42.2137467  29.5409648   5.7599779
  43.0763080  29.4405357   5.6737109  41.8829250  28.9604357   5.1985351
  42.2922663  29.4401274   5.6645185  58.1001167  32.6040517   1.8023014
  57.8599390  31.7646932   1.8065440  58.5793174  32.6840683   2.5263787
  58.1353351  32.4921916   1.9097816  60.1006354  29.3841974  -0.2447727
  59.8616124  29.3437808  -1.0826943  60.2640256  30.2313126  -0.1182006
  60.0896658  29.5034059  -0.3494245  56.7052384  33.7691923   5.6857318
  57.4286583  33.3164450   5.5068338  56.4402347  34.0496589   4.9029646
  56.7733658  33.7442892   5.5436033  45.5739253  28.3652097   2.4210197
  44.9492323  28.3770489   1.8136150  45.2384848  28.8412272   3.0701437
  45.4324745  28.4370614   2.4266766  42.2864928  36.4252557   3.8613961
  41.7564853  35.7344996   3.9108936  42.5590022  36.4162742   3.0326670
  42.2489651  36.3219689   3.7461377  52.4871174  33.8675801   3.8352333
  51.8728167  33.3233852   4.1300968  53.0038459  33.3540038   3.3558149
  52.4726836  33.7112210   3.8076561  51.7267471  34.9380071   1.5696632
  51.2995079  34.3129790   1.1362067  51.7192415  34.6554993   2.3955639
  51.6626612  34.8032852   1.6276459  44.8429998  29.9745244   4.6385066
  45.0023485  29.2188569   5.0436787  44.6622892  30.5236184   5.2925803
  44.8395357  29.9439058   4.7947772  52.7850301  22.1406480   5.1935855
  52.2890862  22.3370154   4.5027422  53.5419363  22.5399148   5.0224657
  52.8237126  22.2284214   5.0655992  50.0553181  25.8148826   1.7839166
  50.0795668  25.2808938   1.0951946  50.3064654  25.3066135   2.4464756
  50.0963099  25.6609730   1.7803810  37.5660771  33.0980321   1.2182310
  37.4604220  33.0527165   0.3534394  36.8160991  33.4434102   1.4996595
  37.4396374  33.1421229   1.1319639  46.3354503  24.5419644   1.1644910
  46.3752875  25.0428851   1.8779617  45.5104168  24.6330038   0.8950833
  46.2194029  24.6301461   1.2295448  48.5184116  34.1080384   9.2665204
  47.6679746  34.2452098   9.4022849  48.6812244  33.3744162   9.7112906
  48.4167979  34.0194485   9.3520804  47.7568866  31.0580154   3.4618809
  46.9260796  31.2253972   3.2554057  47.7020384  30.6816105   4.2467694
  47.6258281  31.0269885   3.5467337  45.5652650  24.5489047   9.0975220
  46.1905353  24.0051180   9.3704652  45.1103130  24.0683965   8.5283010
  45.5900910  24.3978528   9.0536813  59.1387698  32.7318334   4.1887868
  59.7305539  33.3715585   4.2206066  59.5746693  32.0341371   4.4779934
  59.2906130  32.7236684   4.2368700  50.9681088  37.1535706   4.8145762
  50.4606179  37.7071553   5.2586392  50.6707734  37.2143996   3.9964536
  50.8485973  37.2442018   4.7594218  53.1343270  25.5189026   3.6570424
  53.5598342  25.0661552   3.0453951  52.5200264  24.9649097   3.9335212
  53.1071916  25.3703002   3.6075450  56.1636840  29.9463553  -3.5108990
  55.4928030  30.4893255  -3.6395924  56.8576590  30.4158408  -3.7527295
  56.1665707  30.0961824  -3.5653462  50.2123574  42.0860265   1.7202768
  49.9889228  41.3279094   2.0886795  49.7233417  42.1158286   0.9983208
  50.1067023  41.9782489   1.6679509  56.3264967  26.4019436  -0.6018617
  56.6792577  25.9749159   0.0727182  55.4679769  26.3170280  -0.4717540
  56.2514412  26.3264177  -0.4823606  45.0248652  29.0326956  -2.5435770
  44.3060641  29.4491089  -2.2762907  45.3961015  29.5981195  -3.0944132
  44.9740584  29.1776237  -2.5852963  54.3248233  29.6654805   3.3466226
  54.3046160  29.4838100   4.2001004  54.3727434  30.5366823   3.3225809
  54.3282874  29.7671343   3.4689520  52.2694563  36.2541997   9.2714702
  52.2290418  35.6091674   8.6859858  53.0817881  36.1978614   9.5840114
  52.3837716  36.1500964   9.2311651  48.8602030  42.3060723  -0.8260147
  48.4462429  41.6434853  -1.2156305  49.5449405  42.4538582  -1.3464453
  48.9000402  42.2301381  -0.9603650  52.2267325  41.4650808  -0.0736530
  51.8283608  41.5753078  -0.8415710  51.6118544  41.6732874   0.5090029
  52.0766214  41.5124376  -0.1005231  53.6753043  28.0304460  -3.7760640
  53.4466736  28.0537162  -4.6182282  53.9351119  27.2061927  -3.6565630
  53.6799231  27.9120540  -3.8835443  47.9572272  29.8838933   5.8264460
  47.4451175  29.2760116   6.1849491  47.7851768  30.5995526   6.2938436
  47.8561909  29.9002233   5.9480683  42.8037986  28.3276509   8.4766822
  42.6340577  28.9877884   7.9315028  42.3603936  28.5383070   9.1979311
  42.7137320  28.4562491   8.5028451  46.7297806  26.5681007  -2.4806445
  47.2055172  26.9298086  -3.1156264  46.2286405  27.2237474  -2.2006302
  46.7263165  26.7175195  -2.5329704  51.8341342  27.8063178   8.2666715
  52.3912772  27.5776988   7.6345181  51.5102407  28.5668844   7.9901928
  51.8687752  27.8847015   8.1323212  39.7040051  31.2323374   3.7355311
  39.1566770  30.5624020   3.8536180  40.4932429  30.8653222   3.7998779
  39.7392234  31.0788361   3.7624012  49.5524459  30.8930831   9.2318722
  50.3035786  31.2082508   9.5458277  49.7447036  30.6910002   8.4052644
  49.6915873  30.9098213   9.1562118  38.4627020  30.4444182   0.8901334
  38.2848781  29.9920791   1.6156250  38.1746042  31.2470343   1.0739812
  38.3939973  30.4966740   1.0244837  54.1250601  31.7001899   0.1278725
  54.6204267  30.9824894   0.0882745  53.3150377  31.3972697   0.0133212
  54.0794495  31.5499546   0.1052451  40.1999490  32.9771906  -1.9976907
  39.3345010  32.9657596  -2.1094135  40.2998306  32.7902129  -1.1505767
  40.0873657  32.9477967  -1.8887962  56.1902420  34.4505587   2.8155853
  56.6157492  33.9280009   2.2626279  55.8259340  35.0486424   2.2944476
  56.1989023  34.4615814   2.6564863  45.8256500  42.7469804   1.5753199
  46.1403059  43.5606193   1.5830981  46.2349913  42.3620023   2.2435358
  45.9324598  42.8098507   1.6757291  52.7781020  38.1639851  -0.8542989
  53.2492198  38.8780114  -0.6853004  53.1141198  37.5638601  -0.3183120
  52.8976135  38.1811315  -0.7510613  54.8658004  39.7741165  11.3249083
  54.9754970  38.9849725  11.6805830  55.1948901  39.6847101  10.5223421
  54.9310410  39.6447017  11.2591474  49.6950515  22.9367322   6.1015106
  49.8278420  22.1398315   6.4296081  50.0795667  23.4633725   6.6813381
  49.7706844  22.8967238   6.2358609  53.4154966  37.9557785   5.9084704
  52.8675912  37.3315669   5.6404769  53.8767995  38.1452057   5.1928783
  53.4022176  37.8916836   5.7635135  52.7682870  19.8597648   2.6996199
  51.9628834  19.7495378   3.0164037  52.6389605  19.9610104   1.8426065
  52.6303003  19.8581318   2.6204239  56.2248830  26.0243140   3.2935896
  55.6411819  26.5252346   2.8813463  56.5453124  25.5172696   2.6600219
  56.1862006  26.0234975   3.1394403  47.3538961  22.9326497   4.3493000
  47.8983374  22.5917624   4.9397341  47.4075897  23.7911958   4.4914284
  47.4428081  23.0081756   4.4574873  43.1669520  36.6942913   1.2231807
  43.7714378  36.6538747   0.5945628  42.9596833  37.5414065   1.2535863
  43.2258418  36.8130915   1.1347924  52.9813292  38.9608858   2.4394045
  53.8011666  38.8171824   2.7010340  52.7007370  39.5855057   2.9810483
  53.0610036  39.0319210   2.5581984  38.4020803  35.6777530   1.0930731
  38.3045081  34.8673802   1.4020787  39.1849672  35.6569324   0.7076999
  38.5036939  35.5544621   1.0817593  54.1107655  43.4436488   0.7126497
  53.4912687  42.8529135   0.5436512  54.0091519  44.0347923   0.0790820
  54.0045331  43.4440570   0.5931487  53.8376788  46.9888770   2.9570066
  53.7135485  47.5751215   3.5919885  54.4895073  46.4948965   3.2582341
  53.9150438  47.0027574   3.0955995  57.2757996  46.9068191   8.3699090
  57.4478500  46.7974086   9.2184372  57.8127354  47.5522596   8.1330283
  57.3803000  46.9860193   8.4604187  63.2132698  54.8272442  10.3208167
  63.9973114  54.9403290  10.6863909  63.0129292  54.0013579  10.5166852
  63.2998723  54.7219161  10.4042553  51.5819713  49.5000122   3.2052010
  51.3158128  48.6839239   3.3643001  51.5958277  49.5453278   2.3347526
  51.5444436  49.3857027   3.1005492  56.3318320  43.0378500   5.8519018
  55.6390116  42.5675480   6.0979750  56.9478647  42.8116805   6.4260725
  56.3202850  42.9345632   5.9728171  55.0558879  47.0043904   6.9945863
  55.7798851  46.9896935   7.4810758  55.1575015  47.7139260   6.4967832
  55.1777088  47.1068607   6.9924650  62.4303828  50.4842989  11.8594810
  61.6376809  50.7986501  12.0447430  62.5452755  50.6994457  11.0215595
  62.3299238  50.5626826  11.7633145  61.3559340  44.8447570   4.1958578
  60.9673773  44.4201787   3.5410769  60.6914039  45.0929719   4.7035604
  61.2006268  44.8186291   4.1746446  65.1785702  38.5422198   1.7082562
  65.5596213  37.8600369   2.0950436  64.3748986  38.2531800   1.5258226
  65.1162163  38.3989247   1.7386618  59.1377542  41.0476397  11.5745170
  58.8230983  41.8175959  11.3114733  58.8167475  40.4846653  10.9897397
  59.0436461  41.0786665  11.4486520  65.8142328  39.5844777   5.5202688
  66.5595920  39.3954588   5.1066114  65.3979632  40.1103015   4.9616545
  65.8627302  39.6346923   5.3767262  58.7694048  43.6473648  10.3130385
  57.9593823  43.9531427  10.2020227  59.2468734  44.3679230  10.4282969
  58.7197526  43.7988249  10.3137456  55.1038079  49.1836198   5.1829787
  55.6159176  49.4620451   4.5338547  54.8174422  49.9225492   5.5492600
  55.1372943  49.3338552   5.1419665  58.6221805  41.2762587   5.2430829
  58.4305002  41.2917721   6.0930253  59.4720401  41.4726261   5.2197484
  58.7197527  41.3076938   5.3654124  53.0068718  43.8053568   3.2214645
  52.8654210  42.9537509   3.3459153  53.2909281  43.8482229   2.3976852
  53.0276564  43.6853318   3.1182270  59.1204337  48.3777377   6.7782117
  59.2647713  48.9578585   6.1425227  59.4679986  48.7553673   7.4831971
  59.1931799  48.5198081   6.7881112  61.5326032  41.4718096   5.4502652
  61.9898646  42.2042070   5.5775444  61.6082361  41.0484561   6.2089908
  61.6117002  41.5175334   5.5803729  53.7759023  41.7183916   6.5392096
  53.2401213  41.1064274   6.8552863  53.8376788  42.2932052   7.1925762
  53.7054656  41.7130843   6.6827523  59.4108410  43.4620200   2.2944476
  58.6204485  43.2811660   2.6161812  59.8069033  42.6847152   2.2774771
  59.3525286  43.3207661   2.3397025  61.9246240  45.9380459   6.7767975
  61.8605381  46.7990415   6.6488112  62.0643428  45.6212452   5.9763526
  61.9361710  46.0180626   6.6396188  66.3044031  52.7125181  12.3332426
  67.1178896  52.4410329  12.4937558  66.1438997  52.4132721  11.5292622
  66.4013979  52.6280107  12.2377832  63.5816193  43.3958838   5.2727814
  63.7958162  42.7569752   4.7191168  62.9650092  43.8404662   4.8435676
  63.5221522  43.3668981   5.1278245  65.7455281  45.0047903   6.2111121
  64.9331963  44.6973793   6.2924294  66.2045216  44.5246903   6.7753834
  65.6935666  44.8884395   6.3065715  62.9730922  36.5058773   0.2615157
  62.1024480  36.4797495   0.2148467  63.2271263  36.3335966  -0.5558997
  62.8824482  36.4768917   0.1335294  62.8408788  46.4107974  10.9939824
  63.3108420  47.0350091  11.3807698  62.8870669  45.7424950  11.5533038
  62.9176664  46.4042655  11.1339895  59.9980062  38.5165002   1.7188627
  59.4818551  37.8245193   1.8440206  59.4373991  39.1835779   1.6651226
  59.8386575  38.5128260   1.7294693  62.0672296  39.0557962   3.5481480
  61.6804049  39.0806993   4.3295010  61.5805233  38.4899641   3.0955997
  61.9384804  38.9753713   3.5969384  61.7329437  35.9424947   5.8391740
  62.3622555  36.4785247   5.5612810  61.9015300  35.8502306   6.6905306
  61.8507232  36.0086310   5.9240268  61.5343352  40.7296142   8.1118151
  62.3616781  40.4581291   8.1676766  61.5551198  41.5256984   8.4681970
  61.6596202  40.8075896   8.1733334  56.3982273  41.4305765   3.3848063
  56.8583754  41.5044694   4.1223186  56.4438379  42.2287019   3.0347884
  56.4732828  41.5599912   3.4420819  58.0465622  42.0972460   7.9520090
  57.6551188  41.4505807   8.3875868  58.2151485  42.6883895   8.5714345
  58.0136533  42.0886728   8.1082796  53.1870050  45.0594956   5.7599779
  54.0495663  44.9590665   5.6737109  52.8561833  44.4789665   5.1985351
  53.2655247  44.9586582   5.6645185  56.5471836  43.8837405   2.4210197
  55.9224907  43.8955797   1.8136150  56.2117431  44.3597580   3.0701437
  56.4057328  43.9555922   2.4266766  55.8162582  45.4930552   4.6385066
  55.9756068  44.7373877   5.0436787  55.6355475  46.0421492   5.2925803
  55.8127941  45.4624366   4.7947772  63.7582885  37.6591788   5.1935855
  63.2623446  37.8555462   4.5027422  64.5151947  38.0584456   5.0224657
  63.7969709  37.7469522   5.0655992  61.0285764  41.3334134   1.7839166
  61.0528252  40.7994246   1.0951946  61.2797238  40.8251443   2.4464756
  61.0695683  41.1795038   1.7803810  57.3087087  40.0604952   1.1644910
  57.3485458  40.5614159   1.8779617  56.4836751  40.1515346   0.8950833
  57.1926613  40.1486768   1.2295448  59.4916699  49.6265692   9.2665204
  58.6412330  49.7637406   9.4022849  59.6544827  48.8929470   9.7112906
  59.3900563  49.5379793   9.3520804  58.7301450  46.5765462   3.4618809
  57.8993380  46.7439280   3.2554057  58.6752967  46.2001413   4.2467694
  58.5990865  46.5455193   3.5467337  56.5385233  40.0674355   9.0975220
  57.1637937  39.5236488   9.3704652  56.0835713  39.5869272   8.5283010
  56.5633494  39.9163836   9.0536813  64.1075854  41.0374334   3.6570424
  64.5330926  40.5846860   3.0453951  63.4932847  40.4834405   3.9335212
  64.0804499  40.8888310   3.6075450  63.2427146  51.7727305   9.2714702
  63.2023001  51.1276982   8.6859858  64.0550465  51.7163922   9.5840114
  63.3570300  51.6686272   9.2311651  58.9304855  45.4024241   5.8264460
  58.4183758  44.7945424   6.1849491  58.7584351  46.1180834   6.2938436
  58.8294492  45.4187541   5.9480683  53.7770570  43.8461817   8.4766822
  53.6073160  44.5063191   7.9315028  53.3336520  44.0568378   9.1979311
  53.6869903  43.9747799   8.5028451  62.8073926  43.3248486   8.2666715
  63.3645356  43.0962295   7.6345181  62.4834991  44.0854152   7.9901928
  62.8420336  43.4032323   8.1323212  50.6772634  46.7508682   3.7355311
  50.1299354  46.0809328   3.8536180  51.4665013  46.3838530   3.7998779
  50.7124818  46.5973669   3.7624012  60.5257043  46.4116139   9.2318722
  61.2768370  46.7267816   9.5458277  60.7179619  46.2095310   8.4052644
  60.6648457  46.4283521   9.1562118  49.4359604  45.9629490   0.8901334
  49.2581365  45.5106099   1.6156250  49.1478626  46.7655651   1.0739812
  49.3672557  46.0152048   1.0244837  60.6683098  38.4552630   6.1015106
  60.8011004  37.6583623   6.4296081  61.0528251  38.9819033   6.6813381
  60.7439427  38.4152546   6.2358609  63.7415453  35.3782956   2.6996199
  62.9361417  35.2680685   3.0164037  63.6122189  35.4795412   1.8426065
  63.6035586  35.3766626   2.6204239  58.3271545  38.4511805   4.3493000
  58.8715958  38.1102932   4.9397341  58.3808481  39.3097266   4.4914284
  58.4160664  38.5267064   4.4574873   2.0496382  58.8990287  36.2975065
   1.7349823  59.5893766  36.7295488   1.5323324  58.8435069  35.5960566
   1.9260853  58.9925176  36.2572015   6.3410827  67.1211493  41.5795942
   5.5039248  67.1913680  41.8143536   6.3099058  67.1235988  40.7070244
   6.2129110  67.1321720  41.4855490   4.0218667  62.1854275  40.1639664
   4.6644575  62.2552379  40.7501579   4.2741688  61.5183498  39.6619206
   4.1540799  62.0980623  40.1766943   6.4600169  66.9598912  35.8951628
   6.2036734  66.1478854  35.7049510   7.3029483  66.9676479  35.6681815
   6.5466195  66.8410910  35.8336445   1.2759888  61.9421115  44.4447908
   2.0213480  61.7530926  44.0311334   0.8597192  62.4679353  43.8861765
   1.3244862  61.9923261  44.3012482   8.6522159  69.3130344  39.3953413
   9.2030080  68.6798413  39.6350505   8.6366274  69.8445737  40.0868918
   8.7307355  69.2979292  39.5332272   2.3550565  67.5526677  38.5058010
   2.0115331  66.8317013  38.8565259   2.4543607  67.3440529  37.6636368
   2.3192608  67.4150881  38.4329690   1.4670918  57.0084309  38.2441715
   1.5854486  57.4660772  37.5109018   1.2933094  56.2029570  37.9577933
   1.4590089  56.9578081  38.0942649   3.9404603  61.3868938  37.2125027
   3.3278917  61.8739340  37.5978759   4.0368778  60.7112429  37.7562678
   3.8642501  61.3587247  37.3503885   6.5356498  67.2603620  38.6797493
   6.2966268  67.2199454  37.8418277   6.6990399  68.1074772  38.8063214
   6.5246801  67.3795705  38.5750975   2.7615111  64.2781082  38.3226603
   3.1142721  63.8510805  38.9972402   1.9029912  64.1931926  38.4527680
   2.6864555  64.2025823  38.4421614   4.1939171  59.3999494  39.2510916
   3.6870036  58.6928633  39.1832093   4.9906605  59.0692683  39.3811992
   4.2366410  59.2472645  39.2609911   2.8359893  64.8966043  35.3987738
   2.8354119  64.7414700  36.2572014   2.6316073  65.7429031  35.3429123
   2.8059671  64.9986664  35.5175677   2.6598974  63.9004786  42.2181116
   2.0761963  64.4013992  41.8058683   2.9803268  63.3934342  41.5845439
   2.6212149  63.8996621  42.0639623   4.6095327  45.9128179  21.2622188
   4.5789331  46.7672816  21.4340457   5.2076675  45.6123471  21.8208332
   4.6932485  45.9944675  21.3696990   1.1188728  51.2690355  35.6235575
   1.8255495  50.7742386  35.7522509   1.3076663  51.7099437  34.8938233
   1.2516634  51.2608706  35.5344620   2.4311901  48.4880481  19.5340498
   2.3151427  49.2388167  19.9632636   3.2267788  48.2304434  19.7836585
   2.5316491  48.5615328  19.6344589   1.7447206  35.8368418  23.2315112
   1.4300647  36.5271897  23.6635535   1.2274148  35.7813201  22.5300613
   1.6211677  35.9303307  23.1912061   6.5407693  51.4119224  24.7185567
   5.7105396  51.6229867  24.8818984   6.4916945  50.5856278  24.4427851
   6.4114428  51.3208830  24.7022933   6.0361651  44.0589624  28.5135989
   5.1990072  44.1291811  28.7483583   6.0049882  44.0614119  27.6410291
   5.9079934  44.0699851  28.4195537   0.7591837  48.2545301  24.1047880
   1.5149352  48.6876815  24.1436789   0.8654161  47.6050071  24.6782516
   0.8862008  48.2222785  24.1945906   3.7972008  52.0818578  24.8550283
   3.3607240  52.0855321  25.6109254   3.4634924  52.7624077  24.4229861
   3.6834628  52.1831034  24.9031116   3.7169491  39.1232406  27.0979711
   4.3595399  39.1930511  27.6841626   3.9692512  38.4561629  26.5959253
   3.8491623  39.0358755  27.1106990   6.9316354  48.7999498  23.7469920
   7.5932788  48.2390167  23.6465829   6.2907766  48.3051529  24.0722611
   6.9345222  48.6435907  23.7802260   3.2181185  49.8164880  23.4881909
   3.4536774  49.9610079  22.6608760   3.3670749  50.5807288  23.8813423
   3.2746988  49.9503935  23.4245513   5.0471642  48.6566546  21.3251513
   5.3779859  49.1894187  20.7191608   5.6204730  48.7105434  21.9813464
   5.1805321  48.7436115  21.3329295   6.1550993  43.8977043  22.8291675
   5.8987558  43.0856985  22.6389557   6.9980307  43.9054610  22.6021862
   6.2417019  43.7789041  22.7676492   3.8376153  51.0526639  32.6650227
   3.6014790  50.2214704  32.5462288   4.4819381  51.0012246  33.2505071
   3.8970823  50.9224327  32.7336121   4.8612573  50.8371088  28.7278522
   4.5558390  51.5699145  29.0891837   4.1418789  50.4309018  28.4471308
   4.7099915  50.8852821  28.7391659  10.5614365  47.4764089  28.0546866
  10.4938866  47.4960048  27.1849452  10.5470028  48.3194416  28.2802536
  10.5493122  47.6037823  27.9599343   8.3472983  46.2508475  26.3293460
   8.8980904  45.6176544  26.5690552   8.3317098  46.7823868  27.0208965
   8.4258179  46.2357423  26.4672318   2.0501389  44.4904809  25.4398056
   1.7066155  43.7695144  25.7905306   2.1494431  44.2818660  24.5976415
   2.0143432  44.3529012  25.3669736   2.5114418  50.9530513  20.9822045
   3.0772451  51.6123723  20.8980588   1.8642321  51.2980211  21.4538447
   2.4993174  51.1012454  21.0394801   4.4449878  47.6164380  24.6018841
   4.3583853  47.7719806  25.4553620   3.9900358  48.2602456  24.2278246
   4.3653135  47.7340135  24.6725948   2.2123743  51.6458487  27.0131182
   2.0738102  52.3439532  27.5179924   1.4323741  51.4907143  26.6567364
   2.0766970  51.7258653  27.0357456   3.7077116  51.0036740  17.7747681
   3.3283925  50.2173878  17.7676970   3.0443361  51.5523597  17.6319325
   3.5535591  50.9681564  17.7528478   1.1621742  33.9462440  25.1781762
   1.2805310  34.4038903  24.4449065   0.9883917  33.1407701  24.8917980
   1.1540913  33.8956212  25.0282696   1.9537215  53.2482231  18.1099367
   2.0357052  54.0549218  17.7860818   2.4386957  53.2678191  18.8340140
   2.0374372  53.3702894  18.1686266   1.4612415  52.0079650  38.1917693
   2.2747280  51.7364799  38.3522825   1.3007381  51.7087190  37.3877889
   1.5582363  51.9234576  38.0963099   1.4733659  53.0685940  33.4640533
   2.1113379  52.5746136  33.1302989   0.8307750  52.9963340  32.8792760
   1.4727885  52.9844948  33.3282888   3.1990659  44.9175086  28.0306449
   2.7718267  44.8301435  27.2754549   2.5616712  45.0252861  28.6161293
   3.0420266  44.9207746  28.0051891   1.5287915  53.7605748  30.1045890
   2.3180294  53.4094813  30.2247972   1.7031513  54.5742137  29.8422524
   1.6708197  53.8291605  30.0833758   3.6355427  38.3247069  24.1465074
   3.0229741  38.8117471  24.5318806   3.7319602  37.6490560  24.6902725
   3.5593325  38.2965378  24.2843932   7.2780455  49.3964006  29.5742590
   7.3363579  49.8450655  30.3202567   6.6446923  49.8062819  29.1372670
   7.1931750  49.5237741  29.6195138   4.2302135  47.4180294  27.6608280
   3.9900358  46.5786709  27.6650707   4.7094142  47.4980460  28.3849054
   4.2654318  47.3061693  27.7683083   6.2307322  44.1981751  25.6137540
   5.9917092  44.1577585  24.7758324   6.3941223  45.0452903  25.7403261
   6.2197625  44.3173836  25.5091021   2.8353352  48.5831700  31.5442585
   3.5587551  48.1304227  31.3653605   2.5703314  48.8636366  30.7614913
   2.9034625  48.5582669  31.4021300   5.2688666  47.5458111  30.0473134
   5.8606506  48.1855362  30.0791332   5.7047660  46.8481148  30.3365201
   5.4207097  47.5376461  30.0953967   2.2937807  44.7603330  22.3476277
   1.6228997  45.3033032  22.2189342   2.9877558  45.2298185  22.1057972
   2.2966675  44.9101601  22.2931805   2.4565935  41.2159213  25.2566650
   2.8093545  40.7888936  25.9312449   1.5980736  41.1310057  25.3867727
   2.3815379  41.1403954  25.3761661   3.8889995  36.3377625  26.1850963
   3.3820860  35.6306765  26.1172140   4.6857429  36.0070814  26.3152039
   3.9317234  36.1850776  26.1949958   6.0910135  50.8542552  19.1691827
   6.4743741  51.6033908  19.3989924   5.2954248  51.1008371  18.9103816
   6.0303917  51.0012246  19.1649401   2.5310717  41.8344175  22.3327785
   2.5304943  41.6792831  23.1912061   2.3266897  42.6807162  22.2769170
   2.5010495  41.9364795  22.4515724   2.3203388  49.2645364  28.6741120
   2.7458459  48.7419786  28.1211545   1.9560308  49.8626201  28.1529743
   2.3289990  49.2755591  28.5150130   0.9958972  54.5880942  37.1834350
   1.1055937  53.7989502  37.5391097   1.3249868  54.4986878  36.3808688
   1.0611378  54.4586794  37.1176741   2.3549798  40.8382917  29.1521163
   1.7712787  41.3392123  28.7398730   2.6754092  40.3312473  28.5185486
   2.3162973  40.8374752  28.9979670  15.5827910  61.4313487  21.2622188
  15.5521915  62.2858123  21.4340457  16.1809259  61.1308779  21.8208332
  15.6665068  61.5129983  21.3696990   8.7827595  60.5189138  26.0175118
   7.9265491  60.6797636  26.0684235   8.8295249  59.6481202  26.0380179
   8.6626707  60.4139940  26.0281184  12.0921312  66.7875663  35.6235575
  12.7988079  66.2927694  35.7522509  12.2809247  67.2284745  34.8938233
  12.2249217  66.7794014  35.5344620  11.6279416  62.5781182  28.6606770
  12.1735376  63.2566268  28.7200740  11.5696292  62.4368643  27.8008352
  11.6995330  62.6573183  28.5418831  13.4044485  64.0065789  19.5340498
  13.2884011  64.7573475  19.9632636  14.2000371  63.7489742  19.7836585
  13.5049074  64.0800636  19.6344589   7.3376518  59.9975807  20.9044227
   8.0356683  60.1763934  21.3965690   7.6528851  59.4746146  20.2814616
   7.4871856  59.9469579  20.8846237   7.5264454  66.3846252  20.8924018
   7.9658089  65.7763352  21.3378791   7.3769117  66.0053625  20.1209483
   7.5685919  66.2384723  20.8443186   4.9936097  64.9790264  28.0942844
   5.6385099  64.4862707  27.7753792   5.2337874  65.1215050  28.9208922
   5.1246682  64.9267706  28.1692377   7.5322188  67.8245169  27.7449736
   7.8145431  67.0296575  27.5236492   8.2608349  68.3025757  27.7654797
   7.6811752  67.7779766  27.7152752   5.5103382  55.3668203  24.9865502
   5.1806712  55.8179347  24.3169200   4.8348384  55.2884367  25.5338508
   5.3613818  55.4219339  24.9688725  11.1273790  64.7373433  17.8454788
  11.0425085  65.5934400  17.9904356  11.6158174  64.4617757  18.5136947
  11.1862688  64.8230754  17.9656869  12.7179790  51.3553726  23.2315112
  12.4033231  52.0457205  23.6635535  12.2006731  51.2998509  22.5300613
  12.5944260  51.4488615  23.1912061  12.0592224  61.3558227  19.3452523
  11.5303695  61.5717861  20.0049829  12.5817243  62.0494366  19.2653492
  12.0580677  61.4901364  19.4308122  17.5140276  66.9304532  24.7185567
  16.6837980  67.1415175  24.8818984  17.4649529  66.1041586  24.4427851
  17.3847012  66.8394138  24.7022933   9.2313606  70.2103200  33.5149650
   9.3196952  70.0229340  34.3627860   9.6603319  69.5640629  33.1154497
   9.3075708  70.0866208  33.5821401   8.4069046  61.4987096  16.6228911
   8.6465049  61.7065080  15.8104254   8.7284887  60.6944605  16.7317856
   8.4906204  61.4101197  16.5189464   3.7159336  53.4280492  20.4688449
   4.4705304  53.7958809  20.2305499   3.5386871  53.8020046  21.2367629
   3.8013814  53.5378680  20.5473338  17.0094235  59.5774932  28.5135989
  16.1722656  59.6477119  28.7483583  16.9782466  59.5799427  27.6410291
  16.8812517  59.5885159  28.4195537   3.4058964  61.7207968  34.2284357
   3.5779467  61.6113863  35.0769639   3.9428321  62.3662373  33.9915550
   3.5103968  61.7999970  34.3189454   2.0716401  55.8350811  17.1666562
   1.8891974  56.0522692  16.3407555   2.9342014  55.9489824  17.2225177
   2.1720990  55.8840709  17.0521049   7.7516120  52.8377221  20.2015586
   8.4802280  52.6593176  19.7553742   7.8411013  53.6795301  20.4122764
   7.8722782  52.9361100  20.1669104  11.7324421  63.7730609  24.1047880
  12.4881936  64.2062123  24.1436789  11.8386745  63.1235379  24.6782516
  11.8594591  63.7408093  24.1945906  14.7704592  67.6003886  24.8550283
  14.3339824  67.6040629  25.6109254  14.4367507  68.2809385  24.4229861
  14.6567212  67.7016342  24.9031116   9.3433665  69.6412219  36.1793433
  10.1274082  69.7543067  36.5449176   9.1430260  68.8153356  36.3752119
   9.4299691  69.5358938  36.2627819  14.6902075  54.6417714  27.0979711
  15.3327983  54.7115819  27.6841626  14.9425095  53.9746937  26.5959253
  14.8224207  54.5544063  27.1106990   2.4619287  57.8518277  31.7104285
   1.7691084  57.3815257  31.9565017   3.0779614  57.6256582  32.2845992
   2.4503817  57.7485409  31.8313438  17.9048938  64.3184806  23.7469920
  18.5665372  63.7575474  23.6465829  17.2640350  63.8236837  24.0722611
  17.9077805  64.1621215  23.7802260  14.1913769  65.3350188  23.4881909
  14.4269358  65.4795387  22.6608760  14.3403332  66.0992596  23.8813423
  14.2479572  65.4689243  23.4245513   1.1859846  61.8183681  32.8531130
   1.9099818  61.8036712  33.3396025   1.2875983  62.5279037  32.3553098
   1.3078055  61.9208384  32.8509917  16.0204225  64.1751854  21.3251513
  16.3512442  64.7079494  20.7191608  16.5937313  64.2290742  21.9813464
  16.1537904  64.2621423  21.3329295   8.5604795  65.2982766  37.7180077
   7.7677776  65.6126278  37.9032697   8.6753723  65.5134234  36.8800862
   8.4600206  65.3766603  37.6218412  11.2336114  62.0216757  22.0075093
  11.3282969  62.7606051  22.4614718  10.6094958  61.5934232  22.4409658
  11.1545145  62.0678078  22.1383241   9.4888588  65.2002970  32.6565374
  10.0627450  64.5630214  32.8113938   9.4103392  65.2007052  31.7875031
   9.5621823  65.1068081  32.5511785  11.4859136  63.8665497  15.2412045
  11.4039298  63.9367684  16.1067032  12.1238856  64.4295241  15.0495786
  11.5678973  63.9604468  15.3401994   4.8452307  63.6326235  24.7086571
   4.5871551  62.7997970  24.6817871   4.9000790  63.8583848  23.8679072
   4.8152085  63.5424006  24.5806708   9.9253357  55.7354685  24.8090664
   9.2209684  55.2463871  24.9674583   9.9738331  55.7477160  23.9379108
   9.8283409  55.6644333  24.7030004   3.8187019  61.1863997  25.1951466
   3.2436610  61.3456166  25.8315427   3.4422695  60.5499406  24.7319917
   3.6789831  61.1161810  25.2206024   7.4860308  59.6587347  30.0543844
   7.0974740  59.2341564  29.3996036   6.8215006  59.9069496  30.5620871
   7.3307235  59.6326068  30.0331712  17.1283577  59.4162351  22.8291675
  16.8720142  58.6042293  22.6389557  17.9712891  59.4239918  22.6021862
  17.2149602  59.2974349  22.7676492  11.3086669  53.3561975  27.5667829
  11.6897181  52.6740146  27.9535703  10.5049954  53.0671577  27.3843493
  11.2463131  53.2129024  27.5971885   8.5899246  63.8885951  18.2520651
   9.4039885  64.1800844  18.1403423   8.5258387  63.2345813  17.6778944
   8.7001985  63.8351146  18.1509489  14.8108736  66.5711947  32.6650227
  14.5747373  65.7400012  32.5462288  15.4551965  66.5197554  33.2505071
  14.8703407  66.4409635  32.7336121   4.4607154  67.3607469  23.3792964
   5.0981101  67.1219216  23.9244757   4.8862226  67.5644627  22.6446124
   4.6183320  67.3558479  23.3510121   5.2678510  55.8616174  37.4330437
   4.9531951  56.6315736  37.1700000   4.9468442  55.2986430  36.8482664
   5.1737429  55.8926442  37.3071787  15.8345157  66.3556396  28.7278522
  15.5290974  67.0884453  29.0891837  15.1151372  65.9494325  28.4471308
  15.6832499  66.4038129  28.7391659   6.8428626  67.8379891  25.0586750
   6.9167634  67.6755063  25.9128600   7.6598132  68.0270081  24.8147231
   6.9744985  67.8416634  25.1484775  21.5346949  62.9949397  28.0546866
  21.4671449  63.0145356  27.1849452  21.5202611  63.8379724  28.2802536
  21.5225705  63.1223131  27.9599343   2.8210407  54.2506695  23.0476633
   1.9532832  54.3229294  23.1134243   3.1085611  55.0528774  23.2364609
   2.7350155  54.3800842  23.0851400  11.9443295  54.3984554  31.3787955
  12.6896887  54.2094365  30.9651381  11.5280600  54.9242792  30.8201812
  11.9928270  54.4486700  31.2352529  19.3205566  61.7693783  26.3293460
  19.8713488  61.1361852  26.5690552  19.3049682  62.3009176  27.0208965
  19.3990763  61.7542731  26.4672318   5.9727957  65.6032380  30.8753354
   5.4739651  66.3148148  30.9538242   6.7828181  65.9233047  30.8371516
   6.0184064  65.7559229  30.8809922   2.2356075  64.8655333  25.1216075
   1.9469323  64.2392804  25.6561802   3.1039423  64.8075621  25.1880755
   2.3216327  64.7642877  25.2107029  13.0233972  60.0090117  25.4398056
  12.6798738  59.2880452  25.7905306  13.1227015  59.8003968  24.5976415
  12.9876015  59.8714320  25.3669736  13.4847002  66.4715821  20.9822045
  14.0505034  67.1309031  20.8980588  12.8374905  66.8165519  21.4538447
  13.4725758  66.6197762  21.0394801   4.8995015  58.4613425  36.1715652
   4.0894791  58.7671204  36.0605494   5.3769702  59.1819007  36.2868236
   4.8498494  58.6128026  36.1722723   3.7586575  67.6759146  26.4198555
   3.2367328  67.8159437  27.1050420   4.1460595  66.9169810  26.6100672
   3.7390276  67.5844669  26.5499632   9.9553580  69.4154605  20.4059124
   9.7140256  68.6822465  19.9986189  10.1354913  69.9641462  19.7525457
   9.9461204  69.3876996  20.2489347   5.1852900  64.7063165  21.8180046
   4.9895683  65.3137899  21.2240349   5.4087246  64.0131109  21.3371720
   5.1887541  64.6940690  21.6596127   3.5831430  61.5917903  21.9360914
   4.3054082  61.7559061  21.4764720   3.1039423  62.3127567  21.8300254
   3.6195161  61.7216132  21.8526528  11.5424938  57.9281701  27.3157599
  10.7036038  57.9542980  27.0795863  11.6129305  58.5752437  27.8962946
  11.4293331  58.0277827  27.3666716   1.2339047  63.9975975  31.0415054
   1.7460144  64.2760228  30.3923814   0.9475390  64.7365269  31.4077867
   1.2673910  64.1478329  31.0004932   9.9894216  54.8267078  22.0485215
  10.6920569  54.6274827  21.5705174   9.7238405  54.0543021  22.3554059
  10.0540848  54.6830044  22.0230657  15.4182462  63.1349688  24.6018841
  15.3316436  63.2905114  25.4553620  14.9632942  63.7787764  24.2278246
  15.3385718  63.2525443  24.6725948   4.7522772  56.0902364  31.1016096
   4.5605969  56.1057498  31.9515519   5.6021368  56.2866038  31.0782751
   4.8498494  56.1216715  31.2239391   9.2908278  60.4560435  23.2244401
   9.0442992  60.3756186  24.0581190   9.6193401  59.6713903  23.0306928
   9.3029521  60.3286701  23.3191924  13.1856327  67.1643795  27.0131182
  13.0470686  67.8624840  27.5179924  12.4056324  67.0092451  26.6567364
  13.0499553  67.2443961  27.0357456  11.5234412  63.4640170  33.2653564
  11.5182450  62.5919986  33.2695990  12.2295406  63.6628339  32.7923019
  11.6279416  63.3644044  33.1960599   5.2505305  63.1917154  32.6367384
   5.3948681  63.7718362  32.0010494   5.5980954  63.5693450  33.3417238
   5.3232766  63.3337858  32.6466379   7.4225222  62.3907322  30.4192515
   6.6748536  62.5838337  30.0140793   7.5766748  61.5652542  30.1816637
   7.3347650  62.2972434  30.3237921  14.6809699  66.5222048  17.7747681
  14.3016508  65.7359186  17.7676970  14.0175945  67.0708905  17.6319325
  14.5268174  66.4866872  17.7528478   7.6626999  56.2857873  31.3087919
   8.1199614  57.0181847  31.4360711   7.7383328  55.8624338  32.0675175
   7.7417969  56.3315111  31.4388996  12.1354325  49.4647748  25.1781762
  12.2537893  49.9224211  24.4449065  11.9616501  48.6593009  24.8917980
  12.1273496  49.4141520  25.0282696   5.5409377  58.2759977  28.1529743
   4.7505452  58.0951437  28.4747079   5.9370000  57.4986929  28.1360038
   5.4826254  58.1347438  28.1982291  10.9253064  65.9102407  25.8789189
  10.2498065  65.6787639  26.3802576  10.9345440  65.3023590  25.2531294
  10.8271568  65.7861332  25.8605341   8.0547208  60.7520236  32.6353242
   7.9906349  61.6130192  32.5073379   8.1944395  60.4352229  31.8348793
   8.0662678  60.8320403  32.4981455  12.9269798  68.7667539  18.1099367
  13.0089636  69.5734526  17.7860818  13.4119540  68.7863499  18.8340140
  13.0106956  68.8888202  18.1686266   6.7366301  63.4452375  26.7769445
   6.3128551  63.6456874  26.0408463   6.5611157  62.5981223  26.8893745
   6.6477182  63.3501157  26.6843135   2.0248746  63.9404427  22.2097417
   2.1813366  63.8751229  23.0653409   2.3649340  64.7152979  21.9976097
   2.0981981  64.0453625  22.3052012   8.5627891  63.3162310  21.0790781
   9.1043437  62.8132691  21.5429401   8.8774450  63.2627505  20.2680266
   8.6892288  63.2341731  21.0274593  12.4344998  67.5264958  38.1917693
  13.2479864  67.2550106  38.3522825  12.2739965  67.2272498  37.3877889
  12.5314947  67.4419884  38.0963099   9.7117160  58.2098615  31.1313081
   9.9259130  57.5709529  30.5776435   9.0951060  58.6544439  30.7020943
   9.6522490  58.1808758  30.9863512  11.8756248  59.8187680  32.0696388
  11.0632930  59.5113570  32.1509561  12.3346183  59.3386680  32.6339100
  11.8236633  59.7024172  32.1650982  11.2861503  67.6967352  22.5173332
  10.9276158  67.8681995  23.2937365  10.8000214  68.1580558  21.9601331
  11.1620200  67.7906323  22.5498602   9.1031889  51.3198550  26.1200424
   8.2325447  51.2937272  26.0733733   9.3572230  51.1475743  25.3026270
   9.0125449  51.2908694  25.9920561   8.9709756  61.2247751  36.8525090
   9.4409387  61.8489868  37.2392965   9.0171636  60.5564727  37.4118305
   9.0477632  61.2182432  36.9925162   6.1281030  53.3304779  27.5773894
   5.6119518  52.6384970  27.7025473   5.5674958  53.9975556  27.5236493
   5.9687543  53.3268036  27.5879960   8.1973263  53.8697739  29.4066747
   7.8105016  53.8946770  30.1880277   7.7106200  53.3039418  28.9541263
   8.0685772  53.7893490  29.4554650  12.4466242  68.5871248  33.4640533
  13.0845963  68.0931444  33.1302989  11.8040334  68.5148648  32.8792760
  12.4460469  68.5030256  33.3282888  14.1723243  60.4360394  28.0306449
  13.7450851  60.3486742  27.2754549  13.5349296  60.5438169  28.6161293
  14.0152850  60.4393054  28.0051891   7.8630405  50.7564724  31.6977007
   8.4923523  51.2925024  31.4198077   8.0316267  50.6642083  32.5490572
   7.9808199  50.8226087  31.7825535   7.6644320  55.5435919  33.9703418
   8.4917749  55.2721068  34.0262033   7.6852166  56.3396761  34.3267236
   7.7897170  55.6215673  34.0318601  12.5020499  69.2791056  30.1045890
  13.2912877  68.9280121  30.2247972  12.6764097  70.0927445  29.8422524
  12.6440781  69.3476913  30.0833758   2.2413809  62.6899782  27.1573679
   1.4001816  62.5903656  27.3652573   2.4503817  63.4595262  27.5088000
   2.1478502  62.7891825  27.2400994  11.3554323  53.2900613  24.6662309
  11.5603917  53.2222921  25.5119306  11.0280747  54.0959434  24.5983486
  11.3369571  53.3986553  24.7821964   6.0530474  60.6181181  26.4071277
   5.7493612  60.0637169  27.0081684   5.3509895  60.7973391  25.9199311
   5.9046684  60.5625963  26.4240982   5.1096571  57.9281701  20.9715978
   5.3856306  57.2100613  20.5593546   5.7095241  58.5266621  20.7637084
   5.2389836  57.9102072  20.8796740  14.6088011  53.8432377  24.1465074
  13.9962325  54.3302779  24.5318806  14.7052186  53.1675868  24.6902725
  14.5325909  53.8150686  24.2843932   8.6107092  55.5995218  19.2462573
   9.0650838  55.7705779  19.9710418   9.0847138  54.9863329  18.8460349
   8.7475412  55.5346103  19.2936335   2.1322617  65.0843544  28.5765312
   1.5410551  65.7253042  28.5468327   2.8943641  65.5081161  28.5496611
   2.1570878  65.2419383  28.5680459   2.5283240  56.2445542  29.2433329
   2.9884722  56.3184471  29.9808453   2.5739347  57.0426796  28.8933151
   2.6033795  56.3739689  29.3006086   4.1766590  56.9112237  33.8105357
   3.7852155  56.2645584  34.2461134   4.3452453  57.5023672  34.4299612
   4.1437500  56.9026505  33.9668063  18.2513039  64.9149314  29.5742590
  18.3096163  65.3635963  30.3202567  17.6179507  65.3248127  29.1372670
  18.1664334  65.0423049  29.6195138  11.8912134  70.5352856  26.0097336
  11.6931822  71.0243670  25.3153548  11.2699845  70.7394097  26.5881470
  11.7699698  70.6369394  25.9920560   5.9520112  62.3037753  20.3507581
   6.6962157  62.6912029  20.5890530   6.0980808  61.4595178  20.5148068
   6.0830697  62.2368225  20.4101550   7.8699687  54.0988012  25.3839442
   7.0235732  54.2710819  25.2580792   7.8670820  53.2937355  25.7205270
   7.7446837  54.0049040  25.4150569   8.9397988  57.8763226  26.2501500
   8.4657942  57.3504988  26.7606811   9.3116124  57.3292699  25.6816361
   8.9247877  57.7179223  26.2416647  15.2034718  62.9365602  27.6608280
  14.9632941  62.0972017  27.6650707  15.6826726  63.0165768  28.3849054
  15.2386902  62.8247001  27.7683083  10.8681487  58.7699781  19.3127254
  10.3404506  58.8528524  18.6232963  11.3277196  59.5117652  19.3091898
  10.8583338  58.8920443  19.2101949  17.2039905  59.7167059  25.6137540
  16.9649675  59.6762893  24.7758324  17.3673807  60.5638211  25.7403261
  17.1930209  59.8359144  25.5091021  13.8085936  64.1017008  31.5442585
  14.5320134  63.6489535  31.3653605  13.5435898  64.3821674  30.7614913
  13.8767209  64.0767977  31.4021300   2.6772804  58.6977182  28.2795464
   2.0525874  58.7095574  27.6721417   2.3418399  59.1737357  28.9286704
   2.5358296  58.7695699  28.2852032  10.4218570  67.3403344  18.4436911
  11.1452769  67.8061457  18.3001484   9.9819161  67.4076954  17.6934508
  10.4634262  67.4187181  18.3121692   9.5904725  64.2000886  29.6937600
   8.9761718  63.6558937  29.9886235  10.1072010  63.6865123  29.2143416
   9.5760387  64.0437295  29.6661828   8.8301022  65.2705156  27.4281898
   8.4028630  64.6454875  26.9947334   8.8225967  64.9880078  28.2540906
   8.7660163  65.1357937  27.4861726   1.9463549  60.3070329  30.4970332
   2.1057036  59.5513654  30.9022054   1.7656443  60.8561269  31.1511070
   1.9428908  60.2764143  30.6533038   9.8883852  52.4731565  31.0521122
   9.3924414  52.6695239  30.3612689  10.6452914  52.8724233  30.8809924
   9.9270677  52.5609299  30.9241259   7.1586732  56.1473911  27.6424432
   7.1829219  55.6134023  26.9537212   7.4098205  55.6391220  28.3050023
   7.1996651  55.9934815  27.6389077   3.4388054  54.8744729  27.0230177
   3.4786426  55.3753936  27.7364884   2.6137719  54.9655123  26.7536100
   3.3227580  54.9626545  27.0880715   5.6217667  64.4405469  35.1250471
   4.7713298  64.5777183  35.2608116   5.7845795  63.7069247  35.5698173
   5.5201531  64.3519570  35.2106070   4.8602418  61.3905239  29.3204076
   4.0294347  61.5579057  29.1139324   4.8053935  61.0141190  30.1052961
   4.7291832  61.3594970  29.4052604   2.6686201  54.8814132  34.9560486
   3.2938904  54.3376265  35.2289919   2.2136681  54.4009049  34.3868277
   2.6934461  54.7303613  34.9122080   3.2338461  59.6660831  19.8494193
   3.3741422  60.1633295  20.5522835   3.7320994  58.9647125  19.9908407
   3.3279542  59.6362809  19.9745772  16.2421250  63.0643419  30.0473134
  16.8339090  63.7040670  30.0791332  16.6780244  62.3666456  30.3365201
  16.3939681  63.0561769  30.0953967   4.8417667  56.4641917  17.1532212
   5.1633508  55.9844999  16.4991475   5.1044610  57.2741563  16.9623024
   4.9283692  56.5131815  17.0287704   8.0714639  67.4860791  30.6731028
   7.5639730  68.0396638  31.1171659   7.7741286  67.5469081  29.8549803
   7.9519524  67.5767102  30.6179485  10.2376822  55.8514111  29.5155691
  10.6631893  55.3986637  28.9039218   9.6233815  55.2974182  29.7920479
  10.2105467  55.7028087  29.4660717   8.6771044  52.3229211  22.9246268
   8.0339362  52.1726857  23.4931407   8.3370451  52.0771556  22.1595373
   8.5316122  52.2641333  22.8949283  13.2670391  60.2788638  22.3476277
  12.5961581  60.8218340  22.2189342  13.9610141  60.7483493  22.1057972
  13.2699258  60.4286909  22.2931805  13.4298518  56.7344521  25.2566650
  13.7826128  56.3074244  25.9312449  12.5713320  56.6495365  25.3867727
  13.3547963  56.6589262  25.3761661   2.1282203  59.3652041  23.3149497
   1.4094192  59.7816173  23.5822360   2.4994566  59.9306280  22.7641135
   2.0774135  59.5101322  23.2732304  11.4281784  59.9979890  29.2051492
  11.4079711  59.8163185  30.0586271  11.4760985  60.8691908  29.1811076
  11.4316425  60.0996428  29.3274787   9.3728114  66.5867082  35.1299969
   9.3323969  65.9416759  34.5445125  10.1851432  66.5303699  35.4425381
   9.4871268  66.4826049  35.0896918   7.9028778  58.4050041  18.6522876
   7.3093617  58.7267037  18.1007443   7.9404055  57.5591136  18.4443982
   7.8203167  58.3274369  18.5405647  14.8622578  51.8562933  26.1850963
  14.3553443  51.1492073  26.1172140  15.6590012  51.5256122  26.3152039
  14.9049818  51.7036084  26.1949958  10.7786594  58.3629545  22.0824626
  10.5500287  58.3862247  21.2402985  11.0384670  57.5387012  22.2019637
  10.7832782  58.2445625  21.9749824   5.0605823  60.2164018  31.6849727
   4.5484726  59.6085201  32.0434758   4.8885319  60.9320611  32.1523702
   4.9595460  60.2327318  31.8065950   3.8331357  56.9006092  23.3778822
   4.3088723  57.2623171  22.7429003   3.3319956  57.5562559  23.6578965
   3.8296716  57.0500280  23.3255563  17.0642718  66.3727860  19.1691827
  17.4476324  67.1219216  19.3989924  16.2686832  66.6193679  18.9103816
  17.0036501  66.5197553  19.1649401   8.9374893  58.1388263  34.1251982
   9.4946323  57.9102072  33.4930448   8.6135958  58.8993929  33.8487195
   8.9721303  58.2172100  33.9908479   6.6558010  61.2255916  35.0903989
   7.4069337  61.5407593  35.4043543   6.8480587  61.0235087  34.2637911
   6.7949424  61.2423298  35.0147385   5.8758010  59.0447291  16.7452206
   6.2556975  59.0626921  15.9603321   5.1350606  59.4901280  16.6243053
   5.8226848  59.1129066  16.6115774  13.5043300  57.3529483  22.3327785
  13.5037527  57.1978139  23.1912061  13.2999481  58.1992470  22.2769170
  13.4743078  57.4550103  22.4515724  11.2284153  62.0326984  25.9863992
  11.7237818  61.3149979  25.9468012  10.4183928  61.7297782  25.8718479
  11.1828046  61.8824631  25.9637717  13.2935971  64.7830672  28.6741120
  13.7191043  64.2605094  28.1211545  12.9292891  65.3811509  28.1529743
  13.3022574  64.7940899  28.5150130   9.8814571  68.4964936  25.0042278
  10.3525749  69.2105199  25.1732263  10.2174749  67.8963686  25.5402147
  10.0009686  68.5136400  25.1074654  11.9691555  70.1066249  37.1834350
  12.0788521  69.3174810  37.5391097  12.2982452  70.0172186  36.3808688
  12.0343961  69.9772102  37.1176741   6.7984066  53.2692407  31.9600373
   6.9311971  52.4723400  32.2881348   7.1829219  53.7958810  32.5398648
   6.8740395  53.2292323  32.0943875  10.5188517  68.2882870  31.7669970
   9.9709463  67.6640754  31.4990036  10.9801546  68.4777142  31.0514050
  10.5055727  68.2241920  31.6220402   9.8716421  50.1922733  28.5581466
   9.0662385  50.0820462  28.8749304   9.7423156  50.2935189  27.7011332
   9.7336554  50.1906403  28.4789506  13.3282382  56.3568225  29.1521163
  12.7445370  56.8577431  28.7398730  13.6486676  55.8497781  28.5185486
  13.2895557  56.3560060  28.9979670   5.8677181  55.2708820  19.4279838
   6.6892875  55.4407132  19.1861532   5.4046832  55.4256081  18.7046135
   5.9208343  55.3190553  19.2851482   4.4572513  53.2651582  30.2078266
   5.0016926  52.9242709  30.7982608   4.5109448  54.1237043  30.3499551
   4.5461632  53.3406841  30.3160140  10.0846843  69.2933943  28.2979312
  10.9045217  69.1496909  28.5595607   9.8040921  69.9180142  28.8395750
  10.1643587  69.3644295  28.4167251  16.4835966  70.8853511  24.9865502
  16.1539296  71.3364655  24.3169200  15.8080967  70.8069675  25.5338508
  16.3346402  70.9404647  24.9688725  23.6912373  66.8739034  23.2315112
  23.3765814  67.5642513  23.6635535  23.1739315  66.8183816  22.5300613
  23.5676844  66.9673923  23.1912061  14.6891920  68.9465800  20.4688449
  15.4437888  69.3144117  20.2305499  14.5119454  69.3205354  21.2367629
  14.7746398  69.0563988  20.5473338  27.9826818  75.0960240  28.5135989
  27.1455239  75.1662427  28.7483583  27.9515049  75.0984735  27.6410291
  27.8545101  75.1070467  28.4195537  13.0448984  71.3536119  17.1666562
  12.8624557  71.5708000  16.3407555  13.9074597  71.4675131  17.2225177
  13.1453574  71.4026017  17.0521049  18.7248703  68.3562529  20.2015586
  19.4534864  68.1778484  19.7553742  18.8143596  69.1980609  20.4122764
  18.8455365  68.4546408  20.1669104  25.6634658  70.1603022  27.0979711
  26.3060567  70.2301126  27.6841626  25.9157679  69.4932245  26.5959253
  25.7956790  70.0729370  27.1106990  20.8985941  71.2539993  24.8090664
  20.1942267  70.7649179  24.9674583  20.9470915  71.2662468  23.9379108
  20.8015992  71.1829641  24.7030004  28.1016160  74.9347659  22.8291675
  27.8452725  74.1227601  22.6389557  28.9445474  74.9425226  22.6021862
  28.1882186  74.8159657  22.7676492  22.2819253  68.8747283  27.5667829
  22.6629765  68.1925454  27.9535703  21.4782537  68.5856885  27.3843493
  22.2195715  68.7314332  27.5971885  16.2411093  71.3801481  37.4330437
  15.9264534  72.1501044  37.1700000  15.9201026  70.8171737  36.8482664
  16.1470012  71.4111750  37.3071787  13.7942990  69.7692003  23.0476633
  12.9265416  69.8414602  23.1134243  14.0818194  70.5714082  23.2364609
  13.7082738  69.8986150  23.0851400  22.9175879  69.9169862  31.3787955
  23.6629471  69.7279673  30.9651381  22.5013184  70.4428100  30.8201812
  22.9660853  69.9672008  31.2352529  23.9966556  75.5275424  25.4398056
  23.6531322  74.8065760  25.7905306  24.0959599  75.3189276  24.5976415
  23.9608599  75.3899628  25.3669736  22.5157521  73.4467009  27.3157599
  21.6768622  73.4728288  27.0795863  22.5861889  74.0937745  27.8962946
  22.4025915  73.5463135  27.3666716  20.9626800  70.3452386  22.0485215
  21.6653153  70.1460135  21.5705174  20.6970988  69.5728329  22.3554059
  21.0273432  70.2015352  22.0230657  15.7255356  71.6087671  31.1016096
  15.5338553  71.6242806  31.9515519  16.5753952  71.8051346  31.0782751
  15.8231078  71.6402023  31.2239391  18.6359583  71.8043181  31.3087919
  19.0932197  72.5367155  31.4360711  18.7115912  71.3809646  32.0675175
  18.7150553  71.8500419  31.4388996  23.1086909  64.9833056  25.1781762
  23.2270477  65.4409519  24.4449065  22.9349085  64.1778317  24.8917980
  23.1006080  64.9326828  25.0282696  20.0764473  66.8383858  26.1200424
  19.2058031  66.8122579  26.0733733  20.3304814  66.6661051  25.3026270
  19.9858033  66.8094002  25.9920561  17.1013613  68.8490087  27.5773894
  16.5852102  68.1570278  27.7025473  16.5407542  69.5160864  27.5236493
  16.9420126  68.8453344  27.5879960  19.1705847  69.3883047  29.4066747
  18.7837600  69.4132078  30.1880277  18.6838784  68.8224725  28.9541263
  19.0418356  69.3078798  29.4554650  18.8362988  66.2750032  31.6977007
  19.4656106  66.8110332  31.4198077  19.0048851  66.1827391  32.5490572
  18.9540783  66.3411395  31.7825535  18.6376903  71.0621227  33.9703418
  19.4650333  70.7906376  34.0262033  18.6584749  71.8582069  34.3267236
  18.7629753  71.1400981  34.0318601  22.3286907  68.8085921  24.6662309
  22.5336500  68.7408229  25.5119306  22.0013331  69.6144742  24.5983486
  22.3102155  68.9171861  24.7821964  25.5820595  69.3617685  24.1465074
  24.9694908  69.8488087  24.5318806  25.6784769  68.6861176  24.6902725
  25.5058492  69.3335994  24.2843932  19.5839676  71.1180526  19.2462573
  20.0383422  71.2891087  19.9710418  20.0579721  70.5048637  18.8460349
  19.7207996  71.0531411  19.2936335  18.8432271  69.6173319  25.3839442
  17.9968316  69.7896127  25.2580792  18.8403403  68.8122663  25.7205270
  18.7179421  69.5234348  25.4150569  19.9130571  73.3948534  26.2501500
  19.4390526  72.8690296  26.7606811  20.2848707  72.8478007  25.6816361
  19.8980460  73.2364530  26.2416647  28.1772489  75.2352367  25.6137540
  27.9382259  75.1948201  24.7758324  28.3406390  76.0823519  25.7403261
  28.1662792  75.3544452  25.5091021  20.8616436  67.9916873  31.0521122
  20.3656997  68.1880547  30.3612689  21.6185498  68.3909541  30.8809924
  20.9003261  68.0794607  30.9241259  18.1319315  71.6659219  27.6424432
  18.1561803  71.1319331  26.9537212  18.3830789  71.1576528  28.3050023
  18.1729234  71.5120123  27.6389077  14.4120638  70.3930037  27.0230177
  14.4519009  70.8939244  27.7364884  13.5870302  70.4840431  26.7536100
  14.2960164  70.4811853  27.0880715  13.6418784  70.3999440  34.9560486
  14.2671488  69.8561573  35.2289919  13.1869264  69.9194357  34.3868277
  13.6667045  70.2488921  34.9122080  21.2109405  71.3699419  29.5155691
  21.6364477  70.9171945  28.9039218  20.5966398  70.8159490  29.7920479
  21.1838051  71.2213395  29.4660717  19.6503628  67.8414519  22.9246268
  19.0071946  67.6912165  23.4931407  19.3103035  67.5956864  22.1595373
  19.5048705  67.7826641  22.8949283  24.4031102  72.2529829  25.2566650
  24.7558712  71.8259552  25.9312449  23.5445903  72.1680673  25.3867727
  24.3280547  72.1774570  25.3761661  25.8355162  67.3748241  26.1850963
  25.3286027  66.6677381  26.1172140  26.6322596  67.0441430  26.3152039
  25.8782401  67.2221392  26.1949958  21.7519178  73.8814853  22.0824626
  21.5232871  73.9047555  21.2402985  22.0117254  73.0572320  22.2019637
  21.7565366  73.7630933  21.9749824  24.4775884  72.8714790  22.3327785
  24.4770110  72.7163447  23.1912061  24.2732064  73.7177778  22.2769170
  24.4475662  72.9735411  22.4515724  17.7716649  68.7877715  31.9600373
  17.9044555  67.9908708  32.2881348  18.1561802  69.3144118  32.5398648
  17.8472978  68.7477631  32.0943875  20.8449005  65.7108041  28.5581466
  20.0394968  65.6005770  28.8749304  20.7155740  65.8120496  27.7011332
  20.7069137  65.7091711  28.4789506  24.3014965  71.8753533  29.1521163
  23.7177954  72.3762739  28.7398730  24.6219259  71.3683089  28.5185486
  24.2628140  71.8745368  28.9979670  16.8409764  70.7894127  19.4279838
  17.6625459  70.9592440  19.1861532  16.3779415  70.9441388  18.7046135
  16.8940926  70.8375860  19.2851482  15.4305096  68.7836890  30.2078266
  15.9749509  68.4428016  30.7982608  15.4842032  69.6422351  30.3499551
  15.5194216  68.8592149  30.3160140   0.8139552  28.2068487  22.5575621
   1.5206319  27.7120517  22.6862556   1.0027487  28.6477568  21.8278279
   0.9467458  28.1986837  22.4684667   3.5326976  27.9904770  19.5990274
   3.2965614  27.1592835  19.4802335   4.1770205  27.9390378  20.1845118
   3.5921647  27.8602458  19.6676167   4.5563397  27.7749219  15.6618568
   4.2509214  28.5077276  16.0231884   3.8369613  27.3687149  15.3811354
   4.4050739  27.8230952  15.6731705  10.2565189  24.4142220  14.9886913
  10.1889690  24.4338179  14.1189499  10.2420852  25.2572547  15.2142583
  10.2443946  24.5415955  14.8939390   1.1563239  28.9457781  25.1257740
   1.9698104  28.6742930  25.2862872   0.9958205  28.6465321  24.3217936
   1.2533187  28.8612707  25.0303145   1.2238739  30.6983879  17.0385937
   2.0131118  30.3472944  17.1588019   1.3982337  31.5120268  16.7762571
   1.3659021  30.7669737  17.0173805   6.9731279  26.3342137  16.5082637
   7.0314403  26.7828786  17.2542613   6.3397747  26.7440950  16.0712717
   6.8882574  26.4615872  16.5535185   2.5304176  25.5209831  18.4782631
   3.2538375  25.0682358  18.2993651   2.2654138  25.8014497  17.6954959
   2.5985449  25.4960800  18.3361347   4.9639490  24.4836242  16.9813181
   5.5557330  25.1233493  17.0131379   5.3998484  23.7859279  17.2705248
   5.1157921  24.4754592  17.0294014   2.0154212  26.2023495  15.6081167
   2.4409283  25.6797917  15.0551592   1.6511132  26.8004333  15.0869790
   2.0240814  26.2133722  15.4490177   0.6909796  31.5259073  24.1174397
   0.8006761  30.7367633  24.4731144   1.0200692  31.4365009  23.3148735
   0.7562202  31.3964926  24.0516787  15.2778734  38.3691618   8.1962235
  15.2472739  39.2236255   8.3680504  15.8760083  38.0686910   8.7548378
  15.3615892  38.4508114   8.3037037   8.4778419  37.4567269  12.9515165
   7.6216315  37.6175767  13.0024282   8.5246073  36.5859333  12.9720226
   8.3577530  37.3518071  12.9621231  11.7872136  43.7253795  22.5575621
  12.4938903  43.2305825  22.6862556  11.9760071  44.1662876  21.8278279
  11.9200041  43.7172145  22.4684667   7.8548810  49.3669625  10.0849055
   8.2388189  49.9356524   9.5453831   7.7907951  48.6419135   9.6054872
   7.9022237  49.3445088   9.9342918  11.3230240  39.5159313  15.5946817
  11.8686200  40.1944399  15.6540787  11.2647116  39.3746774  14.7348398
  11.3946154  39.5951315  15.4758877   4.4404315  47.0048379  10.9815169
   4.5414678  46.1948733  11.2912297   3.8446060  46.9105325  10.3514848
   4.3676854  46.8713407  10.9341408  13.0995309  40.9443920   6.4680545
  12.9834835  41.6951606   6.8972683  13.8951195  40.6867873   6.7176632
  13.1999898  41.0178767   6.5684636   4.2805055  51.9225968  12.3830025
   4.9242510  52.3639132  12.7726184   4.6061310  51.1179394  12.2960284
   4.4236883  51.8691163  12.4275503   7.0327342  36.9353938   7.8384274
   7.7307507  37.1142065   8.3305737   7.3479675  36.4124277   7.2154663
   7.1822679  36.8847710   7.8186284   7.2215278  43.3224383   7.8264065
   7.6608913  42.7141483   8.2718838   7.0719941  42.9431756   7.0549530
   7.2636743  43.1762854   7.7783233   4.6886921  41.9168395  15.0282891
   5.3335923  41.4240838  14.7093839   4.9288698  42.0593181  15.8548969
   4.8197506  41.8645837  15.1032424   7.2273012  44.7623301  14.6789783
   7.5096255  43.9674706  14.4576539   7.9559172  45.2403888  14.6994844
   7.3762576  44.7157898  14.6492798   5.2054206  32.3046335  11.9205548
   4.8757536  32.7557478  11.2509247   4.5299208  32.2262498  12.4678555
   5.0564642  32.3597470  11.9028772  10.8224614  41.6751564   4.7794834
  10.7375909  42.5312531   4.9244403  11.3108997  41.3995888   5.4476994
  10.8813512  41.7608886   4.8996916  11.7543047  38.2936358   6.2792570
  11.2254519  38.5095992   6.9389876  12.2768067  38.9872497   6.1993539
  11.7531500  38.4279495   6.3648169  17.2091100  43.8682663  11.6525614
  16.3788803  44.0793307  11.8159031  17.1600353  43.0419717  11.3767898
  17.0797836  43.7772269  11.6362979   5.2700838  46.6986517  14.4873524
   4.7527780  46.3393932  13.8834832   5.9675229  46.1748691  14.4979590
   5.2966419  46.5684205  14.4003782   8.9264430  47.1481331  20.4489697
   9.0147776  46.9607471  21.2967907   9.3554142  46.5018761  20.0494543
   9.0026532  47.0244339  20.5161448   6.4934890  46.4312491  19.4307359
   5.9305725  46.0185101  19.9547020   7.2555913  46.3565397  19.8500502
   6.5229338  46.3589892  19.5700359   2.0530881  48.4210512  12.0343989
   2.7551460  47.9062501  12.0916746   1.9728364  48.7484664  12.8390864
   2.1454642  48.3924738  12.1616781  16.7045059  36.5153063  15.4476035
  15.8673480  36.5855251  15.6823630  16.6733290  36.5177558  14.5750338
  16.5763341  36.5263291  15.3535583   3.1009788  38.6586099  21.1624404
   3.2730291  38.5491994  22.0109685   3.6379145  39.3040505  20.9255596
   3.2054792  38.7378101  21.2529501   1.3781657  44.6116864  11.5429597
   2.2170556  44.8439797  11.5903359   1.4093426  43.7421176  11.4736632
   1.5063374  44.5173811  11.5394242   2.0034360  45.0317739  15.8442903
   2.5432585  44.8888870  16.5146275   1.3204306  45.4314490  16.2126929
   1.9826513  45.0697410  15.9977324  11.4275244  40.7108740  11.0387927
  12.1832760  41.1440254  11.0776836  11.5337569  40.0613510  11.6122563
  11.5545415  40.6786224  11.1285952  14.4655416  44.5382017  11.7890330
  14.0290647  44.5418760  12.5449301  14.1318331  45.2187516  11.3569907
  14.3518036  44.6394473  11.8371162   9.0384489  46.5790350  23.1133480
   9.8224906  46.6921198  23.4789222   8.8381084  45.7531487  23.3092166
   9.1250515  46.4737070  23.1967866  14.3852898  31.5795845  14.0319758
  15.0278807  31.6493950  14.6181673  14.6375919  30.9125068  13.5299300
  14.5175031  31.4922194  14.0447037   2.1570111  34.7896408  18.6444332
   1.4641908  34.3193388  18.8905063   2.7730438  34.5634713  19.2186039
   2.1454641  34.6863540  18.7653484   9.1954883  48.4900452  16.7599936
   8.3970128  48.2499952  17.0173804   9.6440894  48.5414845  17.5066983
   9.1429494  48.4622843  16.9084860  17.5999762  41.2562937  10.6809967
  18.2616196  40.6953606  10.5805876  16.9591174  40.7614968  11.0062658
  17.6028629  41.0999346  10.7142307  13.8864593  42.2728320  10.4221956
  14.1220182  42.4173518   9.5948807  14.0354156  43.0370728  10.8153470
  13.9430396  42.4067374  10.3585560   0.8810670  38.7561812  19.7871177
   1.6050642  38.7414843  20.2736072   0.9826807  39.4657168  19.2893145
   1.0028879  38.8586516  19.7849964  15.7155049  41.1129985   8.2591560
  16.0463266  41.6457626   7.6531655  16.2888137  41.1668873   8.9153511
  15.8488728  41.1999554   8.2669341   8.2555619  42.2360897  24.6520124
   7.4628600  42.5504409  24.8372744   8.3704547  42.4512365  23.8140909
   8.1551030  42.3144734  24.5558459  10.9286938  38.9594888   8.9415140
  11.0233793  39.6984182   9.3954765  10.3045782  38.5312364   9.3749704
  10.8495968  39.0056209   9.0723287   9.1839412  42.1381101  19.5905421
   9.7578274  41.5008345  19.7453985   9.1054216  42.1385183  18.7215078
   9.2572647  42.0446212  19.4851832   4.5403131  40.5704366  11.6426618
   4.2822375  39.7376101  11.6157918   4.5951614  40.7961979  10.8019118
   4.5102909  40.4802137  11.5146755   9.6204181  32.6732817  11.7430711
   8.9160508  32.1842002  11.9014630   9.6689155  32.6855291  10.8719155
   9.5234233  32.6022465  11.6370051   3.5137843  38.1242128  12.1291513
   2.9387434  38.2834297  12.7655474   3.1373519  37.4877538  11.6659963
   3.3740655  38.0539941  12.1546071   7.1811132  36.5965478  16.9883891
   6.7925564  36.1719695  16.3336082   6.5165830  36.8447627  17.4960918
   7.0258059  36.5704199  16.9671759  16.8234401  36.3540482   9.7631721
  16.5670966  35.5420424   9.5729604  17.6663715  36.3618050   9.5361909
  16.9100426  36.2352480   9.7016538  11.0037493  30.2940106  14.5007876
  11.3848005  29.6118278  14.8875750  10.2000777  30.0049709  14.3183540
  10.9413955  30.1507155  14.5311931   8.2850070  40.8264082   5.1860698
   9.0990709  41.1178975   5.0743470   8.2209211  40.1723945   4.6118991
   8.3952809  40.7729277   5.0849536  14.5059560  43.5090078  19.5990274
  14.2698197  42.6778143  19.4802335  15.1502789  43.4575686  20.1845118
  14.5654231  43.3787766  19.6676167   4.1557978  44.2985600  10.3133010
   4.7931925  44.0597347  10.8584804   4.5813050  44.5022759   9.5786171
   4.3134144  44.2936610  10.2850168   4.9629334  32.7994305  24.3670484
   4.6482775  33.5693867  24.1040047   4.6419266  32.2364561  23.7822711
   4.8688253  32.8304573  24.2411834  15.5295981  43.2934527  15.6618568
  15.2241798  44.0262584  16.0231884  14.8102196  42.8872457  15.3811354
  15.3783323  43.3416260  15.6731705   6.5379450  44.7758022  11.9926797
   6.6118458  44.6133194  12.8468647   7.3548956  44.9648212  11.7487278
   6.6695809  44.7794765  12.0824822  21.2297773  39.9327528  14.9886913
  21.1622273  39.9523487  14.1189499  21.2153435  40.7757855  15.2142583
  21.2176529  40.0601263  14.8939390  11.6394119  31.3362686  18.3128002
  12.3847711  31.1472496  17.8991427  11.2231424  31.8620923  17.7541858
  11.6879094  31.3864831  18.1692575  19.0156390  38.7071914  13.2633507
  19.5664312  38.0739983  13.5030599  19.0000506  39.2387307  13.9549011
  19.0941587  38.6920862  13.4012365   5.6678781  42.5410511  17.8093400
   5.1690475  43.2526279  17.8878289   6.4779005  42.8611178  17.7711563
   5.7134888  42.6937360  17.8149969   1.9306899  41.8033464  12.0556121
   1.6420147  41.1770936  12.5901849   2.7990247  41.7453752  12.1220802
   2.0167150  41.7021009  12.1447076  12.7184796  36.9468248  12.3738103
  12.3749562  36.2258583  12.7245353  12.8177839  36.7382099  11.5316462
  12.6826839  36.8092451  12.3009783  13.1797825  43.4093952   7.9162091
  13.7455858  44.0687162   7.8320634  12.5325729  43.7543650   8.3878494
  13.1676582  43.5575893   7.9734848   4.5945839  35.3991556  23.1055699
   3.7845615  35.7049335  22.9945541   5.0720526  36.1197138  23.2208283
   4.5449318  35.5506157  23.1062770   3.4537399  44.6137277  13.3538602
   2.9318152  44.7537568  14.0390467   3.8411419  43.8547941  13.5440719
   3.4341099  44.5222801  13.4839678   9.6504404  46.3532736   7.3399171
   9.4091079  45.6200597   6.9326236   9.8305736  46.9019593   6.6865504
   9.6412028  46.3255127   7.1829394   4.8803724  41.6441296   8.7520093
   4.6846507  42.2516030   8.1580396   5.1038070  40.9509240   8.2711767
   4.8838365  41.6318821   8.5936174   3.2782254  38.5296034   8.8700961
   4.0004906  38.6937192   8.4104767   2.7990247  39.2505699   8.7640301
   3.3145985  38.6594263   8.7866575   9.6845040  31.7645209   8.9825262
  10.3871393  31.5652958   8.5045220   9.4189229  30.9921152   9.2894106
   9.7491672  31.6208176   8.9570704  15.1133286  40.0727819  11.5358888
  15.0267260  40.2283245  12.3893667  14.6583766  40.7165895  11.1618293
  15.0336542  40.1903574  11.6065995   4.4473596  33.0280495  18.0356143
   4.2556793  33.0435629  18.8855566   5.2972192  33.2244169  18.0122798
   4.5449318  33.0594846  18.1579437   8.9859102  37.3938566  10.1584447
   8.7393816  37.3134317  10.9921236   9.3144225  36.6092034   9.9646975
   8.9980345  37.2664832  10.2531971  12.8807150  44.1021926  13.9471229
  12.7421510  44.8002971  14.4519971  12.1007148  43.9470582  13.5907410
  12.7450377  44.1822092  13.9697503  11.2185236  40.4018301  20.1993610
  11.2133274  39.5298118  20.2036037  11.9246229  40.6006470  19.7263066
  11.3230240  40.3022175  20.1300646   4.9456129  40.1295285  19.5707430
   5.0899505  40.7096493  18.9350541   5.2931778  40.5071582  20.2757285
   5.0183590  40.2715989  19.5806425   7.1176046  39.3285453  17.3532562
   6.3699360  39.5216468  16.9480840   7.2717572  38.5030673  17.1156683
   7.0298474  39.2350565  17.2577968   4.0183884  48.3198057  16.4368457
   4.1673448  47.7600973  15.7841862   4.7983886  48.3990058  16.8200976
   4.1557978  48.2483622  16.3965406  14.3760523  43.4600179   4.7087728
  13.9967332  42.6737317   4.7017017  13.7126769  44.0087036   4.5659372
  14.2218998  43.4245003   4.6868525   6.5437185  48.4912700  17.7152948
   6.4680856  47.8221510  18.2703736   6.4727044  49.1930488  18.2293614
   6.5217791  48.4957607  17.8729796   7.3577823  33.2236004  18.2427966
   7.8150437  33.9559978  18.3700758   7.4334152  32.8002469  19.0015222
   7.4368793  33.2693242  18.3729042  11.8305149  26.4025879  12.1121809
  11.9488717  26.8602343  11.3789111  11.6567325  25.5971140  11.8258026
  11.8224320  26.3519651  11.9622742   7.2007432  47.0113699   8.5476554
   7.9657323  46.7423342   8.2259218   7.0985521  46.5263709   9.2646617
   7.2988927  46.9003263   8.6056382   5.2360201  35.2138108  15.0869790
   4.4456276  35.0329568  15.4087126   5.6320824  34.4365061  15.0700084
   5.1777077  35.0725569  15.1322338  10.6203888  42.8480538  12.8129236
   9.9448889  42.6165770  13.3142623  10.6296264  42.2401721  12.1871341
  10.5222392  42.7239463  12.7945388   7.7498032  37.6898367  19.5693289
   7.6857173  38.5508324  19.4413425   7.8895219  37.3730360  18.7688840
   7.7613502  37.7698534  19.4321502  12.6220622  45.7045670   5.0439414
  12.7040460  46.5112657   4.7200865  13.1070364  45.7241630   5.7680187
  12.7057780  45.8266333   5.1026312   6.4317125  40.3830506  13.7109492
   6.0079375  40.5835005  12.9748510   6.2561981  39.5359354  13.8233791
   6.3428006  40.2879288  13.6183182   5.9328819  51.8981019  16.1730949
   6.4224749  51.1991809  15.9906614   5.3613051  51.6004889  16.7607006
   5.9213349  51.7507243  16.2331990   1.7199570  40.8782558   9.1437464
   1.8764190  40.8129361   9.9993456   2.0600164  41.6531110   8.9316144
   1.7932805  40.9831756   9.2392058   8.2578715  40.2540441   8.0130827
   8.7994260  39.7510823   8.4769448   8.5725274  40.2005636   7.2020313
   8.3843112  40.1719862   7.9614639  12.1295822  44.4643089  25.1257740
  12.9430688  44.1928238  25.2862872  11.9690789  44.1650629  24.3217936
  12.2265771  44.3798015  25.0303145   9.4067984  35.1476746  18.0653128
   9.6209954  34.5087660  17.5116482   8.7901884  35.5922570  17.6360990
   9.3473314  35.1186890  17.9203559  10.8172652  48.0695494   9.5107349
  10.4252444  47.7662209   8.7930215  10.9725725  48.9064584   9.3212303
  10.7826242  48.1479331   9.3763846  11.5707072  36.7565811  19.0036435
  10.7583754  36.4491702  19.0849608  12.0297007  36.2764811  19.5679147
  11.5187457  36.6402304  19.0991029  10.9812327  44.6345483   9.4513379
  10.6226982  44.8060126  10.2277412  10.4951038  45.0958689   8.8941378
  10.8571024  44.7284454   9.4838648   8.7982713  28.2576682  13.0540471
   7.9276271  28.2315403  13.0073780   9.0523054  28.0853874  12.2366316
   8.7076273  28.2286825  12.9260607   8.6660580  38.1625883  23.7865137
   9.1360211  38.7867999  24.1733011   8.7122460  37.4942858  24.3458352
   8.7428456  38.1560563  23.9265209   5.8231854  30.2682910  14.5113941
   5.3070342  29.5763102  14.6365520   5.2625782  30.9353687  14.4576540
   5.6638367  30.2646168  14.5220007   7.8924087  30.8075870  16.3406794
   7.5055840  30.8324902  17.1220324   7.4057024  30.2417549  15.8881310
   7.7636596  30.7271621  16.3894697  12.1417066  45.5249379  20.3980580
  12.7796787  45.0309575  20.0643036  11.4991158  45.4526780  19.8132807
  12.1411293  45.4408388  20.2622935  13.8674066  37.3738525  14.9646496
  13.4401675  37.2864874  14.2094595  13.2300119  37.4816301  15.5501340
  13.7103674  37.3771185  14.9391937   7.5581229  27.6942856  18.6317054
   8.1874347  28.2303156  18.3538124   7.7267091  27.6020215  19.4830619
   7.6759023  27.7604218  18.7165582   7.3595144  32.4814050  20.9043465
   8.1868573  32.2099199  20.9602080   7.3802990  33.2774892  21.2607283
   7.4847994  32.5593805  20.9658648  12.1971323  46.2169187  17.0385937
  12.9863701  45.8658252  17.1588019  12.3714921  47.0305576  16.7762571
  12.3391605  46.2855044  17.0173805   1.9364633  39.6277913  14.0913726
   1.0952640  39.5281787  14.2992620   2.1454641  40.3973393  14.4428046
   1.8429326  39.7269956  14.1741041  11.0505147  30.2278744  11.6002355
  11.2554741  30.1601052  12.4459352  10.7231571  31.0337565  11.5323533
  11.0320395  30.3364684  11.7162010   5.7481298  37.5559312  13.3411323
   5.4444436  37.0015301  13.9421731   5.0460719  37.7351522  12.8539358
   5.5997508  37.5004095  13.3581029   3.8099649  44.7709033  18.0483421
   3.7020004  44.7811095  18.9145479   4.0195431  45.5963813  17.8588375
   3.8249760  44.8950108  18.1487513  14.3038835  30.7810508  11.0805121
  13.6913148  31.2680910  11.4658853  14.4003010  30.1053999  11.6242772
  14.2276733  30.7528817  11.2183979   1.8273441  42.0221675  15.5105359
   1.2361375  42.6631174  15.4808374   2.5894465  42.4459293  15.4836658
   1.8521702  42.1797514  15.5020506   2.2234064  33.1823673  16.1773376
   2.6835546  33.2562603  16.9148500   2.2690171  33.9804927  15.8273198
   2.2984619  33.3117820  16.2346133   3.8717414  33.8490368  20.7445403
   3.4802979  33.2023715  21.1801181   4.0403277  34.4401803  21.3639659
   3.8388324  33.8404636  20.9008109  17.9463863  41.8527445  16.5082637
  18.0046987  42.3014094  17.2542613  17.3130330  42.2626258  16.0712717
  17.8615158  41.9801180  16.5535185  11.5862958  47.4730987  12.9437383
  11.3882646  47.9621801  12.2493594  10.9650669  47.6772228  13.5221516
  11.4650522  47.5747525  12.9260606   5.6470936  39.2415884   7.2847627
   6.3912981  39.6290160   7.5230577   5.7931632  38.3973309   7.4488115
   5.7781521  39.1746357   7.3441597   7.5650511  31.0366143  12.3179489
   6.7186556  31.2088950  12.1920839   7.5621644  30.2315486  12.6545317
   7.4397661  30.9427172  12.3490616   8.6348812  34.8141357  13.1841547
   8.1608766  34.2883119  13.6946858   9.0066948  34.2670830  12.6156408
   8.6198701  34.6557354  13.1756694  14.8985542  39.8743733  14.5948327
  14.6583765  39.0350148  14.5990754  15.3777549  39.9543899  15.3189101
  14.9337726  39.7625132  14.7023130  16.8990729  36.6545190  12.5477586
  16.6600499  36.6141024  11.7098371  17.0624631  37.5016342  12.6743307
  16.8881033  36.7737275  12.4431068  13.5036759  41.0395139  18.4782631
  14.2270958  40.5867666  18.2993651  13.2386722  41.3199805  17.6954959
  13.5718033  41.0146108  18.3361347   2.3723628  35.6355313  15.2135511
   1.7476698  35.6473705  14.6061463   2.0369223  36.1115488  15.8626751
   2.2309120  35.7073830  15.2192079  10.1169394  44.2781475   5.3776958
  10.8403593  44.7439588   5.2341531   9.6769985  44.3455085   4.6274555
  10.1585086  44.3565312   5.2461739   9.2855549  41.1379017  16.6277647
   8.6712542  40.5937068  16.9226282   9.8022834  40.6243254  16.1483463
   9.2711211  40.9815427  16.6001875   8.5251846  42.2083288  14.3621945
   8.0979454  41.5833006  13.9287381   8.5176791  41.9258209  15.1880952
   8.4610987  42.0736068  14.4201773   1.6414373  37.2448461  17.4310379
   1.8007860  36.4891785  17.8362101   1.4607267  37.7939400  18.0851117
   1.6379732  37.2142274  17.5873085   9.5834676  29.4109696  17.9861169
   9.0875237  29.6073370  17.2952735  10.3403738  29.8102364  17.8149970
   9.6221501  29.4987430  17.8581305   6.8537556  33.0852042  14.5764479
   6.8780043  32.5512154  13.8877259   7.1049029  32.5769351  15.2390070
   6.8947475  32.9312946  14.5729124   3.1338878  31.8122860  13.9570224
   3.1737250  32.3132067  14.6704931   2.3088543  31.9033254  13.6876147
   3.0178404  31.9004677  14.0220762   5.3168491  41.3783600  22.0590518
   4.4664121  41.5155315  22.1948163   5.4796619  40.6447379  22.5038220
   5.2152354  41.2897702  22.1446117   4.5553241  38.3283370  16.2544123
   3.7245171  38.4957188  16.0479371   4.5004759  37.9519321  17.0393008
   4.4242656  38.2973101  16.3392651   2.3637025  31.8192263  21.8900533
   2.9889728  31.2754396  22.1629966   1.9087505  31.3387181  21.3208324
   2.3885285  31.6681744  21.8462127  15.9372073  40.0021550  16.9813181
  16.5289914  40.6418801  17.0131379  16.3731068  39.3044587  17.2705248
  16.0890505  39.9939900  17.0294014   7.7665463  44.4238922  17.6071075
   7.2590554  44.9774769  18.0511706   7.4692109  44.4847212  16.7889850
   7.6470348  44.5145234  17.5519532   9.9327645  32.7892242  16.4495738
  10.3582717  32.3364769  15.8379265   9.3184639  32.2352313  16.7260526
   9.9056291  32.6406218  16.4000763  12.9621215  37.2166769   9.2816324
  12.2912405  37.7596471   9.1529389  13.6560965  37.6861624   9.0398019
  12.9650082  37.3665040   9.2271851   7.0107949  49.3563481  14.5128082
   6.7873603  48.5982310  14.8812108   6.5217792  49.3861502  13.7908522
   6.9051398  49.2485705  14.4604823  13.1249342  33.6722652  12.1906697
  13.4776952  33.2452375  12.8652496  12.2664144  33.5873496  12.3207773
  13.0498787  33.5967393  12.3101707   1.8233027  36.3030172  10.2489543
   1.1045016  36.7194305  10.5162407   2.1945390  36.8684411   9.6981182
   1.7724959  36.4479453  10.2072350  11.1232608  36.9358021  16.1391539
  11.1030535  36.7541316  16.9926318  11.1711809  37.8070039  16.1151123
  11.1267249  37.0374559  16.2614834   9.0678938  43.5245213  22.0640016
   9.0274793  42.8794890  21.4785172   9.8802256  43.4681830  22.3765428
   9.1822091  43.4204180  22.0236965   5.6586405  49.5763939  11.9665167
   5.2446804  48.9138069  11.5769008   6.3433780  49.7241798  11.4460861
   5.6984777  49.5004597  11.8321664   9.0251700  48.7354024  12.7188783
   8.6267983  48.8456294  11.9509604   8.4102919  48.9436090  13.3015343
   8.8750589  48.7827592  12.6920083  14.5573402  28.7941064  13.1191009
  14.0504267  28.0870204  13.0512187  15.3540836  28.4634253  13.2492086
  14.6000642  28.6414216  13.1290004  10.4737418  35.3007676   9.0164673
  10.2451111  35.3240378   8.1743031  10.7335494  34.4765143   9.1359684
  10.4783606  35.1823756   8.9089871   4.7556647  37.1542149  18.6189773
   4.2435550  36.5463332  18.9774805   4.5836143  37.8698742  19.0863749
   4.6546284  37.1705449  18.7405997   3.5282181  33.8384223  10.3118869
   4.0039547  34.2001303   9.6769050   3.0270780  34.4940690  10.5919012
   3.5247540  33.9878411  10.2595610  16.7593542  43.3105991   6.1031874
  17.1427148  44.0597347   6.3329971  15.9637656  43.5571810   5.8443863
  16.6987325  43.4575685   6.0989447   8.6325717  35.0766394  21.0592029
   9.1897147  34.8480204  20.4270494   8.3086782  35.8372060  20.7827241
   8.6672127  35.1550231  20.9248526   6.3508834  38.1634047  22.0244036
   7.1020161  38.4785724  22.3383590   6.5431411  37.9613218  21.1977958
   6.4900248  38.1801429  21.9487432  13.1994124  34.2907614   9.2667832
  13.1988351  34.1356270  10.1252108  12.9950304  35.1370601   9.2109217
  13.1693902  34.3928234   9.3855771  10.9234976  38.9705116  12.9204038
  11.4188642  38.2528111  12.8808059  10.1134752  38.6675913  12.8058525
  10.8778870  38.8202762  12.8977764  12.9886795  41.7208803  15.6081167
  13.4141867  41.1983225  15.0551592  12.6243715  42.3189640  15.0869790
  12.9973398  41.7319030  15.4490177   2.6240875  50.0173021  14.3678513
   2.9387434  50.8309409  14.3756294   3.0334288  49.6323239  15.0360672
   2.7308973  50.0801723  14.4682604   9.5765395  45.4343067  11.9382325
  10.0476573  46.1483330  12.1072310   9.9125573  44.8341817  12.4742194
   9.6960510  45.4514532  12.0414701  11.6642379  47.0444381  24.1174397
  11.7739345  46.2552941  24.4731144  11.9933276  46.9550317  23.3148735
  11.7294785  46.9150234  24.0516787   6.4934890  30.2070538  18.8940419
   6.6262795  29.4101531  19.2221395   6.8780042  30.7336941  19.4738695
   6.5691219  30.1670455  19.0283922  10.2139341  45.2261001  18.7010017
   9.6660287  44.6018885  18.4330083  10.6752370  45.4155273  17.9854097
  10.2006551  45.1620052  18.5560448   9.5667245  27.1300864  15.4921513
   8.7613209  27.0198594  15.8089351   9.4373980  27.2313320  14.6351378
   9.4287378  27.1284534  15.4129553  13.0233205  33.2946356  16.0861210
  12.4396194  33.7955562  15.6738777  13.3437499  32.7875912  15.4525533
  12.9846381  33.2938191  15.9319717   4.1523336  30.2029713  17.1418313
   4.6967749  29.8620840  17.7322655   4.2060272  31.0615174  17.2839598
   4.2412456  30.2784972  17.2500187   9.7797667  46.2312074  15.2319358
  10.5996041  46.0875040  15.4935654   9.4991745  46.8558273  15.7735796
   9.8594411  46.3022426  15.3507298  26.2511318  53.8876926   8.1962235
  26.2205322  54.7421563   8.3680504  26.8492667  53.5872218   8.7548378
  26.3348476  53.9693422   8.3037037  19.4511003  52.9752577  12.9515165
  18.5948898  53.1361075  13.0024282  19.4978656  52.1044641  12.9720226
  19.3310114  52.8703379  12.9621231  22.7604719  59.2439102  22.5575621
  23.4671486  58.7491133  22.6862556  22.9492655  59.6848184  21.8278279
  22.8932625  59.2357453  22.4684667  18.8281393  64.8854933  10.0849055
  19.2120773  65.4541832   9.5453831  18.7640535  64.1604443   9.6054872
  18.8754821  64.8630396   9.9342918  22.2962824  55.0344621  15.5946817
  22.8418784  55.7129707  15.6540787  22.2379700  54.8932082  14.7348398
  22.3678738  55.1136622  15.4758877  15.4136898  62.5233687  10.9815169
  15.5147261  61.7134041  11.2912297  14.8178644  62.4290633  10.3514848
  15.3409437  62.3898715  10.9341408  24.0727892  56.4629228   6.4680545
  23.9567418  57.2136914   6.8972683  24.8683779  56.2053181   6.7176632
  24.1732482  56.5364075   6.5684636  10.9092030  50.7139704  13.5051811
  10.2897062  50.1232351  13.3361825  10.8075894  51.3051139  12.8716134
  10.8029706  50.7143787  13.3856800  18.0059926  52.4539246   7.8384274
  18.7040091  52.6327373   8.3305737  18.3212258  51.9309585   7.2154663
  18.1555263  52.4033018   7.8186284  10.6361163  54.2591986  15.7495380
  10.5119860  54.8454431  16.3845198  11.2879448  53.7652181  16.0507655
  10.7134813  54.2730790  15.8881309  18.1947861  58.8409691   7.8264065
  18.6341497  58.2326791   8.2718838  18.0452524  58.4617064   7.0549530
  18.2369327  58.6948162   7.7783233  15.6619504  57.4353703  15.0282891
  16.3068507  56.9426146  14.7093839  15.9021281  57.5778489  15.8548969
  15.7930089  57.3831145  15.1032424  18.2005596  60.2808609  14.6789783
  18.4828838  59.4860014  14.4576539  18.9291756  60.7589196  14.6994844
  18.3495159  60.2343205  14.6492798  21.7957198  57.1936872   4.7794834
  21.7108493  58.0497839   4.9244403  22.2841581  56.9181196   5.4476994
  21.8546095  57.2794194   4.8996916  23.3863197  43.8117165  10.1655159
  23.0716638  44.5020644  10.5975581  22.8690139  43.7561948   9.4640660
  23.2627668  43.9052054  10.1252108  22.7275631  53.8121666   6.2792570
  22.1987103  54.0281300   6.9389876  23.2500651  54.5057805   6.1993539
  22.7264084  53.9464803   6.3648169  28.1823684  59.3867971  11.6525614
  27.3521387  59.5978614  11.8159031  28.1332936  58.5605025  11.3767898
  28.0530419  59.2957577  11.6362979  16.2433422  62.2171825  14.4873524
  15.7260363  61.8579240  13.8834832  16.9407813  61.6933999  14.4979590
  16.2699003  62.0869513  14.4003782  19.8997014  62.6666639  20.4489697
  19.9880359  62.4792779  21.2967907  20.3286726  62.0204069  20.0494543
  19.9759116  62.5429647  20.5161448  17.4667473  61.9497799  19.4307359
  16.9038308  61.5370409  19.9547020  18.2288497  61.8750705  19.8500502
  17.4961922  61.8775199  19.5700359  19.0752453  53.9550535   3.5568958
  19.3148457  54.1628519   2.7444301  19.3968294  53.1508044   3.6657903
  19.1589611  53.8664636   3.4529511  14.3842744  45.8843931   7.4028496
  15.1388712  46.2522248   7.1645546  14.2070278  46.2583485   8.1707676
  14.4697222  45.9942119   7.4813385  13.0263465  63.9395820  12.0343989
  13.7284044  63.4247809  12.0916746  12.9460948  64.2669971  12.8390864
  13.1187225  63.9110046  12.1616781  27.6777642  52.0338371  15.4476035
  26.8406063  52.1040558  15.6823630  27.6465873  52.0362866  14.5750338
  27.5495925  52.0448598  15.3535583  14.0742371  54.1771407  21.1624404
  14.2462875  54.0677302  22.0109685  14.6111729  54.8225813  20.9255596
  14.1787375  54.2563409  21.2529501  12.7399808  48.2914250   4.1006609
  12.5575381  48.5086131   3.2747602  13.6025421  48.4053263   4.1565224
  12.8404398  48.3404148   3.9861096  12.3514240  60.1302172  11.5429597
  13.1903140  60.3625105  11.5903359  12.3826009  59.2606484  11.4736632
  12.4795958  60.0359119  11.5394242  12.9766943  60.5503047  15.8442903
  13.5165168  60.4074178  16.5146275  12.2936889  60.9499798  16.2126929
  12.9559097  60.5882718  15.9977324  18.4199527  45.2940661   7.1355633
  19.1485688  45.1156616   6.6893789  18.5094420  46.1358740   7.3462811
  18.5406189  45.3924539   7.1009151  22.4007828  56.2294048  11.0387927
  23.1565343  56.6625562  11.0776836  22.5070152  55.5798818  11.6122563
  22.5277999  56.1971532  11.1285952  25.4387999  60.0567325  11.7890330
  25.0023231  60.0604068  12.5449301  25.1050915  60.7372824  11.3569907
  25.3250619  60.1579781  11.8371162  20.0117073  62.0975658  23.1133480
  20.7957489  62.2106506  23.4789222  19.8113667  61.2716795  23.3092166
  20.0983098  61.9922377  23.1967866   8.3804088  56.7703338  15.9977324
   8.1142503  55.9542455  16.1568314   8.3942652  56.8156494  15.1272840
   8.3428811  56.6560243  15.8930806  25.3585482  47.0981153  14.0319758
  26.0011391  47.1679258  14.6181673  25.6108503  46.4310376  13.5299300
  25.4907614  47.0107502  14.0447037  13.1302695  50.3081716  18.6444332
  12.4374491  49.8378696  18.8905063  13.7463022  50.0820021  19.2186039
  13.1187225  50.2048848  18.7653484  20.1687466  64.0085760  16.7599936
  19.3702712  63.7685260  17.0173804  20.6173478  64.0600153  17.5066983
  20.1162077  63.9808151  16.9084860  28.5732345  56.7748245  10.6809967
  29.2348779  56.2138914  10.5805876  27.9323757  56.2800276  11.0062658
  28.5761213  56.6184654  10.7142307   8.7897502  57.5562118  13.2789068
   8.6073075  57.5309004  12.4261361   9.5247171  58.0261055  13.3177977
   8.8711566  57.6223480  13.1586987  24.8597176  57.7913627  10.4221956
  25.0952765  57.9358826   9.5948807  25.0086740  58.5556036  10.8153470
  24.9162979  57.9252682  10.3585560  11.8543254  54.2747120  19.7871177
  12.5783226  54.2600151  20.2736072  11.9559390  54.9842476  19.2893145
  11.9761463  54.3771824  19.7849964  26.6887633  56.6315293   8.2591560
  27.0195850  57.1642934   7.6531655  27.2620721  56.6854181   8.9153511
  26.8221312  56.7184862   8.2669341  19.2288203  57.7546205  24.6520124
  18.4361184  58.0689717  24.8372744  19.3437130  57.9697673  23.8140909
  19.1283614  57.8330042  24.5558459  21.9019522  54.4780196   8.9415140
  21.9966376  55.2169490   9.3954765  21.2778365  54.0497672   9.3749704
  21.8228552  54.5241517   9.0723287  20.1571996  57.6566409  19.5905421
  20.7310857  57.0193653  19.7453985  20.0786800  57.6570491  18.7215078
  20.2305231  57.5631520  19.4851832   8.7568412  54.4355618  13.4288135
   9.3341915  54.2992069  14.0680380   8.0582474  53.9791402  13.6833719
   8.7389434  54.3477884  13.5610425  22.1542543  56.3228936   2.1752092
  22.0722706  56.3931123   3.0407079  22.7922264  56.8858680   1.9835832
  22.2362381  56.4167907   2.2742041  15.5135714  56.0889674  11.6426618
  15.2554959  55.2561409  11.6157918  15.5684197  56.3147287  10.8019118
  15.4835492  55.9987445  11.5146755  20.5936765  48.1918125  11.7430711
  19.8893091  47.7027310  11.9014630  20.6421739  48.2040599  10.8719155
  20.4966816  48.1207773  11.6370051  14.4870427  53.6427436  12.1291513
  13.9120018  53.8019605  12.7655474  14.1106103  53.0062845  11.6659963
  14.3473239  53.5725249  12.1546071  18.1543715  52.1150786  16.9883891
  17.7658148  51.6905003  16.3336082  17.4898414  52.3632935  17.4960918
  17.9990643  52.0889507  16.9671759  27.7966984  51.8725790   9.7631721
  27.5403549  51.0605732   9.5729604  28.6396298  51.8803357   9.5361909
  27.8833010  51.7537788   9.7016538  21.9770077  45.8125414  14.5007876
  22.3580588  45.1303585  14.8875750  21.1733361  45.5235016  14.3183540
  21.9146538  45.6692463  14.5311931  19.2582653  56.3449390   5.1860698
  20.0723292  56.6364283   5.0743470  19.1941795  55.6909253   4.6118991
  19.3685392  56.2914585   5.0849536  15.1290562  59.8170908  10.3133010
  15.7664509  59.5782655  10.8584804  15.5545633  60.0208067   9.5786171
  15.2866728  59.8121918  10.2850168   9.8203204  62.0559244  14.1967314
   9.8607349  62.3274095  13.3687094  10.3797728  62.5801152  14.6125102
   9.9086550  62.1734999  14.1359202  15.9361917  48.3179613  24.3670484
  15.6215358  49.0879175  24.1040047  15.6151850  47.7549869  23.7822711
  15.8420836  48.3489881  24.2411834  26.5028564  58.8119835  15.6618568
  26.1974381  59.5447892  16.0231884  25.7834780  58.4057765  15.3811354
  26.3515907  58.8601568  15.6731705  17.5112034  60.2943330  11.9926797
  17.5851042  60.1318502  12.8468647  18.3281540  60.4833520  11.7487278
  17.6428392  60.2980073  12.0824822  32.2030356  55.4512836  14.9886913
  32.1354857  55.4708795  14.1189499  32.1886019  56.2943163  15.2142583
  32.1909113  55.5786570  14.8939390  13.4893814  46.7070134   9.9816680
  12.6216240  46.7792734  10.0474289  13.7769018  47.5092213  10.1704655
  13.4033562  46.8364281  10.0191447  22.6126703  46.8547993  18.3128002
  23.3580295  46.6657804  17.8991427  22.1964007  47.3806231  17.7541858
  22.6611677  46.9050139  18.1692575  29.9888974  54.2257222  13.2633507
  30.5396895  53.5925291  13.5030599  29.9733089  54.7572615  13.9549011
  30.0674170  54.2106170  13.4012365  16.6411365  58.0595819  17.8093400
  16.1423058  58.7711587  17.8878289  17.4511589  58.3796486  17.7711563
  16.6867471  58.2122668  17.8149969  12.9039482  57.3218772  12.0556121
  12.6152731  56.6956244  12.5901849  13.7722830  57.2639060  12.1220802
  12.9899734  57.2206317  12.1447076  23.6917380  52.4653556  12.3738103
  23.3482146  51.7443891  12.7245353  23.7910422  52.2567407  11.5316462
  23.6559423  52.3277759  12.3009783  24.1530409  58.9279260   7.9162091
  24.7188442  59.5872470   7.8320634  23.5058312  59.2728958   8.3878494
  24.1409165  59.0761201   7.9734848  15.5678423  50.9176864  23.1055699
  14.7578198  51.2234643  22.9945541  16.0453109  51.6382446  23.2208283
  15.5181901  51.0691465  23.1062770  14.4269982  60.1322585  13.3538602
  13.9050736  60.2722876  14.0390467  14.8144002  59.3733249  13.5440719
  14.4073683  60.0408108  13.4839678  11.4161166  50.1828393   7.4233556
  11.1285962  49.8129664   6.6865504  12.1031634  50.6523249   7.1617261
  11.4750063  50.1975363   7.2748632  20.6236987  61.8718044   7.3399171
  20.3823663  61.1385905   6.9326236  20.8038320  62.4204901   6.6865504
  20.6144611  61.8440435   7.1829394  15.8536308  57.1626604   8.7520093
  15.6579090  57.7701338   8.1580396  16.0770653  56.4694548   8.2711767
  15.8570949  57.1504129   8.5936174  14.2514838  54.0481342   8.8700961
  14.9737490  54.2122500   8.4104767  13.7722831  54.7691006   8.7640301
  14.2878568  54.1779571   8.7866575  22.2108345  50.3845140  14.2497646
  21.3719446  50.4106419  14.0135909  22.2812713  51.0315876  14.8302993
  22.0976739  50.4841266  14.3006763  11.9022454  56.4539414  17.9755101
  12.4143551  56.7323667  17.3263861  11.6158797  57.1928708  18.3417914
  11.9357318  56.6041768  17.9344979  20.6577624  47.2830517   8.9825262
  21.3603976  47.0838266   8.5045220  20.3921812  46.5106460   9.2894106
  20.7224256  47.1393483   8.9570704  26.0865869  55.5913127  11.5358888
  25.9999844  55.7468553  12.3893667  25.6316349  56.2351203  11.1618293
  26.0069126  55.7088882  11.6065995   8.9889361  50.9609606   8.2718838
   9.0905497  51.7635767   8.5999813   9.7845248  50.7596942   7.9741918
   9.1217266  51.0495505   8.2754193  15.4206180  48.5465803  18.0356143
  15.2289377  48.5620937  18.8855566  16.2704776  48.7429477  18.0122798
  15.5181902  48.5780154  18.1579437   9.8053093  51.0756784  16.0139959
   9.6638585  50.2240725  16.1384467  10.0893656  51.1185445  15.1902165
   9.8260939  50.9556534  15.9107583  19.9591685  52.9123874  10.1584447
  19.7126400  52.8319625  10.9921236  20.2876808  52.1277342   9.9646975
  19.9712929  52.7850140  10.2531971  23.8539734  59.6207234  13.9471229
  23.7154093  60.3188279  14.4519971  23.0739732  59.4655890  13.5907410
  23.7182961  59.7007400  13.9697503  22.1917819  55.9203609  20.1993610
  22.1865858  55.0483426  20.2036037  22.8978813  56.1191778  19.7263066
  22.2962823  55.8207483  20.1300646  15.9188713  55.6480593  19.5707430
  16.0632088  56.2281801  18.9350541  16.2664361  56.0256890  20.2757285
  15.9916174  55.7901297  19.5806425  18.0908630  54.8470761  17.3532562
  17.3431944  55.0401776  16.9480840  18.2450155  54.0215981  17.1156683
  18.0031057  54.7535873  17.2577968  14.9916468  63.8383365  16.4368457
  15.1406031  63.2786281  15.7841862  15.7716470  63.9175366  16.8200976
  15.1290561  63.7668930  16.3965406  25.3493107  58.9785487   4.7087728
  24.9699916  58.1922625   4.7017017  24.6859352  59.5272344   4.5659372
  25.1951582  58.9430311   4.6868525  17.5169768  64.0098008  17.7152948
  17.4413439  63.3406818  18.2703736  17.4459627  64.7115796  18.2293614
  17.4950375  64.0142915  17.8729796  18.3310407  48.7421312  18.2427966
  18.7883021  49.4745286  18.3700758  18.4066736  48.3187777  19.0015222
  18.4101377  48.7878550  18.3729042  10.5743398  48.9887132  19.3317410
  10.0385588  48.3767490  19.6478177  10.6361163  49.5635268  19.9851076
  10.5039031  48.9834059  19.4752836  22.8037733  41.9211187  12.1121809
  22.9221301  42.3787650  11.3789111  22.6299909  41.1156448  11.8258026
  22.7956904  41.8704959  11.9622742  18.1740015  62.5299006   8.5476554
  18.9389906  62.2608650   8.2259218  18.0718105  62.0449017   9.2646617
  18.2721511  62.4188571   8.6056382  16.2092785  50.7323416  15.0869790
  15.4188860  50.5514876  15.4087126  16.6053408  49.9550368  15.0700084
  16.1509661  50.5910877  15.1322338  21.5936471  58.3665846  12.8129236
  20.9181473  58.1351078  13.3142623  21.6028847  57.7587029  12.1871341
  21.4954976  58.2424771  12.7945388  18.7230615  53.2083675  19.5693289
  18.6589756  54.0693631  19.4413425  18.8627803  52.8915668  18.7688840
  18.7346085  53.2883842  19.4321502  23.5953206  61.2230978   5.0439414
  23.6773043  62.0297965   4.7200865  24.0802948  61.2426938   5.7680187
  23.6790364  61.3451641   5.1026312  17.4049709  55.9015814  13.7109492
  16.9811958  56.1020313  12.9748510  17.2294564  55.0544662  13.8233791
  17.3160590  55.8064596  13.6183182  16.9061402  67.4166327  16.1730949
  17.3957333  66.7177117  15.9906614  16.3345635  67.1190197  16.7607006
  16.8945932  67.2692551  16.2331990  12.6932154  56.3967866   9.1437464
  12.8496773  56.3314669   9.9993456  13.0332747  57.1716418   8.9316144
  12.7665389  56.5017064   9.2392058  19.2311299  55.7725749   8.0130827
  19.7726844  55.2696130   8.4769448  19.5457858  55.7190944   7.2020313
  19.3575696  55.6905170   7.9614639  23.1028406  59.9828397  25.1257740
  23.9163271  59.7113546  25.2862872  22.9423372  59.6835937  24.3217936
  23.1998354  59.8983323  25.0303145  20.3800568  50.6662054  18.0653128
  20.5942538  50.0272968  17.5116482  19.7634467  51.1107878  17.6360990
  20.3205897  50.6372198  17.9203559  21.7905236  63.5880802   9.5107349
  21.3985028  63.2847517   8.7930215  21.9458308  64.4249892   9.3212303
  21.7558826  63.6664639   9.3763846   9.2666415  53.5802816   9.4598231
   9.6465380  53.9987361   8.7958499   8.6921780  54.1616272   9.7667075
   9.2377740  53.7280675   9.4074972  22.5439656  52.2751119  19.0036435
  21.7316338  51.9677009  19.0849608  23.0029591  51.7950119  19.5679147
  22.4920041  52.1587611  19.0991029  21.9544911  60.1530791   9.4513379
  21.5959565  60.3245434  10.2277412  21.4683621  60.6143997   8.8941378
  21.8303608  60.2469762   9.4838648  19.7715297  43.7761990  13.0540471
  18.9008855  43.7500711  13.0073780  20.0255638  43.6039182  12.2366316
  19.6808857  43.7472133  12.9260607  19.6393163  53.6811190  23.7865137
  20.1092795  54.3053307  24.1733011  19.6855044  53.0128166  24.3458352
  19.7161039  53.6745871  23.9265209  16.7964437  45.7868218  14.5113941
  16.2802926  45.0948409  14.6365520  16.2358366  46.4538995  14.4576540
  16.6370950  45.7831476  14.5220007  18.8656671  46.3261178  16.3406794
  18.4788424  46.3510209  17.1220324  18.3789608  45.7602857  15.8881310
  18.7369179  46.2456929  16.3894697  23.1149650  61.0434687  20.3980580
  23.7529371  60.5494883  20.0643036  22.4723742  60.9712087  19.8132807
  23.1143877  60.9593695  20.2622935  24.8406650  52.8923833  14.9646496
  24.4134258  52.8050182  14.2094595  24.2032703  53.0001608  15.5501340
  24.6836257  52.8956493  14.9391937  18.5313812  43.2128164  18.6317054
  19.1606930  43.7488464  18.3538124  18.6999675  43.1205522  19.4830619
  18.6491607  43.2789526  18.7165582  18.3327727  47.9999358  20.9043465
  19.1601157  47.7284507  20.9602080  18.3535573  48.7960200  21.2607283
  18.4580577  48.0779112  20.9658648  23.1703907  61.7354495  17.0385937
  23.9596285  61.3843560  17.1588019  23.3447504  62.5490884  16.7762571
  23.3124188  61.8040352  17.0173805  12.9097217  55.1463221  14.0913726
  12.0685224  55.0467095  14.2992620  13.1187225  55.9158701  14.4428046
  12.8161910  55.2455264  14.1741041  10.3872784  52.7682758  11.9198476
   9.9929482  52.8425770  11.1448586   9.8312901  53.1540704  12.4706838
  10.2475596  52.8364533  11.8866136  22.0237731  45.7464052  11.6002355
  22.2287324  45.6786360  12.4459352  21.6964155  46.5522873  11.5323533
  22.0052979  45.8549992  11.7162010  16.7213882  53.0744620  13.3411323
  16.4177019  52.5200608  13.9421731  16.0193303  53.2536830  12.8539358
  16.5730092  53.0189403  13.3581029  15.7779979  50.3845140   7.9056025
  16.0539713  49.6664053   7.4933593  16.3778648  50.9830060   7.6977131
  15.9073244  50.3665511   7.8136786  14.7832233  60.2894341  18.0483421
  14.6752588  60.2996403  18.9145479  14.9928014  61.1149121  17.8588375
  14.7982344  60.4135416  18.1487513  25.2771418  46.2995816  11.0805121
  24.6645732  46.7866218  11.4658853  25.3735593  45.6239307  11.6242772
  25.2009316  46.2714125  11.2183979  19.2790499  48.0558657   6.1802620
  19.7334246  48.2269218   6.9050465  19.7530545  47.4426768   5.7800396
  19.4158820  47.9909543   6.2276382  12.8006025  57.5406983  15.5105359
  12.2093958  58.1816481  15.4808374  13.5627048  57.9644601  15.4836658
  12.8254285  57.6982822  15.5020506  13.1966648  48.7008981  16.1773376
  13.6568129  48.7747910  16.9148500  13.2422754  49.4990235  15.8273198
  13.2717203  48.8303128  16.2346133  14.8449997  49.3675676  20.7445403
  14.4535563  48.7209023  21.1801181  15.0135860  49.9587111  21.3639659
  14.8120908  49.3589944  20.9008109  28.9196446  57.3712753  16.5082637
  28.9779570  57.8199402  17.2542613  28.2862914  57.7811566  16.0712717
  28.8347742  57.4986488  16.5535185  22.5595541  62.9916295  12.9437383
  22.3615230  63.4807109  12.2493594  21.9383252  63.1957536  13.5221516
  22.4383106  63.0932833  12.9260606  16.6203519  54.7601192   7.2847627
  17.3645564  55.1475468   7.5230577  16.7664216  53.9158617   7.4488115
  16.7514105  54.6931665   7.3441597  18.5383095  46.5551451  12.3179489
  17.6919140  46.7274258  12.1920839  18.5354227  45.7500794  12.6545317
  18.4130245  46.4612480  12.3490616  19.6081395  50.3326665  13.1841547
  19.1341350  49.8068427  13.6946858  19.9799531  49.7856138  12.6156408
  19.5931284  50.1742662  13.1756694   9.9854425  52.3298172  18.5525093
  10.8480038  52.2293881  18.4662422   9.6546208  51.7492881  17.9910665
  10.0639622  52.2289798  18.4570498  25.8718126  55.3929041  14.5948327
  25.6316349  54.5535456  14.5990754  26.3510133  55.4729207  15.3189101
  25.9070310  55.2810440  14.7023130  21.5364895  51.2263220   6.2467301
  21.0087914  51.3091964   5.5573009  21.9960603  51.9681091   6.2431945
  21.5266745  51.3483882   6.1441996  27.8723313  52.1730498  12.5477586
  27.6333083  52.1326332  11.7098371  28.0357214  53.0201650  12.6743307
  27.8613616  52.2922583  12.4431068  24.4769343  56.5580447  18.4782631
  25.2003542  56.1052974  18.2993651  24.2119305  56.8385113  17.6954959
  24.5450616  56.5331416  18.3361347  13.3456211  51.1540621  15.2135511
  12.7209282  51.1659013  14.6061463  13.0101806  51.6300796  15.8626751
  13.2041703  51.2259138  15.2192079  10.0581887  59.2141081  16.6539275
   9.5281812  58.5233520  16.7034250  10.3306980  59.2051266  15.8251984
  10.0206609  59.1108213  16.5386691  21.0901977  59.7966783   5.3776958
  21.8136176  60.2624896   5.2341531  20.6502569  59.8640393   4.6274555
  21.1317670  59.8750620   5.2461739  20.2588133  56.6564325  16.6277647
  19.6445126  56.1122376  16.9226282  20.7755417  56.1428562  16.1483463
  20.2443795  56.5000734  16.6001875  19.4984430  57.7268595  14.3621945
  19.0712038  57.1018314  13.9287381  19.4909374  57.4443517  15.1880952
  19.4343571  57.5921376  14.4201773  12.6146957  52.7633769  17.4310379
  12.7740444  52.0077093  17.8362101  12.4339850  53.3124708  18.0851117
  12.6112316  52.7327582  17.5873085  20.5567260  44.9295004  17.9861169
  20.0607821  45.1258678  17.2952735  21.3136322  45.3287672  17.8149970
  20.5954084  45.0172738  17.8581305  17.8270139  48.6037350  14.5764479
  17.8512627  48.0697462  13.8877259  18.0781613  48.0954659  15.2390070
  17.8680058  48.4498254  14.5729124  14.1071462  47.3308168  13.9570224
  14.1469833  47.8317375  14.6704931  13.2821126  47.4218562  13.6876147
  13.9910988  47.4189985  14.0220762  16.2901075  56.8968908  22.0590518
  15.4396705  57.0340622  22.1948163  16.4529202  56.1632686  22.5038220
  16.1884938  56.8083009  22.1446117  15.5285825  53.8468678  16.2544123
  14.6977755  54.0142496  16.0479371  15.4737342  53.4704629  17.0393008
  15.3975240  53.8158409  16.3392651  13.3369608  47.3377571  21.8900533
  13.9622312  46.7939704  22.1629966  12.8820088  46.8572489  21.3208324
  13.3617869  47.1867052  21.8462127  13.9021869  52.1224270   6.7834240
  14.0424830  52.6196734   7.4862882  14.4004402  51.4210564   6.9248454
  13.9962950  52.0926248   6.9085819  26.9104657  55.5206858  16.9813181
  27.5022497  56.1604109  17.0131379  27.3463652  54.8229895  17.2705248
  27.0623088  55.5125208  17.0294014  15.5101074  48.9205356   4.0872259
  15.8316915  48.4408439   3.4331521  15.7728018  49.7305002   3.8963071
  15.5967100  48.9695254   3.9627751  18.7398047  59.9424230  17.6071075
  18.2323138  60.4960077  18.0511706  18.4424693  60.0032520  16.7889850
  18.6202932  60.0330542  17.5519532  20.9060229  48.3077550  16.4495738
  21.3315301  47.8550076  15.8379265  20.2917222  47.7537621  16.7260526
  20.8788874  48.1591526  16.4000763  19.3454452  44.7792650   9.8586315
  18.7022770  44.6290296  10.4271454  19.0053859  44.5334995   9.0935420
  19.1999529  44.7204772   9.8289330  23.9353798  52.7352077   9.2816324
  23.2644988  53.2781779   9.1529389  24.6293549  53.2046932   9.0398019
  23.9382666  52.8850348   9.2271851  17.9840532  64.8748789  14.5128082
  17.7606187  64.1167618  14.8812108  17.4950375  64.9046810  13.7908522
  17.8783981  64.7671013  14.4604823  24.0981926  49.1907960  12.1906697
  24.4509536  48.7637683  12.8652496  23.2396727  49.1058804  12.3207773
  24.0231371  49.1152701  12.3101707  12.7965611  51.8215480  10.2489543
  12.0777600  52.2379613  10.5162407  13.1677973  52.3869719   9.6981182
  12.7457543  51.9664761  10.2072350  22.0965192  52.4543329  16.1391539
  22.0763119  52.2726624  16.9926318  22.1444392  53.3255347  16.1151123
  22.0999833  52.5559867  16.2614834  20.0411522  59.0430521  22.0640016
  20.0007376  58.3980198  21.4785172  20.8534840  58.9867138  22.3765428
  20.1554675  58.9389488  22.0236965  16.6318989  65.0949247  11.9665167
  16.2179388  64.4323377  11.5769008  17.3166363  65.2427106  11.4460861
  16.6717361  65.0189905  11.8321664  19.9984283  64.2539332  12.7188783
  19.6000566  64.3641602  11.9509604  19.3835503  64.4621398  13.3015343
  19.8483173  64.3012900  12.6920083  18.5712185  50.8613480   5.5862923
  17.9777025  51.1830476   5.0347490  18.6087463  50.0154575   5.3784029
  18.4886574  50.7837808   5.4745694  25.5305986  44.3126372  13.1191009
  25.0236851  43.6055512  13.0512187  26.3273420  43.9819561  13.2492086
  25.5733225  44.1599523  13.1290004  21.4470002  50.8192984   9.0164673
  21.2183695  50.8425686   8.1743031  21.7068078  49.9950451   9.1359684
  21.4516190  50.7009064   8.9089871  15.7289230  52.6727457  18.6189773
  15.2168133  52.0648640  18.9774805  15.5568726  53.3884050  19.0863749
  15.6278867  52.6890757  18.7405997  10.5754945  51.1165033  21.2692135
  10.4057535  51.7766408  20.7240342  10.1320895  51.3271594  21.9904624
  10.4854279  51.2451015  21.2953765  14.5014764  49.3569531  10.3118869
  14.9772131  49.7186610   9.6769050  14.0003364  50.0125998  10.5919012
  14.4980123  49.5063719  10.2595610  27.7326126  58.8291299   6.1031874
  28.1159732  59.5782655   6.3329971  26.9370239  59.0757118   5.8443863
  27.6719908  58.9760993   6.0989447  19.6058301  50.5951702  21.0592029
  20.1629731  50.3665512  20.4270494  19.2819366  51.3557368  20.7827241
  19.6404711  50.6735539  20.9248526   7.4757009  54.0211898  16.5280625
   6.9283729  53.3512544  16.6461493   8.2649388  53.6541746  16.5924092
   7.5109193  53.8676885  16.5549326  17.3241418  53.6819355  22.0244036
  18.0752745  53.9971032  22.3383590  17.5163994  53.4798526  21.1977958
  17.4632832  53.6986737  21.9487432  16.5441417  51.5010730   3.6792253
  16.9240382  51.5190360   2.8943368  15.8034014  51.9464719   3.5583100
  16.4910255  51.5692505   3.5455821  24.1726708  49.8092922   9.2667832
  24.1720934  49.6541578  10.1252108  23.9682888  50.6555909   9.2109217
  24.1426486  49.9113542   9.3855771   6.2343979  53.2332706  13.6826648
   6.0565740  52.7809315  14.4081564   5.9463001  54.0358867  13.8665126
   6.1656932  53.2855264  13.8170151  21.8967560  54.4890423  12.9204038
  22.3921225  53.7713418  12.8808059  21.0867336  54.1861221  12.8058525
  21.8511453  54.3388070  12.8977764  23.9619379  57.2394111  15.6081167
  24.3874450  56.7168533  15.0551592  23.5976299  57.8374948  15.0869790
  23.9705981  57.2504338  15.4490177  13.5973459  65.5358328  14.3678513
  13.9120018  66.3494717  14.3756294  14.0066872  65.1508547  15.0360672
  13.7041557  65.5987031  14.4682604  20.5497978  60.9528375  11.9382325
  21.0209157  61.6668638  12.1072310  20.8858157  60.3527125  12.4742194
  20.6693093  60.9699839  12.0414701  22.6374963  62.5629689  24.1174397
  22.7471928  61.7738249  24.4731144  22.9665860  62.4735625  23.3148735
  22.7027369  62.4335542  24.0516787  17.4667473  45.7255846  18.8940419
  17.5995379  44.9286839  19.2221395  17.8512626  46.2522249  19.4738695
  17.5423802  45.6855762  19.0283922  21.1871925  60.7446309  18.7010017
  20.6392871  60.1204193  18.4330083  21.6484953  60.9340581  17.9854097
  21.1739134  60.6805360  18.5560448  20.5399828  42.6486172  15.4921513
  19.7345792  42.5383902  15.8089351  20.4106564  42.7498628  14.6351378
  20.4019961  42.6469842  15.4129553  23.9965789  48.8131664  16.0861210
  23.4128778  49.3140870  15.6738777  24.3170083  48.3061220  15.4525533
  23.9578964  48.8123499  15.9319717  16.5360588  47.7272259   6.3619884
  17.3576283  47.8970572   6.1201579  16.0730239  47.8819520   5.6386182
  16.5891750  47.7753992   6.2191529  15.1255920  45.7215021  17.1418313
  15.6700333  45.3806148  17.7322655  15.1792856  46.5800482  17.2839598
  15.2145039  45.7970280  17.2500187  10.9386479  59.4831437  14.0157121
  11.5431336  59.4427271  13.3870942  10.7313791  60.3302589  14.0461177
  10.9975376  59.6019439  13.9273238  20.7530251  61.7497382  15.2319358
  21.5728625  61.6060348  15.4935654  20.4724329  62.3743581  15.7735796
  20.8326994  61.8207734  15.3507298  37.2243901  69.4062234   8.1962235
  37.1937906  70.2606870   8.3680504  37.8225250  69.1057526   8.7548378
  37.3081059  69.4878730   8.3037037  30.4243586  68.4937885  12.9515165
  29.5681482  68.6546383  13.0024282  30.4711240  67.6229949  12.9720226
  30.3042698  68.3888687  12.9621231  33.7337303  74.7624410  22.5575621
  34.4404070  74.2676441  22.6862556  33.9225238  75.2033492  21.8278279
  33.8665208  74.7542761  22.4684667  33.2695407  70.5529929  15.5946817
  33.8151367  71.2315015  15.6540787  33.2112284  70.4117390  14.7348398
  33.3411322  70.6321930  15.4758877  21.8824614  66.2325012  13.5051811
  21.2629645  65.6417659  13.3361825  21.7808477  66.8236447  12.8716134
  21.7762289  66.2329094  13.3856800  28.9792509  67.9724554   7.8384274
  29.6772674  68.1512681   8.3305737  29.2944842  67.4494893   7.2154663
  29.1287847  67.9218326   7.8186284  21.6093747  69.7777294  15.7495380
  21.4852444  70.3639739  16.3845198  22.2612031  69.2837489  16.0507655
  21.6867396  69.7916098  15.8881309  26.6352088  72.9539011  15.0282891
  27.2801090  72.4611454  14.7093839  26.8753865  73.0963797  15.8548969
  26.7662673  72.9016453  15.1032424  29.1738179  75.7993916  14.6789783
  29.4561422  75.0045322  14.4576539  29.9024340  76.2774504  14.6994844
  29.3227743  75.7528513  14.6492798  27.1519373  63.3416950  11.9205548
  26.8222703  63.7928094  11.2509247  26.4764375  63.2633114  12.4678555
  27.0029809  63.3968086  11.9028772  34.3595781  59.3302473  10.1655159
  34.0449222  60.0205952  10.5975581  33.8422722  59.2747256   9.4640660
  34.2360251  59.4237362  10.1252108  25.3575327  61.4029239   7.4028496
  26.1121295  61.7707556   7.1645546  25.1802862  61.7768793   8.1707676
  25.4429805  61.5127427   7.4813385  38.6510226  67.5523679  15.4476035
  37.8138647  67.6225866  15.6823630  38.6198457  67.5548174  14.5750338
  38.5228508  67.5633906  15.3535583  25.0474955  69.6956715  21.1624404
  25.2195459  69.5862610  22.0109685  25.5844312  70.3411120  20.9255596
  25.1519959  69.7748717  21.2529501  23.7132392  63.8099558   4.1006609
  23.5307965  64.0271439   3.2747602  24.5758005  63.9238571   4.1565224
  23.8136981  63.8589456   3.9861096  29.3932111  60.8125969   7.1355633
  30.1218271  60.6341923   6.6893789  29.4827004  61.6544048   7.3462811
  29.5138773  60.9109847   7.1009151  33.3740412  71.7479356  11.0387927
  34.1297927  72.1810870  11.0776836  33.4802736  71.0984126  11.6122563
  33.5010582  71.7156840  11.1285952  36.4120583  75.5752633  11.7890330
  35.9755815  75.5789376  12.5449301  36.0783498  76.2558132  11.3569907
  36.2983203  75.6765089  11.8371162  30.9849656  77.6160966  23.1133480
  31.7690073  77.7291814  23.4789222  30.7846251  76.7902103  23.3092166
  31.0715682  77.5107685  23.1967866  19.3536672  72.2888646  15.9977324
  19.0875087  71.4727763  16.1568314  19.3675236  72.3341802  15.1272840
  19.3161394  72.1745551  15.8930806  36.3318066  62.6166461  14.0319758
  36.9743974  62.6864566  14.6181673  36.5841086  61.9495684  13.5299300
  36.4640198  62.5292810  14.0447037  24.1035278  65.8267024  18.6444332
  23.4107075  65.3564004  18.8905063  24.7195606  65.6005329  19.2186039
  24.0919808  65.7234156  18.7653484  39.5464929  72.2933553  10.6809967
  40.2081363  71.7324221  10.5805876  38.9056341  71.7985584  11.0062658
  39.5493796  72.1369962  10.7142307  19.7630085  73.0747425  13.2789068
  19.5805659  73.0494311  12.4261361  20.4979754  73.5446363  13.3177977
  19.8444149  73.1408788  13.1586987  22.8275837  69.7932428  19.7871177
  23.5515809  69.7785459  20.2736072  22.9291974  70.5027784  19.2893145
  22.9494046  69.8957132  19.7849964  30.2020787  73.2731513  24.6520124
  29.4093767  73.5875025  24.8372744  30.3169714  73.4882981  23.8140909
  30.1016197  73.3515350  24.5558459  32.8752106  69.9965504   8.9415140
  32.9698960  70.7354798   9.3954765  32.2510949  69.5682980   9.3749704
  32.7961136  70.0426825   9.0723287  31.1304579  73.1751717  19.5905421
  31.7043441  72.5378961  19.7453985  31.0519383  73.1755799  18.7215078
  31.2037814  73.0816828  19.4851832  19.7300996  69.9540926  13.4288135
  20.3074498  69.8177377  14.0680380  19.0315058  69.4976710  13.6833719
  19.7122017  69.8663192  13.5610425  26.4868298  71.6074982  11.6426618
  26.2287542  70.7746717  11.6157918  26.5416781  71.8332595  10.8019118
  26.4568076  71.5172753  11.5146755  31.5669348  63.7103432  11.7430711
  30.8625675  63.2212618  11.9014630  31.6154322  63.7225907  10.8719155
  31.4699400  63.6393080  11.6370051  25.4603010  69.1612744  12.1291513
  24.8852601  69.3204913  12.7655474  25.0838686  68.5248153  11.6659963
  25.3205822  69.0910557  12.1546071  29.1276299  67.6336094  16.9883891
  28.7390732  67.2090311  16.3336082  28.4630997  67.8818243  17.4960918
  28.9723227  67.6074815  16.9671759  38.7699568  67.3911098   9.7631721
  38.5136133  66.5791040   9.5729604  39.6128882  67.3988665   9.5361909
  38.8565593  67.2723096   9.7016538  32.9502660  61.3310722  14.5007876
  33.3313172  60.6488893  14.8875750  32.1465945  61.0420324  14.3183540
  32.8879122  61.1877771  14.5311931  36.4524727  74.5460694  19.5990274
  36.2163365  73.7148759  19.4802335  37.0967956  74.4946301  20.1845118
  36.5119398  74.4158382  19.6676167  26.1023145  75.3356216  10.3133010
  26.7397092  75.0967963  10.8584804  26.5278217  75.5393374   9.5786171
  26.2599312  75.3307226  10.2850168  26.9094501  63.8364921  24.3670484
  26.5947942  64.6064483  24.1040047  26.5884433  63.2735177  23.7822711
  26.8153420  63.8675189  24.2411834  37.4761148  74.3305143  15.6618568
  37.1706965  75.0633200  16.0231884  36.7567363  73.9243073  15.3811354
  37.3248490  74.3786876  15.6731705  28.4844617  75.8128638  11.9926797
  28.5583626  75.6503810  12.8468647  29.3014124  76.0018828  11.7487278
  28.6160976  75.8165381  12.0824822  43.1762940  70.9698144  14.9886913
  43.1087440  70.9894103  14.1189499  43.1618602  71.8128471  15.2142583
  43.1641696  71.0971878  14.8939390  24.4626398  62.2255442   9.9816680
  23.5948823  62.2978042  10.0474289  24.7501602  63.0277521  10.1704655
  24.3766146  62.3549589  10.0191447  33.5859286  62.3733301  18.3128002
  34.3312878  62.1843112  17.8991427  33.1696591  62.8991539  17.7541858
  33.6344261  62.4235447  18.1692575  40.9621557  69.7442530  13.2633507
  41.5129479  69.1110599  13.5030599  40.9465673  70.2757923  13.9549011
  41.0406754  69.7291478  13.4012365  27.6143948  73.5781127  17.8093400
  27.1155642  74.2896895  17.8878289  28.4244172  73.8981794  17.7711563
  27.6600055  73.7307976  17.8149969  23.8772066  72.8404080  12.0556121
  23.5885314  72.2141551  12.5901849  24.7455414  72.7824368  12.1220802
  23.9632318  72.7391624  12.1447076  34.6649964  67.9838864  12.3738103
  34.3214729  67.2629199  12.7245353  34.7643006  67.7752715  11.5316462
  34.6292006  67.8463067  12.3009783  26.5411006  66.4362172  23.1055699
  25.7310782  66.7419951  22.9945541  27.0185693  67.1567754  23.2208283
  26.4914485  66.5876773  23.1062770  25.4002566  75.6507893  13.3538602
  24.8783319  75.7908184  14.0390467  25.7876586  74.8918557  13.5440719
  25.3806267  75.5593416  13.4839678  22.3893750  65.7013701   7.4233556
  22.1018545  65.3314972   6.6865504  23.0764218  66.1708557   7.1617261
  22.4482647  65.7160671   7.2748632  26.8268891  72.6811912   8.7520093
  26.6311674  73.2886646   8.1580396  27.0503237  71.9879856   8.2711767
  26.8303532  72.6689437   8.5936174  25.2247421  69.5666650   8.8700961
  25.9470073  69.7307808   8.4104767  24.7455414  70.2876314   8.7640301
  25.2611152  69.6964879   8.7866575  33.1840929  65.9030448  14.2497646
  32.3452030  65.9291727  14.0135909  33.2545296  66.5501184  14.8302993
  33.0709322  66.0026574  14.3006763  22.8755038  71.9724722  17.9755101
  23.3876135  72.2508975  17.3263861  22.5891381  72.7114016  18.3417914
  22.9089901  72.1227076  17.9344979  31.6310207  62.8015825   8.9825262
  32.3336560  62.6023574   8.5045220  31.3654396  62.0291768   9.2894106
  31.6956840  62.6578791   8.9570704  37.0598453  71.1098435  11.5358888
  36.9732427  71.2653861  12.3893667  36.6048933  71.7536511  11.1618293
  36.9801709  71.2274190  11.6065995  19.9621944  66.4794914   8.2718838
  20.0638081  67.2821075   8.5999813  20.7577831  66.2782250   7.9741918
  20.0949850  66.5680813   8.2754193  26.3938763  64.0651111  18.0356143
  26.2021960  64.0806245  18.8855566  27.2437359  64.2614785  18.0122798
  26.4914485  64.0965462  18.1579437  20.7785676  66.5942092  16.0139959
  20.6371168  65.7426033  16.1384467  21.0626240  66.6370753  15.1902165
  20.7993523  66.4741842  15.9107583  30.9324269  68.4309182  10.1584447
  30.6858983  68.3504933  10.9921236  31.2609392  67.6462650   9.9646975
  30.9445512  68.3035448  10.2531971  34.8272318  75.1392542  13.9471229
  34.6886677  75.8373587  14.4519971  34.0472316  74.9841198  13.5907410
  34.6915544  75.2192708  13.9697503  33.1650403  71.4388917  20.1993610
  33.1598441  70.5668733  20.2036037  33.8711397  71.6377086  19.7263066
  33.2695407  71.3392791  20.1300646  26.8921296  71.1665901  19.5707430
  27.0364672  71.7467109  18.9350541  27.2396945  71.5442198  20.2757285
  26.9648757  71.3086605  19.5806425  29.0641213  70.3656069  17.3532562
  28.3164527  70.5587084  16.9480840  29.2182739  69.5401289  17.1156683
  28.9763641  70.2721181  17.2577968  29.3042990  64.2606620  18.2427966
  29.7615605  64.9930594  18.3700758  29.3799319  63.8373085  19.0015222
  29.3833960  64.3063858  18.3729042  21.5475982  64.5072440  19.3317410
  21.0118171  63.8952798  19.6478177  21.6093746  65.0820576  19.9851076
  21.4771614  64.5019367  19.4752836  33.7770316  57.4396495  12.1121809
  33.8953885  57.8972958  11.3789111  33.6032492  56.6341756  11.8258026
  33.7689487  57.3890267  11.9622742  27.1825368  66.2508724  15.0869790
  26.3921443  66.0700184  15.4087126  27.5785991  65.4735676  15.0700084
  27.1242245  66.1096185  15.1322338  32.5669055  73.8851154  12.8129236
  31.8914057  73.6536386  13.3142623  32.5761431  73.2772337  12.1871341
  32.4687559  73.7610079  12.7945388  29.6963199  68.7268983  19.5693289
  29.6322340  69.5878939  19.4413425  29.8360386  68.4100976  18.7688840
  29.7078669  68.8069150  19.4321502  28.3782293  71.4201122  13.7109492
  27.9544542  71.6205621  12.9748510  28.2027148  70.5729970  13.8233791
  28.2893173  71.3249904  13.6183182  23.6664738  71.9153174   9.1437464
  23.8229357  71.8499977   9.9993456  24.0065331  72.6901726   8.9316144
  23.7397972  72.0202372   9.2392058  30.2043882  71.2911057   8.0130827
  30.7459428  70.7881438   8.4769448  30.5190441  71.2376252   7.2020313
  30.3308279  71.2090478   7.9614639  34.0760990  75.5013705  25.1257740
  34.8895855  75.2298854  25.2862872  33.9155956  75.2021245  24.3217936
  34.1730938  75.4168631  25.0303145  31.3533152  66.1847362  18.0653128
  31.5675121  65.5458276  17.5116482  30.7367051  66.6293186  17.6360990
  31.2938481  66.1557505  17.9203559  20.2398999  69.0988124   9.4598231
  20.6197964  69.5172669   8.7958499  19.6654364  69.6801580   9.7667075
  20.2110324  69.2465983   9.4074972  33.5172240  67.7936427  19.0036435
  32.7048921  67.4862317  19.0849608  33.9762174  67.3135427  19.5679147
  33.4652624  67.6772919  19.0991029  30.7447880  59.2947297  13.0540471
  29.8741438  59.2686019  13.0073780  30.9988221  59.1224490  12.2366316
  30.6541440  59.2657441  12.9260607  30.6125747  69.1996498  23.7865137
  31.0825378  69.8238615  24.1733011  30.6587627  68.5313474  24.3458352
  30.6893623  69.1931179  23.9265209  27.7697021  61.3053526  14.5113941
  27.2535509  60.6133717  14.6365520  27.2090950  61.9724303  14.4576540
  27.6103534  61.3016784  14.5220007  29.8389254  61.8446486  16.3406794
  29.4521007  61.8695517  17.1220324  29.3522191  61.2788165  15.8881310
  29.7101763  61.7642237  16.3894697  34.0882234  76.5619995  20.3980580
  34.7261954  76.0680191  20.0643036  33.4456325  76.4897395  19.8132807
  34.0876460  76.4779003  20.2622935  35.8139234  68.4109141  14.9646496
  35.3866842  68.3235489  14.2094595  35.1765287  68.5186916  15.5501340
  35.6568841  68.4141801  14.9391937  29.5046396  58.7313471  18.6317054
  30.1339514  59.2673771  18.3538124  29.6732259  58.6390830  19.4830619
  29.6224190  58.7974834  18.7165582  29.3060311  63.5184666  20.9043465
  30.1333740  63.2469815  20.9602080  29.3268157  64.3145508  21.2607283
  29.4313161  63.5964420  20.9658648  34.1436490  77.2539803  17.0385937
  34.9328868  76.9028868  17.1588019  34.3180088  78.0676192  16.7762571
  34.2856772  77.3225660  17.0173805  23.8829801  70.6648529  14.0913726
  23.0417807  70.5652403  14.2992620  24.0919809  71.4344009  14.4428046
  23.7894493  70.7640572  14.1741041  21.3605368  68.2868066  11.9198476
  20.9662065  68.3611078  11.1448586  20.8045484  68.6726012  12.4706838
  21.2208180  68.3549840  11.8866136  32.9970314  61.2649360  11.6002355
  33.2019908  61.1971668  12.4459352  32.6696738  62.0708181  11.5323533
  32.9785562  61.3735300  11.7162010  27.6946465  68.5929928  13.3411323
  27.3909603  68.0385916  13.9421731  26.9925886  68.7722138  12.8539358
  27.5462675  68.5374710  13.3581029  26.7512563  65.9030448   7.9056025
  27.0272297  65.1849360   7.4933593  27.3511232  66.5015368   7.6977131
  26.8805827  65.8850819   7.8136786  36.2504002  61.8181124  11.0805121
  35.6378316  62.3051526  11.4658853  36.3468177  61.1424615  11.6242772
  36.1741900  61.7899433  11.2183979  30.2523083  63.5743965   6.1802620
  30.7066830  63.7454526   6.9050465  30.7263129  62.9612076   5.7800396
  30.3891403  63.5094851   6.2276382  23.7738608  73.0592291  15.5105359
  23.1826542  73.7001789  15.4808374  24.5359632  73.4829909  15.4836658
  23.7986869  73.2168130  15.5020506  24.1699231  64.2194289  16.1773376
  24.6300713  64.2933218  16.9148500  24.2155338  65.0175543  15.8273198
  24.2449787  64.3488436  16.2346133  25.8182581  64.8860984  20.7445403
  25.4268146  64.2394331  21.1801181  25.9868444  65.4772419  21.3639659
  25.7853491  64.8775252  20.9008109  39.8929030  72.8898061  16.5082637
  39.9512154  73.3384710  17.2542613  39.2595498  73.2996874  16.0712717
  39.8080325  73.0171796  16.5535185  27.5936103  70.2786500   7.2847627
  28.3378148  70.6660776   7.5230577  27.7396799  69.4343925   7.4488115
  27.7246688  70.2116972   7.3441597  29.5115679  62.0736759  12.3179489
  28.6651724  62.2459566  12.1920839  29.5086811  61.2686102  12.6545317
  29.3862828  61.9797787  12.3490616  30.5813979  65.8511973  13.1841547
  30.1073933  65.3253735  13.6946858  30.9532115  65.3041446  12.6156408
  30.5663868  65.6927970  13.1756694  20.9587009  67.8483480  18.5525093
  21.8212622  67.7479189  18.4662422  20.6278792  67.2678189  17.9910665
  21.0372205  67.7475106  18.4570498  36.8450709  70.9114349  14.5948327
  36.6048932  70.0720764  14.5990754  37.3242717  70.9914515  15.3189101
  36.8802893  70.7995748  14.7023130  32.5097479  66.7448528   6.2467301
  31.9820497  66.8277272   5.5573009  32.9693187  67.4866399   6.2431945
  32.4999329  66.8669190   6.1441996  38.8455897  67.6915806  12.5477586
  38.6065666  67.6511640  11.7098371  39.0089798  68.5386958  12.6743307
  38.8346200  67.8107891  12.4431068  35.4501927  72.0765755  18.4782631
  36.1736125  71.6238282  18.2993651  35.1851889  72.3570421  17.6954959
  35.5183200  72.0516724  18.3361347  24.3188795  66.6725929  15.2135511
  23.6941865  66.6844321  14.6061463  23.9834390  67.1486104  15.8626751
  24.1774287  66.7444446  15.2192079  31.2320716  72.1749633  16.6277647
  30.6177709  71.6307684  16.9226282  31.7488001  71.6613870  16.1483463
  31.2176379  72.0186042  16.6001875  30.4717013  73.2453903  14.3621945
  30.0444621  72.6203622  13.9287381  30.4641958  72.9628825  15.1880952
  30.4076154  73.1106684  14.4201773  23.5879540  68.2819076  17.4310379
  23.7473027  67.5262401  17.8362101  23.4072434  68.8310016  18.0851117
  23.5844899  68.2512890  17.5873085  31.5299843  60.4480312  17.9861169
  31.0340405  60.6443986  17.2952735  32.2868905  60.8472980  17.8149970
  31.5686668  60.5358046  17.8581305  28.8002723  64.1222658  14.5764479
  28.8245210  63.5882770  13.8877259  29.0514197  63.6139967  15.2390070
  28.8412642  63.9683562  14.5729124  25.0804045  62.8493476  13.9570224
  25.1202417  63.3502683  14.6704931  24.2553710  62.9403870  13.6876147
  24.9643571  62.9375292  14.0220762  27.2633658  72.4154216  22.0590518
  26.4129289  72.5525930  22.1948163  27.4261786  71.6817994  22.5038220
  27.1617522  72.3268317  22.1446117  26.5018409  69.3653986  16.2544123
  25.6710338  69.5327804  16.0479371  26.4469926  68.9889937  17.0393008
  26.3707823  69.3343717  16.3392651  24.3102192  62.8562879  21.8900533
  24.9354895  62.3125012  22.1629966  23.8552672  62.3757797  21.3208324
  24.3350452  62.7052360  21.8462127  24.8754452  67.6409578   6.7834240
  25.0157413  68.1382042   7.4862882  25.3736985  66.9395872   6.9248454
  24.9695533  67.6111556   6.9085819  37.8837241  71.0392166  16.9813181
  38.4755081  71.6789417  17.0131379  38.3196235  70.3415203  17.2705248
  38.0355672  71.0310516  17.0294014  26.4833658  64.4390664   4.0872259
  26.8049499  63.9593746   3.4331521  26.7460601  65.2490310   3.8963071
  26.5699683  64.4880562   3.9627751  29.7130630  75.4609538  17.6071075
  29.2055722  76.0145385  18.0511706  29.4157277  75.5217828  16.7889850
  29.5935515  75.5515850  17.5519532  31.8792813  63.8262858  16.4495738
  32.3047884  63.3735384  15.8379265  31.2649806  63.2722929  16.7260526
  31.8521458  63.6776834  16.4000763  30.3187036  60.2977958   9.8586315
  29.6755353  60.1475604  10.4271454  29.9786442  60.0520303   9.0935420
  30.1732113  60.2390080   9.8289330  34.9086382  68.2537385   9.2816324
  34.2377572  68.7967087   9.1529389  35.6026132  68.7232240   9.0398019
  34.9115249  68.4035656   9.2271851  35.0714509  64.7093268  12.1906697
  35.4242120  64.2822991  12.8652496  34.2129311  64.6244112  12.3207773
  34.9963954  64.6338009  12.3101707  23.7698194  67.3400788  10.2489543
  23.0510184  67.7564920  10.5162407  24.1410557  67.9055027   9.6981182
  23.7190126  67.4850069  10.2072350  33.0697775  67.9728637  16.1391539
  33.0495703  67.7911932  16.9926318  33.1176976  68.8440655  16.1151123
  33.0732416  68.0745175  16.2614834  31.0144105  74.5615829  22.0640016
  30.9739960  73.9165506  21.4785172  31.8267423  74.5052446  22.3765428
  31.1287259  74.4574796  22.0236965  29.5444769  66.3798788   5.5862923
  28.9509608  66.7015784   5.0347490  29.5820046  65.5339883   5.3784029
  29.4619158  66.3023116   5.4745694  36.5038570  59.8311680  13.1191009
  35.9969434  59.1240820  13.0512187  37.3006003  59.5004869  13.2492086
  36.5465809  59.6784831  13.1290004  32.4202585  66.3378292   9.0164673
  32.1916278  66.3610994   8.1743031  32.6800662  65.5135759   9.1359684
  32.4248773  66.2194372   8.9089871  26.7021814  68.1912765  18.6189773
  26.1900717  67.5833948  18.9774805  26.5301310  68.9069358  19.0863749
  26.6011451  68.2076065  18.7405997  21.5487529  66.6350341  21.2692135
  21.3790119  67.2951715  20.7240342  21.1053478  66.8456902  21.9904624
  21.4586862  66.7636323  21.2953765  25.4747348  64.8754839  10.3118869
  25.9504714  65.2371918   9.6769050  24.9735948  65.5311306  10.5919012
  25.4712707  65.0249027  10.2595610  30.5790884  66.1137010  21.0592029
  31.1362314  65.8850819  20.4270494  30.2551949  66.8742676  20.7827241
  30.6137294  66.1920847  20.9248526  18.4489593  69.5397206  16.5280625
  17.9016312  68.8697852  16.6461493  19.2381971  69.1727054  16.5924092
  18.4841777  69.3862193  16.5549326  28.2974001  69.2004663  22.0244036
  29.0485328  69.5156340  22.3383590  28.4896578  68.9983834  21.1977958
  28.4365416  69.2172045  21.9487432  27.5174001  67.0196038   3.6792253
  27.8972966  67.0375668   2.8943368  26.7766597  67.4650027   3.5583100
  27.4642839  67.0877813   3.5455821  35.1459292  65.3278230   9.2667832
  35.1453518  65.1726886  10.1252108  34.9415472  66.1741217   9.2109217
  35.1159069  65.4298850   9.3855771  17.2076563  68.7518014  13.6826648
  17.0298324  68.2994623  14.4081564  16.9195585  69.5544175  13.8665126
  17.1389516  68.8040572  13.8170151  32.8700144  70.0075731  12.9204038
  33.3653809  69.2898726  12.8808059  32.0599919  69.7046529  12.8058525
  32.8244037  69.8573378  12.8977764  34.9351962  72.7579419  15.6081167
  35.3607034  72.2353841  15.0551592  34.5708882  73.3560256  15.0869790
  34.9438565  72.7689646  15.4490177  31.5230562  76.4713683  11.9382325
  31.9941740  77.1853946  12.1072310  31.8590740  75.8712433  12.4742194
  31.6425677  76.4885147  12.0414701  33.6107546  78.0814997  24.1174397
  33.7204512  77.2923557  24.4731144  33.9398443  77.9920933  23.3148735
  33.6759952  77.9520849  24.0516787  28.4400057  61.2441154  18.8940419
  28.5727962  60.4472147  19.2221395  28.8245210  61.7707557  19.4738695
  28.5156386  61.2041070  19.0283922  32.1604508  76.2631617  18.7010017
  31.6125454  75.6389501  18.4330083  32.6217537  76.4525889  17.9854097
  32.1471718  76.1990667  18.5560448  31.5132412  58.1671480  15.4921513
  30.7078376  58.0569209  15.8089351  31.3839148  58.2683936  14.6351378
  31.3752545  58.1655150  15.4129553  34.9698373  64.3316972  16.0861210
  34.3861361  64.8326178  15.6738777  35.2902667  63.8246528  15.4525533
  34.9311548  64.3308807  15.9319717  27.5093172  63.2457567   6.3619884
  28.3308866  63.4155879   6.1201579  27.0462823  63.4004828   5.6386182
  27.5624334  63.2939300   6.2191529  26.0988504  61.2400329  17.1418313
  26.6432917  60.8991456  17.7322655  26.1525439  62.0985790  17.2839598
  26.1877623  61.3155588  17.2500187  31.7262835  77.2682690  15.2319358
  32.5461208  77.1245656  15.4935654  31.4456912  77.8928889  15.7735796
  31.8059578  77.3393042  15.3507298  37.8827084  79.3550228  24.3670484
  37.5680525  80.1249791  24.1040047  37.5617017  78.7920485  23.7822711
  37.7886003  79.3860497  24.2411834  44.5591870  77.8918609  18.3128002
  45.3045462  77.7028420  17.8991427  44.1429175  78.4176847  17.7541858
  44.6076844  77.9420755  18.1692575  37.3671347  79.5836418  18.0356143
  37.1754544  79.5991553  18.8855566  38.2169943  79.7800093  18.0122798
  37.4647069  79.6150770  18.1579437  40.2775574  79.7791928  18.2427966
  40.7348188  80.5115902  18.3700758  40.3531903  79.3558393  19.0015222
  40.3566544  79.8249166  18.3729042  38.7429604  76.8238834  14.5113941
  38.2268093  76.1319025  14.6365520  38.1823533  77.4909611  14.4576540
  38.5836118  76.8202091  14.5220007  40.8121838  77.3631794  16.3406794
  40.4253591  77.3880825  17.1220324  40.3254775  76.7973473  15.8881310
  40.6834347  77.2827545  16.3894697  40.4778979  74.2498779  18.6317054
  41.1072097  74.7859079  18.3538124  40.6464842  74.1576138  19.4830619
  40.5956774  74.3160142  18.7165582  40.2792894  79.0369974  20.9043465
  41.1066324  78.7655123  20.9602080  40.3000740  79.8330816  21.2607283
  40.4045744  79.1149728  20.9658648  42.5032427  75.9665620  17.9861169
  42.0072988  76.1629294  17.2952735  43.2601489  76.3658288  17.8149970
  42.5419252  76.0543354  17.8581305  36.0536629  78.3678784  13.9570224
  36.0935000  78.8687991  14.6704931  35.2286293  78.4589178  13.6876147
  35.9376155  78.4560600  14.0220762  35.2834775  78.3748187  21.8900533
  35.9087479  77.8310320  22.1629966  34.8285255  77.8943104  21.3208324
  35.3083036  78.2237668  21.8462127  42.8525396  79.3448166  16.4495738
  43.2780468  78.8920692  15.8379265  42.2382389  78.7908237  16.7260526
  42.8254042  79.1962142  16.4000763  39.4132640  76.7626462  18.8940419
  39.5460546  75.9657455  19.2221395  39.7977793  77.2892865  19.4738695
  39.4888969  76.7226378  19.0283922  42.4864996  73.6856788  15.4921513
  41.6810959  73.5754517  15.8089351  42.3571731  73.7869243  14.6351378
  42.3485128  73.6840458  15.4129553  37.0721087  76.7585637  17.1418313
  37.6165500  76.4176764  17.7322655  37.1258023  77.6171098  17.2839598
  37.1610207  76.8340896  17.2500187  22.4555543  36.1817234   9.4915668
  23.1622310  35.6869264   9.6202603  22.6443479  36.6226315   8.7618326
  22.5883449  36.1735584   9.4024714  19.5947837  39.6044770   7.3829743
  19.6831183  39.4170911   8.2307954  20.0237550  38.9582200   6.9834590
  19.6709940  39.4807778   7.4501495  17.1618297  38.8875930   6.3647406
  16.5989132  38.4748540   6.8887067  17.9239321  38.8128836   6.7840549
  17.1912746  38.8153331   6.5040406  13.7693195  31.1149538   8.0964451
  13.9413699  31.0055433   8.9449732  14.3062553  31.7603944   7.8595643
  13.8738199  31.1941540   8.1869548  19.7067897  39.0353789  10.0473527
  20.4908313  39.1484637  10.4129269  19.5064491  38.2094926  10.2432213
  19.7933922  38.9300509  10.1307913  19.8638290  40.9463891   3.6939983
  19.0653536  40.7063391   3.9513851  20.3124302  40.9978284   4.4407030
  19.8112901  40.9186282   3.8424907  18.9239027  34.6924336  11.5860171
  18.1312008  35.0067848  11.7712790  19.0387954  34.9075805  10.7480955
  18.8234437  34.7708173  11.4898506  19.8522820  34.5944540   6.5245467
  20.4261681  33.9571784   6.6794031  19.7737623  34.5948622   5.6555125
  19.9256055  34.5009651   6.4191878  25.1742968  35.9653518   6.5330321
  24.9381605  35.1341582   6.4142381  25.8186196  35.9139125   7.1185165
  25.2337638  35.8351205   6.6016214  15.6312741  25.2557744  11.3010531
  15.3166182  26.0257307  11.0380093  15.3102674  24.6928000  10.7162758
  15.5371660  25.2868012  11.1751881  26.1979388  35.7497966   2.5958615
  25.8925205  36.4826023   2.9571931  25.4785604  35.3435896   2.3151401
  26.0466730  35.7979699   2.6071752  31.8981180  32.3890967   1.9226959
  31.8305681  32.4086926   1.0529546  31.8836843  33.2321294   2.1482630
  31.8859937  32.5164702   1.8279436  16.3362189  34.9973950   4.7433447
  15.8373882  35.7089718   4.8218336  17.1462413  35.3174617   4.7051610
  16.3818295  35.1500799   4.7490016  15.2629246  27.8554995  10.0395746
  14.4529022  28.1612775   9.9285588  15.7403933  28.5760577  10.1548330
  15.2132725  28.0069596  10.0402817  23.5490558  36.5585365   0.8811275
  23.4104917  37.2566411   1.3860018  22.7690556  36.4034021   0.5247457
  23.4133785  36.6385531   0.9037550  21.8868643  32.8581740   7.1333657
  21.8816682  31.9861557   7.1376084  22.5929637  33.0569909   6.6603113
  21.9913647  32.7585614   7.0640693  15.6139536  32.5858724   6.5047477
  15.7582912  33.1659932   5.8690587  15.9615185  32.9635021   7.2097332
  15.6866998  32.7279428   6.5146472  14.6867291  40.7761496   3.3708504
  14.8356855  40.2164412   2.7181909  15.4667294  40.8553498   3.7541023
  14.8241385  40.7047061   3.3305453  17.2120592  40.9476139   4.6492995
  17.1364263  40.2784949   5.2043783  17.1410451  41.6493927   5.1633661
  17.1901199  40.9521046   4.8069843  16.6012226  44.3544458   3.1070996
  17.0908157  43.6555248   2.9246660  16.0296459  44.0568328   3.6947053
  16.5896756  44.2070682   3.1672037  22.7979230  36.9206528  12.0597786
  23.6114095  36.6491677  12.2202919  22.6374196  36.6214068  11.2557982
  22.8949178  36.8361454  11.9643192  22.2390480  29.2129250   5.9376482
  21.4267162  28.9055141   6.0189655  22.6980414  28.7328250   6.5019194
  22.1870865  29.0965743   6.0331076  19.3343987  30.6189322  10.7205184
  19.8043619  31.2431438  11.1073058  19.3805868  29.9506297  11.2798399
  19.4111863  30.6124002  10.8605256  22.8100474  37.9812818   7.3320627
  23.4480194  37.4873014   6.9983083  22.1674566  37.9090219   6.7472854
  22.8094700  37.8971827   7.1962982  22.8654731  38.6732626   3.9725984
  23.6547109  38.3221691   4.0928065  23.0398328  39.4869015   3.7102618
  23.0075012  38.7418484   3.9513852  14.4783057  37.2272472   4.9823468
  14.3703412  37.2374534   5.8485526  14.6878838  38.0527252   4.7928422
  14.4933168  37.3513547   5.0827560  28.6147270  34.3090884   3.4422684
  28.6730394  34.7577533   4.1882660  27.9813738  34.7189697   3.0052764
  28.5298565  34.4364619   3.4875232  22.2546365  39.9294426  -0.1222570
  22.0566054  40.4185241  -0.8166359  21.6334076  40.1335668   0.4561563
  22.1333929  40.0310964  -0.1399347  24.1720167  33.4958578   5.4122678
  24.8954366  33.0431105   5.2333698  23.9070129  33.7763244   4.6295006
  24.2401440  33.4709547   5.2701394  15.9851898  33.8347039   8.9930565
  15.1347529  33.9718754   9.1288210  16.1480026  33.1010818   9.4378267
  15.8835762  33.7461141   9.0786164  26.6055481  32.4584989   3.9153228
  27.1973321  33.0982240   3.9471426  27.0414475  31.7608026   4.2045295
  26.7573912  32.4503340   3.9634061  17.6791356  41.8126920   1.4468129
  17.4557010  41.0545749   1.8152155  17.1901199  41.8424941   0.7248569
  17.5734805  41.7049144   1.3944870  19.7362345  35.9808652   8.9980063
  19.6958200  35.3358329   8.4125218  20.5485664  35.9245269   9.3105475
  19.8505499  35.8767619   8.9577012  19.3009125  27.5329833   7.9932076
  19.8580555  27.3043643   7.3610541  18.9770190  28.2935499   7.7167288
  19.3355535  27.6113670   7.8588573  17.0192242  30.6197487   8.9584083
  17.7703569  30.9349163   9.2723637  17.2114818  30.4176657   8.1318005
  17.1583656  30.6364868   8.8827479  23.6570203  34.1772242   2.5421214
  24.0825274  33.6546664   1.9891639  23.2927123  34.7753080   2.0209837
  23.6656805  34.1882469   2.3830224  13.2924283  42.4736460   1.3018559
  13.6070842  43.2872848   1.3096341  13.7017696  42.0886678   1.9700719
  13.3992381  42.5365162   1.4022651  22.3325787  39.5007820  11.0514444
  22.4422752  38.7116380  11.4071191  22.6616683  39.4113756  10.2488782
  22.3978193  39.3713673  10.9856834  20.8822749  37.6824441   5.6350064
  20.3343695  37.0582324   5.3670129  21.3435777  37.8718713   4.9194143
  20.8689958  37.6183491   5.4900495  20.4481075  38.6875513   2.1659405
  21.2679449  38.5438479   2.4275700  20.1675153  39.3121712   2.7075843
  20.5277818  38.7585865   2.2847345  36.9194725  46.3440365  -4.8697718
  36.8888730  47.1985002  -4.6979449  37.5176074  46.0435658  -4.3111575
  37.0031883  46.4256861  -4.7622916  30.1194410  45.4316016  -0.1144788
  29.2632306  45.5924514  -0.0635671  30.1662064  44.5608080  -0.0939727
  29.9993522  45.3266818  -0.1038722  33.4288127  51.7002542   9.4915668
  34.1354894  51.2054572   9.6202603  33.6176062  52.1411623   8.7618326
  33.5616032  51.6920892   9.4024714  32.9646231  47.4908060   2.5286864
  33.5102191  48.1693146   2.5880833  32.9063107  47.3495521   1.6688445
  33.0362146  47.5700062   2.4098924  26.0820306  54.9797126  -2.0844784
  26.1830669  54.1697480  -1.7747656  25.4862051  54.8854072  -2.7145105
  26.0092845  54.8462154  -2.1318545  25.9221046  59.8974715  -0.6829928
  26.5658501  60.3387879  -0.2933769  26.2477301  59.0928141  -0.7699669
  26.0652874  59.8439910  -0.6384451  21.5775438  43.1703143   0.4391857
  20.9580469  42.5795790   0.2701872  21.4759301  43.7614578  -0.1943819
  21.4713113  43.1707226   0.3196847  28.6743333  44.9102685  -5.2275679
  29.3723498  45.0890812  -4.7354216  28.9895666  44.3873024  -5.8505290
  28.8238671  44.8596457  -5.2473669  21.3044571  46.7155425   2.6835426
  21.1803268  47.3017870   3.3185245  21.9562855  46.2215621   2.9847701
  21.3818220  46.7294229   2.8221356  28.8631269  51.2973130  -5.2395888
  29.3024904  50.6890230  -4.7941115  28.7135932  50.9180503  -6.0110423
  28.9052734  51.1511601  -5.2876721  26.3302912  49.8917142   1.9622938
  26.9751914  49.3989585   1.6433886  26.5704689  50.0341928   2.7889016
  26.4613497  49.8394584   2.0372471  28.8689003  52.7372048   1.6129830
  29.1512246  51.9423453   1.3916586  29.5975164  53.2152635   1.6334891
  29.0178567  52.6906645   1.5832845  26.8470197  40.2795082  -1.1454405
  26.5173527  40.7306225  -1.8150706  26.1715199  40.2011245  -0.5981398
  26.6980633  40.3346217  -1.1631182  34.0546605  36.2680604  -2.9004794
  33.7400046  36.9584083  -2.4684372  33.5373546  36.2125387  -3.6019293
  33.9311075  36.3615493  -2.9407845  38.8507091  51.8431410  -1.4134339
  38.0204795  52.0542054  -1.2500923  38.8016344  51.0168464  -1.6892056
  38.7213827  51.7521016  -1.4296974  26.9116829  54.6735264   1.4213570
  26.3943771  54.3142679   0.8174878  27.6091220  54.1497438   1.4319637
  26.9382410  54.5432952   1.3343829  30.5680421  55.1230078   7.3829743
  30.6563767  54.9356219   8.2307954  30.9970134  54.4767508   6.9834590
  30.6442523  54.9993086   7.4501495  28.1350881  54.4061238   6.3647406
  27.5721716  53.9933848   6.8887067  28.8971904  54.3314144   6.7840549
  28.1645329  54.3338639   6.5040406  23.6946872  56.3959259  -1.0315964
  24.3967452  55.8811248  -0.9743208  23.6144355  56.7233411  -0.2269089
  23.7870633  56.3673485  -0.9043172  38.3461050  44.4901811   2.3816082
  37.5089471  44.5603998   2.6163677  38.3149281  44.4926305   1.5090385
  38.2179332  44.5012038   2.2875630  24.7425779  46.6334846   8.0964451
  24.9146283  46.5240741   8.9449732  25.2795136  47.2789252   7.8595643
  24.8470783  46.7126848   8.1869548  23.0197648  52.5865611  -1.5230356
  23.8586547  52.8188544  -1.4756595  23.0509417  51.7169923  -1.5923321
  23.1479365  52.4922558  -1.5265712  23.6450351  53.0066486   2.7782949
  24.1848576  52.8637617   3.4486322  22.9620297  53.4063237   3.1466976
  23.6242505  53.0446157   2.9317371  33.0691236  48.6857487  -2.0272026
  33.8248751  49.1189001  -1.9883118  33.1753560  48.0362257  -1.4537390
  33.1961406  48.6534971  -1.9374001  36.1071407  52.5130764  -1.2769623
  35.6706639  52.5167507  -0.5210652  35.7734322  53.1936263  -1.7090046
  35.9934027  52.6143220  -1.2288791  30.6800480  54.5539097  10.0473527
  31.4640897  54.6669945  10.4129269  30.4797075  53.7280234  10.2432213
  30.7666506  54.4485817  10.1307913  19.0487496  49.2266777   2.9317371
  18.7825911  48.4105894   3.0908361  19.0626060  49.2719933   2.0612886
  19.0112218  49.1123682   2.8270853  36.0268890  39.5544592   0.9659805
  36.6694798  39.6242697   1.5521720  36.2791910  38.8873815   0.4639347
  36.1591022  39.4670941   0.9787084  23.7986102  42.7645155   5.5784379
  23.1057899  42.2942135   5.8245110  24.4146429  42.5383460   6.1526086
  23.7870632  42.6612287   5.6993531  30.8370874  56.4649199   3.6939983
  30.0386119  56.2248699   3.9513851  31.2856885  56.5163592   4.4407030
  30.7845485  56.4371590   3.8424907  39.2415753  49.2311684  -2.3849986
  39.9032187  48.6702353  -2.4854078  38.6007165  48.7363715  -2.0597295
  39.2444620  49.0748093  -2.3517646  19.4580909  50.0125557   0.2129115
  19.2756483  49.9872443  -0.6398593  20.1930578  50.4824494   0.2518024
  19.5394973  50.0786919   0.0927034  35.5280584  50.2477067  -2.6437997
  35.7636173  50.3922265  -3.4711147  35.6770147  51.0119475  -2.2506484
  35.5846387  50.3816121  -2.7074393  22.5226661  46.7310559   6.7211224
  23.2466633  46.7163590   7.2076118  22.6242798  47.4405915   6.2233192
  22.6444870  46.8335263   6.7190011  29.8971610  50.2109644  11.5860171
  29.1044591  50.5253156  11.7712790  30.0120538  50.4261113  10.7480955
  29.7967021  50.2893481  11.4898506  32.5702929  46.9343635  -4.1244813
  32.6649784  47.6732929  -3.6705188  31.9461773  46.5061111  -3.6910249
  32.4911960  46.9804956  -3.9936666  30.8255403  50.1129848   6.5245467
  31.3994265  49.4757092   6.6794031  30.7470207  50.1133930   5.6555125
  30.8988638  50.0194959   6.4191878  19.4251820  46.8919057   0.3628182
  20.0025322  46.7555508   1.0020427  18.7265881  46.4354841   0.6173766
  19.4072841  46.8041323   0.4950471  26.1819122  48.5453113  -1.4233335
  25.9238366  47.7124848  -1.4502036  26.2367605  48.7710726  -2.2640835
  26.1518900  48.4550884  -1.5513198  31.2620172  40.6481564  -1.3229242
  30.5576499  40.1590749  -1.1645323  31.3105146  40.6604038  -2.1940798
  31.1650224  40.5771212  -1.4289903  25.1553834  46.0990875  -0.9368440
  24.5803425  46.2583044  -0.3004479  24.7789510  45.4626285  -1.3999990
  25.0156646  46.0288688  -0.9113882  28.8227123  44.5714225   3.9223938
  28.4341555  44.1468442   3.2676129  28.1581821  44.8196374   4.4300965
  28.6674050  44.5452946   3.9011806  38.4650392  44.3289229  -3.3028232
  38.2086957  43.5169171  -3.4930349  39.3079706  44.3366797  -3.5298045
  38.5516417  44.2101227  -3.3643415  32.6453484  38.2688853   1.4347922
  33.0263996  37.5867025   1.8215797  31.8416769  37.9798456   1.2523587
  32.5829946  38.1255902   1.4651978  36.1475551  51.4838825   6.5330321
  35.9114189  50.6526890   6.4142381  36.7918780  51.4324433   7.1185165
  36.2070222  51.3536513   6.6016214  25.7973969  52.2734347  -2.7526943
  26.4347916  52.0346094  -2.2075149  26.2229041  52.4771506  -3.4873782
  25.9550135  52.2685357  -2.7809786  20.4886612  54.5122683   1.1307361
  20.5290757  54.7837534   0.3027141  21.0481136  55.0364591   1.5465149
  20.5769958  54.6298438   1.0699249  26.6045325  40.7743052  11.3010531
  26.2898766  41.5442614  11.0380093  26.2835257  40.2113308  10.7162758
  26.5104244  40.8053320  11.1751881  37.1711972  51.2683274   2.5958615
  36.8657789  52.0011331   2.9571931  36.4518187  50.8621204   2.3151401
  37.0199314  51.3165007   2.6071752  28.1795441  52.7506769  -1.0733157
  28.2534449  52.5881941  -0.2191307  28.9964948  52.9396959  -1.3172675
  28.3111800  52.7543512  -0.9835131  42.8713764  47.9076275   1.9226959
  42.8038264  47.9272234   1.0529546  42.8569426  48.7506602   2.1482630
  42.8592520  48.0350010   1.8279436  33.2810110  39.3111433   5.2468049
  34.0263702  39.1221243   4.8331474  32.8647415  39.8369671   4.6881905
  33.3295085  39.3613578   5.1032622  40.6572381  46.6820661   0.1973554
  41.2080303  46.0488730   0.4370646  40.6416497  47.2136054   0.8889058
  40.7357578  46.6669609   0.3352412  27.3094772  50.5159258   4.7433447
  26.8106466  51.2275026   4.8218336  28.1194996  50.8359925   4.7051610
  27.3550879  50.6686107   4.7490016  23.5722890  49.7782211  -1.0103832
  23.2836138  49.1519683  -0.4758105  24.4406238  49.7202499  -0.9439151
  23.6583142  49.6769756  -0.9212877  34.3600787  44.9216995  -0.6921850
  34.0165553  44.2007330  -0.3414600  34.4593830  44.7130846  -1.5343492
  34.3242830  44.7841198  -0.7650170  26.2361830  43.3740303  10.0395746
  25.4261606  43.6798082   9.9285588  26.7136517  44.0945885  10.1548330
  26.1865309  43.5254904  10.0402817  25.0953390  52.5886024   0.2878649
  24.5734143  52.7286315   0.9730513  25.4827410  51.8296688   0.4780766
  25.0757091  52.4971548   0.4179725  26.5219715  49.6190043  -4.3139860
  26.3262498  50.2264777  -4.9079557  26.7454061  48.9257987  -4.7948186
  26.5254356  49.6067568  -4.4723780  24.9198245  46.5044781  -4.1958992
  25.6420897  46.6685939  -4.6555186  24.4406238  47.2254446  -4.3019652
  24.9561976  46.6343010  -4.2793378  32.8791753  42.8408580   1.1837693
  32.0402853  42.8669858   0.9475956  32.9496120  43.4879315   1.7643040
  32.7660146  42.9404705   1.2346810  22.5705862  48.9102853   4.9095148
  23.0826959  49.1887106   4.2603908  22.2842205  49.6492147   5.2757961
  22.6040725  49.0605207   4.8685026  31.3261031  39.7393957  -4.0834691
  32.0287384  39.5401705  -4.5614733  31.0605220  38.9669899  -3.7765848
  31.3907663  39.5956923  -4.1089250  36.7549277  48.0476566  -1.5301065
  36.6683251  48.2031992  -0.6766286  36.2999757  48.6914642  -1.9041660
  36.6752533  48.1652321  -1.4593959  26.0889587  41.0029242   4.9696190
  25.8972784  41.0184376   5.8195613  26.9388183  41.1992916   4.9462844
  26.1865309  41.0343593   5.0919484  20.4736500  43.5320223   2.9480006
  20.3321992  42.6804164   3.0724514  20.7577064  43.5748884   2.1242212
  20.4944346  43.4119973   2.8447630  30.6275093  45.3687313  -2.9075506
  30.3809807  45.2883064  -2.0738717  30.9560216  44.5840781  -3.1012978
  30.6396336  45.2413579  -2.8127983  34.5223142  52.0770673   0.8811275
  34.3837501  52.7751719   1.3860018  33.7423139  51.9219329   0.5247457
  34.3866368  52.1570839   0.9037550  32.8601227  48.3767048   7.1333657
  32.8549265  47.5046865   7.1376084  33.5662221  48.5755217   6.6603113
  32.9646231  48.2770922   7.0640693  26.5872120  48.1044032   6.5047477
  26.7315496  48.6845240   5.8690587  26.9347769  48.4820329   7.2097332
  26.6599581  48.2464736   6.5146472  28.7592037  47.3034200   4.2872609
  28.0115351  47.4965215   3.8820887  28.9133563  46.4779420   4.0496730
  28.6714465  47.2099312   4.1918015  25.6599875  56.2946804   3.3708504
  25.8089439  55.7349720   2.7181909  26.4399877  56.3738805   3.7541023
  25.7973969  56.2232369   3.3305453  28.1853176  56.4661447   4.6492995
  28.1096847  55.7970257   5.2043783  28.1143035  57.1679235   5.1633661
  28.1633783  56.4706354   4.8069843  28.9993814  41.1984751   5.1768013
  29.4566429  41.9308725   5.3040805  29.0750143  40.7751216   5.9355268
  29.0784784  41.2441989   5.3069089  21.2426806  41.4450571   6.2657456
  20.7068995  40.8330929   6.5818224  21.3044570  42.0198707   6.9191123
  21.1722438  41.4397499   6.4092883  33.4721140  34.3774626  -0.9538144
  33.5904708  34.8351090  -1.6870842  33.2983316  33.5719887  -1.2401927
  33.4640311  34.3268398  -1.1037211  26.8776192  43.1886855   2.0209837
  26.0872267  43.0078315   2.3427172  27.2736815  42.4113808   2.0040131
  26.8193069  43.0474316   2.0662385  32.2619879  50.8229285  -0.2530717
  31.5864880  50.5914517   0.2482670  32.2712255  50.2150468  -0.8788612
  32.1638383  50.6988210  -0.2714565  29.3914023  45.6647114   6.5033336
  29.3273164  46.5257071   6.3753472  29.5311210  45.3479107   5.7028887
  29.4029493  45.7447281   6.3661548  28.0733117  48.3579253   0.6449538
  27.6495366  48.5583753  -0.0911443  27.8977972  47.5108101   0.7573838
  27.9843997  48.2628035   0.5523229  27.5744810  59.8729766   3.1070996
  28.0640740  59.1740556   2.9246660  27.0029042  59.5753636   3.6947053
  27.5629340  59.7255990   3.1672037  23.3615561  48.8531305  -3.9222489
  23.5180181  48.7878108  -3.0666497  23.7016155  49.6279857  -4.1343809
  23.4348796  48.9580503  -3.8267895  29.8994706  48.2289188  -5.0529126
  30.4410252  47.7259570  -4.5890505  30.2141265  48.1754383  -5.8639641
  30.0259103  48.1468609  -5.1045314  33.7711814  52.4391836  12.0597786
  34.5846679  52.1676985  12.2202919  33.6106780  52.1399376  11.2557982
  33.8681762  52.3546762  11.9643192  31.0483975  43.1225493   4.9993175
  31.2625945  42.4836407   4.4456529  30.4317875  43.5671317   4.5701036
  30.9889305  43.0935637   4.8543606  19.9349823  46.0366255  -3.6061722
  20.3148788  46.4550800  -4.2701454  19.3605188  46.6179711  -3.2992878
  19.9061148  46.1844114  -3.6584981  33.2123063  44.7314558   5.9376482
  32.3999745  44.4240449   6.0189655  33.6712998  44.2513558   6.5019194
  33.1603448  44.6151051   6.0331076  30.4398704  36.2325429  -0.0119482
  29.5692262  36.2064150  -0.0586173  30.6939045  36.0602621  -0.8293637
  30.3492264  36.2035572  -0.1399346  30.3076571  46.1374630  10.7205184
  30.7776202  46.7616746  11.1073058  30.3538451  45.4691605  11.2798399
  30.3844447  46.1309310  10.8605256  27.4647845  38.2431657   1.4453988
  26.9486333  37.5511849   1.5705567  26.9041774  38.9102434   1.3916587
  27.3054358  38.2394915   1.4560054  29.5340078  38.7824617   3.2746840
  29.1471831  38.8073649   4.0560370  29.0473015  38.2166296   2.8221357
  29.4052587  38.7020368   3.3234744  33.7833058  53.4998126   7.3320627
  34.4212778  53.0058322   6.9983083  33.1407149  53.4275527   6.7472854
  33.7827284  53.4157135   7.1962982  35.5090058  45.3487272   1.8986543
  35.0817666  45.2613621   1.1434642  34.8716111  45.4565048   2.4841387
  35.3519665  45.3519932   1.8731984  29.1997220  35.6691603   5.5657100
  29.8290338  36.2051903   5.2878171  29.3683083  35.5768962   6.4170666
  29.3175014  35.7352965   5.6505628  29.0011135  40.4562797   7.8383512
  29.8284564  40.1847946   7.8942126  29.0218981  41.2523639   8.1947330
  29.1263985  40.5342552   7.8998695  33.8387314  54.1917934   3.9725984
  34.6279692  53.8406999   4.0928065  34.0130912  55.0054323   3.7102618
  33.9807596  54.2603792   3.9513852  23.5780625  47.6026660   1.0253773
  22.7368631  47.5030534   1.2332666  23.7870632  48.3722140   1.3768093
  23.4845317  47.7018703   1.1081088  21.0556191  45.2246197  -1.1461477
  20.6612889  45.2989209  -1.9211367  20.4996308  45.6104143  -0.5953115
  20.9159004  45.2927972  -1.1793817  32.6921138  38.2027491  -1.4657598
  32.8970732  38.1349799  -0.6200601  32.3647562  39.0086312  -1.5336420
  32.6736386  38.3113432  -1.3497943  27.3897289  45.5308059   0.2751370
  27.0860427  44.9764048   0.8761778  26.6876710  45.7100269  -0.2120596
  27.2413499  45.4752842   0.2921076  25.4515640  52.7457780   4.9823468
  25.3435995  52.7559842   5.8485526  25.6611422  53.5712560   4.7928422
  25.4665751  52.8698855   5.0827560  35.9454826  38.7559255  -1.9854832
  35.3329140  39.2429657  -1.6001101  36.0419001  38.0802746  -1.4417181
  35.8692724  38.7277564  -1.8475974  23.4689432  49.9970422   2.4445406
  22.8777366  50.6379921   2.4148421  24.2310456  50.4208040   2.4176705
  23.4937693  50.1546261   2.4360553  23.8650055  41.1572420   3.1113423
  24.3251537  41.2311350   3.8488547  23.9106162  41.9553674   2.7613244
  23.9400611  41.2866567   3.1686180  25.5133405  41.8239115   7.6785450
  25.1218970  41.1772462   8.1141228  25.6819268  42.4150550   8.2979706
  25.4804315  41.8153383   7.8348156  39.5879854  49.8276192   3.4422684
  39.6462978  50.2762841   4.1882660  38.9546322  50.2375005   3.0052764
  39.5031149  49.9549927   3.4875232  33.2278949  55.4479734  -0.1222570
  33.0298637  55.9370548  -0.8166359  32.6066660  55.6520975   0.4561563
  33.1066513  55.5496272  -0.1399347  27.2886927  47.2164631  -5.7812326
  28.0328972  47.6038907  -5.5429376  27.4347623  46.3722056  -5.6171838
  27.4197512  47.1495104  -5.7218356  29.2066502  39.0114890  -0.7480464
  28.3602548  39.1837698  -0.8739115  29.2037635  38.2064233  -0.4114636
  29.0813652  38.9175919  -0.7169337  30.2764803  42.7890104   0.1181594
  29.8024757  42.2631866   0.6286904  30.6482939  42.2419577  -0.4503545
  30.2614692  42.6306101   0.1096741  20.6537833  44.7861611   5.4865139
  21.5163446  44.6857320   5.4002469  20.3229616  44.2056320   4.9250711
  20.7323029  44.6853238   5.3910545  36.5401533  47.8492480   1.5288374
  36.2999756  47.0098895   1.5330801  37.0193541  47.9292647   2.2529148
  36.5753717  47.7373879   1.6363176  38.5406720  44.6293937  -0.5182367
  38.3016490  44.5889771  -1.3561582  38.7040622  45.4765089  -0.3916646
  38.5297024  44.7486022  -0.6228885  35.1452751  49.0143886   5.4122678
  35.8686949  48.5616413   5.2333698  34.8802713  49.2948552   4.6295006
  35.2134024  48.9894855   5.2701394  24.0139619  43.6104060   2.1475558
  23.3892689  43.6222452   1.5401510  23.6785214  44.0864235   2.7966798
  23.8725111  43.6822577   2.1532126  20.7265294  51.6704520   3.5879322
  20.1965219  50.9796959   3.6374297  20.9990388  51.6614705   2.7592030
  20.6890017  51.5671652   3.4726738  30.9271540  49.1127765   3.5617693
  30.3128533  48.5685815   3.8566329  31.4438825  48.5992001   3.0823510
  30.9127202  48.9564174   3.5341922  30.1667837  50.1832035   1.2961992
  29.7395445  49.5581753   0.8627427  30.1592782  49.9006956   2.1220999
  30.1026978  50.0484815   1.3541820  23.2830364  45.2197208   4.3650426
  23.4423851  44.4640532   4.7702148  23.1023258  45.7688147   5.0191164
  23.2795723  45.1891021   4.5213132  31.2250667  37.3858443   4.9201215
  30.7291229  37.5822117   4.2292782  31.9819729  37.7851111   4.7490017
  31.2637492  37.4736177   4.7921352  28.4953547  41.0600789   1.5104526
  28.5196034  40.5260901   0.8217306  28.7465021  40.5518098   2.1730117
  28.5363466  40.9061693   1.5069171  24.7754869  39.7871607   0.8910270
  24.8153241  40.2880814   1.6044978  23.9504534  39.8782001   0.6216193
  24.6594395  39.8753424   0.9560809  26.9584482  49.3532347   8.9930565
  26.1080113  49.4904062   9.1288210  27.1212610  48.6196126   9.4378267
  26.8568346  49.2646449   9.0786164  26.1969233  46.3032117   3.1884169
  25.3661162  46.4705935   2.9819417  26.1420750  45.9268068   3.9733055
  26.0658647  46.2721848   3.2732697  24.0053016  39.7941010   8.8240580
  24.6305719  39.2503143   9.0970012  23.5503496  39.3135928   8.2548370
  24.0301276  39.6430491   8.7802174  37.5788065  47.9770297   3.9153228
  38.1705905  48.6167548   3.9471426  38.0147059  47.2793334   4.2045295
  37.7306496  47.9688647   3.9634061  29.4081454  52.3987669   4.5411122
  28.9006545  52.9523516   4.9851752  29.1108101  52.4595959   3.7229896
  29.2886339  52.4893981   4.4859579  31.5743637  40.7640989   3.3835785
  31.9998708  40.3113516   2.7719311  30.9600630  40.2101060   3.6600572
  31.5472282  40.6154965   3.3340810  34.6037206  45.1915516  -3.7843629
  33.9328396  45.7345218  -3.9130564  35.2976956  45.6610371  -4.0261935
  34.6066073  45.3413787  -3.8388102  28.6523940  57.3312228   1.4468129
  28.4289594  56.5731057   1.8152155  28.1633783  57.3610249   0.7248569
  28.5467389  57.2234452   1.3944870  34.7665333  41.6471399  -0.8753256
  35.1192943  41.2201122  -0.2007457  33.9080135  41.5622243  -0.7452180
  34.6914778  41.5716140  -0.7558246  23.4649018  44.2778919  -2.8170410
  22.7461007  44.6943052  -2.5497546  23.8361381  44.8433158  -3.3678772
  23.4140950  44.4228200  -2.8587603  32.7648599  44.9106768   3.0731586
  32.7446526  44.7290063   3.9266365  32.8127800  45.7818786   3.0491170
  32.7683240  45.0123306   3.1954881  30.7094929  51.4993960   8.9980063
  30.6690784  50.8543637   8.4125218  31.5218247  51.4430577   9.3105475
  30.8238083  51.3952927   8.9577012  27.3002397  57.5512686  -1.0994787
  26.8862795  56.8886816  -1.4890945  27.9849771  57.6990545  -1.6199092
  27.3400768  57.4753344  -1.2338289  30.6667691  56.7102771  -0.3471170
  30.2683974  56.8205041  -1.1150350  30.0518910  56.9184837   0.2355390
  30.5166580  56.7576339  -0.3739871  36.1989393  36.7689811   0.0531056
  35.6920258  36.0618951  -0.0147766  36.9956827  36.4383000   0.1832133
  36.2416633  36.6162963   0.0630051  32.1153409  43.2756423  -4.0495280
  31.8867102  43.2989125  -4.8916922  32.3751486  42.4513890  -3.9300269
  32.1199597  43.1572503  -4.1570082  26.3972638  45.1290896   5.5529820
  25.8851541  44.5212079   5.9114852  26.2252134  45.8447489   6.0203796
  26.2962275  45.1454196   5.6746044  21.2438352  43.5728472   8.2032182
  21.0740943  44.2329847   7.6580389  20.8004302  43.7835033   8.9244671
  21.1537686  43.7014454   8.2293811  25.1698172  41.8132970  -2.7541084
  25.6455538  42.1750050  -3.3890903  24.6686771  42.4689437  -2.4740942
  25.1663531  41.9627159  -2.8064343  30.2741708  43.0515141   7.9932076
  30.8313138  42.8228951   7.3610541  29.9502773  43.8120807   7.7167288
  30.3088118  43.1298978   7.8588573  18.1440417  46.4775337   3.4620672
  17.5967136  45.8075983   3.5801540  18.9332795  46.1105185   3.5264139
  18.1792601  46.3240324   3.4889372  27.9924825  46.1382794   8.9584083
  28.7436152  46.4534471   9.2723637  28.1847402  45.9361965   8.1318005
  28.1316240  46.1550176   8.8827479  34.8410116  42.2656361  -3.7992122
  34.8404342  42.1105017  -2.9407845  34.6366296  43.1119348  -3.8550736
  34.8109893  42.3676981  -3.6804182  16.9027386  45.6896145   0.6166695
  16.7249148  45.2372754   1.3421610  16.6146409  46.4922307   0.8005172
  16.8340340  45.7418703   0.7510198  32.5650968  46.9453863  -0.1455915
  33.0604633  46.2276858  -0.1851895  31.7550743  46.6424660  -0.2601428
  32.5194861  46.7951509  -0.1682189  34.6302786  49.6957550   2.5421214
  35.0557858  49.1731972   1.9891639  34.2659706  50.2938387   2.0209837
  34.6389389  49.7067777   2.3830224  24.2656866  57.9921768   1.3018559
  24.5803425  58.8058156   1.3096341  24.6750280  57.6071986   1.9700719
  24.3724964  58.0550470   1.4022651  31.2181386  53.4091814  -1.1277629
  31.6892564  54.1232077  -0.9587643  31.5541564  52.8090564  -0.5917759
  31.3376501  53.4263279  -1.0245253  33.3058370  55.0193128  11.0514444
  33.4155336  54.2301688  11.4071191  33.6349267  54.9299064  10.2488782
  33.3710776  54.8898981  10.9856834  28.1350881  38.1819285   5.8280466
  28.2678786  37.3850278   6.1561442  28.5196034  38.7085688   6.4078742
  28.2107210  38.1419202   5.9623969  31.8555332  53.2009748   5.6350064
  31.3076278  52.5767632   5.3670129  32.3168361  53.3904020   4.9194143
  31.8422542  53.1368799   5.4900495  31.2083236  35.1049611   2.4261559
  30.4029200  34.9947341   2.7429398  31.0789971  35.2062067   1.5691425
  31.0703369  35.1033281   2.3469600  34.6649197  41.2695103   3.0201256
  34.0812185  41.7704309   2.6078824  34.9853491  40.7624659   2.3865580
  34.6262372  41.2686938   2.8659764  25.7939328  38.1778460   4.0758360
  26.3383741  37.8369587   4.6662702  25.8476263  39.0363922   4.2179645
  25.8828447  38.2533719   4.1840233  21.6069886  51.9394876   0.9497168
  22.2114744  51.8990710   0.3210989  21.3997199  52.7866028   0.9801224
  21.6658784  52.0582879   0.8613284  31.4213658  54.2060821   2.1659405
  32.2412032  54.0623787   2.4275700  31.1407736  54.8307020   2.7075843
  31.5010402  54.2771173   2.2847345  32.2777154  62.2340733   2.6835426
  32.1535851  62.8203178   3.3185245  32.9295439  61.7400928   2.9847701
  32.3550804  62.2479537   2.8221356  35.7158362  62.1520154   8.0964451
  35.8878866  62.0426049   8.9449732  36.2527720  62.7974560   7.8595643
  35.8203366  62.2312156   8.1869548  41.6533064  70.0724405  10.0473527
  42.4373480  70.1855253  10.4129269  41.4529658  69.2465542  10.2432213
  41.7399089  69.9671124  10.1307913  34.7718686  58.2830463   5.5784379
  34.0790482  57.8127443   5.8245110  35.3879013  58.0568768   6.1526086
  34.7603216  58.1797595   5.6993531  33.4959245  62.2495867   6.7211224
  34.2199217  62.2348898   7.2076118  33.5975381  62.9591223   6.2233192
  33.6177454  62.3520571   6.7190011  40.8704194  65.7294952  11.5860171
  40.0777175  66.0438464  11.7712790  40.9853121  65.9446420  10.7480955
  40.7699605  65.8078789  11.4898506  39.7959706  60.0899533   3.9223938
  39.4074139  59.6653750   3.2676129  39.1314405  60.3381682   4.4300965
  39.6406634  60.0638254   3.9011806  43.6186068  53.7874161   1.4347922
  43.9996580  53.1052332   1.8215797  42.8149352  53.4983763   1.2523587
  43.5562530  53.6441210   1.4651978  37.5777908  56.2928360  11.3010531
  37.2631349  57.0627922  11.0380093  37.2567841  55.7298616  10.7162758
  37.4836827  56.3238628  11.1751881  44.2542694  54.8296741   5.2468049
  44.9996286  54.6406551   4.8331474  43.8379999  55.3554978   4.6881905
  44.3027668  54.8798886   5.1032622  37.2094414  58.8925611  10.0395746
  36.3994189  59.1983390   9.9285588  37.6869100  59.6131193  10.1548330
  37.1597892  59.0440212  10.0402817  33.5438446  64.4288161   4.9095148
  34.0559542  64.7072414   4.2603908  33.2574788  65.1677455   5.2757961
  33.5773309  64.5790515   4.8685026  37.0622171  56.5214550   4.9696190
  36.8705368  56.5369684   5.8195613  37.9120767  56.7178224   4.9462844
  37.1597893  56.5528901   5.0919484  31.4469084  59.0505531   2.9480006
  31.3054576  58.1989472   3.0724514  31.7309647  59.0934192   2.1242212
  31.4676930  58.9305281   2.8447630  37.5604704  63.6229340   6.5047477
  37.7048079  64.2030548   5.8690587  37.9080352  64.0005637   7.2097332
  37.6332165  63.7650044   6.5146472  39.9726398  56.7170059   5.1768013
  40.4299012  57.4494033   5.3040805  40.0482727  56.2936524   5.9355268
  40.0517368  56.7627297   5.3069089  32.2159389  56.9635879   6.2657456
  31.6801579  56.3516237   6.5818224  32.2777154  57.5384015   6.9191123
  32.1455022  56.9582806   6.4092883  37.8508776  58.7072163   2.0209837
  37.0604851  58.5263623   2.3427172  38.2469399  57.9299115   2.0040131
  37.7925652  58.5659624   2.0662385  40.3646606  61.1832422   6.5033336
  40.3005747  62.0442378   6.3753472  40.5043794  60.8664415   5.7028887
  40.3762076  61.2632589   6.3661548  44.7444397  67.9577144  12.0597786
  45.5579262  67.6862293  12.2202919  44.5839363  67.6584684  11.2557982
  44.8414346  67.8732070  11.9643192  42.0216559  58.6410801   4.9993175
  42.2358529  58.0021715   4.4456529  41.4050458  59.0856625   4.5701036
  41.9621888  58.6120945   4.8543606  44.1855647  60.2499866   5.9376482
  43.3732329  59.9425756   6.0189655  44.6445582  59.7698866   6.5019194
  44.1336032  60.1336358   6.0331076  41.2809155  61.6559938  10.7205184
  41.7508786  62.2802054  11.1073058  41.3271035  60.9876913  11.2798399
  41.3577030  61.6494618  10.8605256  38.4380428  53.7616965   1.4453988
  37.9218917  53.0697156   1.5705567  37.8774357  54.4287742   1.3916587
  38.2786941  53.7580223   1.4560054  40.5072662  54.3009925   3.2746840
  40.1204415  54.3258957   4.0560370  40.0205599  53.7351604   2.8221357
  40.3785171  54.2205676   3.3234744  40.1729803  51.1876911   5.5657100
  40.8022921  51.7237211   5.2878171  40.3415666  51.0954269   6.4170666
  40.2907598  51.2538273   5.6505628  39.9743718  55.9748105   7.8383512
  40.8017148  55.7033254   7.8942126  39.9951564  56.7708947   8.1947330
  40.0996568  56.0527859   7.8998695  34.8382639  56.6757728   3.1113423
  35.2984120  56.7496658   3.8488547  34.8838745  57.4738982   2.7613244
  34.9133194  56.8051875   3.1686180  36.4865989  57.3424423   7.6785450
  36.0951554  56.6957770   8.1141228  36.6551851  57.9335858   8.2979706
  36.4536899  57.3338691   7.8348156  31.6270417  60.3046919   5.4865139
  32.4896030  60.2042628   5.4002469  31.2962200  59.7241628   4.9250711
  31.7055613  60.2038545   5.3910545  34.9872203  59.1289368   2.1475558
  34.3625273  59.1407760   1.5401510  34.6517797  59.6049543   2.7966798
  34.8457694  59.2007885   2.1532126  34.2562948  60.7382516   4.3650426
  34.4156435  59.9825840   4.7702148  34.0755842  61.2873455   5.0191164
  34.2528307  60.7076329   4.5213132  42.1983251  52.9043751   4.9201215
  41.7023812  53.1007425   4.2292782  42.9552313  53.3036419   4.7490017
  42.2370076  52.9921485   4.7921352  35.7487453  55.3056915   0.8910270
  35.7885824  55.8066122   1.6044978  34.9237117  55.3967309   0.6216193
  35.6326979  55.3938732   0.9560809  37.9317066  64.8717655   8.9930565
  37.0812696  65.0089370   9.1288210  38.0945193  64.1381434   9.4378267
  37.8300929  64.7831756   9.0786164  34.9785599  55.3126318   8.8240580
  35.6038303  54.7688451   9.0970012  34.5236079  54.8321236   8.2548370
  35.0033860  55.1615799   8.7802174  42.5476220  56.2826297   3.3835785
  42.9731292  55.8298823   2.7719311  41.9333213  55.7286368   3.6600572
  42.5204866  56.1340273   3.3340810  41.6827513  67.0179268   8.9980063
  41.6423367  66.3728945   8.4125218  42.4950831  66.9615885   9.3105475
  41.7970666  66.9138235   8.9577012  37.3705221  60.6476204   5.5529820
  36.8584124  60.0397387   5.9114852  37.1984717  61.3632797   6.0203796
  37.2694858  60.6639504   5.6746044  32.2170936  59.0913780   8.2032182
  32.0473526  59.7515155   7.6580389  31.7736886  59.3020341   8.9244671
  32.1270270  59.2199762   8.2293811  41.2474292  58.5700449   7.9932076
  41.8045722  58.3414259   7.3610541  40.9235357  59.3306115   7.7167288
  41.2820702  58.6484286   7.8588573  29.1173001  61.9960645   3.4620672
  28.5699720  61.3261291   3.5801540  29.9065379  61.6290493   3.5264139
  29.1525184  61.8425632   3.4889372  38.9657409  61.6568102   8.9584083
  39.7168736  61.9719779   9.2723637  39.1579985  61.4547273   8.1318005
  39.1048823  61.6735484   8.8827479  27.8759970  61.2081453   0.6166695
  27.6981731  60.7558062   1.3421610  27.5878992  62.0107615   0.8005172
  27.8072923  61.2604011   0.7510198  39.1083464  53.7004593   5.8280466
  39.2411370  52.9035586   6.1561442  39.4928617  54.2270996   6.4078742
  39.1839793  53.6604510   5.9623969  42.1815820  50.6234919   2.4261559
  41.3761783  50.5132649   2.7429398  42.0522555  50.7247375   1.5691425
  42.0435952  50.6218589   2.3469600  36.7671911  53.6963768   4.0758360
  37.3116324  53.3554895   4.6662702  36.8208847  54.5549229   4.2179645
  36.8561031  53.7719027   4.1840233  35.4109186  39.0898285  -4.9695502
  35.5829690  38.9804180  -4.1210221  35.9478544  39.7352691  -5.2064310
  35.5154190  39.1690287  -4.8790406  41.3483888  47.0102536  -3.0186426
  42.1324304  47.1233384  -2.6530684  41.1480482  46.1843673  -2.8227740
  41.4349913  46.9049256  -2.9352040  40.5655018  42.6673083  -1.4799782
  39.7727999  42.9816595  -1.2947163  40.6803945  42.8824552  -2.3178998
  40.4650429  42.7456920  -1.5761448  37.2728732  33.2306491  -1.7649422
  36.9582173  34.0006054  -2.0279860  36.9518665  32.6676747  -2.3497195
  37.1787651  33.2616760  -1.8908072  36.9045238  35.8303742  -3.0264208
  36.0945013  36.1361522  -3.1374365  37.3819924  36.5509324  -2.9111624
  36.8548716  35.9818343  -3.0257137  37.2555528  40.5607471  -6.5612476
  37.3998903  41.1408679  -7.1969366  37.6031176  40.9383768  -5.8562621
  37.3282989  40.7028175  -6.5513481  40.0597430  38.1210553  -6.5626618
  39.9956571  38.9820510  -6.6906481  40.1994618  37.8042546  -7.3631066
  40.0712900  38.2010720  -6.6998405  44.4395221  44.8955275  -1.0062167
  45.2530086  44.6240424  -0.8457034  44.2790187  44.5962815  -1.8101971
  44.5365169  44.8110201  -1.1016761  43.8806471  37.1877997  -7.1283471
  43.0683153  36.8803888  -7.0470299  44.3396406  36.7076997  -6.5640759
  43.8286856  37.0714490  -7.0328877  40.9759979  38.5938069  -2.3454769
  41.4459610  39.2180185  -1.9586895  41.0221859  37.9255044  -1.7861554
  41.0527854  38.5872749  -2.2054698  37.6267890  41.8095786  -4.0729388
  36.7763520  41.9467501  -3.9371743  37.7896017  41.0759565  -3.6281687
  37.5251753  41.7209888  -3.9873789  41.3778337  43.9557399  -4.0679891
  41.3374191  43.3107076  -4.6534735  42.1901655  43.8994016  -3.7554479
  41.4921490  43.8516366  -4.1082941  40.9425116  35.5078580  -5.0727877
  41.4996546  35.2792390  -5.7049412  40.6186181  36.2684246  -5.3492665
  40.9771526  35.5862417  -5.2071380  38.6608233  38.5946234  -4.1075870
  39.4119560  38.9097910  -3.7936316  38.8530809  38.3925404  -4.9341949
  38.7999647  38.6113615  -4.1832475
  79.1668249  79.1668249  79.1668249 109.4712190 109.4712190 109.4712190
